Membrane in water
40344
    1TMC1    C1    1   0.907   1.087  11.462 -0.3326 -0.3424 -0.6375
    1TMC1    C2    2   0.968   1.134  11.574  0.2584 -0.2968  0.2590
    1TMC1    C3    3   1.088   1.205  11.560  0.7349  0.6199  0.6263
    1TMC1    C4    4   0.966   1.097  11.335  0.2221 -0.4674  0.4310
    1TMC1    C5    5   1.085   1.166  11.327 -0.3036  1.0429 -0.3197
    1TMC1    C6    6   1.149   1.221  11.434 -0.3803 -0.2846  0.5072
    1TMC1     C    7   0.801   0.996  11.491  0.4545  0.3875 -0.3651
    1TMC1     O    8   0.758   0.992  11.605  0.1725  0.1454  0.2701
    1TMC1     H    9   0.922   1.121  11.672  0.4146 -1.1372  0.2172
    1TMC1    H1   10   0.924   1.042  11.251 -0.7851 -1.3228  1.4915
    1TMC1    H2   11   1.238   1.282  11.420 -1.0765  0.9023  1.2007
    1TMC1    C7   12   1.150   1.153  11.197  0.3232  0.9389  0.1029
    1TMC1    C8   13   1.135   1.245  11.688 -0.1192  0.1981  0.1703
    1TMC1    O1   14   1.132   1.057  11.123  0.0649 -0.5043  0.3957
    1TMC1    O2   15   1.106   1.174  11.783  0.0225  0.9172 -0.8055
    1TMC1    O3   16   1.206   1.268  11.169  0.3385  0.6153 -0.1675
    1TMC1    H3   17   1.180   1.335  11.236 -2.2636  1.3463 -1.9183
    1TMC1    O5   18   1.261   1.285  11.661  0.3172  0.1571  0.0296
    1TMC1    H5   19   1.256   1.370  11.612  0.3468 -0.0257 -0.2970
    2MPD2     C   20   0.386   0.727  11.320 -0.0334  0.4172 -0.2290
    2MPD2    C1   21   0.410   0.804  11.434 -0.1055  0.1911  0.1023
    2MPD2    C2   22   0.526   0.874  11.451  0.3415 -0.3808 -0.1798
    2MPD2    C3   23   0.626   0.871  11.357  0.1603 -0.1232 -0.1194
    2MPD2    C4   24   0.598   0.801  11.245 -0.4606 -0.2700 -0.1505
    2MPD2    C5   25   0.489   0.726  11.228 -0.1553  0.0054  0.1986
    2MPD2     H   26   0.541   0.929  11.542  2.0218  0.2917 -0.8640
    2MPD2    H1   27   0.663   0.804  11.158  0.4074 -0.5391  0.4973
    2MPD2    H2   28   0.304   0.659  11.305  0.0897  0.4767 -1.1809
    2MPD2    H3   29   0.483   0.664  11.139  1.3196  0.6491 -0.3468
    2MPD2     N   30   0.751   0.938  11.376 -0.2892 -0.5093  0.1873
    2MPD2    H5   31   0.820   0.920  11.305 -0.1663 -0.9545  0.4164
    2MPD2    N1   32   0.317   0.815  11.544  0.6742  0.5829  0.6761
    2MPD2    H7   33   0.349   0.856  11.630  0.0876  0.4392  0.9643
    3TMC1    C1   34   4.081   2.437  11.565 -0.0557  0.8535  0.0211
    3TMC1    C2   35   4.167   2.333  11.581  0.9100  0.0447 -0.3302
    3TMC1    C3   36   4.159   2.238  11.481  0.7775  0.2445  0.5604
    3TMC1    C4   37   3.983   2.440  11.464 -0.1846 -0.1617 -0.3461
    3TMC1    C5   38   3.987   2.341  11.370 -0.6263  0.6365  0.1357
    3TMC1    C6   39   4.078   2.239  11.367 -0.0394  0.3736  0.0811
    3TMC1     C   40   4.095   2.550  11.647  0.5307  0.3208  0.5024
    3TMC1     O   41   4.152   2.543  11.756  0.1000 -0.0571 -0.0111
    3TMC1     H   42   4.241   2.329  11.660  0.4301 -0.4187  0.0994
    3TMC1    H1   43   3.896   2.504  11.475  0.4805  1.0142 -1.8318
    3TMC1    H2   44   4.061   2.162  11.292  0.2252  1.1732 -0.7945
    3TMC1    C7   45   3.873   2.332  11.282 -0.1384 -0.0495  0.2055
    3TMC1    C8   46   4.273   2.153  11.478 -0.5481 -0.6614  0.6414
    3TMC1    O1   47   3.760   2.345  11.320  0.2497  0.0144 -0.5522
    3TMC1    O2   48   4.383   2.197  11.510 -0.8738  0.1080  0.1572
    3TMC1    O3   49   3.914   2.284  11.164  0.0778 -0.4061 -0.4080
    3TMC1    H3   50   4.008   2.301  11.143  0.0988  2.1971  1.9012
    3TMC1    O5   51   4.235   2.027  11.475  0.0582  0.7111 -0.0269
    3TMC1    H5   52   4.143   2.019  11.442  0.2952  0.3744 -0.6134
    4MPD2     C   53   4.085   3.058  11.689 -1.1650 -0.0057  0.5326
    4MPD2    C1   54   4.045   3.032  11.563  0.4225 -0.7337  0.3673
    4MPD2    C2   55   4.044   2.894  11.534 -0.2560 -0.6923  0.1301
    4MPD2    C3   56   4.081   2.795  11.619  0.1490  0.1646 -0.0580
    4MPD2    C4   57   4.125   2.831  11.741  0.6793  0.5802  0.3210
    4MPD2    C5   58   4.125   2.963  11.777  0.6338  0.7234  0.6715
    4MPD2     H   59   4.018   2.867  11.432  1.3567  1.9405 -1.0109
    4MPD2    H1   60   4.165   2.760  11.812 -2.2704 -1.7428 -0.3259
    4MPD2    H2   61   4.084   3.162  11.720  1.2410  0.3076 -0.4924
    4MPD2    H3   62   4.163   2.993  11.874 -0.1160 -1.7577  1.7551
    4MPD2     N   63   4.076   2.663  11.572 -0.6025  0.3821 -0.2107
    4MPD2    H5   64   4.043   2.639  11.479  2.0261 -1.9794 -0.5236
    4MPD2    N1   65   4.015   3.127  11.463  0.2902  0.3667 -0.2530
    4MPD2    H7   66   3.986   3.098  11.370 -1.0091 -1.5059  0.7432
    5TCq1    O1   67   4.486   4.382  11.881  0.2595  0.1829 -0.5036
    5TCq1    C1   68   4.555   4.334  11.776  0.0352  0.2717  0.5493
    5TCq1    O2   69   4.503   4.299  11.672 -0.2403 -0.0192  0.2040
    5TCq1    C2   70   4.688   4.393  11.799 -0.0715 -0.0056 -0.5285
    5TCq1    C3   71   4.727   4.411  11.934 -0.2390  0.0031 -0.5514
    5TCq1    C4   72   0.120   4.438  11.956 -0.6395 -0.4111  0.0499
    5TCq1    C5   73   0.204   4.453  11.843  0.0618  0.5205 -0.1429
    5TCq1    C6   74   0.160   4.448  11.713  0.6453 -0.3805 -0.0046
    5TCq1    C7   75   0.028   4.416  11.690 -0.2799  0.3658 -0.4527
    5TCq1    C8   76   0.248   4.392  11.611  0.4325  0.5307 -0.5796
    5TCq1    O4   77   0.295   4.284  11.634  0.2317 -0.1921  0.1174
    5TCq1    C9   78   0.177   4.447  12.088  0.7929  0.3182 -0.2677
    5TCq1    O5   79   0.301   4.471  12.094  0.4666 -0.1251  0.0023
    5TCq1    O6   80   0.101   4.428  12.184  0.2843  0.5428  0.1138
    5TCq1    H1   81   4.535   4.448  11.934 -0.3206  0.3468 -0.1788
    5TCq1    H2   82   4.668   4.392  12.022  0.5032  0.6397  0.0795
    5TCq1    H3   83   0.312   4.454  11.858  0.3289  1.2230 -2.1144
    5TCq1    H4   84   4.726   4.416  11.591 -0.1705 -2.1910 -0.5072
    6MPD2     C   85   0.352   4.553  11.299  0.7380  0.0099 -0.1415
    6MPD2    C1   86   0.333   4.452  11.385 -0.3047  0.8863  0.4542
    6MPD2    C2   87   0.363   4.321  11.343  0.2113  0.0936 -0.3946
    6MPD2    C3   88   0.409   4.294  11.215 -0.4193 -0.2113 -0.2143
    6MPD2    C4   89   0.430   4.400  11.133  0.2072 -0.0870 -0.2944
    6MPD2    C5   90   0.396   4.526  11.170 -0.3306  0.0067 -0.2552
    6MPD2     H   91   0.342   4.242  11.414  0.2535  0.4263 -0.0099
    6MPD2    H1   92   0.480   4.391  11.038  1.2802 -2.4294  0.4887
    6MPD2    H2   93   0.334   4.658  11.317  0.2281 -0.4141  1.8084
    6MPD2    H3   94   0.420   4.606  11.101  0.6605  0.9289  1.1391
    6MPD2     N   95   0.457   4.161  11.181 -0.3238  0.2618  0.2320
    6MPD2    H5   96   0.448   4.093  11.256 -1.6425  0.2386  0.0616
    6MPD2    N1   97   0.268   4.480  11.504  0.0290 -0.3536 -0.4433
    6MPD2    H7   98   0.223   4.571  11.510  2.0283  0.5606  0.6523
    7TCq1    O1   99   2.688   3.844  13.809 -0.2224 -0.5094  0.7049
    7TCq1    C1  100   2.615   3.950  13.792 -0.4025  0.0439 -0.9692
    7TCq1    O2  101   2.644   4.061  13.840  0.0418  0.5482  0.0714
    7TCq1    C2  102   2.559   3.948  13.653  0.1935 -0.7425 -0.9347
    7TCq1    C3  103   2.503   4.068  13.611 -0.6983 -0.1080 -0.7217
    7TCq1    C4  104   2.410   4.075  13.513  0.4393 -0.1416 -0.5140
    7TCq1    C5  105   2.367   3.961  13.461  0.4896  0.2687 -0.6062
    7TCq1    C6  106   2.412   3.840  13.511 -0.1749 -0.4948 -1.2821
    7TCq1    C7  107   2.517   3.830  13.600 -0.2245 -0.0700 -0.1349
    7TCq1    C8  108   2.360   3.714  13.464 -0.5699 -0.1849  0.3389
    7TCq1    O4  109   2.432   3.614  13.470 -0.3074 -0.2979  0.1042
    7TCq1    C9  110   2.346   4.199  13.481 -0.0543 -0.5310 -0.3876
    7TCq1    O5  111   2.395   4.298  13.543  0.2669  0.0129 -0.5949
    7TCq1    O6  112   2.251   4.204  13.389  0.2757 -0.0889  0.5687
    7TCq1    H1  113   2.642   3.759  13.795 -2.9696  1.0038  0.6131
    7TCq1    H2  114   2.532   4.159  13.662  1.7655  0.2984 -2.8805
    7TCq1    H3  115   2.295   3.973  13.381 -2.1402  0.6135  1.8414
    7TCq1    H4  116   2.549   3.735  13.642  2.0115  0.8999  0.3127
    8MPD2     C  117   2.013   3.417  13.230 -0.4568  0.0609 -0.4414
    8MPD2    C1  118   2.121   3.379  13.299 -1.0666 -0.0447  0.0001
    8MPD2    C2  119   2.208   3.484  13.343  0.6016  0.6481 -0.1667
    8MPD2    C3  120   2.185   3.618  13.317  0.3443  0.2584 -0.9946
    8MPD2    C4  121   2.083   3.650  13.235  0.2497  0.1952  0.2886
    8MPD2    C5  122   2.001   3.550  13.196 -0.6581 -0.0167  0.2154
    8MPD2     H  123   2.290   3.455  13.409  0.5473 -0.4446 -0.5748
    8MPD2    H1  124   2.050   3.751  13.216 -1.2563 -0.2748  0.3658
    8MPD2    H2  125   1.953   3.343  13.179 -0.5577  2.4139 -3.7684
    8MPD2    H3  126   1.910   3.585  13.147 -0.8170 -0.1344  0.4246
    8MPD2     N  127   2.252   3.725  13.377  0.2408 -0.2992  0.0538
    8MPD2    H5  128   2.193   3.808  13.378 -0.3802 -0.7185 -1.3526
    8MPD2    N1  129   2.134   3.245  13.330 -0.0524  0.4177  0.2711
    8MPD2    H7  130   2.060   3.184  13.297  0.8145 -0.0525 -0.7845
    9TMC1    C1  131   0.896   1.453  11.063  0.5858 -0.0018  0.4722
    9TMC1    C2  132   0.908   1.595  11.045  0.7056  0.1520 -0.3817
    9TMC1    C3  133   0.978   1.645  10.936 -1.0632 -0.2248  0.2941
    9TMC1    C4  134   0.958   1.368  10.977  0.5674  0.8750 -0.3652
    9TMC1    C5  135   1.027   1.423  10.875  0.3628  0.2847  0.2516
    9TMC1    C6  136   1.033   1.560  10.848 -0.2199  0.6042 -0.6696
    9TMC1     C  137   0.818   1.387  11.167 -0.6589 -0.5751 -0.8743
    9TMC1     O  138   0.795   1.270  11.159 -0.3090  0.2252  0.2413
    9TMC1     H  139   0.838   1.655  11.102  0.0979  0.2417 -1.2132
    9TMC1    H1  140   0.955   1.261  10.992 -2.7032  0.9561 -0.5235
    9TMC1    H2  141   1.099   1.598  10.771  0.9357 -1.3302 -0.6207
    9TMC1    C7  142   1.109   1.330  10.799 -0.5215  1.0600  0.0184
    9TMC1    C8  143   0.957   1.784  10.901  0.3898 -0.3397 -0.1750
    9TMC1    O1  144   1.201   1.271  10.853 -0.3854 -0.4217 -0.0551
    9TMC1    O2  145   0.956   1.829  10.785  0.2550  0.0636  0.3367
    9TMC1    O3  146   1.008   1.263  10.737  0.2979  0.0357  0.3323
    9TMC1    H3  147   0.922   1.309  10.738 -0.9965 -2.3482 -1.7245
    9TMC1    O5  148   0.931   1.860  11.009 -0.0821 -0.0566  1.1449
    9TMC1    H5  149   0.970   1.818  11.089  0.1491 -0.9776  0.5491
   10MPD2     C  150   0.606   1.316  11.364  0.2262  0.1596  0.0564
   10MPD2    C1  151   0.679   1.436  11.367  0.1295  0.1301 -0.2992
   10MPD2    C2  152   0.658   1.530  11.460 -0.5517 -0.1244  0.1597
   10MPD2    C3  153   0.566   1.508  11.557  0.1567 -1.0181  0.4239
   10MPD2    C4  154   0.499   1.391  11.561  1.2120  1.3851 -0.2506
   10MPD2    C5  155   0.522   1.292  11.467  0.4773  0.1579  0.3284
   10MPD2     H  156   0.701   1.629  11.458  2.5307 -1.4799  0.8960
   10MPD2    H1  157   0.424   1.382  11.639  1.2009 -2.1984 -0.6860
   10MPD2    H2  158   0.633   1.239  11.292 -0.3437  0.1309 -0.1239
   10MPD2    H3  159   0.479   1.193  11.477 -1.8961  1.1763  0.1427
   10MPD2     N  160   0.524   1.591  11.661  0.2800  0.1069  0.3490
   10MPD2    H5  161   0.446   1.559  11.717 -0.3688  1.0167 -0.0302
   10MPD2    N1  162   0.773   1.475  11.265  0.1371 -0.2894  0.5951
   10MPD2    H7  163   0.812   1.568  11.279  1.6452 -0.6207 -1.4414
   11TCq1    O1  164   1.453   2.025  13.680 -0.2517  0.1509 -0.0625
   11TCq1    C1  165   1.317   2.045  13.692 -0.0140 -0.1767 -0.3332
   11TCq1    O2  166   1.230   1.967  13.665 -0.4927  0.3708 -0.2814
   11TCq1    C2  167   1.295   2.177  13.747 -0.0394 -0.1020 -0.3873
   11TCq1    C3  168   1.376   2.283  13.721  0.6183 -0.0459  0.0879
   11TCq1    C4  169   1.336   2.402  13.753 -0.2032  0.2506  0.4457
   11TCq1    C5  170   1.221   2.420  13.825 -0.9566 -0.1533  0.0822
   11TCq1    C6  171   1.133   2.313  13.844  0.0435  0.7836 -0.1793
   11TCq1    C7  172   1.172   2.189  13.804 -0.0858  0.4287  0.5889
   11TCq1    C8  173   1.010   2.334  13.926  0.7713 -0.1079 -0.4750
   11TCq1    O4  174   1.017   2.414  14.016  0.2516 -0.6160 -0.0572
   11TCq1    C9  175   1.414   2.523  13.718 -0.4725 -0.4091 -0.3429
   11TCq1    O5  176   1.515   2.513  13.646  0.4755 -0.0593 -0.4131
   11TCq1    O6  177   1.361   2.635  13.741  0.4539 -0.0930 -0.3196
   11TCq1    H1  178   1.509   2.098  13.715  0.1682  0.3274 -1.1071
   11TCq1    H2  179   1.470   2.271  13.668 -0.9029 -0.1716 -2.5972
   11TCq1    H3  180   1.198   2.521  13.858  1.0892 -0.5904  2.7863
   11TCq1    H4  181   1.094   2.117  13.824  1.1173 -0.6033  1.5209
   12MPD2     C  182   0.746   2.325  14.077 -0.0601 -0.0921  0.0785
   12MPD2    C1  183   0.770   2.276  13.946 -0.8266  0.6857 -1.4316
   12MPD2    C2  184   0.667   2.216  13.882 -0.6006  0.5851 -0.3608
   12MPD2    C3  185   0.555   2.187  13.945 -0.0675 -0.1693  0.3069
   12MPD2    C4  186   0.536   2.227  14.076  0.1112  0.2037  0.2051
   12MPD2    C5  187   0.634   2.296  14.146  0.0633 -0.3765  0.1020
   12MPD2     H  188   0.688   2.190  13.778  0.4151  0.2331 -0.0733
   12MPD2    H1  189   0.443   2.210  14.129 -0.7534  0.8201 -1.1322
   12MPD2    H2  190   0.818   2.375  14.139  0.6875 -0.1768 -0.7132
   12MPD2    H3  191   0.614   2.332  14.246 -2.5030  0.1013 -0.5783
   12MPD2     N  192   0.445   2.120  13.883 -0.2611 -0.5466 -0.1356
   12MPD2    H5  193   0.372   2.082  13.943  0.3762  1.0898  1.6874
   12MPD2    N1  194   0.895   2.272  13.881  0.1848  0.5808  0.5910
   12MPD2    H7  195   0.896   2.226  13.790 -1.8273  1.0285  0.3456
   13TCq1    O1  196   0.854   2.392  11.211  0.0901  0.2257 -0.1250
   13TCq1    C1  197   0.914   2.276  11.183 -0.0836 -0.7148  0.4488
   13TCq1    O2  198   1.008   2.268  11.107 -0.0085  1.0786 -0.4099
   13TCq1    C2  199   0.848   2.156  11.241  0.0771 -0.0111 -0.3099
   13TCq1    C3  200   0.925   2.047  11.246  0.1309 -0.2142  0.2515
   13TCq1    C4  201   0.867   1.932  11.305  0.6892 -0.2157  0.4085
   13TCq1    C5  202   0.737   1.917  11.342  0.3988 -0.3495  0.6932
   13TCq1    C6  203   0.656   2.031  11.330 -0.2941  0.4602  0.3871
   13TCq1    C7  204   0.709   2.149  11.271  0.6339  0.4060  0.3726
   13TCq1    C8  205   0.532   2.042  11.404  0.4176 -0.7030  0.1642
   13TCq1    O4  206   0.481   2.152  11.398  0.0582 -0.1437  0.4649
   13TCq1    C9  207   0.951   1.809  11.306 -0.5112 -1.2002 -0.2348
   13TCq1    O5  208   1.046   1.812  11.221 -0.4469 -0.1266 -0.6093
   13TCq1    O6  209   0.896   1.702  11.345  0.0680 -0.4836 -0.2724
   13TCq1    H1  210   0.812   2.396  11.299  3.1557 -0.2290  1.3746
   13TCq1    H2  211   1.026   2.043  11.208  0.3593  0.7497  0.7680
   13TCq1    H3  212   0.705   1.828  11.395  0.0610 -0.1430  0.8355
   13TCq1    H4  213   0.653   2.242  11.279 -1.4037 -1.0848  3.4283
   14MPD2     C  214   0.287   1.791  11.511 -0.8273 -0.3290  0.0064
   14MPD2    C1  215   0.346   1.916  11.515 -0.1986  0.4819 -0.0586
   14MPD2    C2  216   0.270   2.030  11.553 -0.8808 -0.0906  0.0516
   14MPD2    C3  217   0.136   2.020  11.602 -0.4150 -0.2981  0.6810
   14MPD2    C4  218   0.086   1.892  11.595 -0.8035 -0.2636 -0.3806
   14MPD2    C5  219   0.163   1.785  11.553  0.2018 -0.5910  0.5169
   14MPD2     H  220   0.323   2.124  11.560 -0.9671 -0.0673  0.3479
   14MPD2    H1  221   4.724   1.869  11.623 -0.7513 -0.7732 -0.6031
   14MPD2    H2  222   0.333   1.700  11.474  0.0817  0.6848 -1.3980
   14MPD2    H3  223   0.119   1.687  11.556  1.9673 -1.2377  4.8626
   14MPD2     N  224   0.062   2.138  11.641 -0.0943  0.0203 -0.2294
   14MPD2    H5  225   0.122   2.219  11.641  1.3683 -1.0720  1.1177
   14MPD2    N1  226   0.474   1.925  11.458  0.1923 -0.4602 -0.7596
   14MPD2    H7  227   0.535   1.844  11.458 -1.1984 -1.4942  0.5727
   15TCq1    O1  228   2.855   0.091   2.018 -0.0762  0.9462 -0.8385
   15TCq1    C1  229   2.925   0.091   1.907 -0.3605 -0.8186  0.0054
   15TCq1    O2  230   2.968   4.729   1.851  0.5889  0.6307  0.2548
   15TCq1    C2  231   2.899   0.222   1.844  0.2646  0.3295  0.1903
   15TCq1    C3  232   2.918   0.335   1.925  0.3015 -0.1458 -0.0128
   15TCq1    C4  233   2.889   0.460   1.877 -0.4836 -0.1777 -0.5760
   15TCq1    C5  234   2.851   0.471   1.744 -0.1951 -0.2425 -0.5958
   15TCq1    C6  235   2.855   0.358   1.666 -0.0796  0.3214 -0.2128
   15TCq1    C7  236   2.869   0.230   1.716  0.2498 -0.4614 -0.5981
   15TCq1    C8  237   2.797   0.365   1.534 -0.1025  0.4640 -0.4382
   15TCq1    O4  238   2.829   0.277   1.451  0.4338 -0.2513 -0.1147
   15TCq1    C9  239   2.894   0.578   1.961  0.6800 -0.4547  0.6105
   15TCq1    O5  240   2.872   0.690   1.909  0.0654  0.0138 -0.6624
   15TCq1    O6  241   2.928   0.559   2.078 -0.1850 -0.3985  0.8953
   15TCq1    H1  242   2.812   0.179   2.027  1.7455  1.7585  0.1021
   15TCq1    H2  243   2.943   0.328   2.030  1.5222 -1.5677 -0.4160
   15TCq1    H3  244   2.831   0.570   1.706 -1.0922 -0.6010 -1.0534
   15TCq1    H4  245   2.875   0.136   1.662  3.5667 -1.3798  1.3812
   16MPD2     C  246   2.493   0.544   1.424  0.4578 -0.7137  0.0893
   16MPD2    C1  247   2.612   0.479   1.406  0.6639 -0.6154 -1.2316
   16MPD2    C2  248   2.632   0.431   1.280 -0.2817  0.2186 -0.2959
   16MPD2    C3  249   2.537   0.436   1.182  0.1292  0.3364 -1.1595
   16MPD2    C4  250   2.420   0.503   1.200  0.1244 -0.5908 -0.0766
   16MPD2    C5  251   2.402   0.562   1.322  0.3445 -0.3370 -0.4107
   16MPD2     H  252   2.731   0.391   1.265 -0.3588 -0.1408  0.1620
   16MPD2    H1  253   2.340   0.517   1.128  0.7884 -0.2883 -0.7558
   16MPD2    H2  254   2.463   0.587   1.519  2.2249 -2.4036  1.3925
   16MPD2    H3  255   2.303   0.605   1.335  0.7661  0.0159  1.5114
   16MPD2     N  256   2.566   0.365   1.063 -0.2066  0.2271  0.4195
   16MPD2    H5  257   2.653   0.313   1.054  0.4034  1.1950  0.6253
   16MPD2    N1  258   2.693   0.455   1.523  0.0556 -0.1086 -0.3095
   16MPD2    H7  259   2.660   0.485   1.614 -0.4270 -0.6492 -0.3045
   17TMC1    C1  260   4.457   4.523  10.896 -0.3431 -0.1802 -0.1864
   17TMC1    C2  261   4.528   4.413  10.884 -0.0617 -0.2570 -0.2765
   17TMC1    C3  262   4.512   4.337  10.771 -0.3357 -1.0390 -0.3071
   17TMC1    C4  263   4.346   4.550  10.807  0.7125 -0.4811  0.2350
   17TMC1    C5  264   4.334   4.469  10.700  0.4208 -0.7411 -0.1097
   17TMC1    C6  265   4.416   4.359  10.677 -0.1568  0.1274 -0.7448
   17TMC1     C  266   4.487   4.620  11.000 -0.1814 -0.2517  0.8185
   17TMC1     O  267   4.395   4.690  11.046  0.4094  0.2838 -0.1537
   17TMC1     H  268   4.608   4.385  10.952 -0.6957 -0.4892  0.3713
   17TMC1    H1  269   4.294   4.645  10.808  0.3838 -0.6571 -0.1995
   17TMC1    H2  270   4.401   4.297  10.589  0.8818 -0.7482 -0.2997
   17TMC1    C7  271   4.197   4.441  10.660 -0.1253  0.5043 -0.0873
   17TMC1    C8  272   4.568   4.207  10.775  0.0413 -0.6253 -0.8495
   17TMC1    O1  273   4.174   4.362  10.572  0.0354 -0.1041 -0.0317
   17TMC1    O2  274   4.543   4.120  10.855  0.1381  0.1369 -0.2424
   17TMC1    O3  275   4.141   4.421  10.781  0.0624  0.1534 -0.0740
   17TMC1    H3  276   4.157   4.490  10.849  0.2936  0.3289 -0.3011
   17TMC1    O5  277   4.608   4.200  10.645  0.2856 -0.1510 -0.6331
   17TMC1    H5  278   4.615   4.287  10.601  0.2109  1.0597  1.7644
   18MPD2     C  279   4.619   0.075  11.176  0.7292 -0.0990  0.5217
   18MPD2    C1  280   4.683   0.005  11.074 -0.3312 -0.7714  0.5880
   18MPD2    C2  281   0.068   0.047  11.021  0.1759 -0.8371 -0.2170
   18MPD2    C3  282   0.132   0.153  11.078 -0.4945 -0.9706  0.4959
   18MPD2    C4  283   0.082   0.215  11.183  0.0966 -0.2098  0.3880
   18MPD2    C5  284   4.695   0.185  11.226  0.3381  0.4607 -0.0587
   18MPD2     H  285   0.096   4.739  10.928  2.1948 -0.5021  0.2217
   18MPD2    H1  286   0.135   0.290  11.240  0.9381  1.7962 -2.9914
   18MPD2    H2  287   4.530   0.039  11.227 -0.2040 -0.9089 -1.6878
   18MPD2    H3  288   4.643   0.244  11.301 -0.5614  0.4737 -0.6920
   18MPD2     N  289   0.270   0.180  11.030 -0.0957  0.1364  0.1663
   18MPD2    H5  290   0.313   0.265  11.064 -0.0929 -1.1588  3.4455
   18MPD2    N1  291   4.621   4.640  11.008  0.0210 -0.4274  0.1638
   18MPD2    H7  292   4.676   4.597  10.935 -0.8032 -4.0908  1.6857
   19TMC2    C1  293   1.860   2.165  14.200  0.1857  0.3085  0.1322
   19TMC2    C2  294   1.813   2.283  14.240 -1.0098  0.2236 -0.0480
   19TMC2    C3  295   1.699   2.274  14.308 -0.2516  0.2412 -0.2508
   19TMC2    C4  296   1.799   2.048  14.225 -0.2676  0.3289 -0.3054
   19TMC2    C5  297   1.687   2.040  14.303 -0.7925 -0.0446 -0.0239
   19TMC2    C6  298   1.634   2.159  14.350  0.2536 -1.2022 -0.5199
   19TMC2     C  299   1.989   2.168  14.134  0.2675  0.2447 -0.3827
   19TMC2     O  300   2.016   2.274  14.078  0.5804 -0.3440 -0.4067
   19TMC2     H  301   1.864   2.376  14.216  1.9908 -2.0511 -2.5278
   19TMC2    H1  302   1.830   1.958  14.173 -1.1214 -0.1423  0.0003
   19TMC2    H2  303   1.543   2.172  14.408  1.7429 -1.1755  1.7940
   19TMC2    C7  304   1.592   1.932  14.282 -0.2831 -0.3806  0.0124
   19TMC2    C8  305   1.656   2.393  14.385 -0.6080 -0.3654  0.1250
   19TMC2    O1  306   1.636   1.817  14.289 -0.4026  0.4519 -0.0381
   19TMC2    O2  307   1.600   2.393  14.495 -0.4881  0.7101 -0.5624
   19TMC2    O5  308   1.690   2.500  14.315 -0.0080  0.3969  0.7598
   19TMC2    H5  309   1.709   2.475  14.222 -0.6533  1.0036  0.4687
   20MPD2     C  310   2.278   2.154  14.095  0.0091  0.3053  0.3066
   20MPD2    C1  311   2.207   2.046  14.150  0.9261 -0.0990  0.3077
   20MPD2    C2  312   2.280   1.931  14.180 -0.4058 -0.6335  1.0091
   20MPD2    C3  313   2.420   1.927  14.167  0.6185  0.1519 -0.6032
   20MPD2    C4  314   2.497   2.038  14.125 -0.4844 -0.8828  0.2142
   20MPD2    C5  315   2.420   2.151  14.087  0.0544 -0.2430  0.5123
   20MPD2     H  316   2.238   1.844  14.229 -1.6011 -1.3621 -1.3439
   20MPD2    H1  317   2.605   2.041  14.122 -0.4019 -2.6231  1.6105
   20MPD2    H2  318   2.241   2.246  14.050 -0.0913 -0.1481 -0.5165
   20MPD2    H3  319   2.469   2.221  14.021  0.9101 -1.0641  0.2663
   20MPD2     N  320   2.494   1.811  14.206  0.7484 -0.9056 -0.8410
   20MPD2    H5  321   2.594   1.827  14.202  1.0322 -2.6931 -0.3903
   20MPD2    N1  322   2.067   2.058  14.168  0.6036 -0.8570 -0.7439
   20MPD2    H7  323   2.012   1.986  14.214  0.2412 -0.0308  0.1346
   21TMC2    C1  324   4.268   2.421  14.568 -0.7582  0.4050 -0.5139
   21TMC2    C2  325   4.321   2.292  14.586 -0.7367  0.0121 -0.1729
   21TMC2    C3  326   4.285   2.220  14.695  0.2081 -0.2229  0.5722
   21TMC2    C4  327   4.167   2.466  14.650 -1.0836 -0.3677 -0.1652
   21TMC2    C5  328   4.122   2.379  14.749 -0.5941  0.9566 -0.4082
   21TMC2    C6  329   4.192   2.266  14.784 -0.0579  0.1878  0.0981
   21TMC2     C  330   4.368   2.518  14.521  0.1058  0.3084 -0.1388
   21TMC2     O  331   4.479   2.477  14.511  0.3689  0.2526 -0.4910
   21TMC2     H  332   4.398   2.261  14.516 -0.4071 -2.8339  1.4626
   21TMC2    H1  333   4.140   2.570  14.657 -0.7902 -0.2754 -0.4050
   21TMC2    H2  334   4.176   2.219  14.880  0.8616 -2.1489 -0.9034
   21TMC2    C7  335   4.026   2.432  14.839 -0.3417 -0.0936  0.3602
   21TMC2    C8  336   4.384   2.124  14.737  0.1579 -0.3697  0.0657
   21TMC2    O1  337   4.039   2.410  14.964 -0.7404  0.3864 -0.1158
   21TMC2    O2  338   4.493   2.107  14.682 -0.3312 -0.2283 -0.0943
   21TMC2    O5  339   4.313   2.033  14.812 -0.1025 -0.3333  0.4127
   21TMC2    H5  340   4.217   2.055  14.815 -0.1818 -0.8094  1.7159
   22MPD2     C  341   4.495   2.980  14.336  0.3467 -0.1337 -0.1593
   22MPD2    C1  342   4.578   2.880  14.398  0.4639  0.0122  1.0435
   22MPD2    C2  343   4.514   2.764  14.428 -0.5548 -0.4230  0.0609
   22MPD2    C3  344   4.377   2.758  14.434  0.6560  0.6551  1.3660
   22MPD2    C4  345   4.297   2.867  14.404 -0.5176 -0.0937  0.5443
   22MPD2    C5  346   4.353   2.977  14.346 -0.0295  0.2410  0.2504
   22MPD2     H  347   4.581   2.682  14.450  0.9875  0.4111 -1.5169
   22MPD2    H1  348   4.189   2.861  14.408 -0.4855 -0.2773  1.1674
   22MPD2    H2  349   4.536   3.069  14.291  1.3026 -1.2480 -1.4875
   22MPD2    H3  350   4.292   3.056  14.304  1.1465  1.4693  0.8491
   22MPD2     N  351   4.312   2.645  14.494  0.2835 -0.7088 -0.3854
   22MPD2    H5  352   4.211   2.657  14.498  0.5724  1.5095  0.3000
   22MPD2    N1  353   4.720   2.890  14.402  0.3607  0.4017 -0.1592
   22MPD2    H7  354   0.027   2.820  14.459 -2.9840 -1.3495  0.4756
   23TMC2    C1  355   0.871   3.979  14.632  0.1346 -0.0714  0.3462
   23TMC2    C2  356   0.873   4.117  14.640 -0.2265  0.4332  0.5481
   23TMC2    C3  357   0.763   4.177  14.586  0.1519  0.2138 -0.5313
   23TMC2    C4  358   0.779   3.903  14.573 -0.0411  0.5166 -0.0838
   23TMC2    C5  359   0.666   3.968  14.528 -0.3360  0.4087  0.3876
   23TMC2    C6  360   0.651   4.103  14.537 -0.5197  0.3100  0.2795
   23TMC2     C  361   0.978   3.902  14.679 -0.2923  0.6988  0.7047
   23TMC2     O  362   0.935   3.812  14.744  0.3825 -0.3889 -0.5686
   23TMC2     H  363   0.954   4.176  14.681 -0.4628  1.6653 -0.7447
   23TMC2    H1  364   0.803   3.801  14.545 -1.3752  0.9177 -2.7500
   23TMC2    H2  365   0.576   4.150  14.475 -0.2272 -0.9138 -1.0073
   23TMC2    C7  366   0.607   3.899  14.416 -0.2988  0.0250  0.3722
   23TMC2    C8  367   0.799   4.291  14.514  0.3150  0.0099  0.7021
   23TMC2    O1  368   0.683   3.826  14.352 -0.6431  0.1579  0.0989
   23TMC2    O2  369   0.916   4.314  14.484  0.5817 -0.4265  0.0457
   23TMC2    O5  370   0.689   4.346  14.457  0.2976 -0.3332  0.2869
   23TMC2    H5  371   0.615   4.342  14.522 -2.2762 -0.9036 -2.6607
   24MPD2     C  372   1.447   3.782  14.834  0.0324 -0.2327 -0.4427
   24MPD2    C1  373   1.329   3.735  14.878 -0.6517  0.7071 -0.4648
   24MPD2    C2  374   1.215   3.790  14.828  0.1453 -0.3842 -0.2663
   24MPD2    C3  375   1.218   3.892  14.739 -0.0569 -0.3829  0.4474
   24MPD2    C4  376   1.342   3.941  14.701  0.5446 -0.3369 -0.4646
   24MPD2    C5  377   1.452   3.889  14.753 -0.1577 -0.9486  0.2997
   24MPD2     H  378   1.119   3.755  14.867 -0.5843  0.5589 -1.2203
   24MPD2    H1  379   1.363   4.023  14.633 -3.5339  1.1613  0.0659
   24MPD2    H2  380   1.539   3.747  14.879 -1.1365 -1.2720  1.1641
   24MPD2    H3  381   1.551   3.925  14.725 -1.0374  2.7181  1.9290
   24MPD2     N  382   1.105   3.953  14.675  0.4134  0.0318 -0.4394
   24MPD2    H5  383   1.123   4.035  14.619 -2.7063  0.6864 -0.4621
   24MPD2    N1  384   1.329   3.627  14.970  0.2100  0.5004  0.8731
   24MPD2    H7  385   1.246   3.615  15.028 -0.7354 -0.1170 -0.6101
   25TMC2    C1  386   4.705   0.041  11.679 -0.2783 -0.3649  0.0262
   25TMC2    C2  387   0.086   0.093  11.680  0.2008  0.4789  0.5035
   25TMC2    C3  388   0.126   0.163  11.789 -1.0000 -0.8487  1.1706
   25TMC2    C4  389   4.610   0.056  11.777  0.0245  0.7871  0.3196
   25TMC2    C5  390   4.654   0.128  11.890 -0.2551 -0.3638  0.5683
   25TMC2    C6  391   0.042   0.176  11.903  0.6658  0.0464 -0.0000
   25TMC2     C  392   4.671   4.710  11.549 -0.1348 -0.2547 -0.1520
   25TMC2     O  393   0.020   4.642  11.503  0.0634 -0.2236 -0.3271
   25TMC2     H  394   0.126   0.122  11.583 -0.5554 -1.6870 -0.4438
   25TMC2    H1  395   4.518   4.738  11.774  0.9612 -0.5954 -2.3876
   25TMC2    H2  396   0.060   0.256  11.973 -0.0208  2.0092 -2.0912
   25TMC2    C7  397   4.547   0.166  11.987  0.6088  0.0280 -0.3818
   25TMC2    C8  398   0.215   0.274  11.757 -0.1636 -0.1275  0.9721
   25TMC2    O1  399   4.584   0.195  12.099 -0.1003 -0.6205  0.5127
   25TMC2    O2  400   0.233   0.320  11.648 -0.7386 -0.1032 -0.1501
   25TMC2    O5  401   0.316   0.248  11.842  0.1280  0.4580 -0.1750
   25TMC2    H5  402   0.302   0.174  11.905  1.3656 -1.3386 -1.9903
   26MPD2     C  403   4.283   4.477  11.291  0.1207  0.1322  0.3821
   26MPD2    C1  404   4.237   4.590  11.356  0.2198 -0.5081 -0.0350
   26MPD2    C2  405   4.323   4.666  11.439  0.3186 -0.0840 -0.4929
   26MPD2    C3  406   4.457   4.638  11.443 -0.1365 -0.9387 -0.1594
   26MPD2    C4  407   4.504   4.525  11.377 -0.4354 -0.3343 -1.0148
   26MPD2    C5  408   4.415   4.447  11.311  0.7365  0.1500  0.1454
   26MPD2     H  409   4.283   0.009  11.496  0.7336  0.6950 -1.3373
   26MPD2    H1  410   4.604   4.485  11.384  0.4832  2.2439  0.6531
   26MPD2    H2  411   4.221   4.408  11.236 -0.7230 -0.8764  2.6072
   26MPD2    H3  412   4.447   4.354  11.266  0.5082 -0.2083  0.7376
   26MPD2     N  413   4.537   4.721  11.523 -0.4190 -0.4627  0.0314
   26MPD2    H5  414   4.491   0.046  11.585 -0.6950 -0.5171 -0.1163
   26MPD2    N1  415   4.100   4.620  11.340  0.4562  0.1688  1.2913
   26MPD2    H7  416   4.040   4.557  11.287  2.4609 -0.2528 -0.4423
   27TMC2    C1  417   3.525   3.359  12.008  0.3608 -0.3548 -0.4092
   27TMC2    C2  418   3.569   3.428  11.895  0.4479  0.4953  0.1078
   27TMC2    C3  419   3.603   3.560  11.895 -0.2333 -0.6515 -0.8334
   27TMC2    C4  420   3.530   3.427  12.127  0.0233 -0.4803 -0.5172
   27TMC2    C5  421   3.566   3.561  12.126 -0.3033 -0.3915  0.2121
   27TMC2    C6  422   3.610   3.626  12.012  0.7728 -0.0587  0.9182
   27TMC2     C  423   3.442   3.241  11.978  0.3615 -0.1517 -0.3998
   27TMC2     O  424   3.457   3.202  11.860  0.2436 -0.3586 -0.5762
   27TMC2     H  425   3.584   3.377  11.801  0.5263  1.9904 -0.6889
   27TMC2    H1  426   3.489   3.375  12.213  1.5812  1.2856  1.3023
   27TMC2    H2  427   3.638   3.730  12.011 -0.2527  0.2068  0.0366
   27TMC2    C7  428   3.528   3.645  12.240 -0.3982  0.0538  0.0699
   27TMC2    C8  429   3.647   3.616  11.773  0.0842  0.0379 -0.7384
   27TMC2    O1  430   3.550   3.766  12.227 -0.5465 -0.2508  0.2725
   27TMC2    O2  431   3.624   3.563  11.661  0.3167  0.0762  0.1578
   27TMC2    O5  432   3.769   3.671  11.803  0.1557 -0.2739  0.1365
   27TMC2    H5  433   3.779   3.700  11.896  1.0560 -1.4930  0.4238
   28MPD2     C  434   3.072   2.922  12.100 -0.3174  0.0445  0.5281
   28MPD2    C1  435   3.094   2.999  12.210  0.3704  0.1922 -0.2501
   28MPD2    C2  436   3.204   3.081  12.209  0.7313  0.1089  0.3321
   28MPD2    C3  437   3.280   3.094  12.093  0.4321 -0.0638  0.0995
   28MPD2    C4  438   3.265   3.009  11.988 -0.3684 -0.1132 -0.2578
   28MPD2    C5  439   3.158   2.924  11.990  0.1992 -0.0924  0.5673
   28MPD2     H  440   3.228   3.154  12.286 -1.8673  0.9931  0.2947
   28MPD2    H1  441   3.325   3.011  11.898  2.4376  0.6912  1.6461
   28MPD2    H2  442   2.986   2.857  12.097  0.7930 -1.4497  1.0172
   28MPD2    H3  443   3.139   2.850  11.914 -1.0212  1.6913 -0.8290
   28MPD2     N  444   3.370   3.203  12.086 -0.3401  0.6087  0.2576
   28MPD2    H5  445   3.367   3.272  12.161 -1.6314  0.6343  0.1866
   28MPD2    N1  446   2.995   2.992  12.315  0.5352 -0.2803  0.6295
   28MPD2    H7  447   2.913   2.935  12.299  2.4636 -2.1735 -2.4978
   29TMC2    C1  448   2.887   0.925  14.393  0.1911  0.5826 -0.9000
   29TMC2    C2  449   2.926   0.935  14.522  0.7779  0.2191  0.0824
   29TMC2    C3  450   2.954   1.055  14.574 -0.0880  0.8580  0.0797
   29TMC2    C4  451   2.901   1.024  14.302  0.2209  0.4172 -0.4185
   29TMC2    C5  452   2.931   1.150  14.357 -0.5676 -0.3665  0.4582
   29TMC2    C6  453   2.953   1.169  14.491 -0.8464  0.6976 -0.6327
   29TMC2     C  454   2.828   0.800  14.346  0.1492  0.4369 -0.3271
   29TMC2     O  455   2.878   0.693  14.384 -0.3718  0.6912  0.2522
   29TMC2     H  456   2.914   0.847  14.585 -0.0279  0.4420  0.2357
   29TMC2    H1  457   2.894   1.016  14.194 -1.2550  1.5702 -0.4189
   29TMC2    H2  458   2.957   1.272  14.525 -0.0296  0.3754  0.2597
   29TMC2    C7  459   2.979   1.251  14.262 -0.8757 -0.5435  1.0477
   29TMC2    C8  460   2.929   1.082  14.719 -0.0854 -0.5632 -0.4104
   29TMC2    O1  461   2.914   1.255  14.162  0.1670 -0.0383  0.7041
   29TMC2    O2  462   2.842   1.024  14.784  0.2915 -0.3779  0.5762
   29TMC2    O5  463   2.974   1.207  14.733 -0.4927  0.2801  0.1917
   29TMC2    H5  464   3.048   1.231  14.674 -0.5450 -1.0386 -0.4237
   30MPD2     C  465   2.540   0.574  13.981  1.5694 -0.0012 -0.5565
   30MPD2    C1  466   2.645   0.516  14.052 -0.6221 -0.1810  0.3727
   30MPD2    C2  467   2.718   0.602  14.136 -0.2106  0.2165 -0.1825
   30MPD2    C3  468   2.691   0.738  14.146 -0.1140  0.7710  0.1561
   30MPD2    C4  469   2.583   0.787  14.075  0.4089  0.0834 -0.5428
   30MPD2    C5  470   2.508   0.701  13.992 -0.1696  0.1447  0.2648
   30MPD2     H  471   2.803   0.569  14.194  0.7879  0.5520 -1.4586
   30MPD2    H1  472   2.541   0.885  14.094 -1.1745 -0.7699  0.3997
   30MPD2    H2  473   2.472   0.515  13.920  0.7597 -0.7124  1.0175
   30MPD2    H3  474   2.416   0.743  13.954 -0.6664 -1.9792 -0.8626
   30MPD2     N  475   2.746   0.829  14.235  0.1279 -0.1309  0.0963
   30MPD2    H5  476   2.699   0.919  14.230 -0.0816 -0.2830 -0.6571
   30MPD2    N1  477   2.679   0.377  14.040 -0.2432 -0.1636  0.0003
   30MPD2    H7  478   2.758   0.344  14.096  0.0564  0.2055 -0.2014
   31TMC2    C1  479   0.689   3.991  15.134  1.2656 -1.0194  0.6776
   31TMC2    C2  480   0.553   4.000  15.110 -0.5288  0.5253  0.1727
   31TMC2    C3  481   0.468   3.998  15.224  0.2196 -0.1961  0.2979
   31TMC2    C4  482   0.739   3.998  15.263 -0.0033 -0.0206 -0.4141
   31TMC2    C5  483   0.649   3.986  15.365 -0.4844  0.6576 -0.0275
   31TMC2    C6  484   0.514   3.994  15.353 -0.0345  1.3511  0.2684
   31TMC2     C  485   0.767   4.071  15.038 -0.8548 -0.3748 -0.0024
   31TMC2     O  486   0.699   4.140  14.962  0.2464 -0.9040 -0.1264
   31TMC2     H  487   0.505   4.003  15.013  1.6311  1.2470 -0.8741
   31TMC2    H1  488   0.846   4.005  15.282 -0.3061 -1.3183  1.8662
   31TMC2    H2  489   0.442   3.984  15.434 -2.1723 -1.3261 -1.9534
   31TMC2    C7  490   0.710   4.012  15.499 -0.0552 -0.0009  0.5636
   31TMC2    C8  491   0.336   3.976  15.200  0.1468  0.4571 -0.3701
   31TMC2    O1  492   0.825   3.974  15.520 -0.2333  0.1517 -0.3177
   31TMC2    O2  493   0.290   3.918  15.105 -0.3155 -0.4273  0.0324
   31TMC2    O5  494   0.261   4.049  15.287  0.1676 -0.8520 -0.1144
   31TMC2    H5  495   0.309   4.117  15.340  1.1407 -2.2714  0.8432
   32MPD2     C  496   1.190   4.310  14.851 -0.2324 -0.9254 -0.4487
   32MPD2    C1  497   1.060   4.350  14.853  0.3021 -0.6636 -0.0056
   32MPD2    C2  498   0.964   4.274  14.927 -0.1872  0.3903  0.1129
   32MPD2    C3  499   0.998   4.151  14.979  0.0477 -1.1769  0.7364
   32MPD2    C4  500   1.129   4.119  14.971 -0.2738 -0.4751  0.3451
   32MPD2    C5  501   1.226   4.189  14.904 -0.4131  0.2796 -0.2256
   32MPD2     H  502   0.860   4.304  14.932 -0.9357 -2.2736  0.4007
   32MPD2    H1  503   1.156   4.019  15.003  0.9154 -0.3392 -0.2564
   32MPD2    H2  504   1.260   4.371  14.795 -1.4560 -0.6841 -1.7191
   32MPD2    H3  505   1.328   4.154  14.891 -0.3365  0.2997  0.3220
   32MPD2     N  506   0.906   4.064  15.051 -0.5515 -0.3696 -0.2618
   32MPD2    H5  507   0.952   3.984  15.094 -0.1712 -0.3075 -0.5579
   32MPD2    N1  508   1.031   4.472  14.787 -0.6543 -0.3029 -0.1202
   32MPD2    H7  509   1.111   4.501  14.732 -0.2438  1.8911  1.6286
   33TMC2    C1  510   0.494   1.157  11.042  0.0382  0.1569  0.7191
   33TMC2    C2  511   0.387   1.151  11.127  0.1353 -0.1579  0.1664
   33TMC2    C3  512   0.320   1.263  11.161  0.1119 -0.6524 -0.2582
   33TMC2    C4  513   0.548   1.280  10.998 -0.0044  0.0360 -0.1321
   33TMC2    C5  514   0.475   1.390  11.043  0.1917  0.6589  0.0990
   33TMC2    C6  515   0.370   1.386  11.132  0.3010  0.4845  0.7901
   33TMC2     C  516   0.536   1.028  10.987  0.7956 -0.1554 -0.1536
   33TMC2     O  517   0.441   0.945  10.973 -0.1031 -0.9291  0.3074
   33TMC2     H  518   0.347   1.056  11.160  0.3613 -1.1286 -2.3451
   33TMC2    H1  519   0.630   1.292  10.928 -0.0762  0.1587 -0.1955
   33TMC2    H2  520   0.302   1.467  11.155 -0.3236  0.3342 -0.5080
   33TMC2    C7  521   0.527   1.530  11.015 -0.0842 -0.1250 -0.3312
   33TMC2    C8  522   0.227   1.255  11.261 -0.1094 -0.2345 -0.3276
   33TMC2    O1  523   0.634   1.548  10.960  0.3080  0.0120  0.2644
   33TMC2    O2  524   0.243   1.184  11.363  0.1780 -0.2015  0.1883
   33TMC2    O5  525   0.110   1.292  11.198 -0.3923  0.5016 -0.7258
   33TMC2    H5  526   0.128   1.318  11.105 -2.2951  0.2757 -1.1621
   34MPD2     C  527   0.890   0.719  10.771 -0.0481  0.2521 -0.5881
   34MPD2    C1  528   0.759   0.690  10.807 -0.6222 -0.2213 -0.2393
   34MPD2    C2  529   0.680   0.794  10.862  0.0898  0.3232 -0.3538
   34MPD2    C3  530   0.738   0.918  10.884 -0.3063 -0.2567 -0.5077
   34MPD2    C4  531   0.870   0.935  10.858  0.5087  0.3823  0.1750
   34MPD2    C5  532   0.944   0.833  10.796  0.3169  0.3237  0.2888
   34MPD2     H  533   0.576   0.780  10.890  0.2257  0.0085 -0.0063
   34MPD2    H1  534   0.928   1.023  10.884  2.5200 -1.4749  1.9639
   34MPD2    H2  535   0.950   0.639  10.729 -0.9096 -1.7861  2.0168
   34MPD2    H3  536   1.046   0.854  10.766  0.6769 -0.1575  1.1838
   34MPD2     N  537   0.668   1.028  10.942 -0.4499  0.1302  0.4259
   34MPD2    H5  538   0.716   1.112  10.974 -1.0199  0.5299  0.2380
   34MPD2    N1  539   0.710   0.559  10.778  0.4612 -0.5442 -0.5963
   34MPD2    H7  540   0.763   0.498  10.717 -1.5810 -0.6558 -2.2366
   35TMC2    C1  541   1.950   2.674  11.219  0.5489 -0.5448  0.1202
   35TMC2    C2  542   1.973   2.808  11.230  0.4863 -0.0283 -0.1407
   35TMC2    C3  543   1.864   2.883  11.257 -0.9275 -0.1143 -0.5685
   35TMC2    C4  544   1.827   2.622  11.239  0.5097 -0.1998  0.4250
   35TMC2    C5  545   1.719   2.696  11.256  0.1573 -0.1114  0.4287
   35TMC2    C6  546   1.731   2.834  11.257 -0.2943 -0.2546 -0.4553
   35TMC2     C  547   2.053   2.590  11.275  0.3256 -0.4382 -0.5316
   35TMC2     O  548   2.059   2.480  11.227  0.0655  0.1498  0.1437
   35TMC2     H  549   2.065   2.862  11.214  1.2415 -1.3132 -0.2004
   35TMC2    H1  550   1.813   2.514  11.242 -3.1869  0.2722  0.6962
   35TMC2    H2  551   1.646   2.901  11.265  0.5910  0.8812 -0.5323
   35TMC2    C7  552   1.590   2.634  11.278 -0.2616 -0.8457  0.2735
   35TMC2    C8  553   1.882   3.025  11.245 -0.7207 -0.1717  0.0934
   35TMC2    O1  554   1.587   2.516  11.245 -0.2771  0.6243  0.2295
   35TMC2    O2  555   1.791   3.088  11.191  0.2137  0.5176 -0.6902
   35TMC2    O5  556   1.964   3.065  11.342  0.2266  0.4144 -0.1196
   35TMC2    H5  557   1.996   2.992  11.400 -1.1281  1.0431  1.4263
   36MPD2     C  558   2.418   2.465  11.612  0.3857  1.0988  0.3320
   36MPD2    C1  559   2.395   2.594  11.623 -0.5506 -0.2044  0.5872
   36MPD2    C2  560   2.285   2.650  11.551  0.5069  0.4425 -0.5286
   36MPD2    C3  561   2.222   2.577  11.454  0.6392 -0.4941 -0.4512
   36MPD2    C4  562   2.266   2.445  11.430  0.6802 -0.4596 -0.0841
   36MPD2    C5  563   2.356   2.392  11.515  0.3496  0.2181 -0.2974
   36MPD2     H  564   2.256   2.753  11.567  1.5917  0.4129  1.5807
   36MPD2    H1  565   2.230   2.376  11.354  0.3877 -1.0392  0.5818
   36MPD2    H2  566   2.505   2.419  11.658 -0.0013  0.0450  0.0078
   36MPD2    H3  567   2.399   2.293  11.504 -0.3807  0.0203 -1.4346
   36MPD2     N  568   2.113   2.645  11.386  0.2114  0.5397  0.3825
   36MPD2    H5  569   2.095   2.741  11.411 -1.0793  0.2057  0.7579
   36MPD2    N1  570   2.480   2.670  11.704 -0.2014 -0.0559 -0.4361
   36MPD2    H7  571   2.536   2.618  11.769  0.6279 -2.1872 -2.8539
   37TMC2    C1  572   4.446   3.335  11.827  0.1341 -0.0444 -0.2968
   37TMC2    C2  573   4.388   3.257  11.724 -0.6492 -1.0665  0.1213
   37TMC2    C3  574   4.451   3.260  11.603  0.8012 -0.2664 -0.1418
   37TMC2    C4  575   4.528   3.441  11.801 -0.0735 -0.0053 -0.9018
   37TMC2    C5  576   4.578   3.445  11.672 -0.5521 -0.5892 -0.8672
   37TMC2    C6  577   4.532   3.357  11.567  0.4084 -0.8807  0.0424
   37TMC2     C  578   4.380   3.308  11.955  0.3301 -0.5798  0.3568
   37TMC2     O  579   4.280   3.240  11.963 -0.6506  0.0353  0.3682
   37TMC2     H  580   4.308   3.186  11.743 -1.6342 -0.4599 -1.7429
   37TMC2    H1  581   4.538   3.519  11.875 -0.0714 -1.4099  0.5636
   37TMC2    H2  582   4.586   3.344  11.474 -2.0209  1.3910 -1.6726
   37TMC2    C7  583   4.684   3.538  11.647  0.5357  0.1263 -0.1456
   37TMC2    C8  584   4.396   3.182  11.503  0.7164  0.0305 -0.1636
   37TMC2    O1  585   0.005   3.579  11.748  0.3181 -0.3153  0.4609
   37TMC2    O2  586   4.395   3.217  11.386 -0.1481 -0.2416 -0.7557
   37TMC2    O5  587   4.372   3.057  11.552 -1.0028  0.1007  0.5872
   37TMC2    H5  588   4.399   3.054  11.646  0.6817  0.5059  0.1265
   38MPD2     C  589   4.291   3.427  12.446 -0.5269 -0.1989  0.3781
   38MPD2    C1  590   4.427   3.420  12.420  0.4611  0.4510  0.5137
   38MPD2    C2  591   4.476   3.410  12.295  0.1202 -0.0793  0.3867
   38MPD2    C3  592   4.393   3.385  12.190 -0.5139  0.3286 -0.0497
   38MPD2    C4  593   4.257   3.378  12.216  0.3003 -0.1860  0.1248
   38MPD2    C5  594   4.207   3.406  12.341  0.3583 -0.5147 -0.1962
   38MPD2     H  595   4.583   3.395  12.282  0.0902  1.0458 -1.1239
   38MPD2    H1  596   4.188   3.367  12.133 -0.8059 -0.6267  1.1075
   38MPD2    H2  597   4.251   3.432  12.547  1.6394 -1.6922  1.3174
   38MPD2    H3  598   4.100   3.409  12.355  0.0731 -0.7395 -2.4723
   38MPD2     N  599   4.446   3.363  12.063  0.2857 -0.0585  0.0432
   38MPD2    H5  600   4.546   3.380  12.058 -0.5613  4.6992 -0.1071
   38MPD2    N1  601   4.528   3.413  12.524 -0.3704  0.3067 -0.0097
   38MPD2    H7  602   4.618   3.377  12.492  0.4325  2.2342  0.0567
   39TMC2    C1  603   2.864   4.681   1.192 -0.2309  0.4502 -0.4690
   39TMC2    C2  604   2.903   4.559   1.151  0.4044 -0.0350  0.8833
   39TMC2    C3  605   3.034   4.517   1.175 -0.0533 -0.4914  0.0705
   39TMC2    C4  606   2.948   0.025   1.258 -0.5584 -0.4691 -0.1812
   39TMC2    C5  607   3.078   4.724   1.278  0.1962 -0.1210 -0.4138
   39TMC2    C6  608   3.119   4.594   1.252 -0.5425 -0.6185 -0.3756
   39TMC2     C  609   2.719   4.711   1.175  0.3236  0.0805  0.4092
   39TMC2     O  610   2.662   4.676   1.071 -0.4906 -0.7635 -0.0148
   39TMC2     H  611   2.827   4.502   1.098  0.8553  0.6520 -0.5135
   39TMC2    H1  612   2.900   0.122   1.266 -1.0011 -0.5925 -1.3252
   39TMC2    H2  613   3.221   4.564   1.273  0.2987  0.5156 -2.8541
   39TMC2    C7  614   3.156   0.056   1.387  0.3314 -0.3075 -0.0611
   39TMC2    C8  615   3.072   4.380   1.154  0.1265  0.3990  0.0114
   39TMC2    O1  616   3.247   4.729   1.436 -0.1812 -0.0926  0.2805
   39TMC2    O2  617   3.174   4.335   1.204 -0.3204 -0.4378  0.0138
   39TMC2    O5  618   2.993   4.325   1.064  0.1785 -0.1949 -0.5478
   39TMC2    H5  619   2.938   4.390   1.015  0.8286  0.3777 -0.5190
   40MPD2     C  620   2.504   0.139   1.429 -0.9454  0.7935  0.5944
   40MPD2    C1  621   2.538   0.094   1.302 -0.1133 -0.3823 -0.7341
   40MPD2    C2  622   2.440   0.087   1.205  0.1301 -0.0847  0.5953
   40MPD2    C3  623   2.322   0.149   1.220 -0.1736  0.5641 -0.2631
   40MPD2    C4  624   2.299   0.222   1.340 -0.2451 -0.4433  0.4271
   40MPD2    C5  625   2.390   0.217   1.442  1.0216 -0.4582  0.3659
   40MPD2     H  626   2.450   0.036   1.109 -2.6697  1.7666 -0.6753
   40MPD2    H1  627   2.217   0.292   1.345  0.0196 -0.0153 -1.4926
   40MPD2    H2  628   2.586   0.154   1.497  0.2137  4.4095 -1.5472
   40MPD2    H3  629   2.376   0.272   1.534 -1.2407  3.0102 -2.0027
   40MPD2     N  630   2.227   0.171   1.119 -0.1099  0.1987  0.2220
   40MPD2    H5  631   2.141   0.222   1.139  1.4363  2.9829 -0.3564
   40MPD2    N1  632   2.674   0.051   1.279  0.2749  0.0001 -0.0920
   40MPD2    H7  633   2.743   0.066   1.352  1.3165  0.8228 -1.2339
   41TMC2    C1  634   1.266   3.816  13.219  0.3450 -0.3185 -0.2815
   41TMC2    C2  635   1.242   3.727  13.118  0.0364 -0.3141  0.5456
   41TMC2    C3  636   1.344   3.695  13.038 -0.1150 -0.0364 -0.5886
   41TMC2    C4  637   1.385   3.886  13.234 -0.0755  0.3862 -0.1656
   41TMC2    C5  638   1.487   3.859  13.141  0.4987 -0.3390 -0.2152
   41TMC2    C6  639   1.467   3.766  13.043  0.3894 -1.0618 -0.9162
   41TMC2     C  640   1.172   3.826  13.327  0.3071 -0.3560  0.2618
   41TMC2     O  641   1.050   3.817  13.299 -0.2238 -0.2253  0.2319
   41TMC2     H  642   1.144   3.681  13.111 -0.6278  1.2497 -0.5020
   41TMC2    H1  643   1.406   3.955  13.315  0.9214 -0.8953  0.6528
   41TMC2    H2  644   1.549   3.744  12.975  1.5420  0.9876 -0.2049
   41TMC2    C7  645   1.613   3.924  13.161  0.2617 -0.4166  0.3297
   41TMC2    C8  646   1.329   3.586  12.936  0.3920  0.1456 -0.3435
   41TMC2    O1  647   1.616   3.987  13.263 -0.3061 -0.0981  1.0217
   41TMC2    O2  648   1.403   3.564  12.843  0.1839 -0.2167 -0.1961
   41TMC2    O5  649   1.253   3.488  12.991  0.6027  0.1894 -0.1281
   41TMC2    H5  650   1.211   3.520  13.074  0.1545 -3.0721  0.8993
   42MPD2     C  651   1.046   3.810  13.588  1.1863  0.0658  0.3352
   42MPD2    C1  652   1.184   3.819  13.572  0.1700  0.7089  0.6335
   42MPD2    C2  653   1.262   3.810  13.678  0.5464  0.4250  0.1014
   42MPD2    C3  654   1.200   3.799  13.798 -0.6327 -0.5090  0.1739
   42MPD2    C4  655   1.061   3.792  13.813  0.1651  0.0912  0.2025
   42MPD2    C5  656   0.985   3.800  13.710  0.2032  0.2624 -0.5268
   42MPD2     H  657   1.369   3.815  13.662  0.2816 -0.3746 -1.9583
   42MPD2    H1  658   1.010   3.783  13.908  0.8377  0.4185  0.5956
   42MPD2    H2  659   0.975   3.836  13.510 -0.3908  2.1042  2.4287
   42MPD2    H3  660   0.877   3.803  13.722  0.1510  1.8891 -1.3786
   42MPD2     N  661   1.283   3.765  13.912 -0.0374 -0.9751  0.3164
   42MPD2    H5  662   1.239   3.736  13.999 -0.2378  1.4717  1.0362
   42MPD2    N1  663   1.247   3.821  13.441  0.4526  0.0207  0.0906
   42MPD2    H7  664   1.347   3.835  13.429  0.3309 -0.0753 -1.0239
   43TMC2    C1  665   2.537   1.679   0.586  0.2246  0.0461 -0.4306
   43TMC2    C2  666   2.506   1.664   0.719 -0.9352 -0.8265  0.1890
   43TMC2    C3  667   2.537   1.769   0.793 -0.3999  0.0840  0.5550
   43TMC2    C4  668   2.575   1.801   0.531  0.6108  0.0526  0.0915
   43TMC2    C5  669   2.592   1.905   0.609  0.0138 -0.0456 -0.6372
   43TMC2    C6  670   2.578   1.887   0.745 -0.4302 -0.5471  0.5679
   43TMC2     C  671   2.599   1.569   0.526  0.3735 -0.4060 -0.4349
   43TMC2     O  672   2.641   1.487   0.606  0.0339 -0.9707 -0.0905
   43TMC2     H  673   2.488   1.569   0.766  1.1801 -0.5625  1.5519
   43TMC2    H1  674   2.605   1.819   0.429 -0.6142 -0.1864 -0.3143
   43TMC2    H2  675   2.587   1.961   0.823 -3.1147  1.0208 -0.5878
   43TMC2    C7  676   2.730   1.940   0.581  0.4454 -0.0129 -0.4941
   43TMC2    C8  677   2.611   1.740   0.922 -0.1808 -0.2514 -0.2565
   43TMC2    O1  678   2.765   1.949   0.461  0.5431 -0.5167 -0.2876
   43TMC2    O2  679   2.732   1.752   0.933  0.2153  0.1150  0.1956
   43TMC2    O5  680   2.542   1.643   0.985 -1.1061 -0.2391  0.7108
   43TMC2    H5  681   2.450   1.642   0.954 -0.9998  0.1725  0.3852
   44MPD2     C  682   2.726   1.270   0.139 -1.1502 -0.1598  0.3342
   44MPD2    C1  683   2.795   1.286   0.259 -0.0785 -0.1870 -0.0582
   44MPD2    C2  684   2.760   1.393   0.346  0.2287  0.2905 -0.2228
   44MPD2    C3  685   2.650   1.473   0.307  0.4981  0.2466 -0.0889
   44MPD2    C4  686   2.591   1.464   0.181 -0.9657 -0.4535  0.6406
   44MPD2    C5  687   2.636   1.366   0.101 -0.4882 -0.3581  0.1360
   44MPD2     H  688   2.808   1.405   0.442 -0.4465  0.8231  0.0461
   44MPD2    H1  689   2.501   1.518   0.153 -0.6080 -0.0799  0.2178
   44MPD2    H2  690   2.740   1.197   0.060 -0.9875  1.1889 -0.9016
   44MPD2    H3  691   2.593   1.360   0.001 -2.7539  2.2571  0.9493
   44MPD2     N  692   2.600   1.578   0.384 -0.2446  0.4093 -0.1326
   44MPD2    H5  693   2.531   1.638   0.341  0.9599  1.9805  0.1449
   44MPD2    N1  694   2.904   1.199   0.296  0.0482 -0.1439  0.4033
   44MPD2    H7  695   2.958   1.225   0.378  0.8090  1.2019 -0.5089
   45TMC2    C1  696   3.897   2.878  10.061  0.2263  0.9303  0.4351
   45TMC2    C2  697   3.998   2.816  10.131  0.1423 -0.4742 -0.2041
   45TMC2    C3  698   4.042   2.873  10.246 -0.2400 -0.3733  0.0234
   45TMC2    C4  699   3.858   3.008  10.095 -0.1155  0.0487  0.3180
   45TMC2    C5  700   3.908   3.062  10.207  0.0120  0.4157 -0.7646
   45TMC2    C6  701   4.001   2.994  10.282 -0.2114 -0.0791 -0.1128
   45TMC2     C  702   3.834   2.796   9.963  0.8353  0.1042  0.3174
   45TMC2     O  703   3.849   2.676   9.967 -0.4815  0.6964  0.2416
   45TMC2     H  704   4.044   2.727  10.089  0.2928  0.4322 -1.9708
   45TMC2    H1  705   3.776   3.061  10.048  0.2404  0.9348  0.6875
   45TMC2    H2  706   4.048   3.044  10.366 -0.1180 -0.2098 -0.0889
   45TMC2    C7  707   3.898   3.209  10.226  0.3360  0.4344  0.3425
   45TMC2    C8  708   4.152   2.805  10.301  0.0822 -0.2189 -0.8294
   45TMC2    O1  709   3.938   3.258  10.331 -0.7384  0.4904 -0.7435
   45TMC2    O2  710   4.167   2.685  10.283  0.2444  0.4493  0.5318
   45TMC2    O5  711   4.224   2.878  10.383 -0.0236 -0.2337  0.5934
   45TMC2    H5  712   4.222   2.974  10.364  3.4697  0.1750  2.3039
   46MPD2     C  713   3.657   2.682   9.731 -0.7902 -0.1066 -0.5181
   46MPD2    C1  714   3.667   2.815   9.772  0.0516  0.6426 -0.2883
   46MPD2    C2  715   3.600   2.908   9.697  0.2522  0.5899 -0.3991
   46MPD2    C3  716   3.528   2.882   9.582  0.2608 -0.3415  0.2514
   46MPD2    C4  717   3.520   2.749   9.542  0.1106  0.3624 -0.0758
   46MPD2    C5  718   3.585   2.652   9.620  0.0679  0.0968 -0.3578
   46MPD2     H  719   3.591   3.009   9.735  1.1731 -0.1454  1.7256
   46MPD2    H1  720   3.467   2.716   9.453 -0.0404 -1.3990  0.6758
   46MPD2    H2  721   3.699   2.602   9.791  0.1980  1.0643  0.3521
   46MPD2    H3  722   3.575   2.548   9.593 -1.3240  0.3363 -0.7733
   46MPD2     N  723   3.468   2.994   9.520  0.7195  0.7015  0.5068
   46MPD2    H5  724   3.470   3.083   9.570  0.8469  0.5696  0.7362
   46MPD2    N1  725   3.754   2.864   9.877  0.5048  0.9212  0.1242
   46MPD2    H7  726   3.755   2.966   9.885 -0.1361  0.9132  0.3262
   47TMC2    C1  727   0.674   3.353   9.181  0.4512  0.9222  0.2614
   47TMC2    C2  728   0.646   3.446   9.084  0.3524 -0.5715  0.0880
   47TMC2    C3  729   0.520   3.498   9.072  0.6176 -0.4557 -0.1096
   47TMC2    C4  730   0.573   3.307   9.267  0.1828  0.2366 -0.0422
   47TMC2    C5  731   0.450   3.372   9.256 -0.9469 -0.5766 -0.1233
   47TMC2    C6  732   0.422   3.460   9.160 -0.2767 -0.0283  0.7307
   47TMC2     C  733   0.808   3.305   9.197  0.2432 -0.3347  0.1926
   47TMC2     O  734   0.875   3.350   9.107 -0.1218  0.4336  0.1218
   47TMC2     H  735   0.725   3.505   9.039  0.0157  0.1998  0.4936
   47TMC2    H1  736   0.596   3.234   9.343 -0.0975  1.9755  1.7185
   47TMC2    H2  737   0.320   3.497   9.163 -0.1436  0.2991  1.1594
   47TMC2    C7  738   0.343   3.312   9.326 -0.5059 -1.0605  0.0792
   47TMC2    C8  739   0.501   3.612   8.985 -0.2968 -0.7793 -0.1072
   47TMC2    O1  740   0.234   3.373   9.328  0.1612  0.3826  0.1786
   47TMC2    O2  741   0.596   3.688   8.967 -0.3203 -0.0084  0.1272
   47TMC2    O5  742   0.372   3.640   8.970 -0.0296  0.5516 -0.2829
   47TMC2    H5  743   0.310   3.564   8.968  0.3179  0.1978  2.8515
   48MPD2     C  744   1.047   3.138   9.225  0.3151  0.0094  0.6823
   48MPD2    C1  745   0.971   3.182   9.330  0.3129 -0.1268  0.1531
   48MPD2    C2  746   1.005   3.151   9.463  0.1182  0.2416  0.6792
   48MPD2    C3  747   1.127   3.092   9.492 -0.0115  0.0735  0.4748
   48MPD2    C4  748   1.208   3.062   9.382 -0.4469  0.2205  0.3896
   48MPD2    C5  749   1.161   3.069   9.252  0.1171  0.0812  0.3327
   48MPD2     H  750   0.947   3.174   9.551 -0.9802 -1.2418  0.3327
   48MPD2    H1  751   1.298   3.007   9.405  0.2126 -0.6512 -4.3833
   48MPD2    H2  752   1.023   3.154   9.121 -0.7574  0.1035  0.9422
   48MPD2    H3  753   1.214   3.015   9.174  0.6154  1.3641 -0.2172
   48MPD2     N  754   1.165   3.044   9.625 -0.1109  0.2664  0.4715
   48MPD2    H5  755   1.089   3.056   9.690 -0.9605  0.6578 -0.5913
   48MPD2    N1  756   0.844   3.238   9.306  0.1022  0.3763  0.7845
   48MPD2    H7  757   0.783   3.238   9.387 -0.9563 -0.0422 -0.0135
   49TMC2    C1  758   3.716   0.899  10.847 -0.0609 -0.5693  0.0325
   49TMC2    C2  759   3.781   1.007  10.904 -0.0808 -0.0810  0.2781
   49TMC2    C3  760   3.773   1.122  10.831  0.9104  0.0638 -0.1406
   49TMC2    C4  761   3.651   0.899  10.723  0.0500 -0.2357  0.4753
   49TMC2    C5  762   3.638   1.021  10.664 -0.2154 -0.5507  0.2492
   49TMC2    C6  763   3.709   1.126  10.709  0.6791 -0.6763 -0.3345
   49TMC2     C  764   3.699   0.780  10.924  0.9360  0.7154  0.0667
   49TMC2     O  765   3.609   0.705  10.893 -0.2446  0.2947 -0.5293
   49TMC2     H  766   3.837   0.993  10.995  0.7260  2.7569  0.2136
   49TMC2    H1  767   3.623   0.806  10.675  0.5331  0.5438 -1.3202
   49TMC2    H2  768   3.706   1.220  10.656 -2.5049 -0.4393  0.2452
   49TMC2    C7  769   3.561   1.027  10.541 -0.2176 -0.4721 -0.2277
   49TMC2    C8  770   3.866   1.226  10.851 -0.2509 -0.0271  0.4893
   49TMC2    O1  771   3.593   1.109  10.456 -0.0081 -0.2867 -0.1260
   49TMC2    O2  772   3.918   1.297  10.762  0.2612  0.0924 -0.1908
   49TMC2    O5  773   3.928   1.210  10.969  1.0568  0.3637 -0.0854
   49TMC2    H5  774   3.866   1.169  11.032  1.3494 -1.2434 -0.8395
   50MPD2     C  775   3.768   0.510  11.058  0.2463  1.6211  0.0080
   50MPD2    C1  776   3.830   0.632  11.081  0.7575  0.1300  0.3413
   50MPD2    C2  777   3.933   0.633  11.177 -0.5742 -0.3295  0.1459
   50MPD2    C3  778   3.958   0.529  11.265 -0.1856 -0.2123 -0.1912
   50MPD2    C4  779   3.876   0.415  11.247 -0.0305  0.7370  0.0927
   50MPD2    C5  780   3.786   0.405  11.150  0.9024 -0.0296  0.0501
   50MPD2     H  781   4.001   0.717  11.177  0.0128 -0.8063  1.5523
   50MPD2    H1  782   3.906   0.329  11.306  0.8426  1.2640  0.4234
   50MPD2    H2  783   3.693   0.501  10.980 -2.0268 -0.3612  2.4407
   50MPD2    H3  784   3.737   0.310  11.134  3.6453 -1.0448 -2.2681
   50MPD2     N  785   4.053   0.536  11.376 -0.1673 -0.2724  0.6344
   50MPD2    H5  786   4.068   0.449  11.427  0.3421 -0.3670  0.3234
   50MPD2    N1  787   3.813   0.750  11.005  0.3690  0.2647 -0.0189
   50MPD2    H7  788   3.888   0.819  11.007  1.1701 -0.6124 -0.2280
   51TMC2    C1  789   1.617   4.318   1.665 -0.1557 -0.5321 -1.3086
   51TMC2    C2  790   1.732   4.257   1.711 -0.0155  0.3846 -0.6173
   51TMC2    C3  791   1.826   4.339   1.769 -0.7448 -0.0426 -0.0748
   51TMC2    C4  792   1.580   4.442   1.702 -0.7316 -1.2007  0.0408
   51TMC2    C5  793   1.679   4.518   1.757 -0.0649  0.2738  0.0243
   51TMC2    C6  794   1.805   4.469   1.781 -0.8529 -0.0713  0.5574
   51TMC2     C  795   1.514   4.240   1.603 -0.1048  0.1533  0.7325
   51TMC2     O  796   1.401   4.290   1.606  0.3440  0.5824 -0.2333
   51TMC2     H  797   1.753   4.151   1.716  0.0163  0.5205  1.7445
   51TMC2    H1  798   1.483   4.483   1.677  0.1933  1.1595  0.3605
   51TMC2    H2  799   1.880   4.539   1.816 -1.9326  1.9726 -1.2203
   51TMC2    C7  800   1.663   4.660   1.745 -0.3956  0.2185 -0.0632
   51TMC2    C8  801   1.954   4.290   1.791 -0.2993  0.0946 -0.5280
   51TMC2    O1  802   1.588   4.699   1.654 -0.3671  0.6680  0.2414
   51TMC2    O2  803   2.024   4.341   1.878  0.7577 -0.5050  0.3989
   51TMC2    O5  804   2.000   4.261   1.667 -0.4155 -0.2734 -0.3307
   51TMC2    H5  805   1.933   4.237   1.599  1.4399  0.2393 -2.3653
   52MPD2     C  806   1.353   3.800   1.419  0.0103 -0.0484 -0.2211
   52MPD2    C1  807   1.294   3.925   1.411  0.9969  0.4658 -0.7698
   52MPD2    C2  808   1.356   4.032   1.472  0.6260  0.0458  0.5533
   52MPD2    C3  809   1.484   4.010   1.517  0.0631  0.2209 -0.2434
   52MPD2    C4  810   1.564   3.900   1.490 -0.5169 -0.1520 -0.2509
   52MPD2    C5  811   1.491   3.787   1.448  0.3533 -0.0292  0.0017
   52MPD2     H  812   1.317   4.133   1.468 -0.2521 -0.3940 -2.0232
   52MPD2    H1  813   1.671   3.891   1.505 -0.8309 -1.1257  1.3420
   52MPD2    H2  814   1.306   3.714   1.372  0.4286 -1.2713  1.6101
   52MPD2    H3  815   1.545   3.694   1.434  0.0097 -0.2548  0.1822
   52MPD2     N  816   1.559   4.121   1.554 -0.2623 -0.1138  0.0073
   52MPD2    H5  817   1.658   4.106   1.567 -0.2230  1.0692  1.0458
   52MPD2    N1  818   1.174   3.952   1.340 -0.6376  0.2914 -0.1138
   52MPD2    H7  819   1.148   4.050   1.337  0.9784  0.7511  1.5761
   53TMC2    C1  820   0.507   3.991  11.680 -0.4600 -0.3996  0.3977
   53TMC2    C2  821   0.630   3.942  11.690 -0.0033  0.4818 -0.3610
   53TMC2    C3  822   0.675   3.911  11.820 -0.0245 -0.0833  0.1390
   53TMC2    C4  823   0.422   4.013  11.792 -0.2566  0.1016 -0.0611
   53TMC2    C5  824   0.470   3.970  11.918 -0.6070  0.1389  0.4302
   53TMC2    C6  825   0.593   3.911  11.933  0.6450 -0.6284  0.1085
   53TMC2     C  826   0.441   3.952  11.563 -0.5294  0.7446 -0.3744
   53TMC2     O  827   0.498   3.977  11.460  0.4396  0.2914 -0.0178
   53TMC2     H  828   0.697   3.950  11.606 -1.3554 -3.3904 -1.8206
   53TMC2    H1  829   0.328   4.063  11.775 -1.0999 -0.8830  1.7397
   53TMC2    H2  830   0.631   3.873  12.027 -0.2274 -1.3874  0.1592
   53TMC2    C7  831   0.362   3.935  12.006 -0.0888  0.0664  0.1827
   53TMC2    C8  832   0.797   3.834  11.835  0.4067 -0.5867 -0.0965
   53TMC2    O1  833   0.249   3.966  11.974 -0.8326 -0.2013  0.5375
   53TMC2    O2  834   0.836   3.811  11.950 -0.4223  0.2132 -0.1997
   53TMC2    O5  835   0.819   3.762  11.721  0.0700  0.2668 -0.0084
   53TMC2    H5  836   0.740   3.769  11.664 -0.1942 -1.8036  0.0955
   54MPD2     C  837   0.226   3.871  11.374 -0.2872  0.3148  0.6170
   54MPD2    C1  838   0.231   3.832  11.505  0.0481 -0.3726  0.8329
   54MPD2    C2  839   0.142   3.739  11.549 -0.8401  0.0659 -0.2364
   54MPD2    C3  840   0.048   3.681  11.470  0.3368 -1.0762 -0.1582
   54MPD2    C4  841   0.039   3.728  11.337  0.1923 -0.6584  0.1073
   54MPD2    C5  842   0.132   3.817  11.288  0.5513  0.7151  0.3277
   54MPD2     H  843   0.156   3.719  11.655 -0.0761 -0.1541 -0.3784
   54MPD2    H1  844   4.696   3.707  11.270 -1.4517  2.9972  0.9932
   54MPD2    H2  845   0.277   3.958  11.334  0.8011 -0.7826 -0.3696
   54MPD2    H3  846   0.133   3.852  11.186  3.2531  2.5794  1.0019
   54MPD2     N  847   4.687   3.590  11.517 -0.5024  0.3363 -0.2943
   54MPD2    H5  848   4.604   3.568  11.462  0.5635 -0.3908 -1.6217
   54MPD2    N1  849   0.330   3.881  11.592  0.1500 -0.3590  1.0247
   54MPD2    H7  850   0.323   3.857  11.690  0.7404 -2.6017  0.5061
   55TMC2    C1  851   1.354   1.561  17.462  0.8857 -0.1187 -0.4110
   55TMC2    C2  852   1.365   1.566  17.326  0.6873 -0.8722 -0.7155
   55TMC2    C3  853   1.313   1.465  17.256 -0.2145 -0.1957 -0.5148
   55TMC2    C4  854   1.308   1.443  17.518  0.2853  0.9169 -0.1909
   55TMC2    C5  855   1.276   1.341  17.445  0.3260  0.4656  0.1900
   55TMC2    C6  856   1.268   1.349  17.313 -0.3410 -0.1839 -0.2033
   55TMC2     C  857   1.339   1.681  17.541 -0.2538  0.1989  0.5592
   55TMC2     O  858   1.320   1.665  17.659 -0.4267  0.1059 -0.1057
   55TMC2     H  859   1.404   1.649  17.267 -1.5278  0.6673 -0.0241
   55TMC2    H1  860   1.295   1.446  17.626  1.3940  0.0317 -0.0285
   55TMC2    H2  861   1.235   1.263  17.258  2.0949 -0.7557 -0.7795
   55TMC2    C7  862   1.235   1.222  17.509 -0.4044  0.3560  0.4243
   55TMC2    C8  863   1.347   1.469  17.120 -0.0359  0.2645  0.3524
   55TMC2    O1  864   1.226   1.129  17.430 -0.8321 -0.2718 -0.3060
   55TMC2    O2  865   1.425   1.551  17.073 -0.1027 -0.3103 -0.1725
   55TMC2    O5  866   1.246   1.407  17.057  0.2130  0.2259  0.2558
   55TMC2    H5  867   1.173   1.377  17.116 -1.4331  1.1192 -1.3378
   56MPD2     C  868   1.321   2.023  17.428 -1.0725  0.5399  0.0658
   56MPD2    C1  869   1.305   1.923  17.517  0.2034 -0.2007  0.3193
   56MPD2    C2  870   1.258   1.955  17.644 -0.3309  0.1096  0.3096
   56MPD2    C3  871   1.227   2.087  17.678 -0.7092 -0.1960 -0.5904
   56MPD2    C4  872   1.243   2.185  17.585  0.7873  1.1501 -0.2494
   56MPD2    C5  873   1.292   2.154  17.459  0.1604  0.4040 -0.3404
   56MPD2     H  874   1.245   1.879  17.720 -0.4562 -0.7173 -0.5375
   56MPD2    H1  875   1.223   2.288  17.614 -0.1305  1.0966 -0.6992
   56MPD2    H2  876   1.340   1.991  17.326  1.7282  0.8903  0.4818
   56MPD2    H3  877   1.300   2.240  17.394 -1.5841  0.5895 -0.3191
   56MPD2     N  878   1.167   2.102   0.053  0.2111 -0.5769  0.5309
   56MPD2    H5  879   1.156   2.014   0.103 -1.7419 -0.5184  0.1764
   56MPD2    N1  880   1.331   1.797  17.466  0.2329 -0.4267  0.1106
   56MPD2    H7  881   1.353   1.787  17.368 -1.3418 -0.6376 -0.2186
   57TMC2    C1  882   0.007   2.042  13.532  0.6061  0.1542  0.8062
   57TMC2    C2  883   4.700   1.914  13.491  0.3522  0.0002  0.1226
   57TMC2    C3  884   4.726   1.873  13.366 -0.1654 -0.3456 -0.1609
   57TMC2    C4  885   0.083   2.119  13.443 -0.5400 -0.5546  0.0283
   57TMC2    C5  886   0.112   2.069  13.323 -0.2595 -0.0078 -0.0085
   57TMC2    C6  887   0.065   1.949  13.279 -0.8942 -0.3987  0.3240
   57TMC2     C  888   4.712   2.102  13.664 -0.1566  0.5778  0.1854
   57TMC2     O  889   4.726   2.224  13.671 -0.2439  0.4769 -0.1038
   57TMC2     H  890   4.627   1.856  13.546  1.3170 -0.6287  0.7378
   57TMC2    H1  891   0.133   2.211  13.473  1.5640 -1.5581 -0.3471
   57TMC2    H2  892   0.067   1.923  13.173  0.4241  0.0644  0.2262
   57TMC2    C7  893   0.229   2.128  13.253 -0.2484 -0.0173 -0.6539
   57TMC2    C8  894   4.672   1.747  13.325  0.3297  0.0976  0.9235
   57TMC2    O1  895   0.260   2.243  13.289  0.1477 -0.4216 -0.6360
   57TMC2    O2  896   4.639   1.665  13.407  0.2810  0.4391  0.4607
   57TMC2    O5  897   4.696   1.723  13.193  0.7696 -0.2818  0.2567
   57TMC2    H5  898   4.676   1.795  13.130  1.0641 -1.9046 -1.6792
   58MPD2     C  899   4.545   2.108  14.140 -0.0123 -0.1115 -0.4589
   58MPD2    C1  900   4.549   2.211  14.049 -0.4230 -0.7368  0.2461
   58MPD2    C2  901   4.592   2.183  13.916 -0.0028  0.9160 -0.6910
   58MPD2    C3  902   4.639   2.055  13.890 -0.2958 -0.1662 -0.4437
   58MPD2    C4  903   4.648   1.961  13.993 -0.1244 -0.8842 -0.9170
   58MPD2    C5  904   4.606   1.994  14.116 -0.0461 -0.3621  0.0228
   58MPD2     H  905   4.583   2.256  13.836  1.6497  0.0460 -1.6768
   58MPD2    H1  906   4.699   1.866  13.981  1.1976 -0.2805 -0.0861
   58MPD2    H2  907   4.490   2.116  14.233  0.4463 -1.5193 -0.0662
   58MPD2    H3  908   4.605   1.915  14.191  0.8915  0.9769  1.4467
   58MPD2     N  909   4.676   2.008  13.757 -0.3030 -0.1634  0.2982
   58MPD2    H5  910   4.679   1.909  13.734 -1.0048 -0.6393  2.2606
   58MPD2    N1  911   4.505   2.342  14.070  0.6000  0.3099 -0.5549
   58MPD2    H7  912   4.517   2.420  14.006  2.2402  1.2057  0.8215
   59TMC2    C1  913   2.502   2.614  12.882 -0.3043  0.3442 -0.4601
   59TMC2    C2  914   2.385   2.568  12.944  0.0105  0.7362 -0.2632
   59TMC2    C3  915   2.340   2.452  12.899 -0.0650  0.1005  0.1585
   59TMC2    C4  916   2.569   2.542  12.787 -0.1781  0.1642 -0.4391
   59TMC2    C5  917   2.517   2.419  12.741  0.6639 -0.1647 -1.0486
   59TMC2    C6  918   2.394   2.374  12.802 -0.7039  0.1426 -0.2040
   59TMC2     C  919   2.578   2.718  12.943 -0.5067  1.1013 -0.1751
   59TMC2     O  920   2.698   2.708  12.934  0.0896 -0.4189  0.3106
   59TMC2     H  921   2.326   2.641  12.998  0.7346  0.1188  1.3491
   59TMC2    H1  922   2.667   2.568  12.749  0.9901 -0.2217  2.2795
   59TMC2    H2  923   2.332   2.295  12.760 -0.3015 -1.0135  1.3733
   59TMC2    C7  924   2.567   2.359  12.618 -0.4759  0.6645  0.5118
   59TMC2    C8  925   2.197   2.442  12.901  0.1196 -0.7183  0.4217
   59TMC2    O1  926   2.545   2.239  12.603  0.1692  0.2364 -0.2366
   59TMC2    O2  927   2.125   2.393  12.816 -0.6188 -0.1288 -0.2132
   59TMC2    O5  928   2.155   2.475  13.024  0.1872 -0.4222 -0.5858
   59TMC2    H5  929   2.229   2.492  13.086 -0.4901 -1.4868  0.5116
   60MPD2     C  930   2.473   3.019  13.125 -0.2093  0.4143  0.0759
   60MPD2    C1  931   2.555   2.910  13.094  0.0910  0.5820  0.5173
   60MPD2    C2  932   2.673   2.890  13.165  0.3317 -0.4248  0.3713
   60MPD2    C3  933   2.709   2.985  13.257 -0.7638  0.2509  0.1212
   60MPD2    C4  934   2.638   3.102  13.269 -0.0410 -0.3426 -0.4142
   60MPD2    C5  935   2.520   3.118  13.209  0.0918 -0.2039 -0.5435
   60MPD2     H  936   2.750   2.817  13.139  0.7228 -0.3957  1.4653
   60MPD2    H1  937   2.666   3.173  13.345  0.3220 -0.0511 -0.8191
   60MPD2    H2  938   2.385   3.036  13.065 -0.9909  0.3176  1.1882
   60MPD2    H3  939   2.463   3.210  13.221 -0.4682 -0.6197 -0.0448
   60MPD2     N  940   2.821   2.971  13.341  0.5188  0.2980 -0.4874
   60MPD2    H5  941   2.877   3.049  13.374 -1.0118  1.2884 -0.2484
   60MPD2    N1  942   2.499   2.815  13.004 -0.7917  0.5251 -0.1509
   60MPD2    H7  943   2.405   2.835  12.973 -1.1339  0.7483  1.0221
   61TMC2    C1  944   2.022   3.972  15.843 -0.6433 -0.2975 -0.2363
   61TMC2    C2  945   2.060   3.925  15.973 -0.0572  0.1999  0.5615
   61TMC2    C3  946   2.036   3.999  16.082  0.9841 -1.1355 -0.0194
   61TMC2    C4  947   1.976   4.098  15.826 -0.1876  0.1718  0.2696
   61TMC2    C5  948   1.962   4.168  15.938  0.0942  0.0051 -0.4638
   61TMC2    C6  949   1.982   4.124  16.068 -0.1628 -0.0252  0.5225
   61TMC2     C  950   2.069   3.894  15.734  0.1666  0.1575 -0.4872
   61TMC2     O  951   2.102   3.778  15.759  0.5172 -0.2666  0.8917
   61TMC2     H  952   2.112   3.831  15.982 -0.3638 -0.1507 -1.4185
   61TMC2    H1  953   1.954   4.143  15.730 -1.2371 -0.9323 -0.0209
   61TMC2    H2  954   1.975   4.191  16.153 -3.0662  2.7377 -1.8939
   61TMC2    C7  955   1.936   4.310  15.917  0.0901  0.9569 -0.6174
   61TMC2    C8  956   2.126   3.968  16.192 -0.0650 -0.3271 -0.5482
   61TMC2    O1  957   1.952   4.360  15.807 -0.0491  0.1084  0.2100
   61TMC2    O2  958   2.247   3.969  16.174 -0.5270  0.1000 -0.4972
   61TMC2    O5  959   2.056   4.023  16.293  0.0240 -0.1339 -0.6259
   61TMC2    H5  960   1.963   3.996  16.282  0.2987 -1.0188 -0.7847
   62MPD2     C  961   2.162   3.799  15.469 -0.2670  0.5226  0.1524
   62MPD2    C1  962   2.144   3.933  15.498  0.0179 -0.4008  0.6388
   62MPD2    C2  963   2.171   4.019  15.389  0.2826 -0.2614 -0.3777
   62MPD2    C3  964   2.205   3.974  15.264  0.0383  0.0335  0.1058
   62MPD2    C4  965   2.233   3.843  15.250  0.1399 -0.2411  0.1746
   62MPD2    C5  966   2.195   3.760  15.349  0.3250  0.2282 -0.0718
   62MPD2     H  967   2.143   4.124  15.391 -0.5177 -0.4717 -0.4161
   62MPD2    H1  968   2.273   3.792  15.163 -1.0011 -0.5275 -0.1731
   62MPD2    H2  969   2.147   3.723  15.545 -0.1813 -1.2327 -1.5588
   62MPD2    H3  970   2.209   3.653  15.345  0.2358  0.1910  0.6886
   62MPD2     N  971   2.216   4.070  15.157  0.5063 -0.3108 -0.7315
   62MPD2    H5  972   2.223   4.167  15.185 -0.1131  0.3314 -2.8433
   62MPD2    N1  973   2.097   3.977  15.624 -0.2767  0.2985 -0.1433
   62MPD2    H7  974   2.088   4.077  15.638 -0.2220  0.2225  0.4097
   63TMC2    C1  975   1.599   3.366  11.289 -0.9045  0.3176 -0.4227
   63TMC2    C2  976   1.706   3.379  11.375 -0.0523 -0.3675  0.5390
   63TMC2    C3  977   1.823   3.413  11.328  0.1037  0.1746  0.0340
   63TMC2    C4  978   1.613   3.374  11.155  0.4039  0.4861  0.3209
   63TMC2    C5  979   1.736   3.406  11.107 -0.0609 -0.1976  0.5417
   63TMC2    C6  980   1.845   3.428  11.190  0.2478  0.7781 -0.6562
   63TMC2     C  981   1.473   3.338  11.351 -0.0625 -0.6450  0.3176
   63TMC2     O  982   1.451   3.387  11.463 -0.3851  0.8846 -0.1748
   63TMC2     H  983   1.687   3.372  11.482 -2.6765  1.5690  0.1946
   63TMC2    H1  984   1.527   3.356  11.092  0.0211 -2.3675  1.6632
   63TMC2    H2  985   1.947   3.440  11.154  0.2709 -0.9803 -1.1820
   63TMC2    C7  986   1.738   3.438  10.970  0.3106  0.1448  0.2398
   63TMC2    C8  987   1.939   3.437  11.405 -0.3119 -0.0800  0.5236
   63TMC2    O1  988   1.638   3.402  10.908 -0.3943  0.0263 -0.1917
   63TMC2    O2  989   2.004   3.533  11.373  0.3690 -0.0194 -0.0294
   63TMC2    O5  990   1.921   3.389  11.532  0.7546 -0.1616  0.3139
   63TMC2    H5  991   1.865   3.309  11.526  0.4435  0.0933 -0.2647
   64MPD2     C  992   1.045   3.038  11.399  0.0988  0.0851 -0.2940
   64MPD2    C1  993   1.120   2.995  11.291  0.4187  0.2306 -0.0659
   64MPD2    C2  994   1.238   3.067  11.260  0.4656 -0.5680  0.6886
   64MPD2    C3  995   1.285   3.176  11.333 -0.0992 -0.4192 -0.2412
   64MPD2    C4  996   1.207   3.218  11.443 -0.6565  0.2202  0.1403
   64MPD2    C5  997   1.098   3.140  11.472 -0.1486 -0.3184  1.2105
   64MPD2     H  998   1.305   3.031  11.183  0.6956 -0.5720  0.8924
   64MPD2    H1  999   1.236   3.294  11.515 -1.0585  1.4615 -1.0191
   64MPD2    H2 1000   0.962   2.980  11.439  0.6579 -0.5437 -0.0545
   64MPD2    H3 1001   1.039   3.161  11.561 -1.8957 -0.4673  0.0939
   64MPD2     N 1002   1.404   3.239  11.290  0.2006 -0.2126 -0.3092
   64MPD2    H5 1003   1.447   3.191  11.211 -2.0429 -1.6611 -0.6591
   64MPD2    N1 1004   1.100   2.879  11.212 -0.5001 -0.3455  0.1731
   64MPD2    H7 1005   1.161   2.874  11.131 -1.2603  2.7822 -0.6184
   65TMC2    C1 1006   2.536   3.872  15.850  0.1900  0.8730  0.0309
   65TMC2    C2 1007   2.591   3.879  15.723  0.8731  0.0387 -0.2916
   65TMC2    C3 1008   2.545   3.977  15.638 -0.0480 -0.1712 -0.6246
   65TMC2    C4 1009   2.437   3.968  15.890 -0.5992 -0.2535 -0.6235
   65TMC2    C5 1010   2.408   4.067  15.799  0.5405  0.4700  0.2965
   65TMC2    C6 1011   2.452   4.069  15.676 -0.0395  0.5603 -0.6582
   65TMC2     C 1012   2.573   3.764  15.939 -0.5569 -0.3156  0.0720
   65TMC2     O 1013   2.542   3.778  16.057 -0.2787 -0.2982 -0.3624
   65TMC2     H 1014   2.666   3.809  15.689 -0.8193 -1.0912 -1.7560
   65TMC2    H1 1015   2.403   3.967  15.993  1.0758 -2.2324 -0.0803
   65TMC2    H2 1016   2.422   4.139  15.598  0.1314  0.8409 -0.4740
   65TMC2    C7 1017   2.340   4.189  15.845 -0.3680  0.2508 -0.4272
   65TMC2    C8 1018   2.605   3.986  15.506 -0.8411 -0.3162  0.6725
   65TMC2    O1 1019   2.272   4.240  15.761 -0.3018 -0.0061 -0.2437
   65TMC2    O2 1020   2.612   4.082  15.429  0.7419 -0.4911 -0.2704
   65TMC2    O5 1021   2.610   3.867  15.458  0.5360 -0.3466  0.1095
   65TMC2    H5 1022   2.563   3.808  15.521  0.7023 -0.7855 -0.1806
   66MPD2     C 1023   2.695   3.524  16.082  1.1009  0.1292 -0.2014
   66MPD2    C1 1024   2.672   3.536  15.941 -0.0784 -0.4288 -0.3187
   66MPD2    C2 1025   2.671   3.417  15.863 -0.2346  0.2160  0.1248
   66MPD2    C3 1026   2.685   3.293  15.923  0.2304  0.0242  1.0427
   66MPD2    C4 1027   2.703   3.286  16.062 -0.0353  0.5774 -0.1263
   66MPD2    C5 1028   2.717   3.397  16.132 -0.0561 -0.3855  0.0268
   66MPD2     H 1029   2.627   3.436  15.766  1.8392 -0.9995 -1.0395
   66MPD2    H1 1030   2.712   3.191  16.112  0.8780  0.8216  0.1675
   66MPD2    H2 1031   2.700   3.610  16.147 -0.6759  0.9847 -1.2215
   66MPD2    H3 1032   2.757   3.387  16.232 -0.1826 -1.6984 -0.0593
   66MPD2     N 1033   2.666   3.170  15.853  0.0711 -0.4203 -0.4409
   66MPD2    H5 1034   2.658   3.091  15.916  0.0631  0.5879  0.8281
   66MPD2    N1 1035   2.624   3.650  15.876 -0.7086  0.0558 -0.1413
   66MPD2    H7 1036   2.606   3.640  15.777 -0.1944  0.4127 -0.2703
   67TMC2    C1 1037   2.855   2.694  14.340  0.0738 -0.1525 -0.1744
   67TMC2    C2 1038   2.780   2.808  14.346 -0.2837 -0.0184 -0.3685
   67TMC2    C3 1039   2.807   2.894  14.448 -0.0145  0.2397  0.1901
   67TMC2    C4 1040   2.953   2.672  14.430 -0.1992  0.5553  0.4342
   67TMC2    C5 1041   2.962   2.751  14.547  0.0749  0.5434 -0.2593
   67TMC2    C6 1042   2.898   2.873  14.552  0.2600  0.9460 -0.3637
   67TMC2     C 1043   2.804   2.585  14.255 -0.4556  0.2726  0.3955
   67TMC2     O 1044   2.886   2.510  14.200 -0.2198 -0.4782 -0.1797
   67TMC2     H 1045   2.723   2.844  14.261 -0.7190  1.7119  0.6578
   67TMC2    H1 1046   3.000   2.574  14.427 -0.7330  0.3136  0.1022
   67TMC2    H2 1047   2.912   2.942  14.634 -2.3782  0.4184  0.5346
   67TMC2    C7 1048   3.084   2.732  14.628 -0.1307  0.5056  0.3369
   67TMC2    C8 1049   2.744   3.025  14.440 -0.1477 -0.1260 -0.4448
   67TMC2    O1 1050   3.184   2.690  14.573 -0.5703  0.3012  0.1343
   67TMC2    O2 1051   2.642   3.045  14.371 -0.5039  0.5234  0.2942
   67TMC2    O5 1052   2.838   3.116  14.469 -0.0382  0.4345 -0.0322
   67TMC2    H5 1053   2.918   3.085  14.518  1.9820  2.5372 -1.9649
   68MPD2     C 1054   2.643   2.468  14.025 -0.0628  0.3143  0.2436
   68MPD2    C1 1055   2.588   2.538  14.130 -0.5505 -0.0567  0.4932
   68MPD2    C2 1056   2.450   2.557  14.134 -0.0752  0.3285  0.2333
   68MPD2    C3 1057   2.377   2.516  14.025  0.3749 -0.1599  0.2377
   68MPD2    C4 1058   2.435   2.460  13.918  0.3625 -0.3289 -0.0379
   68MPD2    C5 1059   2.565   2.434  13.918 -0.4409  0.3482  0.6903
   68MPD2     H 1060   2.399   2.614  14.210  0.3231  0.5835  0.3088
   68MPD2    H1 1061   2.369   2.430  13.838  0.1456  0.1942 -0.0522
   68MPD2    H2 1062   2.746   2.437  14.013 -0.4729 -0.0556 -2.1920
   68MPD2    H3 1063   2.605   2.376  13.836  0.5399  0.0955  1.3537
   68MPD2     N 1064   2.231   2.533  14.017  0.1433 -0.0317 -0.2625
   68MPD2    H5 1065   2.177   2.514  13.933  0.6465 -0.7352 -0.4326
   68MPD2    N1 1066   2.666   2.595  14.235 -0.3645 -0.2081 -0.9936
   68MPD2    H7 1067   2.613   2.648  14.302 -0.9569 -0.5127 -1.2172
   69TMC2    C1 1068   0.236   4.099  12.487  1.0471  0.4970  0.3043
   69TMC2    C2 1069   0.116   4.097  12.415 -0.0358  0.2302  0.1281
   69TMC2    C3 1070   0.118   4.135  12.289 -0.3492  0.1245 -0.0995
   69TMC2    C4 1071   0.352   4.132  12.420  0.0938 -0.1687 -0.1218
   69TMC2    C5 1072   0.345   4.171  12.287  0.5389 -0.1789  0.1956
   69TMC2    C6 1073   0.230   4.172  12.215  0.5431  0.5016 -0.5943
   69TMC2     C 1074   0.229   4.090  12.635  0.0172  0.0074 -0.9049
   69TMC2     O 1075   0.138   4.025  12.676  0.2708  1.0512  0.3027
   69TMC2     H 1076   0.024   4.071  12.467 -1.7462  0.8130 -2.5781
   69TMC2    H1 1077   0.453   4.111  12.455  0.5983 -1.0963 -2.1145
   69TMC2    H2 1078   0.222   4.209  12.113  1.1973 -0.2291 -0.9166
   69TMC2    C7 1079   0.474   4.179  12.221 -0.0033  1.0872 -0.2577
   69TMC2    C8 1080   4.733   4.115  12.218 -0.3377  0.3059  0.6443
   69TMC2    O1 1081   0.555   4.090  12.257  0.1223  1.0565 -0.2512
   69TMC2    O2 1082   4.668   4.014  12.233  0.3409  0.2483 -0.8667
   69TMC2    O5 1083   4.686   4.239  12.220 -0.3744  0.1064  0.6092
   69TMC2    H5 1084   0.018   4.306  12.221  0.5248 -0.8670  0.5029
   70MPD2     C 1085   0.471   4.222  12.884 -0.3003  0.4862  0.0117
   70MPD2    C1 1086   0.361   4.154  12.836  0.1806  0.3613  0.0037
   70MPD2    C2 1087   0.319   4.050  12.914  0.2397 -0.0247  0.1246
   70MPD2    C3 1088   0.379   4.014  13.035  0.1732 -0.3848 -0.3023
   70MPD2    C4 1089   0.483   4.085  13.074  0.5205  0.8926  0.1851
   70MPD2    C5 1090   0.526   4.196  13.009 -0.6632  0.5568 -0.3019
   70MPD2     H 1091   0.249   3.976  12.878  2.0603  0.1037 -3.7746
   70MPD2    H1 1092   0.541   4.058  13.162 -0.1231  0.7998  0.5759
   70MPD2    H2 1093   0.513   4.304  12.827 -1.3302 -0.1848 -1.7148
   70MPD2    H3 1094   0.613   4.248  13.046 -0.1688  0.1383 -0.8719
   70MPD2     N 1095   0.332   3.903  13.112  0.2081 -0.3108  0.7058
   70MPD2    H5 1096   0.409   3.874  13.171  0.3485 -3.5863 -1.0988
   70MPD2    N1 1097   0.323   4.166  12.700  0.3001 -0.0475 -0.4312
   70MPD2    H7 1098   0.384   4.220  12.640  0.5310  0.1360 -0.0316
   71TMC2    C1 1099   2.283   4.047   0.635  0.7829  0.5782 -0.1114
   71TMC2    C2 1100   2.384   3.961   0.607  0.3755  0.6682 -0.3735
   71TMC2    C3 1101   2.479   3.933   0.696 -0.6269 -0.5527 -0.3890
   71TMC2    C4 1102   2.276   4.117   0.754  0.0047 -0.6752  0.0884
   71TMC2    C5 1103   2.377   4.084   0.847  0.1554 -0.0134  0.4738
   71TMC2    C6 1104   2.481   3.999   0.816  0.2780  0.1777 -0.7820
   71TMC2     C 1105   2.212   4.102   0.524  0.1609 -0.6010  0.1391
   71TMC2     O 1106   2.209   4.225   0.510 -0.0700 -0.1733  0.1795
   71TMC2     H 1107   2.405   3.927   0.506 -0.5361 -0.2507 -0.2549
   71TMC2    H1 1108   2.201   4.194   0.767 -0.3608 -0.6959 -1.8061
   71TMC2    H2 1109   2.554   3.990   0.896 -0.6800 -1.2606 -0.0715
   71TMC2    C7 1110   2.364   4.131   0.987  0.3445  0.0816  0.2562
   71TMC2    C8 1111   2.591   3.860   0.640 -0.1824  0.0670  0.2606
   71TMC2    O1 1112   2.450   4.122   1.071 -0.4323 -0.2436 -0.5021
   71TMC2    O2 1113   2.611   3.743   0.663  0.4155  0.5451 -0.0242
   71TMC2    O5 1114   2.642   3.934   0.541 -0.1056 -0.7259  0.1815
   71TMC2    H5 1115   2.613   4.026   0.556  0.9030 -0.1637 -1.3005
   72MPD2     C 1116   1.965   4.050   0.083 -0.7195  1.1022 -0.8632
   72MPD2    C1 1117   2.028   4.158   0.136 -0.3022 -0.3990  0.3270
   72MPD2    C2 1118   2.103   4.142   0.251 -0.4771  0.0537 -0.4421
   72MPD2    C3 1119   2.105   4.024   0.319 -0.9936 -0.4103  0.5232
   72MPD2    C4 1120   2.035   3.920   0.271  0.1402  0.1637 -0.0161
   72MPD2    C5 1121   1.966   3.936   0.152  0.3223  0.4010 -0.2857
   72MPD2     H 1122   2.158   4.226   0.291 -0.5996 -1.4824  2.9477
   72MPD2    H1 1123   2.051   3.824   0.318 -1.4788  0.3386  0.8907
   72MPD2    H2 1124   1.909   4.054  17.747 -0.5262  1.6449 -0.9571
   72MPD2    H3 1125   1.908   3.858   0.104  1.8848 -2.8296  3.0695
   72MPD2     N 1126   2.163   3.999   0.444 -0.0201 -0.1146 -0.5481
   72MPD2    H5 1127   2.161   3.909   0.491 -1.1270  0.2429  0.1028
   72MPD2    N1 1128   2.027   4.287   0.073 -0.0866  0.3245 -0.3195
   72MPD2    H7 1129   2.087   4.356   0.118 -0.2641  0.7806 -0.7862
   73TMC2    C1 1130   1.902   1.236  14.060  0.0813  0.4077  0.3099
   73TMC2    C2 1131   1.851   1.253  14.191  0.2422 -0.0827 -1.0170
   73TMC2    C3 1132   1.910   1.198  14.304  0.0454 -0.8745  0.6650
   73TMC2    C4 1133   2.018   1.156  14.059  0.2678  0.4092  0.3218
   73TMC2    C5 1134   2.070   1.095  14.173 -0.1060 -0.4801 -0.0018
   73TMC2    C6 1135   2.020   1.121  14.294 -0.1357  0.0642  0.5038
   73TMC2     C 1136   1.915   1.361  13.985  0.3801  0.1046 -0.1197
   73TMC2     O 1137   2.018   1.354  13.919  0.5725 -0.3465  0.2488
   73TMC2     H 1138   1.765   1.318  14.210  0.9439  0.3103  0.7918
   73TMC2    H1 1139   2.068   1.142  13.965 -0.9537 -0.1350 -0.2546
   73TMC2    H2 1140   2.059   1.084  14.388 -2.0011  1.3026  1.7740
   73TMC2    C7 1141   2.217   1.123  14.157  0.1740 -0.4611 -0.0593
   73TMC2    C8 1142   1.835   1.212  14.432  0.4473 -0.7096  0.0028
   73TMC2    O1 1143   2.301   1.058  14.222  0.1474  0.7078  0.4691
   73TMC2    O2 1144   1.869   1.301  14.509  0.1795  0.9093  0.1909
   73TMC2    O5 1145   1.707   1.202  14.398  0.5246  1.0179 -0.0492
   73TMC2    H5 1146   1.689   1.125  14.340 -1.5363  0.8660  0.8117
   74MPD2     C 1147   1.852   1.862  13.923 -0.8133 -0.1936 -0.2627
   74MPD2    C1 1148   1.949   1.777  13.875 -0.1133 -0.5405  0.4538
   74MPD2    C2 1149   1.941   1.636  13.890 -0.8196 -0.2807 -0.5929
   74MPD2    C3 1150   1.828   1.582  13.946 -0.7966 -0.6607  0.1658
   74MPD2    C4 1151   1.725   1.667  13.985 -0.0281  0.3488  0.1163
   74MPD2    C5 1152   1.741   1.801  13.976 -0.1857  0.5751 -0.0539
   74MPD2     H 1153   2.010   1.568  13.843  0.7916 -0.4869  2.0533
   74MPD2    H1 1154   1.637   1.630  14.036 -0.6592 -0.7828 -1.7982
   74MPD2    H2 1155   1.851   1.971  13.915 -1.3885 -0.0220  2.3111
   74MPD2    H3 1156   1.655   1.856  14.012 -0.9528  0.3538 -1.5643
   74MPD2     N 1157   1.806   1.443  13.980  0.3059 -0.3674  0.1161
   74MPD2    H5 1158   1.731   1.421  14.046  1.4957 -1.8798  0.9668
   74MPD2    N1 1159   2.074   1.827  13.817  1.2106  0.2805 -0.1685
   74MPD2    H7 1160   2.140   1.755  13.789  1.0065  0.1977 -0.4331
   75TMC2    C1 1161   2.024   2.600  14.089  0.6012  0.7941  0.0949
   75TMC2    C2 1162   1.954   2.669  14.182  0.6498  0.1709 -0.2016
   75TMC2    C3 1163   1.857   2.761  14.150 -0.5694 -0.0938  0.1210
   75TMC2    C4 1164   1.989   2.615  13.956  0.4491 -0.1260  0.2937
   75TMC2    C5 1165   1.902   2.723  13.928  0.5579 -0.4149  0.0723
   75TMC2    C6 1166   1.833   2.786  14.022 -0.4661 -0.3178 -0.0442
   75TMC2     C 1167   2.155   2.560  14.126 -0.1176  0.2403 -0.2824
   75TMC2     O 1168   2.182   2.570  14.246 -0.5827 -0.4620 -0.4000
   75TMC2     H 1169   1.986   2.653  14.285 -0.0551 -0.6875 -0.1187
   75TMC2    H1 1170   2.051   2.578  13.875 -1.2120 -2.7484  0.2300
   75TMC2    H2 1171   1.775   2.876  14.006 -1.5593 -1.1229 -0.5462
   75TMC2    C7 1172   1.895   2.759  13.790 -0.5477 -0.1881 -0.7477
   75TMC2    C8 1173   1.784   2.840  14.255  0.8883 -0.1829 -0.9575
   75TMC2    O1 1174   1.878   2.661  13.712  0.0187 -0.3717 -0.1943
   75TMC2    O2 1175   1.690   2.909  14.229 -0.0113 -0.0860  0.0552
   75TMC2    O5 1176   1.824   2.797  14.374  0.5210  0.2882  0.6441
   75TMC2    H5 1177   1.920   2.778  14.379  0.3862 -0.6239 -0.1456
   76TMC2    C1 1178   2.014   3.459  11.849 -0.0167  0.3508  0.5033
   76TMC2    C2 1179   2.072   3.531  11.750 -0.6929 -0.5310  0.5063
   76TMC2    C3 1180   2.187   3.475  11.698  0.0887  0.1675 -0.0279
   76TMC2    C4 1181   2.071   3.342  11.901 -0.3086 -0.3442  0.5907
   76TMC2    C5 1182   2.185   3.291  11.843 -0.0399  0.0490 -0.3250
   76TMC2    C6 1183   2.248   3.358  11.747  0.2468  0.0068 -0.1265
   76TMC2     C 1184   1.879   3.496  11.877 -0.2239  0.0674  0.1969
   76TMC2     O 1185   1.838   3.594  11.818  0.7822 -0.2729  0.1961
   76TMC2     H 1186   2.026   3.623  11.716  0.0247  0.7584  3.0648
   76TMC2    H1 1187   2.015   3.276  11.967 -2.3870 -1.0396 -1.8683
   76TMC2    H2 1188   2.338   3.316  11.702 -1.2640 -3.2765 -0.0975
   76TMC2    C7 1189   2.275   3.210  11.920  1.1305  0.2986 -1.1382
   76TMC2    C8 1190   2.245   3.541  11.585 -0.1199 -0.6777 -0.2570
   76TMC2    O1 1191   2.348   3.131  11.860  0.3939 -0.0929 -0.1276
   76TMC2    O2 1192   2.291   3.653  11.605  0.1051 -0.2002  0.6327
   76TMC2    O5 1193   2.301   3.446  11.509 -0.1404 -0.4607 -0.1346
   76TMC2    H5 1194   2.238   3.372  11.497  0.7192 -1.4247  1.2621
   77MPD2     C 1195   1.402   3.453  12.092 -0.0836  0.6140 -0.5827
   77MPD2    C1 1196   1.450   3.544  12.005  0.3232 -0.5292  0.1010
   77MPD2    C2 1197   1.584   3.531  11.957  0.5298  0.5442 -0.2598
   77MPD2    C3 1198   1.669   3.431  12.000  0.6092 -0.6635 -0.0196
   77MPD2    C4 1199   1.610   3.335  12.077  0.1139 -0.0551  0.3825
   77MPD2    C5 1200   1.480   3.346  12.122 -0.9228  0.2464  0.0733
   77MPD2     H 1201   1.612   3.613  11.892  0.8632 -0.9970 -2.0801
   77MPD2    H1 1202   1.660   3.240  12.093  0.4240 -0.0774 -0.7057
   77MPD2    H2 1203   1.295   3.449  12.108  0.0224  0.2492  0.0245
   77MPD2    H3 1204   1.446   3.271  12.193  1.9325 -0.3655  0.8061
   77MPD2     N 1205   1.810   3.410  11.964  0.6753 -0.4166  0.2572
   77MPD2    H5 1206   1.853   3.330  12.009 -0.8994 -1.9475 -0.9836
   77MPD2    N1 1207   1.377   3.658  11.967 -0.0491  0.1221  0.3147
   77MPD2    H7 1208   1.418   3.728  11.907  1.2649  0.4487  1.5804
   78TMC2    C1 1209   2.236   3.779   1.108 -0.0137  0.6463  0.2905
   78TMC2    C2 1210   2.109   3.814   1.086  0.4051 -0.0258 -0.3818
   78TMC2    C3 1211   2.044   3.892   1.182  0.0719 -1.1323 -0.1648
   78TMC2    C4 1212   2.311   3.823   1.206  0.3960 -0.7082  0.5702
   78TMC2    C5 1213   2.250   3.911   1.296  0.0886  0.8026 -0.0008
   78TMC2    C6 1214   2.118   3.942   1.284 -0.0473  0.1887 -0.1729
   78TMC2     C 1215   2.296   3.703   1.004 -0.7425 -0.4366 -0.2249
   78TMC2     O 1216   2.418   3.721   0.979 -0.1797  0.5007 -0.0026
   78TMC2     H 1217   2.055   3.792   0.994 -1.4237 -0.4620  0.7983
   78TMC2    H1 1218   2.412   3.788   1.222  0.7861 -0.0723 -0.5137
   78TMC2    H2 1219   2.077   4.011   1.356  0.8611  0.6108 -0.0561
   78TMC2    C7 1220   2.322   3.960   1.408  0.0218 -0.1396  0.1382
   78TMC2    C8 1221   1.904   3.934   1.168  0.2856 -0.5110 -0.6409
   78TMC2    O1 1222   2.250   3.975   1.507 -0.6144 -0.5337 -0.1154
   78TMC2    O2 1223   1.864   4.038   1.220 -0.6352 -0.0335  0.0582
   78TMC2    O5 1224   1.833   3.821   1.148  0.4492 -0.2827  0.1744
   78TMC2    H5 1225   1.877   3.745   1.103  2.8991  0.6413  0.9738
   79MPD1     C 1226   2.222   3.361   0.636  0.2789 -0.1142  0.3483
   79MPD1    C1 1227   2.325   3.449   0.656 -0.6236  0.2588  0.1080
   79MPD1    C2 1228   2.325   3.528   0.763  1.0324  0.2071  0.2099
   79MPD1    C3 1229   2.227   3.516   0.861 -0.4416 -0.5047  0.3614
   79MPD1    C4 1230   2.130   3.424   0.847  0.0300  0.4755 -0.0615
   79MPD1    C5 1231   2.125   3.350   0.734  0.3393 -0.8158 -0.0613
   79MPD1     H 1232   2.392   3.613   0.775  0.3667  1.0494 -2.0353
   79MPD1    H1 1233   2.063   3.402   0.930 -0.0344  1.7643  0.2215
   79MPD1    H2 1234   2.196   3.315   0.541 -0.8751 -1.0918  1.1367
   79MPD1    H3 1235   2.036   3.290   0.728 -0.0595 -0.4287  1.9021
   79MPD1     N 1236   2.208   3.603   0.968  0.8831 -0.5387 -0.3405
   79MPD1    H5 1237   2.126   3.593   1.027  2.0921 -1.7901  1.1232
   79MPD1    N1 1238   2.411   3.469   0.554 -0.5911 -0.0455  0.2038
   79MPD1    H6 1239   2.417   3.384   0.500  1.3296 -0.7234  1.4701
   79MPD1    H7 1240   2.504   3.504   0.579  0.7983 -3.3995 -0.2256
   80TMC2    C1 1241   0.644   2.739  12.160  0.5270  0.0345 -0.3802
   80TMC2    C2 1242   0.761   2.719  12.088  0.0765 -0.0450  0.3178
   80TMC2    C3 1243   0.753   2.650  11.963 -0.6446  0.4091 -0.1567
   80TMC2    C4 1244   0.526   2.677  12.128 -0.1167 -1.1854 -0.2207
   80TMC2    C5 1245   0.530   2.599  12.010  0.0431 -0.0688  0.3301
   80TMC2    C6 1246   0.637   2.587  11.923 -0.0829 -0.4505  0.0021
   80TMC2     C 1247   0.650   2.870  12.218 -0.3999 -0.6004 -0.6858
   80TMC2     O 1248   0.742   2.941  12.185  0.7663 -0.2187  0.3954
   80TMC2     H 1249   0.850   2.780  12.100  1.0917 -1.2833 -1.0185
   80TMC2    H1 1250   0.436   2.699  12.184  0.5863 -1.6712  1.0786
   80TMC2    H2 1251   0.634   2.530  11.831  1.7203 -0.7326  0.1161
   80TMC2    C7 1252   0.417   2.511  11.977  0.8973  0.0739 -1.0476
   80TMC2    C8 1253   0.864   2.666  11.872  0.5368 -0.6661  0.7050
   80TMC2    O1 1254   0.414   2.458  11.864 -0.3304 -0.0750 -0.6726
   80TMC2    O2 1255   0.956   2.747  11.893  0.1665  0.0454 -0.1462
   80TMC2    O5 1256   0.836   2.611  11.753 -0.3831  0.0369 -0.3057
   80TMC2    H5 1257   0.793   2.525  11.772 -1.9365  1.1196  1.0994
   81MPD2     C 1258   0.580   3.139  12.311 -0.2144 -0.0808  0.3598
   81MPD2    C1 1259   0.506   3.025  12.348  0.0930 -0.0745 -0.1303
   81MPD2    C2 1260   0.398   3.034  12.426  0.5273 -0.7468  0.3293
   81MPD2    C3 1261   0.367   3.160  12.481  0.6357 -0.2254 -0.6051
   81MPD2    C4 1262   0.444   3.272  12.448  1.3025  0.7633  0.2384
   81MPD2    C5 1263   0.552   3.261  12.362 -0.5653  0.6597 -0.0698
   81MPD2     H 1264   0.339   2.946  12.451  1.1055 -1.1163  0.3799
   81MPD2    H1 1265   0.417   3.371  12.483  1.1282  1.5458 -2.0512
   81MPD2    H2 1266   0.656   3.131  12.235 -1.3187 -0.1259 -0.7473
   81MPD2    H3 1267   0.604   3.352  12.337  1.0320 -0.9606 -2.7083
   81MPD2     N 1268   0.260   3.178  12.574 -0.3997  0.0550  0.3678
   81MPD2    H5 1269   0.199   3.098  12.582  0.2759 -0.5737 -0.7971
   81MPD2    N1 1270   0.537   2.900  12.285  0.2134 -0.3946  0.0124
   81MPD2    H7 1271   0.483   2.816  12.304 -2.1096  0.5993 -2.1461
   82TMC2    C1 1272   3.008   2.254  10.576  0.1211  0.3404 -0.0593
   82TMC2    C2 1273   3.108   2.297  10.497 -0.6819 -0.2884  0.0636
   82TMC2    C3 1274   3.233   2.322  10.550  0.3975 -0.2702  0.4627
   82TMC2    C4 1275   3.024   2.231  10.711 -0.1558 -0.4051 -0.0158
   82TMC2    C5 1276   3.148   2.250  10.760  0.2124 -0.0998  0.8534
   82TMC2    C6 1277   3.254   2.305  10.684  0.7090  0.1084 -0.6564
   82TMC2     C 1278   2.877   2.309  10.538  0.7808  0.0837  0.1942
   82TMC2     O 1279   2.779   2.278  10.600  0.0788 -0.2516 -0.1011
   82TMC2     H 1280   3.100   2.291  10.389  0.4207  0.6884 -0.0749
   82TMC2    H1 1281   2.939   2.190  10.764  0.1298 -0.4763  0.3862
   82TMC2    H2 1282   3.350   2.329  10.728  1.1259 -0.3908 -1.3052
   82TMC2    C7 1283   3.169   2.200  10.893 -0.3333  0.2962  0.3975
   82TMC2    C8 1284   3.305   2.436  10.491 -0.0645 -0.5753 -0.0418
   82TMC2    O1 1285   3.061   2.184  10.949 -0.5908  0.5620 -0.5152
   82TMC2    O2 1286   3.243   2.529  10.435 -0.0867  0.2423  0.6541
   82TMC2    O5 1287   3.433   2.436  10.538  0.4372 -0.5021 -0.1853
   82TMC2    H5 1288   3.457   2.344  10.562  0.2370 -0.3255  0.6838
   83MPD2     C 1289   2.620   2.650  10.275  0.2540 -0.7133 -0.4576
   83MPD2    C1 1290   2.580   2.541  10.348  0.0490 -0.7037 -0.0648
   83MPD2    C2 1291   2.670   2.461  10.407  0.2844 -0.8852  0.7211
   83MPD2    C3 1292   2.806   2.492  10.395  0.2721  0.3563  0.3183
   83MPD2    C4 1293   2.844   2.607  10.328 -0.1144  0.6742  0.6320
   83MPD2    C5 1294   2.752   2.688  10.263 -0.1749 -0.3376  0.0893
   83MPD2     H 1295   2.632   2.366  10.444 -0.6166 -0.8343 -0.0596
   83MPD2    H1 1296   2.949   2.620  10.304  0.0035  0.2066  0.9026
   83MPD2    H2 1297   2.548   2.712  10.223  0.3362 -1.0418 -0.9595
   83MPD2    H3 1298   2.784   2.772  10.202 -0.1104 -0.1117  0.4317
   83MPD2     N 1299   2.899   2.407  10.449  0.0832  0.5380  0.0487
   83MPD2    H5 1300   2.993   2.439  10.427  0.9238 -1.4925  0.7224
   83MPD2    N1 1301   2.443   2.504  10.334  0.0380  0.0266  0.3710
   83MPD2    H7 1302   2.389   2.555  10.265  0.4961  1.2453  0.9227
   84TMC2    C1 1303   4.379   0.727  11.655  0.6548 -0.0871 -0.5045
   84TMC2    C2 1304   4.448   0.611  11.661 -0.2834  0.5108 -0.0995
   84TMC2    C3 1305   4.395   0.500  11.608 -0.1944  0.2291  0.3540
   84TMC2    C4 1306   4.259   0.736  11.579 -0.7190 -0.1300 -0.3850
   84TMC2    C5 1307   4.213   0.626  11.517  0.8199  0.9032  0.3050
   84TMC2    C6 1308   4.275   0.504  11.530  0.2507 -0.0099  0.4042
   84TMC2     C 1309   4.427   0.837  11.729  0.1120 -0.0755 -0.5836
   84TMC2     O 1310   4.428   0.952  11.685  0.2227 -0.2425  0.5423
   84TMC2     H 1311   4.541   0.609  11.715 -1.1594  0.7536  1.4116
   84TMC2    H1 1312   4.206   0.830  11.575 -0.4009  0.0608 -0.1845
   84TMC2    H2 1313   4.248   0.412  11.478 -1.1547  0.8870 -0.4652
   84TMC2    C7 1314   4.109   0.652  11.422  0.6039  0.0537 -0.8977
   84TMC2    C8 1315   4.464   0.374  11.626 -0.1319 -0.0661  0.9371
   84TMC2    O1 1316   4.098   0.770  11.387 -0.0131 -0.3712 -0.5912
   84TMC2    O2 1317   4.405   0.271  11.656  0.0058  0.1335  0.1650
   84TMC2    O5 1318   4.594   0.387  11.611 -0.1147  0.0348 -0.2659
   84TMC2    H5 1319   4.613   0.473  11.567  0.3053  0.3034  0.4547
   85TMC2    C1 1320   0.418   4.649  15.959  0.1540  0.2067  0.0160
   85TMC2    C2 1321   0.452   0.002  16.053 -0.2197 -0.2749  0.3071
   85TMC2    C3 1322   0.448   0.128  16.010  0.0478  0.1844  0.3992
   85TMC2    C4 1323   0.393   4.672  15.827 -0.1982 -0.3480  0.0291
   85TMC2    C5 1324   0.398   0.063  15.792  0.8675 -0.9513  0.1363
   85TMC2    C6 1325   0.425   0.161  15.881 -0.0566 -0.0965 -0.4144
   85TMC2     C 1326   0.386   4.519  16.011 -0.7863 -0.0800 -0.2085
   85TMC2     O 1327   0.301   4.457  15.947 -0.9148 -0.7222 -0.3195
   85TMC2     H 1328   0.460   4.728  16.161 -1.7695 -2.2536  0.1555
   85TMC2    H1 1329   0.375   4.592  15.756 -0.0986  0.3872 -0.8323
   85TMC2    H2 1330   0.429   0.267  15.859 -0.7456 -0.0665 -0.3920
   85TMC2    C7 1331   0.407   0.103  15.645  0.3398 -0.4059  0.1495
   85TMC2    C8 1332   0.434   0.235  16.109  0.0611 -0.3139 -0.3022
   85TMC2    O1 1333   0.411   0.009  15.566 -0.2982 -0.5283  0.2031
   85TMC2    O2 1334   0.455   0.350  16.070 -0.6736 -0.6993 -0.1300
   85TMC2    O5 1335   0.351   0.196  16.205 -0.1189 -0.4035 -0.4173
   85TMC2    H5 1336   0.328   0.101  16.201  1.8162 -0.8274 -1.2359
   86MPD2     C 1337   0.384   4.161  16.385  0.9473  0.2400  0.1907
   86MPD2    C1 1338   0.285   4.192  16.293 -0.5156  0.2954 -0.0461
   86MPD2    C2 1339   0.311   4.292  16.204  0.4624  0.3686  0.4617
   86MPD2    C3 1340   0.432   4.362  16.202  0.4553 -0.3659 -0.1626
   86MPD2    C4 1341   0.523   4.329  16.302 -0.0131 -0.4431  0.2352
   86MPD2    C5 1342   0.493   4.243  16.399  0.3623  0.2236 -0.6062
   86MPD2     H 1343   0.232   4.324  16.137  0.5226  0.5646  0.4832
   86MPD2    H1 1344   0.616   4.384  16.303 -0.7182  0.7074  1.6659
   86MPD2    H2 1345   0.364   4.082  16.457 -0.6758  0.7324  0.2699
   86MPD2    H3 1346   0.564   4.225  16.478 -0.7894  2.0920  0.8517
   86MPD2     N 1347   0.454   4.482  16.126  0.7030  0.1274  0.2320
   86MPD2    H5 1348   0.546   4.521  16.146  1.0347 -0.6239  0.1878
   86MPD2    N1 1349   0.167   4.115  16.285 -0.4264 -0.0676 -0.0560
   86MPD2    H7 1350   0.111   4.113  16.200  0.6050 -0.3911 -0.7201
   87TMC2    C1 1351   2.715   2.412   0.933  0.6467  0.4775  0.3197
   87TMC2    C2 1352   2.615   2.358   1.006  0.7413  0.5748 -0.6952
   87TMC2    C3 1353   2.584   2.407   1.131  0.4014 -0.2815 -0.4158
   87TMC2    C4 1354   2.801   2.505   0.990  0.3205  0.3997 -0.6910
   87TMC2    C5 1355   2.771   2.546   1.116 -0.4623  0.3654  0.2529
   87TMC2    C6 1356   2.667   2.492   1.189  0.2650 -0.6230  0.0806
   87TMC2     C 1357   2.736   2.360   0.797 -0.3414  0.2874 -0.1298
   87TMC2     O 1358   2.699   2.246   0.769 -0.2256  0.1241  0.8443
   87TMC2     H 1359   2.540   2.295   0.961  1.2466 -0.0360 -0.6758
   87TMC2    H1 1360   2.878   2.559   0.937 -0.0523  0.0493 -1.5928
   87TMC2    H2 1361   2.616   2.544   1.269  2.6182  0.2248  1.0292
   87TMC2    C7 1362   2.820   2.677   1.165  1.2876  0.4181  0.3001
   87TMC2    C8 1363   2.451   2.376   1.197 -0.9384  0.3963 -0.1237
   87TMC2    O1 1364   2.768   2.729   1.260  0.1732  0.5340  0.1740
   87TMC2    O2 1365   2.354   2.346   1.137  0.4263  0.2957  0.0598
   87TMC2    O5 1366   2.489   2.336   1.318 -0.1727 -0.6850 -0.3908
   87TMC2    H5 1367   2.560   2.394   1.351 -1.3364 -0.5676  1.8695
   88MPD2     C 1368   3.118   2.878   1.050 -0.6827  0.1595  0.4605
   88MPD2    C1 1369   2.995   2.852   1.115  0.3378 -0.3506 -0.6424
   88MPD2    C2 1370   2.933   2.968   1.168 -0.1791 -0.2987  0.2812
   88MPD2    C3 1371   2.989   3.096   1.154  0.4813 -0.3057  0.9169
   88MPD2    C4 1372   3.112   3.108   1.092 -0.1778 -0.4385 -1.0533
   88MPD2    C5 1373   3.176   3.002   1.040  0.0942  0.6771  0.8208
   88MPD2     H 1374   2.838   2.959   1.219  0.0734  0.7291  0.9497
   88MPD2    H1 1375   3.149   3.210   1.083 -2.0750  0.5485  2.2517
   88MPD2    H2 1376   3.181   2.799   1.011  0.0962  0.5194  0.9867
   88MPD2    H3 1377   3.271   3.018   0.991 -0.7898  1.4562 -0.6320
   88MPD2     N 1378   2.919   3.211   1.198  0.2348 -0.3323  0.4034
   88MPD2    H5 1379   2.957   3.301   1.168 -0.9659  0.3897  1.0400
   88MPD2    N1 1380   2.936   2.719   1.105 -0.1800 -0.2755  0.0637
   88MPD2    H7 1381   2.982   2.647   1.050  0.0973 -0.0459 -0.0008
   89TMC2    C1 1382   3.005   0.836   1.486 -0.0847  0.1754 -0.5110
   89TMC2    C2 1383   2.926   0.838   1.603  0.2006  0.3928  0.1539
   89TMC2    C3 1384   2.875   0.955   1.647 -0.4118 -0.0204 -0.2306
   89TMC2    C4 1385   3.004   0.943   1.402 -0.1336  0.7219 -0.4462
   89TMC2    C5 1386   2.946   1.062   1.444 -0.5533 -0.6206  0.0602
   89TMC2    C6 1387   2.897   1.069   1.569 -0.1965  0.2206  0.0383
   89TMC2     C 1388   3.053   0.712   1.437  0.4759 -0.0023 -0.6922
   89TMC2     O 1389   3.063   0.686   1.318 -0.4629  0.2897 -0.4329
   89TMC2     H 1390   2.915   0.751   1.667 -2.3784  0.1759 -0.5726
   89TMC2    H1 1391   3.055   0.920   1.309  0.8341 -0.0829  0.2810
   89TMC2    H2 1392   2.848   1.157   1.610 -0.9098 -0.3809  0.4942
   89TMC2    C7 1393   2.903   1.169   1.350 -0.0885  0.0229  0.1866
   89TMC2    C8 1394   2.758   0.962   1.740  0.6303 -0.1416  0.7552
   89TMC2    O1 1395   2.828   1.252   1.401 -0.2163  0.0642  0.8291
   89TMC2    O2 1396   2.684   1.057   1.728 -0.1112 -0.1349 -0.0579
   89TMC2    O5 1397   2.721   0.839   1.776  0.4080 -0.1582 -0.1747
   89TMC2    H5 1398   2.794   0.780   1.804  0.9412  0.3336 -0.5190
   90MPD2     C 1399   3.225   0.249   1.601  0.1105  0.2244  0.6316
   90MPD2    C1 1400   3.157   0.282   1.488  0.0979 -0.5009 -0.1036
   90MPD2    C2 1401   3.132   0.416   1.462  0.2775  0.7828 -0.0319
   90MPD2    C3 1402   3.150   0.508   1.564 -0.0002 -0.4143 -0.4506
   90MPD2    C4 1403   3.220   0.473   1.677  0.4156  0.1803  0.1492
   90MPD2    C5 1404   3.266   0.344   1.687 -0.1362  0.4186  0.2627
   90MPD2     H 1405   3.073   0.456   1.381 -0.1004  0.5162  0.1111
   90MPD2    H1 1406   3.230   0.539   1.762  0.4317  1.2044 -0.6349
   90MPD2    H2 1407   3.239   0.148   1.639  0.3669  0.4055  1.0228
   90MPD2    H3 1408   3.302   0.308   1.782 -3.0456  0.5871  1.4289
   90MPD2     N 1409   3.105   0.645   1.548 -0.2285  0.3944  0.2749
   90MPD2    H5 1410   3.126   0.709   1.624 -0.6722  1.1626 -0.2409
   90MPD2    N1 1411   3.123   0.186   1.389 -0.3297  0.1597 -0.3342
   90MPD2    H7 1412   3.074   0.212   1.304 -1.4180  0.0700  0.2710
   91TMC2    C1 1413   4.533   0.163  16.025 -0.2774 -0.7819 -0.4835
   91TMC2    C2 1414   4.634   0.098  15.965 -0.5211  0.8246  0.2117
   91TMC2    C3 1415   4.599   0.005  15.866 -0.0909 -0.4290  0.0283
   91TMC2    C4 1416   4.406   0.120  16.006 -0.4485  0.0533  0.1874
   91TMC2    C5 1417   4.376   0.029  15.915 -0.0308 -0.2141 -0.0488
   91TMC2    C6 1418   4.472   4.717  15.839  0.3172  0.4443 -0.8666
   91TMC2     C 1419   4.565   0.265  16.122 -0.1570  0.7996  0.4829
   91TMC2     O 1420   4.475   0.312  16.185  0.3520 -0.1146  0.2458
   91TMC2     H 1421   4.739   0.110  15.990 -0.2274 -0.3419 -0.4903
   91TMC2    H1 1422   4.328   0.171  16.061 -0.2467 -1.2842  1.6966
   91TMC2    H2 1423   4.453   4.645  15.760 -1.8658  0.8912 -0.7429
   91TMC2    C7 1424   4.242   4.725  15.879  0.4964 -0.2227 -0.1869
   91TMC2    C8 1425   4.697   4.662  15.806 -0.2018  0.2988 -0.5279
   91TMC2    O1 1426   4.233   4.629  15.809  0.3165  0.1905 -0.2625
   91TMC2    O2 1427   4.678   4.544  15.778 -0.4631 -0.0206  0.1634
   91TMC2    O5 1428   0.042   0.003  15.746  0.0076  0.2162  0.3413
   91TMC2    H5 1429   0.018   0.098  15.754  1.9938  0.6749  0.6539
   92MPD2     C 1430   4.693   0.451  16.327 -0.5683 -0.1222 -0.3657
   92MPD2    C1 1431   0.012   0.400  16.210  0.1626 -0.2773 -0.4523
   92MPD2    C2 1432   0.144   0.443  16.182 -0.5980 -1.3163  0.8633
   92MPD2    C3 1433   0.210   0.540  16.251  0.0109 -0.4326  0.2659
   92MPD2    C4 1434   0.150   0.589  16.366  0.6158 -0.0249 -0.0162
   92MPD2    C5 1435   0.029   0.536  16.400 -0.5991  0.3831 -0.7581
   92MPD2     H 1436   0.187   0.386  16.099  1.8146  0.4071  0.9287
   92MPD2    H1 1437   0.199   0.664  16.427  2.0768 -1.5863  0.7122
   92MPD2    H2 1438   4.594   0.421  16.361 -1.6188  3.9016  0.1638
   92MPD2    H3 1439   4.723   0.570  16.493  1.1890 -2.1366  1.0555
   92MPD2     N 1440   0.337   0.578  16.210 -0.5767  0.1096  0.0753
   92MPD2    H5 1441   0.387   0.507  16.157 -0.4374 -0.1097  0.5030
   92MPD2    N1 1442   4.698   0.302  16.126  0.6874  0.0007 -0.5657
   92MPD2    H7 1443   0.011   0.264  16.049  2.2353  0.1220  0.4272
   93TMC2    C1 1444   1.939   1.010  13.723 -0.5609  0.6747  0.3550
   93TMC2    C2 1445   1.927   0.926  13.829 -0.4356 -0.2251  0.2682
   93TMC2    C3 1446   2.032   0.852  13.873  0.2240 -0.4303  0.0455
   93TMC2    C4 1447   2.068   1.031  13.675 -0.3379 -0.3976 -0.6219
   93TMC2    C5 1448   2.175   0.972  13.741  0.7155 -0.4566  0.0360
   93TMC2    C6 1449   2.161   0.870  13.830 -0.0756 -0.1505  0.1357
   93TMC2     C 1450   1.852   1.125  13.713  0.2284 -0.5558 -0.5440
   93TMC2     O 1451   1.898   1.222  13.653 -0.1914 -0.8491  0.2417
   93TMC2     H 1452   1.831   0.915  13.877  0.3923 -1.9058  1.5609
   93TMC2    H1 1453   2.081   1.102  13.594  3.8064  0.2658  0.6519
   93TMC2    H2 1454   2.251   0.826  13.871  0.1935  1.4258  1.2572
   93TMC2    C7 1455   2.311   1.021  13.732  0.1014 -0.5304  0.1708
   93TMC2    C8 1456   2.020   0.766  13.992 -0.5178  0.1140 -0.1035
   93TMC2    O1 1457   2.402   0.948  13.764  0.2551 -0.1135  0.4414
   93TMC2    O2 1458   1.950   0.786  14.090  0.9286 -0.3782  0.3439
   93TMC2    O5 1459   2.120   0.670  13.986  0.3488  0.2065  0.2749
   93TMC2    H5 1460   2.150   0.636  13.899 -0.0156 -0.8471  0.5605
   94MPD2     C 1461   1.622   1.302  13.664 -0.7142 -0.2922 -0.2323
   94MPD2    C1 1462   1.616   1.194  13.752  0.5973 -0.3102 -0.8437
   94MPD2    C2 1463   1.506   1.164  13.839  0.0340  0.5184  0.5692
   94MPD2    C3 1464   1.390   1.233  13.813 -0.4317 -0.7483  0.0282
   94MPD2    C4 1465   1.393   1.335  13.712 -0.2853 -0.6497  0.9172
   94MPD2    C5 1466   1.503   1.371  13.646  0.4365  0.2526  0.0278
   94MPD2     H 1467   1.511   1.084  13.912  1.8220 -1.7469 -2.0489
   94MPD2    H1 1468   1.309   1.398  13.684 -0.2510  0.0512  2.3646
   94MPD2    H2 1469   1.706   1.331  13.602 -0.6311 -0.6054 -0.2616
   94MPD2    H3 1470   1.496   1.442  13.564 -1.7065  0.7699  0.6639
   94MPD2     N 1471   1.273   1.207  13.885 -0.3228  0.2959  0.2762
   94MPD2    H5 1472   1.189   1.247  13.844 -1.1258  1.4202  3.0186
   94MPD2    N1 1473   1.729   1.108  13.773 -0.2299 -0.2632 -0.3483
   94MPD2    H7 1474   1.716   1.031  13.838 -0.2490  0.3880  0.4177
   95TMC2    C1 1475   1.954   2.347  16.148  0.7258  0.3429 -0.3291
   95TMC2    C2 1476   1.892   2.274  16.051 -0.1865  0.1080 -0.4741
   95TMC2    C3 1477   1.809   2.169  16.081 -0.3782 -0.6506 -0.2112
   95TMC2    C4 1478   1.918   2.316  16.280 -0.6074  0.5930 -0.0140
   95TMC2    C5 1479   1.836   2.205  16.308  0.2977  0.5891 -0.3644
   95TMC2    C6 1480   1.776   2.134  16.206  0.2277  0.3940 -0.3125
   95TMC2     C 1481   2.011   2.472  16.101 -0.5431 -0.4140  1.0173
   95TMC2     O 1482   2.033   2.481  15.979  0.4523 -0.5044 -0.3570
   95TMC2     H 1483   1.887   2.306  15.948  0.2601 -1.7369 -1.0812
   95TMC2    H1 1484   1.970   2.366  16.360  0.3917 -2.5026  1.2956
   95TMC2    H2 1485   1.693   2.066  16.224  1.2461 -0.4664  1.1656
   95TMC2    C7 1486   1.818   2.150  16.442 -0.1544  1.1435 -0.5348
   95TMC2    C8 1487   1.755   2.092  15.972  0.1625 -0.1501  1.3425
   95TMC2    O1 1488   1.745   2.055  16.443 -0.2038  0.4765 -0.0902
   95TMC2    O2 1489   1.650   2.027  15.975 -0.5228  0.4882  0.0669
   95TMC2    O5 1490   1.864   2.060  15.899  0.0737 -0.0608 -0.5945
   95TMC2    H5 1491   1.949   2.100  15.926  0.8568 -3.0855  1.4309
   96MPD2     C 1492   2.296   2.882  16.178 -0.3565  0.0045 -0.2127
   96MPD2    C1 1493   2.260   2.828  16.062  0.5883  0.0966  0.1940
   96MPD2    C2 1494   2.167   2.730  16.061 -0.4439 -0.2751 -0.6054
   96MPD2    C3 1495   2.115   2.682  16.183 -0.3685  0.6419 -0.4128
   96MPD2    C4 1496   2.156   2.738  16.296 -0.3173  0.5101  0.4815
   96MPD2    C5 1497   2.238   2.845  16.291  0.4581 -0.1853  0.1122
   96MPD2     H 1498   2.139   2.683  15.968  1.3254 -1.3234 -0.6040
   96MPD2    H1 1499   2.120   2.709  16.393  0.4635  0.9087  0.8919
   96MPD2    H2 1500   2.379   2.952  16.181  0.8456 -1.4106 -0.2866
   96MPD2    H3 1501   2.268   2.895  16.383  0.2950 -1.2512  0.7501
   96MPD2     N 1502   2.041   2.561  16.201  0.5406 -0.1181  0.7444
   96MPD2    H5 1503   2.006   2.535  16.293 -0.9049  0.0777  0.2625
   96MPD2    N1 1504   2.321   2.877  15.945  0.2092  0.1454  0.6097
   96MPD2    H7 1505   2.379   2.959  15.958 -0.2516  0.6210 -0.4071
   97TMC2    C1 1506   4.488   0.733  17.612 -0.4223  0.2643  0.9634
   97TMC2    C2 1507   4.418   0.743  17.496  0.1979  0.2474 -0.6458
   97TMC2    C3 1508   4.430   0.861  17.427  0.7885  0.2830 -0.2304
   97TMC2    C4 1509   4.570   0.837  17.650  0.1606  0.1052  0.0177
   97TMC2    C5 1510   4.584   0.947  17.570 -0.0396 -0.2550 -0.1349
   97TMC2    C6 1511   4.512   0.966  17.459  0.4971 -0.1084 -0.1719
   97TMC2     C 1512   4.502   0.604  17.677 -0.0872 -0.0710 -0.0573
   97TMC2     O 1513   4.400   0.537  17.683  0.0717  0.3043 -0.1083
   97TMC2     H 1514   4.349   0.663  17.472 -1.9985  1.3379  2.0554
   97TMC2    H1 1515   4.636   0.834  17.737 -1.5064  0.9040  1.3101
   97TMC2    H2 1516   4.522   1.050  17.392  1.2405 -0.4220 -0.4431
   97TMC2    C7 1517   4.673   1.051  17.627  1.1569  0.5375 -0.6119
   97TMC2    C8 1518   4.364   0.865  17.302 -0.0665 -0.5156  1.0859
   97TMC2    O1 1519   4.721   1.039  17.738  0.2671 -0.3087  0.6820
   97TMC2    O2 1520   4.390   0.939  17.206 -0.0956 -0.0603  0.0156
   97TMC2    O5 1521   4.246   0.796  17.328 -0.3175 -0.1279  0.2656
   97TMC2    H5 1522   4.228   0.793  17.425  0.7978  0.5682  0.4942
   98MPD2     C 1523   0.005   0.337   0.282 -0.3352  0.6466  0.1484
   98MPD2    C1 1524   4.611   0.355   0.253 -0.5437  0.3418  0.4806
   98MPD2    C2 1525   4.568   0.432   0.146 -0.1750 -0.1712 -0.2625
   98MPD2    C3 1526   4.667   0.495   0.067  0.0460 -0.8679  0.7002
   98MPD2    C4 1527   0.058   0.487   0.104 -0.1097  0.4437 -0.2341
   98MPD2    C5 1528   0.095   0.398   0.199  0.0125  0.6101 -0.1318
   98MPD2     H 1529   4.463   0.449   0.124 -0.3855 -0.0522  0.8185
   98MPD2    H1 1530   0.134   0.546   0.055  1.0532 -3.2057 -2.8697
   98MPD2    H2 1531   0.038   0.276   0.365  0.7936  0.1830 -0.6414
   98MPD2    H3 1532   0.201   0.376   0.200 -0.6613 -2.7386 -2.4447
   98MPD2     N 1533   4.628   0.590  17.731 -0.4267  0.1327 -0.0276
   98MPD2    H5 1534   4.708   0.639  17.692  0.9738 -1.6012  0.6297
   98MPD2    N1 1535   4.519   0.286   0.335  0.1546  0.5888  0.6261
   98MPD2    H7 1536   4.546   0.210   0.397 -0.9224  0.8441  1.4054
   99TMC2    C1 1537   3.381   1.831   1.108 -0.3773 -0.2481 -0.2196
   99TMC2    C2 1538   3.511   1.797   1.137  0.0484 -0.5693 -0.2644
   99TMC2    C3 1539   3.550   1.762   1.264 -0.3370  0.0071  0.3635
   99TMC2    C4 1540   3.291   1.843   1.210  0.0753  0.4637 -0.3587
   99TMC2    C5 1541   3.348   1.810   1.340  0.4704 -0.2776  0.2699
   99TMC2    C6 1542   3.474   1.763   1.373  0.6450 -0.6323 -0.6715
   99TMC2     C 1543   3.336   1.828   0.973  0.3205  0.2456  0.5715
   99TMC2     O 1544   3.430   1.812   0.900 -0.0929 -0.0364  0.1376
   99TMC2     H 1545   3.586   1.786   1.059  1.8287  0.1749  1.3509
   99TMC2    H1 1546   3.189   1.879   1.202 -0.4879 -1.3271 -1.1788
   99TMC2    H2 1547   3.509   1.748   1.474 -1.2117 -0.7852 -0.0458
   99TMC2    C7 1548   3.263   1.832   1.458  0.6892  0.9921  0.0709
   99TMC2    C8 1549   3.685   1.732   1.295  0.1005  0.6126 -0.2473
   99TMC2    O1 1550   3.319   1.851   1.565 -0.6241 -0.1496 -0.1750
   99TMC2    O2 1551   3.737   1.756   1.404 -0.3037  0.2406 -0.9662
   99TMC2    O5 1552   3.752   1.709   1.179 -0.5073  0.0688  0.1546
   99TMC2    H5 1553   3.700   1.650   1.120 -0.2044  1.5738 -1.5994
  100MPD2     C 1554   3.231   1.913   0.714 -0.4557  0.2110  0.1673
  100MPD2    C1 1555   3.148   1.895   0.821 -0.6157 -0.1637  0.5101
  100MPD2    C2 1556   3.015   1.907   0.813 -0.4296  0.6391 -0.1942
  100MPD2    C3 1557   2.957   1.937   0.694 -0.2751  0.1652 -0.8336
  100MPD2    C4 1558   3.031   1.959   0.584  0.4585 -1.1117 -0.2712
  100MPD2    C5 1559   3.169   1.941   0.595  0.3057 -0.3771  0.4088
  100MPD2     H 1560   2.947   1.878   0.893 -0.0935  0.0005 -0.1471
  100MPD2    H1 1561   2.981   1.996   0.495 -0.7952 -4.3147 -0.8631
  100MPD2    H2 1562   3.340   1.912   0.714 -0.4286  3.4235 -0.9913
  100MPD2    H3 1563   3.236   1.956   0.511 -0.0060 -0.8296  0.0817
  100MPD2     N 1564   2.809   1.940   0.694 -0.2260 -0.3668 -0.0533
  100MPD2    H5 1565   2.765   1.922   0.783 -1.9390  0.3995 -0.7514
  100MPD2    N1 1566   3.205   1.866   0.949  0.1540  0.5715 -0.2659
  100MPD2    H7 1567   3.141   1.877   1.028 -0.8576  2.0150 -1.2767
  101TMC2    C1 1568   3.482   3.637  13.093 -0.0972 -0.4707  0.0845
  101TMC2    C2 1569   3.392   3.740  13.073  0.6735  0.3702  0.1262
  101TMC2    C3 1570   3.425   3.850  12.995  0.5298  0.1976  0.4449
  101TMC2    C4 1571   3.601   3.652  13.025  0.5250  0.4588  0.9164
  101TMC2    C5 1572   3.635   3.772  12.966  0.3077 -0.2304 -0.4399
  101TMC2    C6 1573   3.546   3.868  12.942  0.3350  0.0200 -0.0997
  101TMC2     C 1574   3.442   3.502  13.117 -0.6402  0.4387  0.0550
  101TMC2     O 1575   3.362   3.475  13.205 -0.5518  0.0603  0.6288
  101TMC2     H 1576   3.294   3.726  13.116 -0.5467  1.8905 -2.1883
  101TMC2    H1 1577   3.674   3.572  13.028  0.0155 -0.1223 -2.4167
  101TMC2    H2 1578   3.583   3.960  12.899  0.2464  0.9528  1.7992
  101TMC2    C7 1579   3.771   3.798  12.923 -0.2576  0.2236  0.3174
  101TMC2    C8 1580   3.334   3.961  12.991 -0.2937 -0.2367  0.0783
  101TMC2    O1 1581   3.782   3.880  12.832  0.2576 -0.3053 -0.3241
  101TMC2    O2 1582   3.217   3.951  12.958  0.5127  0.4090  0.1428
  101TMC2    O5 1583   3.358   4.028  13.105 -0.3891 -0.4545  0.4046
  101TMC2    H5 1584   3.449   4.015  13.140 -1.2626 -0.7443  2.5619
  102MPD2     C 1585   3.505   3.200  12.897 -0.1534  0.2034  0.1300
  102MPD2    C1 1586   3.462   3.269  13.012 -0.2324  0.6592 -0.7083
  102MPD2    C2 1587   3.408   3.198  13.121  0.3023 -0.7104 -0.2456
  102MPD2    C3 1588   3.396   3.059  13.114  0.1200 -0.2186  0.2787
  102MPD2    C4 1589   3.447   2.992  13.005  0.4962  0.1419  0.1521
  102MPD2    C5 1590   3.496   3.059  12.904 -0.4251  0.7077 -0.2561
  102MPD2     H 1591   3.369   3.254  13.205 -2.2502 -1.8623 -0.6473
  102MPD2    H1 1592   3.442   2.884  12.998  0.9103  0.3189 -2.9686
  102MPD2    H2 1593   3.544   3.254  12.813  1.4413 -1.9104 -0.4985
  102MPD2    H3 1594   3.534   2.996  12.825  2.0122  0.1697  1.3629
  102MPD2     N 1595   3.345   2.998  13.228 -0.3120  0.3478  0.2912
  102MPD2    H5 1596   3.324   3.060  13.305  3.1692 -1.1643  2.4332
  102MPD2    N1 1597   3.484   3.410  13.022  0.8600 -0.6298  0.1279
  102MPD2    H7 1598   3.535   3.450  12.944 -1.4005 -1.1360 -1.6217
  103TMC2    C1 1599   2.389   3.566  12.639 -0.6171  0.1806 -0.1421
  103TMC2    C2 1600   2.509   3.633  12.639 -0.8888  0.3594  0.1777
  103TMC2    C3 1601   2.515   3.730  12.733 -0.0593  0.2588 -0.7889
  103TMC2    C4 1602   2.285   3.591  12.724 -0.0597  0.5052 -0.3531
  103TMC2    C5 1603   2.296   3.698  12.802 -0.3037  0.1893  0.5319
  103TMC2    C6 1604   2.413   3.770  12.813 -0.7490  0.4238  0.4293
  103TMC2     C 1605   2.354   3.468  12.530  0.7196  0.0779  0.5901
  103TMC2     O 1606   2.232   3.452  12.515 -0.5946 -0.5170 -0.2422
  103TMC2     H 1607   2.594   3.613  12.576  0.0087  1.2345  1.1007
  103TMC2    H1 1608   2.197   3.528  12.714 -0.8369  2.1012 -3.4394
  103TMC2    H2 1609   2.425   3.847  12.888  0.7053  0.6807 -0.0578
  103TMC2    C7 1610   2.168   3.732  12.870  0.2931 -0.2765 -0.1504
  103TMC2    C8 1611   2.647   3.771  12.768 -0.6798 -0.0227  0.2289
  103TMC2    O1 1612   2.073   3.656  12.876 -0.1688  0.5311 -0.4255
  103TMC2    O2 1613   2.654   3.857  12.856  0.3876 -0.4182  0.1041
  103TMC2    O5 1614   2.742   3.679  12.736 -0.0723 -0.2850  0.2852
  103TMC2    H5 1615   2.814   3.689  12.802 -0.3511  1.7700  0.2538
  104MPD2     C 1616   2.570   3.241  12.339  0.1516  0.0980 -0.3978
  104MPD2    C1 1617   2.459   3.321  12.361 -0.3451  0.0470 -0.3387
  104MPD2    C2 1618   2.363   3.325  12.263  0.2043  0.2663 -0.4693
  104MPD2    C3 1619   2.368   3.245  12.154 -1.3408  0.5939  0.0408
  104MPD2    C4 1620   2.469   3.155  12.144  0.6788  0.6391 -0.4943
  104MPD2    C5 1621   2.566   3.153  12.239  0.4576 -0.4655  0.1814
  104MPD2     H 1622   2.295   3.410  12.269  1.3254  1.4113 -4.5084
  104MPD2    H1 1623   2.472   3.087  12.060 -1.0334  1.1967 -1.0111
  104MPD2    H2 1624   2.656   3.237  12.405 -0.7067 -2.0794  0.5912
  104MPD2    H3 1625   2.650   3.085  12.238 -0.2814 -1.3782  0.0836
  104MPD2     N 1626   2.268   3.261  12.051 -0.0930 -0.2638 -0.2120
  104MPD2    H5 1627   2.197   3.331  12.070  0.5094  0.2453  0.1691
  104MPD2    N1 1628   2.462   3.406  12.474 -0.6375 -0.4027 -0.2846
  104MPD2    H7 1629   2.553   3.423  12.515 -0.8838 -2.4079  1.1132
  105TMC2    C1 1630   2.807   1.904  17.691 -0.5855 -0.4064  0.1664
  105TMC2    C2 1631   2.694   1.842  17.737 -0.3721 -0.0216  0.2470
  105TMC2    C3 1632   2.642   1.897   0.093 -1.0556 -0.3101  0.4034
  105TMC2    C4 1633   2.872   2.002   0.006 -0.3847  0.5010 -0.3098
  105TMC2    C5 1634   2.814   2.049   0.125  0.9751 -0.3104  0.5527
  105TMC2    C6 1635   2.700   1.993   0.172 -0.1647 -0.3110  0.2716
  105TMC2     C 1636   2.850   1.867  17.557 -0.2692 -0.6699 -0.0404
  105TMC2     O 1637   2.788   1.778  17.502  0.3146  0.1535 -0.3295
  105TMC2     H 1638   2.631   1.783  17.672  1.3850 -2.0411  0.3819
  105TMC2    H1 1639   2.959   2.050  17.719  2.2122 -2.5838  1.4893
  105TMC2    H2 1640   2.647   2.034   0.257 -2.8962 -0.5402 -1.2943
  105TMC2    C7 1641   2.857   2.178   0.174  0.1819  0.1894  0.7831
  105TMC2    C8 1642   2.508   1.855   0.118 -1.1686 -0.4096  0.3643
  105TMC2    O1 1643   2.932   2.243   0.105 -0.3114 -0.6313 -0.2194
  105TMC2    O2 1644   2.472   1.801   0.222 -0.2348 -1.1940  0.4578
  105TMC2    O5 1645   2.448   1.956   0.053  0.5573 -0.3768 -0.3443
  105TMC2    H5 1646   2.506   1.993  17.740 -1.1013  2.9030  0.0245
  106MPD2     C 1647   3.171   1.892  17.168 -0.1471  0.2272  0.7929
  106MPD2    C1 1648   3.193   2.000  17.258 -0.8578  0.4514 -0.3038
  106MPD2    C2 1649   3.117   2.022  17.365 -0.6163  0.5099  0.3023
  106MPD2    C3 1650   3.019   1.933  17.380  0.6155 -0.7045  0.2735
  106MPD2    C4 1651   2.993   1.832  17.298  0.7886  0.6771 -0.4635
  106MPD2    C5 1652   3.068   1.811  17.193  0.2209  0.4245 -0.0434
  106MPD2     H 1653   3.135   2.112  17.422  1.0132 -0.7112  1.7162
  106MPD2    H1 1654   2.902   1.773  17.302  0.6713  0.8957  0.1025
  106MPD2    H2 1655   3.218   1.901  17.071  2.5992 -0.8342  2.0379
  106MPD2    H3 1656   3.040   1.740  17.116  0.9999 -0.7705  0.7707
  106MPD2     N 1657   2.940   1.953  17.494  0.6334 -0.5946  0.7861
  106MPD2    H5 1658   2.973   2.030  17.552  1.2531 -0.9446  0.8995
  106MPD2    N1 1659   3.284   2.105  17.238  0.3634  0.5022 -1.0046
  106MPD2    H7 1660   3.289   2.177  17.309  1.9801 -0.8675  0.2846
  107TMC2    C1 1661   4.441   1.690  12.109 -0.3926 -0.0174  0.1825
  107TMC2    C2 1662   4.532   1.735  12.021 -0.2156 -0.5147 -0.0576
  107TMC2    C3 1663   4.616   1.632  11.982  0.4630  0.1966  0.7346
  107TMC2    C4 1664   4.432   1.562  12.168 -0.8043  0.1791  0.5425
  107TMC2    C5 1665   4.511   1.466  12.117 -0.2009 -0.5258  0.4941
  107TMC2    C6 1666   4.611   1.501  12.028  0.0517 -0.2738  0.5922
  107TMC2     C 1667   4.330   1.778  12.128  0.0081 -0.2131  0.4824
  107TMC2     O 1668   4.267   1.768  12.232  0.4673  0.1171  0.1764
  107TMC2     H 1669   4.540   1.837  11.983 -1.0358 -0.2207  0.5757
  107TMC2    H1 1670   4.342   1.519  12.210  0.2594 -0.1211  2.5439
  107TMC2    H2 1671   4.678   1.426  11.986  1.1547  0.2346  1.4600
  107TMC2    C7 1672   4.486   1.329  12.155  0.2380  0.1774 -0.1099
  107TMC2    C8 1673   4.700   1.657  11.867  0.2877 -0.2328 -0.2574
  107TMC2    O1 1674   4.460   1.303  12.272  1.0496  0.5922 -0.0918
  107TMC2    O2 1675   4.736   1.580  11.785  0.1863 -0.7632 -0.3319
  107TMC2    O5 1676   0.018   1.778  11.900  0.0376 -0.3753  0.3412
  107TMC2    H5 1677   4.737   1.809  11.990  0.6130  2.9174 -0.6614
  108MPD2     C 1678   4.179   1.992  11.860 -0.1245  0.6491 -0.4631
  108MPD2    C1 1679   4.195   1.941  11.987 -0.3901 -0.5893  0.7689
  108MPD2    C2 1680   4.100   1.979  12.082  0.4390  0.2646 -0.7433
  108MPD2    C3 1681   4.006   2.074  12.060  0.3214  0.0579  0.7932
  108MPD2    C4 1682   4.005   2.135  11.937  0.2696  0.0290  0.8437
  108MPD2    C5 1683   4.087   2.094  11.839  0.1012  0.6988  0.3642
  108MPD2     H 1684   4.120   1.945  12.183 -2.0755 -0.0560 -0.3519
  108MPD2    H1 1685   3.933   2.211  11.909  1.6196  0.3888 -1.6084
  108MPD2    H2 1686   4.238   1.948  11.780  3.0363  0.6450  1.8608
  108MPD2    H3 1687   4.074   2.142  11.743 -0.7377 -0.8833 -0.3119
  108MPD2     N 1688   3.906   2.108  12.155  0.3485  0.3938 -0.7273
  108MPD2    H5 1689   3.836   2.177  12.126 -0.4904  0.4552  1.4493
  108MPD2    N1 1690   4.307   1.854  12.017  0.1882  0.3155 -0.3104
  108MPD2    H7 1691   4.358   1.829  11.933  0.8503 -0.5101  0.3363
  109TMC2    C1 1692   3.910   3.994   0.674  1.0127  0.3876 -0.0925
  109TMC2    C2 1693   3.958   3.908   0.767  0.1079  0.6419 -0.7580
  109TMC2    C3 1694   4.092   3.886   0.759  0.6203 -0.3324  0.0187
  109TMC2    C4 1695   3.991   4.039   0.570  0.1283  0.8520  0.1137
  109TMC2    C5 1696   4.123   4.018   0.573 -0.5188 -0.3116 -0.3237
  109TMC2    C6 1697   4.173   3.940   0.669 -0.7827  0.0055  0.0175
  109TMC2     C 1698   3.766   4.025   0.666 -0.3608 -0.4236 -0.2026
  109TMC2     O 1699   3.721   4.065   0.558  0.2403 -0.2311 -0.1951
  109TMC2     H 1700   3.886   3.858   0.832 -0.7975  1.2615 -1.2851
  109TMC2    H1 1701   3.960   4.105   0.489  0.5563  1.0073  0.0760
  109TMC2    H2 1702   4.280   3.920   0.673 -0.4471  1.6629 -0.5318
  109TMC2    C7 1703   4.194   4.145   0.555  0.9824  0.9348  0.4485
  109TMC2    C8 1704   4.161   3.816   0.859  0.3300 -0.0602 -0.0412
  109TMC2    O1 1705   4.136   4.243   0.596 -0.1632  0.1080  0.5051
  109TMC2    O2 1706   4.253   3.742   0.838 -0.5183 -0.3556 -0.0965
  109TMC2    O5 1707   4.068   3.795   0.954  0.0156  0.1832  0.4744
  109TMC2    H5 1708   4.006   3.871   0.952 -2.7846 -2.1520 -1.1766
  110MPD2     C 1709   3.354   4.227   0.897 -0.5298 -0.1353 -0.1174
  110MPD2    C1 1710   3.429   4.164   0.999 -0.0585  0.1322  0.2774
  110MPD2    C2 1711   3.548   4.097   0.966 -0.5340 -0.3382 -0.1081
  110MPD2    C3 1712   3.583   4.100   0.832 -0.1036 -0.4432 -0.4301
  110MPD2    C4 1713   3.510   4.160   0.737 -0.1745  0.1729  0.2422
  110MPD2    C5 1714   3.395   4.219   0.767 -0.0218 -0.0785  0.0871
  110MPD2     H 1715   3.620   4.056   1.036 -0.2316  1.8315  0.8427
  110MPD2    H1 1716   3.540   4.150   0.633  2.3179 -1.7402  1.1267
  110MPD2    H2 1717   3.268   4.288   0.924 -1.5326 -1.6684  0.2132
  110MPD2    H3 1718   3.336   4.270   0.691  1.3246  0.6069 -0.5036
  110MPD2     N 1719   3.704   4.036   0.794  0.0323  0.0689 -0.0131
  110MPD2    H5 1720   3.763   4.002   0.869 -0.8615  2.0237  1.5754
  110MPD2    N1 1721   3.369   4.158   1.131  0.0780 -0.1029 -0.4952
  110MPD2    H7 1722   3.282   4.206   1.153  1.3953  2.8094 -1.5989
  111TMC2    C1 1723   3.760   3.198  11.716  0.6045 -0.1461 -0.2330
  111TMC2    C2 1724   3.740   3.090  11.802  0.1860  0.3028 -0.4675
  111TMC2    C3 1725   3.816   3.089  11.910  0.3944  0.1446  0.0647
  111TMC2    C4 1726   3.843   3.303  11.738 -0.3432 -1.1400  0.1669
  111TMC2    C5 1727   3.910   3.293  11.860  0.1719 -0.0732  0.0642
  111TMC2    C6 1728   3.897   3.192  11.950  0.7049 -0.1718 -0.2457
  111TMC2     C 1729   3.679   3.206  11.597 -0.5739  0.3194 -0.5808
  111TMC2     O 1730   3.706   3.295  11.524  0.2262  0.4434  0.3227
  111TMC2     H 1731   3.672   3.008  11.782  0.6878  0.1326 -1.4978
  111TMC2    H1 1732   3.843   3.395  11.681 -2.0983 -0.4072  1.3522
  111TMC2    H2 1733   3.973   3.181  12.027 -0.6360  1.5322  1.2968
  111TMC2    C7 1734   3.983   3.410  11.906  0.0216  0.6277 -0.3995
  111TMC2    C8 1735   3.837   2.953  11.961  0.9845  0.7277  0.7219
  111TMC2    O1 1736   3.974   3.453  12.019 -0.1963  0.1297  0.1364
  111TMC2    O2 1737   3.800   2.856  11.891 -0.0911 -0.0474  0.1185
  111TMC2    O5 1738   3.807   2.974  12.091 -0.1422 -0.3847  0.3508
  111TMC2    H5 1739   3.835   3.061  12.128  0.2948 -0.0319 -0.7987
  112MPD2     C 1740   3.263   3.087  11.336  0.2604  0.2663 -0.4994
  112MPD2    C1 1741   3.363   3.176  11.309 -0.0251  0.0013 -0.2532
  112MPD2    C2 1742   3.482   3.164  11.379 -0.5188 -0.6968 -0.4815
  112MPD2    C3 1743   3.488   3.085  11.486  0.2444  0.7130  0.5118
  112MPD2    C4 1744   3.390   2.987  11.514  0.2648  0.4289  0.4387
  112MPD2    C5 1745   3.287   2.988  11.425  0.7326  0.1297  0.4684
  112MPD2     H 1746   3.561   3.233  11.351 -3.4574  2.4138 -1.0609
  112MPD2    H1 1747   3.391   2.914  11.595  0.7880  0.9590  0.9051
  112MPD2    H2 1748   3.174   3.083  11.275 -0.1774 -2.6876  0.3452
  112MPD2    H3 1749   3.218   2.904  11.431  2.4031 -1.2719 -0.0224
  112MPD2     N 1750   3.585   3.106  11.583 -0.4622 -0.3747  0.1972
  112MPD2    H5 1751   3.590   3.029  11.649 -0.3242 -1.0849 -0.6361
  112MPD2    N1 1752   3.360   3.275  11.207  0.0008  0.7342  0.2112
  112MPD2    H7 1753   3.443   3.324  11.174  1.1217 -0.1186  1.7440
  113TMC2    C1 1754   1.739   2.258   0.624  0.0554  0.2527  0.1548
  113TMC2    C2 1755   1.653   2.365   0.657 -0.7128 -0.2368 -0.5022
  113TMC2    C3 1756   1.540   2.383   0.579 -0.5884 -0.2655 -0.4398
  113TMC2    C4 1757   1.707   2.172   0.523  0.2618  0.0637 -0.1284
  113TMC2    C5 1758   1.597   2.196   0.452 -0.4382 -0.3337 -0.3939
  113TMC2    C6 1759   1.508   2.295   0.483  0.8273  0.2404 -0.8084
  113TMC2     C 1760   1.857   2.240   0.712  0.5252 -0.7378  0.2872
  113TMC2     O 1761   1.872   2.309   0.814  0.0342 -0.7517  0.0357
  113TMC2     H 1762   1.666   2.423   0.747  0.0877 -0.5067 -0.4455
  113TMC2    H1 1763   1.778   2.094   0.499 -0.5546 -1.3609  2.1210
  113TMC2    H2 1764   1.413   2.302   0.432  0.6148  0.9561 -0.3185
  113TMC2    C7 1765   1.540   2.087   0.375  0.5595 -0.1362  0.0878
  113TMC2    C8 1766   1.428   2.435   0.640 -0.2556 -0.0027 -0.4409
  113TMC2    O1 1767   1.460   2.115   0.289  0.0490 -0.0758  0.2731
  113TMC2    O2 1768   1.407   2.438   0.761  0.3838 -0.1018 -0.4460
  113TMC2    O5 1769   1.348   2.469   0.544 -1.0060  0.3868 -0.3428
  113TMC2    H5 1770   1.386   2.452   0.455  0.8043 -2.1883  0.9578
  114MPD2     C 1771   2.284   1.987   0.832 -0.3228  0.7881 -0.6312
  114MPD2    C1 1772   2.198   2.063   0.911  0.2181  1.0241 -0.3179
  114MPD2    C2 1773   2.097   2.127   0.848  0.4883 -0.1701  0.7169
  114MPD2    C3 1774   2.073   2.114   0.711 -0.4504  0.6533 -0.3097
  114MPD2    C4 1775   2.155   2.033   0.636 -0.5345 -0.6665  0.2440
  114MPD2    C5 1776   2.264   1.977   0.698  1.0704 -0.2198 -0.7859
  114MPD2     H 1777   2.032   2.188   0.910  0.9782 -0.0211  1.0796
  114MPD2    H1 1778   2.137   2.017   0.530 -0.2370 -0.2042  0.1257
  114MPD2    H2 1779   2.378   1.954   0.875 -1.4845  1.5212  2.5154
  114MPD2    H3 1780   2.333   1.924   0.633  1.2162  0.1113 -0.9008
  114MPD2     N 1781   1.957   2.165   0.651 -0.0352  0.1254  0.5814
  114MPD2    H5 1782   1.946   2.146   0.552 -2.3017  0.0851  0.8367
  114MPD2    N1 1783   2.216   2.091   1.050  0.3569 -0.6770  0.1962
  114MPD2    H7 1784   2.144   2.144   1.098 -0.8677 -0.1394 -2.2883
  115TMC2    C1 1785   3.022   4.436   0.177 -0.2455 -0.2473 -0.0280
  115TMC2    C2 1786   3.150   4.412   0.129  0.1492 -0.3569  0.3108
  115TMC2    C3 1787   3.213   4.516   0.072 -0.1451 -0.5964 -0.8621
  115TMC2    C4 1788   2.960   4.556   0.160  0.1121 -0.9111  0.3879
  115TMC2    C5 1789   3.029   4.656   0.114 -0.4748  0.7335  0.4841
  115TMC2    C6 1790   3.161   4.642   0.070 -0.2296 -0.2648 -0.3190
  115TMC2     C 1791   2.938   4.318   0.195 -0.0765 -0.2098  0.7127
  115TMC2     O 1792   2.982   4.216   0.145 -0.3723 -0.0047 -0.3244
  115TMC2     H 1793   3.193   4.315   0.149  1.8328 -0.1200 -2.1751
  115TMC2    H1 1794   2.860   4.580   0.194  0.6414 -0.5137  1.6651
  115TMC2    H2 1795   3.233   4.716   0.038 -0.7693  0.6556  0.6336
  115TMC2    C7 1796   2.970   0.051   0.113  0.3812  0.2987  0.6280
  115TMC2    C8 1797   3.352   4.512   0.071  0.4113 -0.2207 -0.2868
  115TMC2    O1 1798   2.865   0.061   0.178 -0.2436 -0.0506 -0.2798
  115TMC2    O2 1799   3.424   4.608   0.096  0.1756  0.1646 -0.0351
  115TMC2    O5 1800   3.395   4.385   0.054 -0.8019 -0.9207  0.4673
  115TMC2    H5 1801   3.331   4.333   0.001 -0.5255  0.2974 -1.0714
  116MPD2     C 1802   2.455   4.137   0.208 -0.0731 -0.3026  0.3986
  116MPD2    C1 1803   2.574   4.077   0.171  0.5171  0.0808 -0.3640
  116MPD2    C2 1804   2.694   4.140   0.196  0.5588 -0.2239 -0.3596
  116MPD2    C3 1805   2.701   4.268   0.247 -0.0492  0.0701 -0.4188
  116MPD2    C4 1806   2.579   4.330   0.288  0.0705 -0.1959  0.2510
  116MPD2    C5 1807   2.463   4.258   0.267  0.2268 -0.0217  0.6186
  116MPD2     H 1808   2.786   4.093   0.162  1.0124 -0.8210  1.6963
  116MPD2    H1 1809   2.567   4.432   0.322  1.3483 -0.0080  0.1567
  116MPD2    H2 1810   2.362   4.080   0.214  0.5709 -1.4446 -0.3934
  116MPD2    H3 1811   2.373   4.306   0.301 -0.0188  0.6178 -0.9454
  116MPD2     N 1812   2.812   4.349   0.243  0.6756  0.2149  0.0506
  116MPD2    H5 1813   2.807   4.437   0.293  2.0282  0.7395 -0.7491
  116MPD2    N1 1814   2.561   3.954   0.100 -0.2542  0.3582  0.4930
  116MPD2    H7 1815   2.473   3.904   0.094  0.8043 -1.6385  1.7085
  117TMC2    C1 1816   0.979   1.229  14.295  0.3364  0.4641  0.2117
  117TMC2    C2 1817   0.998   1.158  14.409  0.7811 -0.1728  0.7750
  117TMC2    C3 1818   1.110   1.189  14.483 -0.5382  0.0032 -0.9690
  117TMC2    C4 1819   1.060   1.332  14.246  0.4918  0.2996 -0.4256
  117TMC2    C5 1820   1.156   1.378  14.338 -0.1556  0.2662 -0.7630
  117TMC2    C6 1821   1.181   1.304  14.447 -0.2273 -0.2410 -0.1943
  117TMC2     C 1822   0.866   1.184  14.213  0.1010  0.2432  0.5719
  117TMC2     O 1823   0.844   1.062  14.211  0.2582  0.4089  0.0566
  117TMC2     H 1824   0.949   1.064  14.429  3.9504 -2.3283 -1.4780
  117TMC2    H1 1825   1.037   1.376  14.150 -1.3732 -2.2570 -1.1400
  117TMC2    H2 1826   1.261   1.341  14.510  0.3180 -2.4126  0.3805
  117TMC2    C7 1827   1.217   1.513  14.321 -0.7610 -0.2532 -0.2320
  117TMC2    C8 1828   1.124   1.138  14.611  0.1752  0.0707  0.2009
  117TMC2    O1 1829   1.298   1.548  14.404  0.3402  0.3107  0.0153
  117TMC2    O2 1830   1.030   1.107  14.684 -0.5644 -0.3007 -0.6408
  117TMC2    O5 1831   1.257   1.143  14.645  0.0651 -0.3968  0.2047
  117TMC2    H5 1832   1.306   1.170  14.564 -0.0602 -0.1336  0.2169
  118MPD2     C 1833   1.163   1.756  14.059  0.4779  0.5539 -0.5418
  118MPD2    C1 1834   1.237   1.698  14.159 -0.0488  0.5232  0.5054
  118MPD2    C2 1835   1.363   1.751  14.196  0.0625 -0.5772  0.6289
  118MPD2    C3 1836   1.398   1.880  14.150 -0.4312  0.1333 -0.9157
  118MPD2    C4 1837   1.318   1.939  14.059 -0.0059  0.4081  0.7309
  118MPD2    C5 1838   1.208   1.875  14.014 -0.6407  0.4231  0.1708
  118MPD2     H 1839   1.422   1.708  14.276 -0.2715 -1.2672  0.5071
  118MPD2    H1 1840   1.333   2.045  14.040  0.3076  0.2191 -0.0622
  118MPD2    H2 1841   1.075   1.713  14.013  1.6617 -1.2215 -1.1383
  118MPD2    H3 1842   1.143   1.921  13.941  0.6397  1.1105 -0.5323
  118MPD2     N 1843   1.502   1.962  14.189 -0.1252 -0.4211  0.3625
  118MPD2    H5 1844   1.505   2.056  14.151 -0.0176  0.0988  1.6848
  118MPD2    N1 1845   1.176   1.578  14.204  0.2461  0.2483  0.0321
  118MPD2    H7 1846   1.112   1.527  14.143  0.9887  0.9095 -1.2907
  119TMC2    C1 1847   4.307   2.476  13.291  0.8469 -0.0710 -0.6121
  119TMC2    C2 1848   4.376   2.379  13.226  0.1599 -0.1819  0.1257
  119TMC2    C3 1849   4.303   2.287  13.154  0.5029 -0.2636  0.1296
  119TMC2    C4 1850   4.170   2.488  13.281  0.4754  0.5661 -0.0886
  119TMC2    C5 1851   4.101   2.396  13.211 -0.0181  0.1524 -0.1958
  119TMC2    C6 1852   4.167   2.302  13.137 -0.0566 -0.3199  0.2572
  119TMC2     C 1853   4.367   2.545  13.403  0.2178  0.1973 -0.3307
  119TMC2     O 1854   4.291   2.607  13.474 -0.1239 -0.6159  0.3971
  119TMC2     H 1855   4.480   2.357  13.246  0.2959  1.2305  1.0049
  119TMC2    H1 1856   4.118   2.571  13.327 -3.3812 -1.0190 -1.5566
  119TMC2    H2 1857   4.108   2.233  13.078 -2.5927  0.3798  1.9260
  119TMC2    C7 1858   3.960   2.383  13.241 -0.4577  0.1335 -0.4276
  119TMC2    C8 1859   4.382   2.195  13.083 -0.0549 -0.0463  0.4091
  119TMC2    O1 1860   3.889   2.321  13.163 -0.4541 -0.4498 -0.1288
  119TMC2    O2 1861   4.509   2.200  13.081 -0.3225 -0.0434  0.7340
  119TMC2    O5 1862   4.312   2.090  13.040  0.0221  0.5195 -0.3264
  119TMC2    H5 1863   4.217   2.087  13.065 -0.3479  0.3028 -1.7701
  120MPD2     C 1864   4.736   2.718  13.701 -0.0695  0.0810  0.1453
  120MPD2    C1 1865   4.607   2.694  13.725  0.5510 -0.3564 -0.0621
  120MPD2    C2 1866   4.532   2.643  13.624  0.0060 -0.0652  0.1177
  120MPD2    C3 1867   4.582   2.607  13.499 -0.3872 -0.3491 -0.0681
  120MPD2    C4 1868   4.715   2.642  13.475  0.7947  0.1277  0.4260
  120MPD2    C5 1869   0.053   2.688  13.578 -1.1055 -0.2747 -0.5701
  120MPD2     H 1870   4.431   2.613  13.650  0.7192 -3.3348 -0.9818
  120MPD2    H1 1871   0.025   2.612  13.383 -2.7490  1.0809 -1.8210
  120MPD2    H2 1872   0.059   2.764  13.776  0.9736  2.3398 -2.1150
  120MPD2    H3 1873   0.161   2.701  13.575 -0.7848 -2.7376  0.1198
  120MPD2     N 1874   4.507   2.555  13.396 -0.8081  0.6356  0.1661
  120MPD2    H5 1875   4.559   2.514  13.319 -2.0050 -0.3969 -0.1020
  120MPD2    N1 1876   4.560   2.706  13.858  0.0431  0.0180 -0.6106
  120MPD2    H7 1877   4.627   2.722  13.932 -0.2081 -2.4791  0.1213
  121TMC2    C1 1878   1.239   4.362  14.270  0.0230  0.0020  0.2894
  121TMC2    C2 1879   1.226   4.244  14.206  0.1238 -0.6272  0.0954
  121TMC2    C3 1880   1.099   4.206  14.177  0.3830  1.0522  0.1209
  121TMC2    C4 1881   1.138   4.451  14.287 -0.4163  0.4093  0.2868
  121TMC2    C5 1882   1.018   4.408  14.250  0.4258  0.4884 -0.2160
  121TMC2    C6 1883   0.990   4.283  14.210  0.5539  0.7008 -0.0863
  121TMC2     C 1884   1.368   4.421  14.264  0.2505  0.3407 -0.0295
  121TMC2     O 1885   1.410   4.473  14.364  0.2840 -0.3710  0.2856
  121TMC2     H 1886   1.313   4.186  14.178  0.9761  1.2554 -1.1364
  121TMC2    H1 1887   1.170   4.547  14.324 -1.7685  0.8059  0.4179
  121TMC2    H2 1888   0.893   4.235  14.212  1.1111 -0.4619 -1.3890
  121TMC2    C7 1889   0.942   4.522  14.196  1.1522  0.0885  0.3930
  121TMC2    C8 1890   1.066   4.066  14.157 -0.6540  0.0271  0.6572
  121TMC2    O1 1891   1.001   4.625  14.172 -0.7946  0.4906  0.1077
  121TMC2    O2 1892   0.952   4.032  14.132 -0.3386  0.9711 -0.5385
  121TMC2    O5 1893   1.145   3.990  14.234 -0.2722 -0.2084  0.5151
  121TMC2    H5 1894   1.221   4.032  14.281 -0.8337  0.2715  0.9963
  122MPD2     C 1895   1.622   4.537  14.170 -0.0970  0.3750  0.4410
  122MPD2    C1 1896   1.507   4.523  14.085  0.1533 -0.5451 -0.2186
  122MPD2    C2 1897   1.497   4.593  13.964 -0.7329 -0.9175  0.2994
  122MPD2    C3 1898   1.605   4.673  13.919  0.1399 -0.1377 -0.3747
  122MPD2    C4 1899   1.712   4.687  14.007  0.7457  0.0166 -0.1684
  122MPD2    C5 1900   1.719   4.618  14.125 -0.4238  0.3451 -0.5495
  122MPD2     H 1901   1.407   4.591  13.904  0.6999  3.1725 -2.0037
  122MPD2    H1 1902   1.795   0.006  13.968  1.2093  1.1301  2.5294
  122MPD2    H2 1903   1.632   4.485  14.265 -1.6058 -1.0349 -0.1614
  122MPD2    H3 1904   1.804   4.623  14.192 -0.6236  2.8910 -0.5105
  122MPD2     N 1905   1.604   0.011  13.805 -0.0730  0.1236  0.2545
  122MPD2    H5 1906   1.687   0.067  13.787 -1.1184  1.8692  0.7697
  122MPD2    N1 1907   1.392   4.452  14.135  0.0020 -0.4777 -0.4017
  122MPD2    H7 1908   1.314   4.438  14.072 -0.3400  0.2638 -0.1388
  123TMC2    C1 1909   0.037   2.129  10.519  0.5692  0.6583 -0.0317
  123TMC2    C2 1910   0.167   2.124  10.491  0.2235 -0.0741  0.3153
  123TMC2    C3 1911   0.205   2.160  10.363  0.4067  0.0535 -0.4480
  123TMC2    C4 1912   4.686   2.181  10.436 -0.4776  0.1342 -0.5202
  123TMC2    C5 1913   4.728   2.233  10.315  0.0524 -0.1990 -0.0615
  123TMC2    C6 1914   0.119   2.209  10.275  0.2742  0.2981 -0.4442
  123TMC2     C 1915   4.730   2.043  10.626 -0.0746  0.4749  0.3501
  123TMC2     O 1916   0.045   2.044  10.736  0.2373 -0.0895 -0.2447
  123TMC2     H 1917   0.231   2.072  10.561  0.6580  2.4851  1.8227
  123TMC2    H1 1918   4.581   2.183  10.462 -0.6350 -2.3433 -0.9807
  123TMC2    H2 1919   0.142   2.234  10.172 -0.2681  1.7867 -0.2174
  123TMC2    C7 1920   4.620   2.264  10.220 -0.0696  0.2663 -0.2787
  123TMC2    C8 1921   0.341   2.146  10.300  0.2653 -0.5722  0.4348
  123TMC2    O1 1922   4.507   2.248  10.261 -0.0140 -0.0894  0.2587
  123TMC2    O2 1923   0.370   2.174  10.185  0.5639  0.2483 -0.0464
  123TMC2    O5 1924   0.425   2.084  10.388  0.4296 -0.5809  0.1047
  123TMC2    H5 1925   0.393   2.089  10.481  2.5226 -1.3859  0.8792
  124MPD2     C 1926   4.357   1.759  10.819  0.6405 -0.1241 -0.1526
  124MPD2    C1 1927   4.321   1.777  10.684 -0.2098  0.6341  0.2938
  124MPD2    C2 1928   4.417   1.844  10.601 -1.0312 -0.9524  0.3202
  124MPD2    C3 1929   4.539   1.885  10.654 -0.2177 -0.5734 -0.7252
  124MPD2    C4 1930   4.569   1.857  10.783 -0.1142 -0.0782  1.0380
  124MPD2    C5 1931   4.481   1.790  10.860  0.8059 -0.1192 -0.2191
  124MPD2     H 1932   4.399   1.863  10.496  2.9942 -1.7106 -0.4972
  124MPD2    H1 1933   4.661   1.895  10.827  0.7153  0.5390 -1.2384
  124MPD2    H2 1934   4.290   1.707  10.887  1.5406 -0.2389  0.6368
  124MPD2    H3 1935   4.514   1.770  10.961  0.6217 -0.0143 -0.1386
  124MPD2     N 1936   4.623   1.971  10.576 -0.2112  0.5029 -0.4358
  124MPD2    H5 1937   4.587   1.990  10.483 -0.4512  0.7675 -0.2902
  124MPD2    N1 1938   4.197   1.737  10.636 -0.5431 -0.5159  0.5268
  124MPD2    H7 1939   4.122   1.715  10.701 -1.6219 -0.8831 -0.8568
  125TMC2    C1 1940   4.571   3.305  10.024 -0.5821  0.8203  0.3560
  125TMC2    C2 1941   4.466   3.241  10.087 -0.6492  1.0028 -0.3564
  125TMC2    C3 1942   4.429   3.114  10.039  0.5588  1.0944  0.3336
  125TMC2    C4 1943   4.645   3.247   9.929 -0.1129 -0.1932 -0.5944
  125TMC2    C5 1944   4.601   3.126   9.884  0.5084  0.7034 -0.1893
  125TMC2    C6 1945   4.494   3.064   9.938 -0.2599 -0.0257 -0.9208
  125TMC2     C 1946   4.598   3.442  10.062 -0.5654  0.2956  0.5303
  125TMC2     O 1947   4.672   3.507   9.990 -0.4016 -0.0171  0.3680
  125TMC2     H 1948   4.395   3.291  10.152 -0.4402 -0.5591  1.0866
  125TMC2    H1 1949   4.724   3.307   9.885 -1.4885  0.8768 -1.6163
  125TMC2    H2 1950   4.471   2.961   9.910  0.0095 -0.1923 -0.5353
  125TMC2    C7 1951   4.665   3.062   9.773  0.5021  0.6742 -0.8637
  125TMC2    C8 1952   4.326   3.029  10.095 -0.5234 -0.6083  0.2305
  125TMC2    O1 1953   4.641   2.946   9.752 -0.3808 -0.0524  0.4766
  125TMC2    O2 1954   4.275   2.933  10.041 -0.1390  0.3023 -0.5442
  125TMC2    O5 1955   4.272   3.092  10.200  0.5490 -0.6779 -0.0603
  125TMC2    H5 1956   4.286   3.189  10.201 -0.1997 -0.5897  5.2350
  126MPD1     C 1957   4.601   3.836  10.406 -0.1125 -0.4960  0.0592
  126MPD1    C1 1958   4.622   3.833  10.269  0.2399  0.4959  0.2593
  126MPD1    C2 1959   4.619   3.714  10.205  0.5009  0.2438  0.6811
  126MPD1    C3 1960   4.572   3.596  10.266 -0.3302 -0.6389 -0.8011
  126MPD1    C4 1961   4.535   3.608  10.399  0.7258  0.3469 -0.4195
  126MPD1    C5 1962   4.553   3.725  10.466  0.3670  0.3103  0.7270
  126MPD1     H 1963   4.649   3.702  10.102  2.2347  0.0105  1.2087
  126MPD1    H1 1964   4.502   3.518  10.450  3.0052 -1.0717 -1.4313
  126MPD1    H2 1965   4.616   3.927  10.463 -0.4120  0.5526 -1.5461
  126MPD1    H3 1966   4.542   3.723  10.574  2.5186 -0.6725  0.9263
  126MPD1     N 1967   4.557   3.474  10.192 -0.3479  0.5257  0.0496
  126MPD1    H5 1968   4.508   3.395  10.232 -1.8566  2.4251  1.9918
  126MPD1    N1 1969   4.685   3.944  10.205  0.1214  0.3965 -0.1852
  126MPD1    H6 1970   4.646   4.031  10.239 -2.7504 -1.0675  0.3042
  126MPD1    H7 1971   4.680   3.936  10.103 -0.2259 -0.7011 -0.0852
  127TMC2    C1 1972   0.946   2.228  10.600 -0.3007  0.6870 -0.2019
  127TMC2    C2 1973   1.063   2.197  10.664  0.5184  0.0571  0.0242
  127TMC2    C3 1974   1.060   2.155  10.794  0.0219 -0.2242 -0.2079
  127TMC2    C4 1975   0.819   2.202  10.658  0.0005  0.2268  0.5564
  127TMC2    C5 1976   0.827   2.149  10.783 -0.7513  0.5921 -0.2701
  127TMC2    C6 1977   0.940   2.127  10.853  0.0804  0.5274 -0.1479
  127TMC2     C 1978   0.963   2.315  10.485  0.3160 -0.0447 -0.0720
  127TMC2     O 1979   1.073   2.352  10.452 -0.3750  0.3080 -0.4622
  127TMC2     H 1980   1.156   2.220  10.614 -0.1697  2.3515 -0.2012
  127TMC2    H1 1981   0.721   2.229  10.622  0.4780 -0.3336 -1.1763
  127TMC2    H2 1982   0.927   2.093  10.955 -0.4094  0.2781 -0.2922
  127TMC2    C7 1983   0.707   2.139  10.858  0.1705  0.0610 -1.1272
  127TMC2    C8 1984   1.176   2.083  10.840 -0.5226 -0.0334  0.5315
  127TMC2    O1 1985   0.626   2.229  10.852 -0.2605 -0.5106  0.2323
  127TMC2    O2 1986   1.270   2.050  10.770  0.3509 -0.3185 -0.4961
  127TMC2    O5 1987   1.176   2.089  10.975 -0.3731  0.1733  0.9399
  127TMC2    H5 1988   1.107   2.148  11.013 -0.8401 -0.0653  0.4622
  128MPD2     C 1989   0.715   2.377  10.216 -0.5964  0.1149  0.1017
  128MPD2    C1 1990   0.828   2.396  10.290 -0.0816  1.1548 -0.0120
  128MPD2    C2 1991   0.923   2.480  10.239  0.1763  0.0557  0.0618
  128MPD2    C3 1992   0.909   2.542  10.113  1.2094  0.0572  0.8664
  128MPD2    C4 1993   0.801   2.515  10.040 -0.6195  0.1854 -0.1148
  128MPD2    C5 1994   0.700   2.437  10.090  0.2733  0.4407 -0.5885
  128MPD2     H 1995   1.017   2.491  10.292 -0.4130  0.2214  1.0690
  128MPD2    H1 1996   0.799   2.533   9.933  1.0070  0.3751 -0.1242
  128MPD2    H2 1997   0.632   2.320  10.256  1.0718 -1.3714  1.4662
  128MPD2    H3 1998   0.618   2.416  10.023 -3.0976  3.8290  2.4845
  128MPD2     N 1999   1.021   2.620  10.066  0.2857  0.0466 -0.2384
  128MPD2    H5 2000   1.104   2.635  10.123 -0.1684  0.7565  0.2491
  128MPD2    N1 2001   0.848   2.308  10.399 -0.8318  0.3251 -0.0553
  128MPD2    H7 2002   0.773   2.246  10.429 -2.4733  1.7834 -1.1877
  129TMC2    C1 2003   0.314   3.099   1.219  0.8296  0.0173  0.6500
  129TMC2    C2 2004   0.243   3.213   1.235  0.4324 -0.1789  0.2577
  129TMC2    C3 2005   0.118   3.194   1.295  0.3451  0.0136  0.8087
  129TMC2    C4 2006   0.283   2.975   1.258  0.0903 -0.1852  0.6524
  129TMC2    C5 2007   0.161   2.961   1.311  0.6318 -0.8704  0.5255
  129TMC2    C6 2008   0.071   3.066   1.319  0.4578 -0.3481  0.4739
  129TMC2     C 2009   0.444   3.102   1.161 -0.4434 -0.3592 -0.1550
  129TMC2     O 2010   0.492   3.002   1.109 -0.6123  0.0073  0.9223
  129TMC2     H 2011   0.276   3.309   1.198  1.4570 -0.5841  0.0915
  129TMC2    H1 2012   0.346   2.887   1.247 -1.0415 -0.8155 -0.7541
  129TMC2    H2 2013   4.724   3.052   1.383  1.1572  0.2062  1.5471
  129TMC2    C7 2014   0.104   2.831   1.332 -0.2854 -0.5876  0.0647
  129TMC2    C8 2015   0.022   3.298   1.311  0.3378 -0.2722  0.5584
  129TMC2    O1 2016   4.723   2.826   1.344  0.2223  0.1675 -0.4157
  129TMC2    O2 2017   4.641   3.276   1.316  0.3126  0.1603  0.8295
  129TMC2    O5 2018   0.081   3.417   1.302 -0.2537  0.1712 -0.3801
  129TMC2    H5 2019   0.179   3.410   1.293 -0.1208  0.7035  0.6195
  130MPD2     C 2020   0.659   3.209   0.999 -0.6852 -0.1099  0.0243
  130MPD2    C1 2021   0.597   3.284   1.090  0.3772  0.2568  0.3002
  130MPD2    C2 2022   0.625   3.418   1.106  0.2331 -0.6429 -0.2734
  130MPD2    C3 2023   0.725   3.472   1.023 -0.0089  0.1845  0.2610
  130MPD2    C4 2024   0.779   3.394   0.922  0.1128  0.1706  0.0932
  130MPD2    C5 2025   0.745   3.262   0.912  0.6715 -0.0157 -0.4269
  130MPD2     H 2026   0.581   3.477   1.185  2.3189  1.5155 -0.7329
  130MPD2    H1 2027   0.848   3.439   0.852 -0.1522  0.5789  0.0953
  130MPD2    H2 2028   0.639   3.103   0.988 -0.3824  0.0947 -2.5748
  130MPD2    H3 2029   0.783   3.191   0.841 -2.8637 -0.2247 -2.1004
  130MPD2     N 2030   0.764   3.603   1.042 -0.5613 -0.7873  0.9760
  130MPD2    H5 2031   0.724   3.647   1.124 -0.6464  1.8780 -0.4745
  130MPD2    N1 2032   0.496   3.228   1.172 -0.1953 -0.3348 -0.3123
  130MPD2    H7 2033   0.452   3.291   1.238  2.0024 -0.7705  1.5683
  131TMC2    C1 2034   4.175   2.505   9.993 -0.5612  0.6951 -0.2357
  131TMC2    C2 2035   4.289   2.554  10.049 -0.5209 -0.2116 -0.0842
  131TMC2    C3 2036   4.355   2.654   9.987 -0.2664 -0.5207  0.1288
  131TMC2    C4 2037   4.131   2.557   9.866  0.1187  0.2977  0.3470
  131TMC2    C5 2038   4.203   2.651   9.802 -0.2478  0.2839  0.0124
  131TMC2    C6 2039   4.315   2.703   9.861 -0.9739 -0.0899 -0.2674
  131TMC2     C 2040   4.097   2.404  10.065 -0.2234 -0.5358 -0.7491
  131TMC2     O 2041   4.148   2.350  10.162  0.2654  0.2076 -0.4089
  131TMC2     H 2042   4.319   2.510  10.143 -0.1631  0.1078 -0.0491
  131TMC2    H1 2043   4.040   2.516   9.824  0.2442  3.0718 -2.6233
  131TMC2    H2 2044   4.383   2.754   9.794 -0.7250 -1.3670 -0.9943
  131TMC2    C7 2045   4.120   2.755   9.747  0.1050  0.0397 -0.0885
  131TMC2    C8 2046   4.485   2.690  10.038  0.0919 -0.3186 -0.0396
  131TMC2    O1 2047   4.044   2.722   9.660  0.0157  0.2284 -0.1678
  131TMC2    O2 2048   4.585   2.718   9.971 -0.1880 -0.1605 -0.0427
  131TMC2    O5 2049   4.475   2.700  10.171 -0.2425  0.2142 -0.2686
  131TMC2    H5 2050   4.388   2.675  10.209 -0.4548 -1.3333 -1.7252
  132MPD2     C 2051   3.750   2.298   9.998  0.5213 -0.3085  0.0435
  132MPD2    C1 2052   3.871   2.304  10.068  0.7059 -0.9202 -0.1050
  132MPD2    C2 2053   3.895   2.204  10.165  0.1214  0.2952  0.2533
  132MPD2    C3 2054   3.801   2.098  10.186 -0.1031 -0.1045  0.2208
  132MPD2    C4 2055   3.678   2.114  10.124 -0.1712  0.0427  0.0492
  132MPD2    C5 2056   3.655   2.204  10.030  0.1926 -0.1329  0.6624
  132MPD2     H 2057   3.998   2.188  10.194  0.8952 -0.3011 -2.8670
  132MPD2    H1 2058   3.615   2.026  10.118 -0.2336  0.1098 -0.2653
  132MPD2    H2 2059   3.731   2.365   9.914  3.4823  0.6805  0.1785
  132MPD2    H3 2060   3.560   2.208   9.978  0.4006 -1.2670  0.2028
  132MPD2     N 2061   3.832   2.006  10.288 -0.4002 -0.1781 -0.2027
  132MPD2    H5 2062   3.925   1.997  10.329 -0.9561 -3.4619  0.3133
  132MPD2    N1 2063   3.969   2.398  10.016  0.4475  0.1269 -0.0261
  132MPD2    H7 2064   3.933   2.471   9.955  1.4254  1.2107  0.7104
  133TMC2    C1 2065   3.635   3.958   9.754 -0.3035  0.6103  0.6123
  133TMC2    C2 2066   3.765   3.925   9.754  0.1592  0.8461  0.2406
  133TMC2    C3 2067   3.852   3.999   9.824  0.3619 -0.0761 -0.6140
  133TMC2    C4 2068   3.589   4.063   9.827  0.0935  0.0904 -0.7706
  133TMC2    C5 2069   3.679   4.144   9.893  0.3334  0.0301 -0.6205
  133TMC2    C6 2070   3.809   4.110   9.895  0.1874  0.1319 -0.2912
  133TMC2     C 2071   3.539   3.859   9.713 -0.3477  0.7281  0.3385
  133TMC2     O 2072   3.569   3.740   9.724 -0.1374 -0.2330 -0.0201
  133TMC2     H 2073   3.803   3.839   9.699 -1.3943 -0.1236  0.6704
  133TMC2    H1 2074   3.483   4.076   9.848  0.0514  0.0497 -0.9507
  133TMC2    H2 2075   3.882   4.177   9.939 -1.7325  2.6649 -0.9198
  133TMC2    C7 2076   3.639   4.246   9.981  0.4997  0.5356 -0.8701
  133TMC2    C8 2077   3.997   3.966   9.831  0.6380  0.2760 -0.4657
  133TMC2    O1 2078   3.721   4.272  10.069 -0.3742 -0.8301  0.0493
  133TMC2    O2 2079   4.053   3.893   9.749  0.2837  0.2699 -0.5189
  133TMC2    O5 2080   4.021   3.948   9.961  0.0851  0.0587  0.3041
  133TMC2    H5 2081   3.967   4.010  10.015  2.0399 -0.4624  2.8485
  134MPD2     C 2082   3.186   3.930   9.631 -0.8014  0.1867  0.1692
  134MPD2    C1 2083   3.301   3.852   9.649  0.0678  0.7545 -0.0101
  134MPD2    C2 2084   3.295   3.719   9.606 -0.2151  0.2625  0.2802
  134MPD2    C3 2085   3.174   3.662   9.561 -0.2547  0.0533  0.0750
  134MPD2    C4 2086   3.058   3.738   9.556 -0.6029  0.0374 -0.0266
  134MPD2    C5 2087   3.068   3.870   9.586  0.2638 -0.5052  0.3640
  134MPD2     H 2088   3.392   3.671   9.604 -0.3051  0.0736  0.4474
  134MPD2    H1 2089   2.969   3.692   9.517 -0.4717 -0.5921  0.4122
  134MPD2    H2 2090   3.187   4.037   9.646  1.8124  0.1017  0.5596
  134MPD2    H3 2091   2.977   3.929   9.580  1.4471  1.4510  1.8085
  134MPD2     N 2092   3.172   3.522   9.533 -0.4735 -0.4511 -0.3966
  134MPD2    H5 2093   3.078   3.503   9.499 -0.3708  1.6536 -1.8502
  134MPD2    N1 2094   3.420   3.921   9.680  0.1535 -0.2210 -0.2244
  134MPD2    H7 2095   3.416   4.022   9.678  0.2773 -0.2706 -2.3394
  135TMC2    C1 2096   0.257   4.158  10.060 -0.4467 -0.2082  0.8033
  135TMC2    C2 2097   0.227   4.282  10.000 -0.0746 -0.2667  0.0638
  135TMC2    C3 2098   0.169   4.372  10.078 -0.5113 -0.4547  0.1163
  135TMC2    C4 2099   0.224   4.129  10.193  0.8894 -0.1104 -0.0753
  135TMC2    C5 2100   0.170   4.236  10.269 -0.4755 -0.1984 -0.3459
  135TMC2    C6 2101   0.143   4.358  10.215  1.1704  0.1536  0.2513
  135TMC2     C 2102   0.317   4.056   9.984 -0.0534 -0.2823 -0.2531
  135TMC2     O 2103   0.312   3.947  10.034 -0.1518  0.2296  0.5114
  135TMC2     H 2104   0.246   4.309   9.896 -0.4078  1.3643  0.4268
  135TMC2    H1 2105   0.272   4.045  10.241  0.4485 -0.5034 -0.3320
  135TMC2    H2 2106   0.093   4.436  10.272  0.7651 -0.5191  0.8223
  135TMC2    C7 2107   0.159   4.226  10.411  0.8451  0.8990 -0.2254
  135TMC2    C8 2108   0.117   4.495  10.021  0.0625  0.1035  0.4966
  135TMC2    O1 2109   0.166   4.326  10.477  0.5276  1.0677 -0.2264
  135TMC2    O2 2110   0.037   4.564  10.082 -0.0957 -0.1406 -0.2271
  135TMC2    O5 2111   0.164   4.515   9.895 -0.6787  0.1203 -0.8125
  135TMC2    H5 2112   0.252   4.475   9.875 -1.1699 -1.7502  0.7265
  136MPD2     C 2113   0.519   3.909   9.828 -0.2769 -0.1126 -0.1219
  136MPD2    C1 2114   0.469   4.029   9.785 -1.0819 -0.4255 -0.3415
  136MPD2    C2 2115   0.518   4.089   9.672  0.2505  0.8889  0.6798
  136MPD2    C3 2116   0.599   4.009   9.584 -0.2315 -0.3795  0.1249
  136MPD2    C4 2117   0.630   3.882   9.619  0.3308 -0.3231 -0.0323
  136MPD2    C5 2118   0.593   3.834   9.743  0.6137 -0.2273 -0.2083
  136MPD2     H 2119   0.490   4.191   9.651 -2.0994  0.3418  1.1987
  136MPD2    H1 2120   0.700   3.820   9.565  1.5036  1.9060 -1.0626
  136MPD2    H2 2121   0.498   3.873   9.928 -0.7109  3.4834  1.0754
  136MPD2    H3 2122   0.627   3.739   9.784 -2.3523 -0.7400  1.0746
  136MPD2     N 2123   0.646   4.057   9.457  0.7544 -0.5235 -0.0644
  136MPD2    H5 2124   0.702   3.995   9.400  0.2709  1.6649 -2.9815
  136MPD2    N1 2125   0.386   4.102   9.872  0.3580  0.1498 -0.2871
  136MPD2    H7 2126   0.364   4.199   9.853 -0.0674 -0.2011 -1.5894
  137TMC2    C1 2127   0.295   3.843   9.488  0.1826 -0.7481  0.1052
  137TMC2    C2 2128   0.337   3.897   9.373 -0.2971  0.7288 -0.1086
  137TMC2    C3 2129   0.292   4.023   9.345  0.3994  0.8180 -0.1107
  137TMC2    C4 2130   0.216   3.908   9.577 -0.3411  0.1670 -0.1771
  137TMC2    C5 2131   0.196   4.044   9.555  0.8742  0.0681  0.1808
  137TMC2    C6 2132   0.223   4.102   9.433  0.4827 -0.0102 -0.2295
  137TMC2     C 2133   0.349   3.716   9.543 -0.9701  0.6111 -0.1010
  137TMC2     O 2134   0.293   3.680   9.639  0.3953  0.2811 -0.3195
  137TMC2     H 2135   0.389   3.832   9.303 -0.5335  0.7709 -0.3183
  137TMC2    H1 2136   0.185   3.862   9.671 -1.4307  1.6896  0.2176
  137TMC2    H2 2137   0.200   4.206   9.413 -0.8185 -0.2921 -0.2354
  137TMC2    C7 2138   0.119   4.118   9.653  0.0404 -0.2035  0.3963
  137TMC2    C8 2139   0.329   4.078   9.220  0.2604  0.5395 -0.2974
  137TMC2    O1 2140   0.157   4.234   9.667  0.8301 -0.0601 -0.3678
  137TMC2    O2 2141   0.435   4.057   9.177  0.4926 -0.2136  0.1592
  137TMC2    O5 2142   0.232   4.160   9.175  0.0451 -0.0178  0.2088
  137TMC2    H5 2143   0.151   4.151   9.230  0.4276 -1.1079  0.5935
  138MPD2     C 2144   0.670   3.565   9.499  0.2826 -0.0931 -0.0420
  138MPD2    C1 2145   0.536   3.565   9.527  0.3737  0.0912  0.2989
  138MPD2    C2 2146   0.484   3.472   9.610 -0.1260 -0.2217 -0.8760
  138MPD2    C3 2147   0.565   3.371   9.662 -0.7718  0.5107 -1.2211
  138MPD2    C4 2148   0.695   3.369   9.621  0.2794 -0.1546 -0.4662
  138MPD2    C5 2149   0.750   3.476   9.551  0.3358  0.1368 -0.6456
  138MPD2     H 2150   0.376   3.464   9.620 -0.1880  1.5121 -0.1937
  138MPD2    H1 2151   0.764   3.295   9.662  0.6062 -0.6528 -1.9118
  138MPD2    H2 2152   0.705   3.645   9.434 -0.3484  0.6558  0.5469
  138MPD2    H3 2153   0.856   3.471   9.529  0.3807 -0.1881 -0.3532
  138MPD2     N 2154   0.500   3.285   9.754 -0.5055  0.2982  0.0315
  138MPD2    H5 2155   0.412   3.315   9.793 -0.8587 -1.5366  0.6542
  138MPD2    N1 2156   0.460   3.673   9.484 -0.3092  0.0449  0.6061
  138MPD2    H7 2157   0.501   3.739   9.419  1.1733 -0.4568  1.0243
  139TMC2    C1 2158   1.195   2.420  13.386 -0.5452 -0.0571  0.1263
  139TMC2    C2 2159   1.311   2.496  13.371  0.1814 -0.6391  0.6905
  139TMC2    C3 2160   1.288   2.631  13.404 -0.2217  0.6494  0.1923
  139TMC2    C4 2161   1.074   2.466  13.430  0.4310  0.1963  0.0536
  139TMC2    C5 2162   1.062   2.596  13.456  0.2582  0.7191  0.9332
  139TMC2    C6 2163   1.169   2.676  13.449 -0.6400  0.4826 -0.8773
  139TMC2     C 2164   1.210   2.278  13.361  0.0222  0.3349  0.6596
  139TMC2     O 2165   1.321   2.227  13.373  0.7300 -0.0673  0.0045
  139TMC2     H 2166   1.407   2.462  13.334 -0.2433 -1.4269  0.3137
  139TMC2    H1 2167   0.986   2.403  13.428  1.5982 -1.3805 -2.6761
  139TMC2    H2 2168   1.164   2.783  13.465 -0.4803  0.1985  1.0364
  139TMC2    C7 2169   0.941   2.661  13.509  0.0480  0.3778 -0.0162
  139TMC2    C8 2170   1.396   2.723  13.381  0.0948  0.2815 -0.0057
  139TMC2    O1 2171   0.927   2.782  13.487 -0.1137  0.0648 -0.4185
  139TMC2    O2 2172   1.367   2.842  13.353  0.2833  0.4438  0.7102
  139TMC2    O5 2173   1.512   2.684  13.434 -0.1300  0.7449  0.2334
  139TMC2    H5 2174   1.507   2.602  13.487  2.0789  0.7365  0.4462
  140MPD2     C 2175   0.948   2.033  13.282  0.0849 -1.1210 -0.4439
  140MPD2    C1 2176   1.080   2.069  13.314  0.0981  0.3476 -0.1464
  140MPD2    C2 2177   1.176   1.970  13.335 -1.3918 -0.2246 -0.5899
  140MPD2    C3 2178   1.140   1.840  13.324 -0.1439  0.8677 -0.1544
  140MPD2    C4 2179   1.008   1.804  13.296 -1.0038  1.0964  0.6015
  140MPD2    C5 2180   0.913   1.902  13.284 -0.3909  0.0678  0.0259
  140MPD2     H 2181   1.273   1.997  13.375 -1.0145 -2.1827 -0.1473
  140MPD2    H1 2182   0.971   1.703  13.280  1.6336  0.3184 -0.7401
  140MPD2    H2 2183   0.866   2.102  13.262 -1.0414 -1.8490  1.5938
  140MPD2    H3 2184   0.809   1.886  13.260 -0.2792 -0.7398  0.0809
  140MPD2     N 2185   1.241   1.743  13.341 -0.5875 -0.0345  0.8185
  140MPD2    H5 2186   1.336   1.779  13.343 -0.7604  0.5912 -2.4531
  140MPD2    N1 2187   1.097   2.216  13.321 -0.0652 -0.0718  0.0191
  140MPD2    H7 2188   1.012   2.268  13.299  1.3012  1.4334 -1.7240
  141TMC2    C1 2189   1.468   3.718  14.048  0.6970  0.9815  0.3532
  141TMC2    C2 2190   1.569   3.630  14.072 -0.3942 -0.5863  0.3228
  141TMC2    C3 2191   1.623   3.623  14.199  0.0179 -0.0654  0.0070
  141TMC2    C4 2192   1.416   3.787  14.154  0.7030  0.2686  0.4078
  141TMC2    C5 2193   1.477   3.782  14.278 -0.0628 -0.0796  0.4877
  141TMC2    C6 2194   1.577   3.690  14.301  0.7732  0.0680 -0.3750
  141TMC2     C 2195   1.421   3.744  13.916  0.1654 -0.9021 -0.1057
  141TMC2     O 2196   1.496   3.723  13.823 -0.3214 -0.1733 -0.1752
  141TMC2     H 2197   1.604   3.569  13.989 -2.7152 -2.5085  0.7726
  141TMC2    H1 2198   1.339   3.862  14.143  0.1019 -0.5151 -0.8198
  141TMC2    H2 2199   1.611   3.671  14.402  2.3719 -0.6601 -1.0560
  141TMC2    C7 2200   1.475   3.908  14.349 -0.2710  0.3491 -0.4190
  141TMC2    C8 2201   1.721   3.525  14.215  0.1133 -0.3988 -0.4840
  141TMC2    O1 2202   1.379   3.979  14.352 -0.8283  0.4745  0.0062
  141TMC2    O2 2203   1.743   3.483  14.328  0.1847 -0.3978  0.0027
  141TMC2    O5 2204   1.811   3.526  14.114 -0.2366  0.6802 -0.3885
  141TMC2    H5 2205   1.765   3.559  14.034  1.4045  0.6787 -1.3341
  142TMC2    C1 2206   3.895   1.904   9.919  0.4159  0.0908 -0.5199
  142TMC2    C2 2207   3.822   1.968   9.824 -0.6865 -0.0111 -0.4494
  142TMC2    C3 2208   3.872   2.077   9.766  0.1727  0.2333  0.5250
  142TMC2    C4 2209   4.021   1.941   9.955 -0.0714 -0.9783 -0.8671
  142TMC2    C5 2210   4.071   2.051   9.896  0.3152  0.1468 -0.4539
  142TMC2    C6 2211   4.001   2.124   9.803  0.1660  0.1434 -0.5540
  142TMC2     C 2212   3.831   1.790   9.979  0.4687  0.0657 -0.0723
  142TMC2     O 2213   3.713   1.772   9.954  0.1406  0.0615 -0.3997
  142TMC2     H 2214   3.721   1.938   9.801 -0.6515 -1.3636  1.1505
  142TMC2    H1 2215   4.080   1.896  10.034 -0.5745 -0.3883 -0.1622
  142TMC2    H2 2216   4.029   2.221   9.761  2.0513 -1.4182 -2.8954
  142TMC2    C7 2217   4.202   2.092   9.931 -0.3783  0.1839  0.5186
  142TMC2    C8 2218   3.798   2.164   9.677  0.0915  0.7475  0.0319
  142TMC2    O1 2219   4.249   2.059  10.038 -0.2909  0.3238  0.1418
  142TMC2    O2 2220   3.835   2.279   9.651 -0.6963  0.6252 -0.4851
  142TMC2    O5 2221   3.737   2.080   9.585  0.1628  0.2333  0.4468
  142TMC2    H5 2222   3.743   1.985   9.607 -3.0359 -0.0008  0.1964
  143MPD2     C 2223   3.882   1.407  10.327 -0.2555  0.3317  1.0428
  143MPD2    C1 2224   3.764   1.466  10.278 -0.6570  0.5955  0.4246
  143MPD2    C2 2225   3.775   1.566  10.180 -0.7507 -0.7187  0.1086
  143MPD2    C3 2226   3.898   1.604  10.130  0.4576  0.9807  0.0295
  143MPD2    C4 2227   4.016   1.550  10.181 -0.2217  0.1988  0.1915
  143MPD2    C5 2228   3.999   1.458  10.278  0.8881  0.4214  0.7441
  143MPD2     H 2229   3.690   1.612  10.131  0.5329  1.0914 -0.4403
  143MPD2    H1 2230   4.116   1.585  10.162 -0.0736 -1.0924 -1.3839
  143MPD2    H2 2231   3.885   1.336  10.408  0.3844  0.5628  1.2232
  143MPD2    H3 2232   4.086   1.416  10.329 -0.2914 -0.9617  1.6234
  143MPD2     N 2233   3.926   1.715  10.044  0.0917  0.1534  0.4445
  143MPD2    H5 2234   4.021   1.746  10.023 -0.7076  1.0756 -1.8226
  143MPD2    N1 2235   3.643   1.431  10.341 -0.0328  0.7291  0.1725
  143MPD2    H7 2236   3.651   1.370  10.421 -1.2485  0.4965  0.1258
  144TMC2    C1 2237   2.515   0.637   0.626  0.4437 -0.4361 -0.1764
  144TMC2    C2 2238   2.606   0.556   0.561 -1.1719 -0.2485 -0.7034
  144TMC2    C3 2239   2.719   0.522   0.638  0.0239 -0.0027  0.2506
  144TMC2    C4 2240   2.539   0.683   0.754  0.2530 -0.7183 -0.3304
  144TMC2    C5 2241   2.658   0.652   0.815 -0.3248  0.2800  0.6482
  144TMC2    C6 2242   2.747   0.571   0.759 -0.0470 -0.1577  0.9307
  144TMC2     C 2243   2.414   0.698   0.546 -0.7113  0.1295 -0.4394
  144TMC2     O 2244   2.411   0.647   0.437  0.0232 -0.2167  0.4492
  144TMC2     H 2245   2.585   0.507   0.467 -0.5541  1.5834 -1.7752
  144TMC2    H1 2246   2.467   0.750   0.799 -0.1042 -1.1700 -0.2358
  144TMC2    H2 2247   2.846   0.548   0.797 -0.1851 -1.3443  0.5524
  144TMC2    C7 2248   2.676   0.685   0.956  0.1217 -0.5010 -0.0453
  144TMC2    C8 2249   2.792   0.409   0.581 -0.3074 -0.1413  0.2528
  144TMC2    O1 2250   2.760   0.614   1.018 -0.2908  0.4348  0.3257
  144TMC2    O2 2251   2.742   0.345   0.491 -0.6707 -0.0566 -0.2932
  144TMC2    O5 2252   2.888   0.358   0.665  0.3809  0.4362  0.0522
  144TMC2    H5 2253   2.916   0.434   0.720 -0.5218  1.4598 -0.8949
  145MPD2     C 2254   2.063   1.019   0.388 -0.6384  0.2155  0.0014
  145MPD2    C1 2255   2.092   0.888   0.345  0.0939  0.4227  0.3465
  145MPD2    C2 2256   2.183   0.814   0.415  0.2233 -0.2278  0.3504
  145MPD2    C3 2257   2.253   0.878   0.520 -0.1328 -0.0108  1.1171
  145MPD2    C4 2258   2.222   1.004   0.565 -1.1090 -0.0491  0.0805
  145MPD2    C5 2259   2.124   1.074   0.503  0.3264  0.0336  0.3433
  145MPD2     H 2260   2.204   0.713   0.382  3.5934  0.5340  0.1346
  145MPD2    H1 2261   2.280   1.045   0.647  1.1228  1.5520 -2.2931
  145MPD2    H2 2262   1.992   1.089   0.346 -1.7183 -1.1171 -0.3930
  145MPD2    H3 2263   2.093   1.175   0.530  3.5641  1.8868 -2.7861
  145MPD2     N 2264   2.362   0.817   0.591  0.8975  0.5355 -0.3012
  145MPD2    H5 2265   2.393   0.855   0.680  0.8935 -0.9588  0.3369
  145MPD2    N1 2266   2.032   0.823   0.234  0.2643 -0.3118 -0.2756
  145MPD2    H7 2267   2.057   0.732   0.198  1.2680  0.4768 -1.6115
  146TMC2    C1 2268   3.027   4.696  13.099 -0.6834  0.2447 -0.1920
  146TMC2    C2 2269   2.921   0.017  13.035  0.2980 -0.0480  0.5834
  146TMC2    C3 2270   2.875   4.708  12.916 -0.0703 -0.4766  0.7980
  146TMC2    C4 2271   3.077   4.575  13.046 -0.0589 -0.0471  0.6934
  146TMC2    C5 2272   3.036   4.542  12.925 -0.4194  0.1417  0.0195
  146TMC2    C6 2273   2.933   4.602  12.856  0.0494  0.4591 -0.0406
  146TMC2     C 2274   3.071   0.029  13.220  0.6061  0.7229 -0.2151
  146TMC2     O 2275   3.015   0.132  13.244 -0.0542 -0.2118  0.0127
  146TMC2     H 2276   2.879   0.109  13.073  1.5834  1.0402 -0.5844
  146TMC2    H1 2277   3.161   4.529  13.096 -0.7833 -1.7096  0.3981
  146TMC2    H2 2278   2.914   4.572  12.754 -1.5363 -3.3421  1.3596
  146TMC2    C7 2279   3.121   4.452  12.845 -0.4246 -0.0005  0.5482
  146TMC2    C8 2280   2.761   0.025  12.845  1.0174 -0.2182  0.0032
  146TMC2    O1 2281   3.085   4.445  12.729 -0.7264 -0.1536 -0.4966
  146TMC2    O2 2282   2.724   4.718  12.736  0.6202 -0.2915  0.2503
  146TMC2    O5 2283   2.683   0.103  12.923 -0.2971  0.6343 -1.2553
  146TMC2    H5 2284   2.723   0.140  13.004 -2.1538 -1.6149  0.7023
  147MPD2     C 2285   3.545   4.208  12.692  0.3492  0.1847 -0.0184
  147MPD2    C1 2286   3.559   4.244  12.825  0.1569 -0.3150 -0.2786
  147MPD2    C2 2287   3.460   4.312  12.891  0.2355 -0.4506  0.3682
  147MPD2    C3 2288   3.340   4.338  12.831 -0.2803  0.9280 -0.1127
  147MPD2    C4 2289   3.326   4.302  12.694  0.2430 -0.0079 -0.2435
  147MPD2    C5 2290   3.431   4.237  12.631 -0.7975 -0.0045  0.5628
  147MPD2     H 2291   3.471   4.343  12.994  0.1451  1.5852 -0.2258
  147MPD2    H1 2292   3.236   4.304  12.635  0.6311  1.6035 -0.7758
  147MPD2    H2 2293   3.614   4.141  12.643  1.5315  0.7874  0.8330
  147MPD2    H3 2294   3.425   4.183  12.537  2.6289  0.5202  0.0324
  147MPD2     N 2295   3.244   4.420  12.898 -0.5651 -0.1132 -0.2793
  147MPD2    H5 2296   3.278   4.443  12.991  0.4684  1.4007 -1.0332
  147MPD2    N1 2297   3.680   4.215  12.884  0.3745 -0.6077  0.5789
  147MPD2    H7 2298   3.756   4.168  12.836 -1.3956 -1.9823 -0.8755
  148TMC2    C1 2299   3.296   3.332  10.561 -0.1913  0.5577 -0.0618
  148TMC2    C2 2300   3.327   3.448  10.637 -0.2352  0.3217 -0.1851
  148TMC2    C3 2301   3.443   3.440  10.715 -0.6116 -0.0244  0.7344
  148TMC2    C4 2302   3.375   3.221  10.561  1.0026  0.3202 -0.0851
  148TMC2    C5 2303   3.493   3.227  10.627 -0.2852  0.5580 -0.3915
  148TMC2    C6 2304   3.526   3.330  10.706  0.1602  0.1813 -0.0306
  148TMC2     C 2305   3.173   3.336  10.481  0.1163  0.0374 -0.4461
  148TMC2     O 2306   3.098   3.428  10.504  0.2909 -0.8700  0.4541
  148TMC2     H 2307   3.260   3.532  10.653 -0.4490 -0.2364  1.8545
  148TMC2    H1 2308   3.339   3.127  10.521 -0.5213  0.5418  0.7483
  148TMC2    H2 2309   3.614   3.317  10.767 -0.5386 -0.9348  0.7378
  148TMC2    C7 2310   3.590   3.124  10.597 -0.2721 -0.3046  0.2815
  148TMC2    C8 2311   3.463   3.544  10.816 -0.4852  0.6010  0.0455
  148TMC2    O1 2312   3.558   3.039  10.512 -0.1262 -0.4693  0.0208
  148TMC2    O2 2313   3.384   3.636  10.833  0.1017 -0.4598 -0.1665
  148TMC2    O5 2314   3.593   3.550  10.851 -0.2911 -0.3869  0.4997
  148TMC2    H5 2315   3.653   3.486  10.805  1.0549  0.4937  1.0234
  149MPD2     C 2316   2.966   3.312  10.252 -0.2081 -0.7374  0.5653
  149MPD2    C1 2317   3.062   3.220  10.285 -1.0810 -0.1143 -0.1862
  149MPD2    C2 2318   3.074   3.105  10.217 -0.5332  0.0436 -0.7852
  149MPD2    C3 2319   2.999   3.082  10.111  0.5699  0.1857  0.1775
  149MPD2    C4 2320   2.908   3.177  10.073  0.5899 -0.3539  0.0571
  149MPD2    C5 2321   2.887   3.289  10.143 -0.3909 -0.3737 -0.2948
  149MPD2     H 2322   3.143   3.025  10.243 -2.9942 -2.2907 -1.3344
  149MPD2    H1 2323   2.841   3.162   9.989 -1.8062  1.7633  1.6250
  149MPD2    H2 2324   2.954   3.408  10.301  0.1343  0.2430 -1.2654
  149MPD2    H3 2325   2.813   3.360  10.109 -0.8108  1.7000  4.8127
  149MPD2     N 2326   2.989   2.954  10.046  0.7138  0.1195  0.7330
  149MPD2    H5 2327   2.940   2.956   9.957  0.0531  0.5528  1.1094
  149MPD2    N1 2328   3.160   3.237  10.390 -0.3837 -0.4025 -0.0542
  149MPD2    H7 2329   3.236   3.171  10.388  0.1626  0.2400 -1.0311
  150TMC2    C1 2330   1.175   2.387  12.144 -0.1932  0.2283  0.1361
  150TMC2    C2 2331   1.166   2.377  12.006  0.8766 -0.0346  0.2808
  150TMC2    C3 2332   1.276   2.331  11.934 -0.0190 -0.0511 -0.2937
  150TMC2    C4 2333   1.286   2.340  12.209  0.1210 -0.2187 -0.4467
  150TMC2    C5 2334   1.388   2.287  12.130  0.0838 -0.4155  0.5883
  150TMC2    C6 2335   1.386   2.282  11.989  0.3439  0.4481 -0.1103
  150TMC2     C 2336   1.053   2.400  12.227 -0.8257  0.1595  0.1560
  150TMC2     O 2337   1.061   2.418  12.348  0.3645 -0.0330 -0.1690
  150TMC2     H 2338   1.073   2.411  11.963  2.5901  1.7331 -1.9785
  150TMC2    H1 2339   1.286   2.342  12.317 -0.8197  3.9565 -0.5292
  150TMC2    H2 2340   1.465   2.248  11.922 -0.0369  0.7200 -0.7006
  150TMC2    C7 2341   1.527   2.293  12.183  0.1046  0.4557 -0.7903
  150TMC2    C8 2342   1.280   2.381  11.798  0.0880 -0.9408  1.3616
  150TMC2    O1 2343   1.607   2.257  12.103  0.3790 -0.8782  0.6031
  150TMC2    O2 2344   1.315   2.303  11.709 -0.1268  0.2178  0.6444
  150TMC2    O5 2345   1.316   2.509  11.804 -0.1341 -0.3499 -0.1329
  150TMC2    H5 2346   1.315   2.556  11.890  0.8126  0.7909 -0.7475
  151MPD2     C 2347   0.557   2.281  12.290 -0.5437  0.0771 -0.5105
  151MPD2    C1 2348   0.604   2.234  12.171 -1.1219  0.2751  0.0730
  151MPD2    C2 2349   0.735   2.266  12.134 -0.0215 -0.4336  0.4891
  151MPD2    C3 2350   0.812   2.352  12.208 -0.2865  0.0892 -0.4102
  151MPD2    C4 2351   0.757   2.422  12.317  0.0621 -0.5292  0.2148
  151MPD2    C5 2352   0.628   2.382  12.356 -0.0540 -0.8014 -0.0155
  151MPD2     H 2353   0.775   2.230  12.040  1.5475  0.3405  0.8675
  151MPD2    H1 2354   0.794   2.516  12.356  2.9556 -1.0545 -1.2966
  151MPD2    H2 2355   0.460   2.246  12.323 -1.0334  2.8195  1.0113
  151MPD2    H3 2356   0.575   2.429  12.438  1.5311 -1.4213  1.3750
  151MPD2     N 2357   0.944   2.358  12.157 -0.2779 -0.2521 -0.3240
  151MPD2    H5 2358   0.974   2.307  12.074  3.7885 -3.3915  3.0844
  151MPD2    N1 2359   0.525   2.146  12.089  0.2759 -0.3707  0.1081
  151MPD2    H7 2360   0.435   2.118  12.127 -0.8823  2.1345 -0.8101
  152TMC2    C1 2361   0.619   2.254  12.708  0.0847  0.1094  0.3326
  152TMC2    C2 2362   0.714   2.168  12.660  0.2740  0.3194 -0.0280
  152TMC2    C3 2363   0.848   2.191  12.687  0.5361 -0.5941  0.8637
  152TMC2    C4 2364   0.660   2.370  12.772  0.0721  0.4717 -0.7565
  152TMC2    C5 2365   0.797   2.391  12.798 -0.3484 -0.2452 -0.8402
  152TMC2    C6 2366   0.892   2.305  12.753  0.0596 -0.2712  0.2349
  152TMC2     C 2367   0.477   2.227  12.702  0.6396 -0.1979 -0.7571
  152TMC2     O 2368   0.401   2.325  12.706 -0.2476  0.0114  0.2059
  152TMC2     H 2369   0.692   2.086  12.593 -1.5788  1.5416 -0.9166
  152TMC2    H1 2370   0.588   2.445  12.803  1.1525  1.4151 -0.5197
  152TMC2    H2 2371   0.994   2.312  12.787  0.6617  2.4251 -2.1614
  152TMC2    C7 2372   0.829   2.487  12.904 -0.2585  0.0088  0.9576
  152TMC2    C8 2373   0.941   2.101  12.633  0.0492 -0.1261  0.1763
  152TMC2    O1 2374   0.735   2.523  12.978  0.1534 -0.4269 -0.1549
  152TMC2    O2 2375   0.901   1.991  12.590  0.5109 -0.0148 -0.4505
  152TMC2    O5 2376   1.063   2.162  12.594 -0.3361 -0.1757  0.6015
  152TMC2    H5 2377   1.065   2.257  12.618 -0.3812 -0.0571  0.1356
  153MPD2     C 2378   0.340   1.897  12.810  0.3634 -0.5972 -0.2695
  153MPD2    C1 2379   0.346   2.027  12.761 -0.8507 -0.2577 -0.2846
  153MPD2    C2 2380   0.220   2.086  12.734  0.4470  0.3656  0.3434
  153MPD2    C3 2381   0.100   2.011  12.739  0.0067  0.4241 -0.5267
  153MPD2    C4 2382   0.101   1.876  12.775  0.0191 -0.2985 -0.1733
  153MPD2    C5 2383   0.220   1.833  12.820 -0.2703 -0.2406 -0.0753
  153MPD2     H 2384   0.223   2.190  12.705 -1.1815  0.4363  0.4668
  153MPD2    H1 2385   0.013   1.813  12.780  0.7537 -1.2017  1.4351
  153MPD2    H2 2386   0.430   1.845  12.841 -2.1177 -3.3452  2.3408
  153MPD2    H3 2387   0.221   1.730  12.854 -4.2606  0.1561  1.2895
  153MPD2     N 2388   4.730   2.087  12.696 -0.2229  0.3119  0.3256
  153MPD2    H5 2389   0.010   2.181  12.664  1.7329  0.3693  1.7208
  153MPD2    N1 2390   0.465   2.093  12.736  0.6211  0.5644 -0.3393
  153MPD2    H7 2391   0.548   2.035  12.734 -0.1266 -0.5297  0.3803
  154TMC2    C1 2392   2.108   2.356   0.384 -0.3600 -0.4080 -0.5562
  154TMC2    C2 2393   2.232   2.324   0.435 -0.2007 -0.3022 -0.2926
  154TMC2    C3 2394   2.326   2.270   0.351 -0.5622  0.1772 -0.2269
  154TMC2    C4 2395   2.078   2.340   0.251  0.7340  0.1694  1.1023
  154TMC2    C5 2396   2.167   2.273   0.176  0.8250 -0.1438 -0.1545
  154TMC2    C6 2397   2.283   2.225   0.234  0.1897  0.6765  0.2491
  154TMC2     C 2398   2.027   2.443   0.468  0.3171  0.2882  0.5277
  154TMC2     O 2399   2.077   2.492   0.567  0.6590  0.1290 -0.0594
  154TMC2     H 2400   2.259   2.350   0.536  1.0630 -1.3836 -0.3553
  154TMC2    H1 2401   1.990   2.378   0.199  1.0750 -0.9594 -0.2927
  154TMC2    H2 2402   2.357   2.172   0.175  0.4431 -0.7437  1.8468
  154TMC2    C7 2403   2.104   2.202   0.066  0.0028  0.8620  0.2343
  154TMC2    C8 2404   2.437   2.200   0.399  0.1169 -0.0611 -0.3039
  154TMC2    O1 2405   2.014   2.260   0.007 -0.1565  0.3239  0.4679
  154TMC2    O2 2406   2.442   2.083   0.362  0.4074 -0.0643  0.3908
  154TMC2    O5 2407   2.466   2.244   0.525  0.8041  0.6274 -0.2191
  154TMC2    H5 2408   2.472   2.341   0.540 -1.6125  0.5279  1.1771
  155MPD2     C 2409   1.703   2.582   0.407  0.2506 -0.2479 -0.0947
  155MPD2    C1 2410   1.819   2.568   0.474 -0.0960 -0.5883  0.0143
  155MPD2    C2 2411   1.845   2.649   0.587 -0.7567 -0.4115  0.1133
  155MPD2    C3 2412   1.745   2.733   0.635  0.5093  0.1209 -0.4454
  155MPD2    C4 2413   1.627   2.738   0.567  0.2176 -0.3300 -0.9296
  155MPD2    C5 2414   1.604   2.661   0.458 -0.5892  0.7420 -0.1676
  155MPD2     H 2415   1.944   2.649   0.632 -0.8948 -1.2293  0.4072
  155MPD2    H1 2416   1.545   2.806   0.587  2.6524  2.7138 -1.3178
  155MPD2    H2 2417   1.695   2.528   0.314 -1.8579  0.7984 -0.5469
  155MPD2    H3 2418   1.512   2.681   0.405 -1.7230 -1.9404  0.8065
  155MPD2     N 2419   1.767   2.802   0.753 -0.0671  0.0132  0.2677
  155MPD2    H5 2420   1.845   2.776   0.813  2.6368  0.9141 -2.9132
  155MPD2    N1 2421   1.910   2.481   0.411  0.1072 -0.2469 -0.5585
  155MPD2    H7 2422   1.873   2.434   0.329  0.2044 -0.2144 -0.6212
  156TMC2    C1 2423   1.359   4.323  11.709  0.2212  0.8316  0.0065
  156TMC2    C2 2424   1.467   4.394  11.664 -1.3001  0.7598 -0.3893
  156TMC2    C3 2425   1.454   4.459  11.541 -0.1047 -0.3648  0.5339
  156TMC2    C4 2426   1.246   4.305  11.628  0.0077  0.6342 -0.4798
  156TMC2    C5 2427   1.242   4.364  11.504  0.4584  0.5853 -0.4838
  156TMC2    C6 2428   1.340   4.449  11.466  0.1084  0.3476  0.2000
  156TMC2     C 2429   1.311   4.351  11.846  0.1571  0.8484  0.2935
  156TMC2     O 2430   1.195   4.334  11.877  0.4985  0.2377  0.2306
  156TMC2     H 2431   1.550   4.425  11.727 -0.2504  3.0597 -2.9007
  156TMC2    H1 2432   1.170   4.238  11.668 -0.3576  0.4231 -1.4999
  156TMC2    H2 2433   1.330   4.493  11.367 -0.1181  1.4522  0.7259
  156TMC2    C7 2434   1.107   4.392  11.453 -0.6924 -0.4182 -0.7670
  156TMC2    C8 2435   1.569   4.523  11.480 -0.8811  0.7103 -0.5354
  156TMC2    O1 2436   1.102   4.490  11.378  0.9545 -0.0764 -0.1053
  156TMC2    O2 2437   1.572   4.544  11.356  0.2224 -0.4255  0.1449
  156TMC2    O5 2438   1.582   4.622  11.569  0.4865  0.0563  0.4208
  156TMC2    H5 2439   1.522   4.612  11.646  0.8215  1.9855  0.9140
  157MPD2     C 2440   1.501   4.435  12.150  0.2205 -0.8060 -0.2929
  157MPD2    C1 2441   1.397   4.424  12.064  0.5073 -0.0231  0.6763
  157MPD2    C2 2442   1.269   4.474  12.121  0.4156 -0.1221 -0.3784
  157MPD2    C3 2443   1.260   4.527  12.253 -0.1831  0.1545  0.0288
  157MPD2    C4 2444   1.378   4.532  12.332 -0.6249 -0.8070  0.6156
  157MPD2    C5 2445   1.489   4.491  12.274  0.1793  0.7818 -0.4309
  157MPD2     H 2446   1.178   4.484  12.063  0.4206  0.0589 -0.3570
  157MPD2    H1 2447   1.374   4.559  12.437  1.6499 -0.0329  0.4888
  157MPD2    H2 2448   1.604   4.407  12.131  0.2656 -0.6064 -0.3411
  157MPD2    H3 2449   1.579   4.500  12.333  0.7999  0.1339 -1.2867
  157MPD2     N 2450   1.129   4.563  12.298 -0.7931  0.2266  0.0266
  157MPD2    H5 2451   1.061   4.573  12.224  1.5138  3.5184 -1.6773
  157MPD2    N1 2452   1.413   4.379  11.935  0.5877 -0.4430  0.1806
  157MPD2    H7 2453   1.506   4.361  11.897  1.1870  0.5333  1.1991
  158TMC2    C1 2454   1.448   3.429  13.574  0.1047 -0.2594  0.1866
  158TMC2    C2 2455   1.543   3.482  13.492 -0.4182  0.3806 -1.3637
  158TMC2    C3 2456   1.510   3.492  13.362  0.8541 -0.3092  0.1735
  158TMC2    C4 2457   1.323   3.389  13.526  0.5652  0.7945 -0.3361
  158TMC2    C5 2458   1.297   3.410  13.394 -0.2538 -0.4174  0.3249
  158TMC2    C6 2459   1.388   3.466  13.313 -0.1425  0.2756 -0.6278
  158TMC2     C 2460   1.493   3.385  13.704  0.2421  0.3012  0.2036
  158TMC2     O 2461   1.606   3.348  13.716 -0.2898  0.1700  0.3432
  158TMC2     H 2462   1.640   3.510  13.532 -0.8416  1.5604 -1.1479
  158TMC2    H1 2463   1.252   3.337  13.590  2.2481 -0.9831  0.0917
  158TMC2    H2 2464   1.363   3.475  13.208 -1.2503 -0.1985 -0.4138
  158TMC2    C7 2465   1.156   3.416  13.347 -0.2763  0.1106 -0.2384
  158TMC2    C8 2466   1.615   3.531  13.264 -0.3058 -0.5528  0.1174
  158TMC2    O1 2467   1.143   3.453  13.231  0.1241 -0.1679  0.0137
  158TMC2    O2 2468   1.698   3.621  13.281 -0.0736  0.1853 -0.2964
  158TMC2    O5 2469   1.615   3.441  13.161 -0.0904 -0.2803 -0.5497
  158TMC2    H5 2470   1.563   3.359  13.177  2.1655 -1.7820 -0.9372
  159MPD2     C 2471   1.432   3.328  14.226 -0.3121  0.3824  0.5118
  159MPD2    C1 2472   1.323   3.394  14.177 -0.1746 -0.1488  0.1617
  159MPD2    C2 2473   1.308   3.405  14.037  0.7094  0.6178  0.7790
  159MPD2    C3 2474   1.402   3.364  13.944  0.3879 -0.6586  0.5700
  159MPD2    C4 2475   1.507   3.300  13.998 -0.5423  0.1658  0.0584
  159MPD2    C5 2476   1.518   3.274  14.135  0.2326  0.4572 -1.0180
  159MPD2     H 2477   1.224   3.459  13.997 -0.1970 -1.6761 -0.4052
  159MPD2    H1 2478   1.578   3.266  13.923 -1.1980 -1.4132  0.1672
  159MPD2    H2 2479   1.448   3.313  14.332 -0.2200  0.4427  0.5072
  159MPD2    H3 2480   1.603   3.219  14.172 -0.5781  0.4855  0.9146
  159MPD2     N 2481   1.387   3.391  13.800 -0.1404  0.0102 -0.8041
  159MPD2    H5 2482   1.305   3.443  13.771 -0.4166 -1.5506 -2.8080
  159MPD2    N1 2483   1.242   3.457  14.275  0.3112 -0.2446  0.0315
  159MPD2    H7 2484   1.236   3.419  14.370 -2.6666 -2.2926 -0.9610
  160TMC2    C1 2485   1.117   1.119   1.105 -0.1681  0.4669 -0.5564
  160TMC2    C2 2486   1.215   1.102   1.191  0.1372  0.7234  0.0162
  160TMC2    C3 2487   1.332   1.164   1.160 -0.4729 -0.6452  0.5318
  160TMC2    C4 2488   1.125   1.203   0.998  0.5161 -0.1363 -0.3645
  160TMC2    C5 2489   1.244   1.259   0.977  0.2598  0.4223  0.0256
  160TMC2    C6 2490   1.356   1.239   1.051 -0.2817  0.5715 -0.0336
  160TMC2     C 2491   0.987   1.099   1.164  0.0920 -0.9826 -0.0433
  160TMC2     O 2492   0.975   1.008   1.246 -0.2166  0.0240  0.2012
  160TMC2     H 2493   1.214   1.052   1.287 -2.2897 -0.8941 -0.8714
  160TMC2    H1 2494   1.044   1.214   0.927  1.4067  0.4497 -1.2912
  160TMC2    H2 2495   1.448   1.288   1.024  0.4116 -0.3527  0.6710
  160TMC2    C7 2496   1.252   1.351   0.867  0.8188  0.0654 -0.6726
  160TMC2    C8 2497   1.431   1.121   1.261 -0.1618 -0.7806  1.1628
  160TMC2    O1 2498   1.162   1.343   0.784  0.0204  0.0091 -0.4975
  160TMC2    O2 2499   1.456   1.006   1.290 -0.1140  0.4147  0.4440
  160TMC2    O5 2500   1.443   1.219   1.354 -0.2663  0.6999 -0.4363
  160TMC2    H5 2501   1.412   1.307   1.324 -0.5098  0.5094 -0.7379
  161MPD2     C 2502   0.702   1.147   1.268 -0.3268 -0.2302  0.4465
  161MPD2    C1 2503   0.769   1.214   1.167 -0.0577  0.0887 -0.1845
  161MPD2    C2 2504   0.699   1.303   1.089 -0.0455  0.3828  0.5756
  161MPD2    C3 2505   0.567   1.320   1.113 -0.3028  0.1952  0.0408
  161MPD2    C4 2506   0.503   1.255   1.214 -0.8122  0.6235 -0.7872
  161MPD2    C5 2507   0.567   1.167   1.292 -0.2749  0.0475  0.7287
  161MPD2     H 2508   0.752   1.361   1.014  1.6029 -0.9501  0.7239
  161MPD2    H1 2509   0.397   1.273   1.224 -0.5197  2.4804 -0.9355
  161MPD2    H2 2510   0.753   1.067   1.321 -0.3108  0.1483  1.0035
  161MPD2    H3 2511   0.510   1.112   1.367 -0.5201  0.1892  0.6443
  161MPD2     N 2512   0.488   1.410   1.036 -0.0655  0.0616 -0.2390
  161MPD2    H5 2513   0.394   1.432   1.067  0.3350  1.7582 -0.1880
  161MPD2    N1 2514   0.904   1.200   1.131  0.6012 -0.2896  0.4296
  161MPD2    H7 2515   0.938   1.258   1.055 -0.9691 -1.5903 -1.2989
  162TMC2    C1 2516   3.494   3.012   1.340 -0.6219 -0.0756 -0.1494
  162TMC2    C2 2517   3.374   3.029   1.406 -0.1982  0.1732 -0.2835
  162TMC2    C3 2518   3.363   3.000   1.540  0.7086 -0.8367 -0.4951
  162TMC2    C4 2519   3.598   2.950   1.403  0.6324 -0.1851  0.3231
  162TMC2    C5 2520   3.579   2.919   1.537 -0.1082  0.2775 -0.8025
  162TMC2    C6 2521   3.468   2.947   1.606  0.3022  0.1742  0.0049
  162TMC2     C 2522   3.508   3.046   1.197 -0.5066  0.0181  0.3262
  162TMC2     O 2523   3.578   2.970   1.129  0.1986 -0.0161  0.0103
  162TMC2     H 2524   3.287   3.065   1.352  0.0811 -1.2030 -1.6498
  162TMC2    H1 2525   3.693   2.951   1.350  0.3445 -1.0717 -0.2114
  162TMC2    H2 2526   3.472   2.920   1.711  1.2415  0.4581  0.0395
  162TMC2    C7 2527   3.687   2.859   1.610 -0.4760 -0.2764  0.0206
  162TMC2    C8 2528   3.239   3.038   1.609 -0.8139 -0.0773 -0.2434
  162TMC2    O1 2529   3.695   2.894   1.728 -0.6268  0.1449 -0.2825
  162TMC2    O2 2530   3.153   3.111   1.563 -0.0528 -0.2511 -0.0201
  162TMC2    O5 2531   3.215   2.935   1.694  0.0674  0.0928 -0.0450
  162TMC2    H5 2532   3.274   2.863   1.662  0.0705  0.6536 -1.3179
  163MPD2     C 2533   3.450   3.354   0.792  0.5274 -0.1394  0.3373
  163MPD2    C1 2534   3.480   3.220   0.792 -0.0817  0.3582  0.2888
  163MPD2    C2 2535   3.473   3.149   0.909  0.5866  0.5548  0.2647
  163MPD2    C3 2536   3.439   3.213   1.027 -0.7247 -0.1343 -0.8317
  163MPD2    C4 2537   3.402   3.349   1.021 -0.0622 -0.5585  0.6901
  163MPD2    C5 2538   3.404   3.413   0.900  0.2872  0.6569 -0.4015
  163MPD2     H 2539   3.501   3.044   0.903  0.1097  0.4694 -0.3807
  163MPD2    H1 2540   3.390   3.408   1.112 -0.1438 -2.6974  2.0570
  163MPD2    H2 2541   3.464   3.420   0.706 -1.5824 -0.3356 -0.1545
  163MPD2    H3 2542   3.373   3.516   0.893 -5.7948 -1.1213  0.8442
  163MPD2     N 2543   3.439   3.153   1.158  0.1322 -0.4161  0.7818
  163MPD2    H5 2544   3.392   3.205   1.231  0.2570  1.7267 -0.6502
  163MPD2    N1 2545   3.524   3.160   0.672 -0.0772 -0.2699 -0.5419
  163MPD2    H7 2546   3.544   3.227   0.598 -0.5869  0.2844 -0.1857
  164TMC2    C1 2547   3.953   3.335  11.374  0.0169 -0.1867  0.4399
  164TMC2    C2 2548   3.991   3.466  11.358 -0.3284 -0.5160  0.5589
  164TMC2    C3 2549   3.938   3.534  11.251  0.9077  0.1285 -0.5674
  164TMC2    C4 2550   3.866   3.270  11.285 -0.0761  0.5161  0.5352
  164TMC2    C5 2551   3.808   3.347  11.186  0.3649 -0.0628  0.1855
  164TMC2    C6 2552   3.850   3.477  11.163  0.3942 -0.3366  0.2834
  164TMC2     C 2553   4.030   3.262  11.470 -0.9309  0.6778 -0.2396
  164TMC2     O 2554   4.099   3.329  11.545 -0.2465  0.0069 -0.9182
  164TMC2     H 2555   4.071   3.510  11.416 -0.9678 -0.1133  1.1314
  164TMC2    H1 2556   3.822   3.174  11.308  0.6689  0.3609  1.3551
  164TMC2    H2 2557   3.822   3.539  11.078 -0.8653  1.9190  2.3526
  164TMC2    C7 2558   3.710   3.283  11.100  0.2811 -0.2165 -0.4304
  164TMC2    C8 2559   3.990   3.667  11.222  0.6909 -0.0924 -0.3686
  164TMC2    O1 2560   3.621   3.344  11.047 -0.6480  0.4042 -0.2465
  164TMC2    O2 2561   4.045   3.687  11.118 -0.0527  0.7582  0.0783
  164TMC2    O5 2562   4.039   3.712  11.337 -0.3805  0.1724  0.0639
  164TMC2    H5 2563   3.967   3.691  11.400  1.3517 -0.6612  1.7879
  165TMC2    C1 2564   1.456   0.528   1.556  1.0870  0.4800  0.4857
  165TMC2    C2 2565   1.385   0.599   1.652  0.3983 -0.5139  0.2835
  165TMC2    C3 2566   1.280   0.673   1.606  0.6430  0.1238 -0.3444
  165TMC2    C4 2567   1.434   0.543   1.426 -0.7235  0.2569  0.1745
  165TMC2    C5 2568   1.336   0.627   1.385 -0.2610  0.2682  0.5119
  165TMC2    C6 2569   1.252   0.688   1.474 -0.2984  0.0040  0.1801
  165TMC2     C 2570   1.550   0.434   1.590 -0.5770  0.0384 -0.2240
  165TMC2     O 2571   1.579   0.351   1.512  0.1475 -0.6019 -0.4463
  165TMC2     H 2572   1.385   0.554   1.751 -1.6316 -0.8584  0.1226
  165TMC2    H1 2573   1.487   0.496   1.344 -0.2320 -2.0267  1.8170
  165TMC2    H2 2574   1.169   0.755   1.452  1.0039  1.2243 -1.0286
  165TMC2    C7 2575   1.359   0.687   1.257 -0.1396  0.4021 -0.5295
  165TMC2    C8 2576   1.171   0.717   1.689 -0.7260 -0.2683  0.3626
  165TMC2    O1 2577   1.475   0.676   1.217 -0.2389  0.3520 -0.6571
  165TMC2    O2 2578   1.075   0.778   1.644 -0.2608 -0.7184 -0.1222
  165TMC2    O5 2579   1.176   0.661   1.812  0.5205 -0.0778  0.4497
  165TMC2    H5 2580   1.255   0.609   1.838 -0.4212 -0.4867  2.5260
  166MPD2     C 2581   1.810   0.181   1.965  0.0349 -1.0220 -0.1030
  166MPD2    C1 2582   1.730   0.133   1.862  1.0895 -0.0100 -0.8732
  166MPD2    C2 2583   1.659   0.221   1.781 -0.5029  0.7612  0.3238
  166MPD2    C3 2584   1.659   0.354   1.805 -0.9513 -0.0731 -0.1050
  166MPD2    C4 2585   1.721   0.396   1.911  0.5335 -0.1804  0.1347
  166MPD2    C5 2586   1.788   0.311   1.998  0.7776  0.4067 -0.8148
  166MPD2     H 2587   1.595   0.191   1.699  0.7513  0.8753 -0.6880
  166MPD2    H1 2588   1.732   0.503   1.930  2.4427 -0.6312  1.6036
  166MPD2    H2 2589   1.864   0.121   2.037 -0.2177  0.2245  1.1211
  166MPD2    H3 2590   1.830   0.353   2.089  1.3788  0.3534 -1.0656
  166MPD2     N 2591   1.596   0.450   1.718  0.4529  0.3972 -0.2244
  166MPD2    H5 2592   1.593   0.545   1.754 -2.0682 -0.4937  1.8922
  166MPD2    N1 2593   1.724   4.730   1.844  0.1620 -0.8700 -0.0688
  166MPD2    H7 2594   1.762   4.667   1.914  0.4319  0.1782  0.7230
  167TMC2    C1 2595   3.133   3.381  12.942  0.8135 -0.3185 -0.1203
  167TMC2    C2 2596   3.113   3.394  13.078 -0.6534 -0.4836 -0.0509
  167TMC2    C3 2597   3.072   3.292  13.152  0.9851  0.1011 -0.7598
  167TMC2    C4 2598   3.118   3.261  12.876 -0.1089  0.2905  0.0419
  167TMC2    C5 2599   3.077   3.158  12.958  0.0644 -0.9483  0.4252
  167TMC2    C6 2600   3.045   3.171  13.089 -0.0419  0.4389  0.3863
  167TMC2     C 2601   3.174   3.500  12.874 -0.6626 -0.2801  0.6601
  167TMC2     O 2602   3.155   3.603  12.933 -0.2172 -0.3285 -0.3450
  167TMC2     H 2603   3.114   3.497  13.110 -0.7328 -1.4169  2.8927
  167TMC2    H1 2604   3.147   3.249  12.773 -1.1014  2.4576 -0.4864
  167TMC2    H2 2605   3.010   3.088  13.150 -2.2228  1.6538  0.7844
  167TMC2    C7 2606   3.064   3.027  12.904  0.7132  0.7221  0.1167
  167TMC2    C8 2607   3.043   3.306  13.291  0.9807  0.1339  0.3654
  167TMC2    O1 2608   2.993   2.960  12.970  0.2528 -0.4558 -0.0000
  167TMC2    O2 2609   2.974   3.216  13.349 -0.5701 -0.1623  0.8649
  167TMC2    O5 2610   3.142   3.391  13.342  0.2487 -0.1348  0.1413
  167TMC2    H5 2611   3.195   3.440  13.275  0.3344 -0.4938 -0.0529
  168MPD2     C 2612   3.308   3.706  12.705 -0.5421  0.2572 -0.3782
  168MPD2    C1 2613   3.311   3.573  12.673 -0.2089  0.3191 -1.1112
  168MPD2    C2 2614   3.367   3.537  12.553 -0.8457 -0.7267  0.6665
  168MPD2    C3 2615   3.415   3.625  12.460 -0.2378 -0.4106 -0.2735
  168MPD2    C4 2616   3.415   3.761  12.502  0.6855 -0.3817 -0.4109
  168MPD2    C5 2617   3.355   3.799  12.619 -0.4721 -0.0969  0.3541
  168MPD2     H 2618   3.378   3.433  12.525  2.0441 -0.2252 -0.0644
  168MPD2    H1 2619   3.453   3.849  12.451  0.1235 -0.2986 -0.6802
  168MPD2    H2 2620   3.246   3.744  12.785  1.3972 -1.7123  2.0660
  168MPD2    H3 2621   3.346   3.906  12.635 -0.5990  0.1673 -1.4139
  168MPD2     N 2622   3.471   3.572  12.342 -0.1535  0.4232 -0.6385
  168MPD2    H5 2623   3.456   3.473  12.326  3.3417 -0.0534 -0.9898
  168MPD2    N1 2624   3.252   3.474  12.763 -0.6007  0.1821  0.3232
  168MPD2    H7 2625   3.243   3.383  12.720  0.8386 -0.3551  1.1554
  169MPD1     C 2626   4.086   1.905   9.488  0.2236  0.1816 -0.3185
  169MPD1    C1 2627   4.135   1.847   9.606  0.9994 -0.0517  0.2294
  169MPD1    C2 2628   4.265   1.869   9.643 -0.2955 -0.7164  0.1907
  169MPD1    C3 2629   4.349   1.949   9.565 -0.4243 -1.2942 -0.4486
  169MPD1    C4 2630   4.294   2.009   9.456  0.4354  0.3827 -0.3679
  169MPD1    C5 2631   4.166   1.992   9.423 -0.0281 -0.8250  0.4097
  169MPD1     H 2632   4.308   1.818   9.728 -2.3073  0.5074  1.9198
  169MPD1    H1 2633   4.355   2.079   9.400  1.7302 -0.6125 -0.2207
  169MPD1    H2 2634   3.979   1.909   9.470  0.1804  0.3797 -0.0218
  169MPD1    H3 2635   4.127   2.044   9.336  0.0876  2.1025  2.1269
  169MPD1     N 2636   4.477   1.970   9.622 -1.0280 -0.0466 -0.5252
  169MPD1    H5 2637   4.485   1.918   9.708 -1.2286 -3.8682 -2.8388
  169MPD1    N1 2638   4.054   1.752   9.675 -0.2011 -0.5495 -0.5435
  169MPD1    H6 2639   4.088   1.733   9.769  1.3486  1.4348 -0.6788
  169MPD1    H7 2640   3.954   1.772   9.672  0.1706  1.0875 -2.9392
  170MPD1     C 2641   3.879   0.267  13.143  0.1879 -0.0849 -0.1416
  170MPD1    C1 2642   3.837   0.393  13.180  0.2271 -0.2583  0.2324
  170MPD1    C2 2643   3.866   0.443  13.305  0.0306  0.7784 -0.3052
  170MPD1    C3 2644   3.924   0.361  13.400  0.0613  0.1829 -0.0837
  170MPD1    C4 2645   3.969   0.232  13.364  0.2614  0.8013  0.5521
  170MPD1    C5 2646   3.941   0.189  13.238  0.3013 -0.4184 -0.2061
  170MPD1     H 2647   3.849   0.547  13.330  0.3686  0.3851  1.5293
  170MPD1    H1 2648   4.020   0.162  13.429 -0.7640 -1.1946 -0.7798
  170MPD1    H2 2649   3.868   0.229  13.042  0.7736  0.1925 -0.3070
  170MPD1    H3 2650   3.964   0.088  13.205 -2.3534 -0.7453 -1.1095
  170MPD1     N 2651   3.934   0.418  13.534 -0.2808 -0.3159  0.4357
  170MPD1    H5 2652   3.890   0.508  13.545 -1.7346 -0.9531 -0.1509
  170MPD1    N1 2653   3.784   0.480  13.087  0.2935 -0.1677 -0.9006
  170MPD1    H6 2654   3.708   0.540  13.119 -0.5289 -0.4770 -2.2740
  170MPD1    H7 2655   3.747   0.425  13.010 -2.8397 -0.8663  1.1111
  171MPD1     C 2656   2.272   1.563  15.769 -0.2982  0.3673 -0.0885
  171MPD1    C1 2657   2.323   1.536  15.892 -0.3247  0.4892 -0.1371
  171MPD1    C2 2658   2.453   1.486  15.887 -0.0508 -0.0518 -0.2020
  171MPD1    C3 2659   2.536   1.479  15.777 -0.6821  0.8498  0.2989
  171MPD1    C4 2660   2.484   1.528  15.665  0.0131  0.4432  0.3322
  171MPD1    C5 2661   2.352   1.548  15.658  0.5709  0.2248 -0.1727
  171MPD1     H 2662   2.490   1.443  15.979 -1.0280 -0.5991 -0.0619
  171MPD1    H1 2663   2.544   1.541  15.575 -1.3826  3.5162 -0.1299
  171MPD1    H2 2664   2.171   1.601  15.754  0.8864  2.8785 -1.8158
  171MPD1    H3 2665   2.316   1.571  15.558  2.4199 -1.4237 -1.1973
  171MPD1     N 2666   2.668   1.432  15.785 -0.6960 -0.3476  0.2071
  171MPD1    H5 2667   2.719   1.416  15.698 -0.1240 -1.1855  0.6970
  171MPD1    N1 2668   2.247   1.536  16.003  0.3009 -0.4229 -0.4412
  171MPD1    H6 2669   2.172   1.605  16.012  1.3000  0.6875 -0.8170
  171MPD1    H7 2670   2.301   1.561  16.086  1.0780  1.3858 -1.5108
  172MPD1     C 2671   3.143   0.588   0.483  0.0841 -0.2945 -0.1299
  172MPD1    C1 2672   3.094   0.665   0.586 -0.4592 -0.8559 -0.0999
  172MPD1    C2 2673   2.979   0.737   0.562  0.3277 -0.4785 -0.4502
  172MPD1    C3 2674   2.938   0.757   0.428  0.1550 -0.1057 -0.0390
  172MPD1    C4 2675   3.003   0.698   0.325  0.1229  0.4861  0.4930
  172MPD1    C5 2676   3.108   0.616   0.350 -0.0561 -0.3749  0.0777
  172MPD1     H 2677   2.926   0.794   0.637  2.6426  1.1185  0.0041
  172MPD1    H1 2678   2.982   0.719   0.221 -0.0615 -2.1204  0.0013
  172MPD1    H2 2679   3.215   0.508   0.492 -1.4351 -1.2756  3.1994
  172MPD1    H3 2680   3.160   0.560   0.273  1.0608  2.5812 -1.3219
  172MPD1     N 2681   2.825   0.833   0.396 -0.2511 -0.0214  0.5195
  172MPD1    H5 2682   2.805   0.828   0.297 -1.7898  1.6689  0.7535
  172MPD1    N1 2683   3.122   0.631   0.722 -0.5689 -0.1833 -0.3331
  172MPD1    H6 2684   3.214   0.588   0.728 -0.3188  0.3426 -0.3499
  172MPD1    H7 2685   3.125   0.723   0.766  1.5292 -0.1786 -0.4791
  173MPD1     C 2686   3.793   1.378  13.768 -0.6644  0.5428  0.2505
  173MPD1    C1 2687   3.849   1.252  13.775 -0.0594 -0.0402 -0.6287
  173MPD1    C2 2688   3.812   1.177  13.883 -0.3247 -0.1117 -1.0158
  173MPD1    C3 2689   3.734   1.235  13.987  1.1759  0.8472  0.2480
  173MPD1    C4 2690   3.682   1.369  13.969  0.3466  0.0865  0.4861
  173MPD1    C5 2691   3.711   1.439  13.858 -0.0729 -0.3255  0.0776
  173MPD1     H 2692   3.845   1.074  13.886  2.7465  0.9557  1.8965
  173MPD1    H1 2693   3.611   1.412  14.039 -0.3428 -0.1310 -0.0855
  173MPD1    H2 2694   3.810   1.434  13.677 -0.5006 -1.5502 -0.9965
  173MPD1    H3 2695   3.657   1.531  13.843 -0.7682 -0.7459  0.0115
  173MPD1     N 2696   3.715   1.154  14.099  0.3415  0.0590  0.1588
  173MPD1    H5 2697   3.749   1.059  14.090  0.0547 -0.0291 -0.0353
  173MPD1    N1 2698   3.912   1.197  13.665 -0.1280 -0.0885  0.4114
  173MPD1    H6 2699   3.963   1.264  13.608  0.2660 -0.9502 -0.2396
  173MPD1    H7 2700   3.979   1.135  13.710 -0.2264 -0.7554 -0.3797
  174MPD1     C 2701   4.267   0.604  14.407 -0.4383 -1.0253  0.6526
  174MPD1    C1 2702   4.177   0.587  14.513 -0.2952  0.1251 -0.4673
  174MPD1    C2 2703   4.056   0.650  14.506  0.4347 -0.6100  0.3189
  174MPD1    C3 2704   4.016   0.715  14.391  0.1872 -0.1435 -0.6468
  174MPD1    C4 2705   4.107   0.724  14.284 -0.2732  0.1030 -0.3708
  174MPD1    C5 2706   4.232   0.675  14.293 -0.2960 -1.0236  0.4210
  174MPD1     H 2707   3.990   0.649  14.592 -1.1502 -2.7116 -0.9122
  174MPD1    H1 2708   4.081   0.778  14.193 -0.7931 -1.1831 -0.9870
  174MPD1    H2 2709   4.363   0.556  14.416  1.3012  2.2558 -0.3663
  174MPD1    H3 2710   4.296   0.695  14.209  0.1815 -0.7192  0.8580
  174MPD1     N 2711   3.893   0.784  14.370 -0.6366 -0.4582  0.7315
  174MPD1    H5 2712   3.881   0.830  14.280 -1.0839 -1.1190  0.4581
  174MPD1    N1 2713   4.221   0.529  14.623 -1.2773 -0.0389  0.2096
  174MPD1    H6 2714   4.147   0.484  14.677 -1.0980 -0.6346 -0.0435
  174MPD1    H7 2715   4.290   0.461  14.592 -0.5022  0.7070  0.2973
  175MPD1     C 2716   1.578   1.950  15.375 -0.3222  0.3858 -0.1795
  175MPD1    C1 2717   1.619   1.823  15.392  0.0262 -0.9454 -0.8663
  175MPD1    C2 2718   1.646   1.785  15.525 -0.1152 -0.6256 -0.5844
  175MPD1    C3 2719   1.627   1.863  15.639  0.3091  0.1460  0.5435
  175MPD1    C4 2720   1.578   1.994  15.620  0.3438  0.3060 -0.5794
  175MPD1    C5 2721   1.565   2.030  15.486  0.4516  0.4164 -0.2760
  175MPD1     H 2722   1.687   1.686  15.543  2.2281  0.2306 -1.2706
  175MPD1    H1 2723   1.587   2.073  15.694 -1.4146  1.9844 -2.1629
  175MPD1    H2 2724   1.565   2.000  15.280 -1.1615 -0.6521 -0.6158
  175MPD1    H3 2725   1.547   2.136  15.475  0.5567  0.5030  0.4332
  175MPD1     N 2726   1.659   1.827  15.774  0.8436  0.1334 -0.1765
  175MPD1    H5 2727   1.630   1.894  15.844  2.6206  1.0699 -0.3325
  175MPD1    N1 2728   1.650   1.748  15.280 -0.0567  0.2807 -0.1115
  175MPD1    H6 2729   1.650   1.648  15.298  1.4905  0.4528  0.9602
  175MPD1    H7 2730   1.607   1.764  15.190  0.0140 -1.8669 -0.5117
  176MPD1     C 2731   3.951   3.320  16.686  0.9404  0.0769 -0.3147
  176MPD1    C1 2732   3.894   3.444  16.670 -0.2752  0.1365 -0.0375
  176MPD1    C2 2733   3.868   3.529  16.776  0.6914 -0.4476 -0.5881
  176MPD1    C3 2734   3.899   3.490  16.906  0.3348  0.0109 -0.7977
  176MPD1    C4 2735   3.947   3.363  16.922 -0.0695  0.5521 -0.1189
  176MPD1    C5 2736   3.980   3.281  16.813 -0.6183  0.3887  0.3107
  176MPD1     H 2737   3.817   3.620  16.746  0.9235 -0.7009 -1.7257
  176MPD1    H1 2738   3.981   3.320  17.015  0.9584  0.2540 -0.6325
  176MPD1    H2 2739   3.963   3.250  16.604  1.1026 -2.6498  2.0534
  176MPD1    H3 2740   4.014   3.178  16.821  5.0783  2.2387 -0.4272
  176MPD1     N 2741   3.885   3.580  17.011 -0.0527 -0.1094 -0.3779
  176MPD1    H5 2742   3.875   3.672  16.971 -1.1088 -0.5401 -1.1146
  176MPD1    N1 2743   3.840   3.481  16.539  0.3731  0.1743  0.1514
  176MPD1    H6 2744   3.853   3.579  16.516  2.1926  0.1953  1.3071
  176MPD1    H7 2745   3.875   3.424  16.462  1.4004  2.6937 -1.2356
  177MPD1     C 2746   1.723   2.790  10.496 -0.2619  0.0013 -0.9714
  177MPD1    C1 2747   1.580   2.807  10.509  0.3142 -0.5979  1.0252
  177MPD1    C2 2748   1.513   2.828  10.394  0.3069  0.1326 -0.4981
  177MPD1    C3 2749   1.568   2.789  10.275  0.0877 -0.8069 -0.2919
  177MPD1    C4 2750   1.707   2.771  10.263  0.4581  0.7403 -1.1541
  177MPD1    C5 2751   1.788   2.779  10.375  0.0002 -0.6468 -0.0487
  177MPD1     H 2752   1.411   2.863  10.385  0.9645  1.8316 -1.5455
  177MPD1    H1 2753   1.750   2.737  10.169  0.7205 -2.3063  0.0755
  177MPD1    H2 2754   1.790   2.787  10.581  0.9331  0.7513 -1.8708
  177MPD1    H3 2755   1.893   2.759  10.361  0.1696  0.4943 -0.4238
  177MPD1     N 2756   1.469   2.771  10.174 -0.0916  0.6109  0.2227
  177MPD1    H5 2757   1.371   2.774  10.199  0.2652 -0.4460  1.7177
  177MPD1    N1 2758   1.530   2.852  10.628  0.4168  0.6088  0.3435
  177MPD1    H6 2759   1.577   2.804  10.704  0.4888  1.1655  0.6527
  177MPD1    H7 2760   1.431   2.835  10.646  0.4137  1.2358  0.9494
  178MPD1     C 2761   0.334   4.017   0.429  0.8991 -0.7136  0.1973
  178MPD1    C1 2762   0.235   3.963   0.353  0.8095 -0.2982 -0.5649
  178MPD1    C2 2763   0.143   4.049   0.296 -0.0953 -0.1108 -0.6737
  178MPD1    C3 2764   0.164   4.184   0.293  0.0254 -0.9521  0.2775
  178MPD1    C4 2765   0.277   4.235   0.355  0.1120  0.4067 -0.1277
  178MPD1    C5 2766   0.351   4.151   0.435 -0.3441 -1.2864 -0.3754
  178MPD1     H 2767   0.057   4.000   0.250 -0.5224 -1.0548  1.1378
  178MPD1    H1 2768   0.295   4.342   0.344  1.7421  0.0023 -1.4553
  178MPD1    H2 2769   0.404   3.954   0.482 -1.1391 -1.4869  1.9597
  178MPD1    H3 2770   0.423   4.203   0.496 -0.9166 -2.4872  1.3232
  178MPD1     N 2771   0.073   4.276   0.233  0.6064 -0.3486 -0.2042
  178MPD1    H5 2772   0.107   4.372   0.238 -1.2924  0.2799  0.7273
  178MPD1    N1 2773   0.205   3.828   0.377  0.0748  0.0521  0.5246
  178MPD1    H6 2774   0.149   3.780   0.307  0.0049 -0.6734  1.0711
  178MPD1    H7 2775   0.285   3.772   0.406 -1.1035 -0.9508  1.8160
  179MPD1     C 2776   3.526   3.348  16.184  1.2012  1.0162  0.7310
  179MPD1    C1 2777   3.464   3.316  16.061 -0.7304  0.1905  0.2919
  179MPD1    C2 2778   3.511   3.198  15.995 -0.2235 -0.6546 -1.2038
  179MPD1    C3 2779   3.613   3.120  16.035 -0.4855  0.0217 -0.3883
  179MPD1    C4 2780   3.676   3.156  16.156  0.3830 -0.3268  0.6162
  179MPD1    C5 2781   3.627   3.267  16.227 -0.2297 -0.3337 -0.2921
  179MPD1     H 2782   3.458   3.175  15.904 -3.6602  0.4332  0.5218
  179MPD1    H1 2783   3.752   3.086  16.188 -1.3557 -1.2222  2.8177
  179MPD1    H2 2784   3.491   3.434  16.241 -0.8505  0.8360 -0.2813
  179MPD1    H3 2785   3.677   3.302  16.316 -1.3743  0.0979  0.1729
  179MPD1     N 2786   3.661   3.009  15.973 -0.4836  0.0805 -0.1114
  179MPD1    H5 2787   3.736   2.958  16.017  1.4211  2.0786 -1.0109
  179MPD1    N1 2788   3.349   3.376  16.008  0.6061  0.8483  0.6123
  179MPD1    H6 2789   3.340   3.471  16.042  0.4905  0.4191  1.7893
  179MPD1    H7 2790   3.372   3.385  15.909 -1.7241  0.1349  0.0042
  180MPD1     C 2791   3.322   4.064  15.480  0.5832 -0.1166  0.0251
  180MPD1    C1 2792   3.411   4.107  15.382 -0.0635  0.0788  0.5188
  180MPD1    C2 2793   3.449   4.019  15.283 -0.3139 -0.0992  0.8532
  180MPD1    C3 2794   3.391   3.886  15.278  0.7237  0.3374 -0.1752
  180MPD1    C4 2795   3.299   3.846  15.372  0.3930 -0.5125  0.3585
  180MPD1    C5 2796   3.259   3.941  15.466 -0.2688 -0.9364 -0.1369
  180MPD1     H 2797   3.541   4.044  15.231  0.0693 -2.0052  0.6152
  180MPD1    H1 2798   3.248   3.751  15.369  1.8564 -1.3279  1.3903
  180MPD1    H2 2799   3.290   4.129  15.561 -0.5249  0.7450 -1.0955
  180MPD1    H3 2800   3.193   3.910  15.546 -0.4568  0.6786  0.3436
  180MPD1     N 2801   3.428   3.813  15.166 -0.4250 -0.5135  0.6586
  180MPD1    H5 2802   3.494   3.853  15.100 -0.6404  0.5308  1.0791
  180MPD1    N1 2803   3.507   4.202  15.414  0.3403 -0.2579  0.1950
  180MPD1    H6 2804   3.472   4.267  15.485 -0.2389  1.7556 -1.9092
  180MPD1    H7 2805   3.552   4.254  15.339  1.7416  0.4471  1.5306
  181MPD1     C 2806   4.368   0.129  10.675 -0.5360  0.4173 -0.4298
  181MPD1    C1 2807   4.414   0.055  10.569 -0.1953 -1.0829 -0.3753
  181MPD1    C2 2808   4.549   0.028  10.569 -0.0258  0.8870 -0.3535
  181MPD1    C3 2809   4.640   0.110  10.634  0.0377 -0.4393 -0.1164
  181MPD1    C4 2810   4.591   0.201  10.721  0.0020 -0.3110  0.0004
  181MPD1    C5 2811   4.458   0.191  10.756 -0.3577  0.2077 -0.4443
  181MPD1     H 2812   4.585   4.706  10.487  0.5012 -0.4763  0.8992
  181MPD1    H1 2813   4.656   0.264  10.780 -1.1939  0.4042  0.5629
  181MPD1    H2 2814   4.262   0.152  10.689 -0.1274  1.6651  0.7050
  181MPD1    H3 2815   4.431   0.250  10.842 -0.2535  1.3007 -1.1527
  181MPD1     N 2816   0.040   0.100  10.628 -0.5768 -0.0010 -0.3319
  181MPD1    H5 2817   0.097   0.174  10.669  1.7367 -2.4943  0.9698
  181MPD1    N1 2818   4.319   4.722  10.494 -0.0242  0.1873 -0.2188
  181MPD1    H6 2819   4.232   0.032  10.477 -0.2011  0.1469  0.5579
  181MPD1    H7 2820   4.363   4.711  10.403  0.3526  2.3037 -0.2771
  182MPD1     C 2821   1.918   4.637   1.097 -0.1384  0.0934  0.1554
  182MPD1    C1 2822   1.929   4.582   0.970 -0.1925  0.0602 -0.3916
  182MPD1    C2 2823   1.843   4.621   0.870  0.6158 -0.4992 -0.0179
  182MPD1    C3 2824   1.741   4.717   0.902 -0.1537  0.1409  0.1159
  182MPD1    C4 2825   1.728   0.015   1.035  0.5488  0.5090 -0.2638
  182MPD1    C5 2826   1.824   4.726   1.124 -0.4007  0.6298 -0.9977
  182MPD1     H 2827   1.854   4.584   0.769 -1.0591 -1.3908  0.1328
  182MPD1    H1 2828   1.661   0.096   1.062  0.6269 -0.5714  3.1350
  182MPD1    H2 2829   1.979   4.607   1.182 -2.5475  1.6738  2.4483
  182MPD1    H3 2830   1.821   0.030   1.223  0.0950  0.5638 -0.9575
  182MPD1     N 2831   1.655   0.031   0.805  0.6933 -0.1032 -0.5775
  182MPD1    H5 2832   1.587   0.101   0.832  1.7906  0.0789  1.7574
  182MPD1    N1 2833   2.018   4.477   0.951  0.1261 -0.0183 -0.1872
  182MPD1    H6 2834   2.036   4.454   0.853 -0.5262 -0.0073 -0.3121
  182MPD1    H7 2835   2.107   4.494   0.997  0.3667  0.5611 -0.8624
  183MPD1     C 2836   1.706   0.408   9.962 -0.0997 -0.0046 -0.6171
  183MPD1    C1 2837   1.665   0.284  10.014 -0.2677  0.8512  0.1041
  183MPD1    C2 2838   1.568   0.217   9.952 -0.1475  1.3043  0.1269
  183MPD1    C3 2839   1.507   0.271   9.841 -0.4387 -0.0748  0.0995
  183MPD1    C4 2840   1.557   0.393   9.785  0.8512 -0.7841  0.4789
  183MPD1    C5 2841   1.656   0.463   9.849  0.0328 -0.0849  0.1822
  183MPD1     H 2842   1.533   0.129  10.004  2.2219  0.5601  0.4555
  183MPD1    H1 2843   1.511   0.444   9.701  2.7717 -1.0751 -0.7316
  183MPD1    H2 2844   1.787   0.459  10.013 -0.3177  1.3278 -1.6047
  183MPD1    H3 2845   1.705   0.547   9.802 -0.2653 -0.1682 -0.2865
  183MPD1     N 2846   1.398   0.206   9.781  0.1100  0.1566 -0.3491
  183MPD1    H5 2847   1.361   0.126   9.831  1.9716 -0.6600 -0.2711
  183MPD1    N1 2848   1.732   0.227  10.123 -0.8630 -0.2237  0.2880
  183MPD1    H6 2849   1.677   0.153  10.167 -0.1206 -1.0649 -0.1836
  183MPD1    H7 2850   1.770   0.296  10.188  2.1862 -2.8538  1.3341
  184MPD1     C 2851   0.619   3.142  11.015  0.0640  0.2776 -0.0349
  184MPD1    C1 2852   0.753   3.114  11.009 -0.1789 -0.1159 -0.7219
  184MPD1    C2 2853   0.797   3.028  10.911  0.2266 -0.6140 -0.3365
  184MPD1    C3 2854   0.713   2.998  10.805  0.9010 -0.2095 -0.5134
  184MPD1    C4 2855   0.585   3.035  10.808 -0.2931 -0.5239  0.5823
  184MPD1    C5 2856   0.534   3.102  10.917 -0.5249 -0.7145  0.3773
  184MPD1     H 2857   0.897   2.988  10.898  0.0210 -1.3155  0.1729
  184MPD1    H1 2858   0.516   3.028  10.725 -0.6873  1.1559  0.7621
  184MPD1    H2 2859   0.583   3.209  11.092 -0.2956  0.7130 -0.5854
  184MPD1    H3 2860   0.432   3.137  10.907  0.1758  1.1214 -0.5104
  184MPD1     N 2861   0.754   2.946  10.679  0.2709  0.7011  0.7686
  184MPD1    H5 2862   0.684   2.930  10.608 -0.2649  0.0108  1.4564
  184MPD1    N1 2863   0.836   3.161  11.119  0.3038  0.6147  0.0292
  184MPD1    H6 2864   0.933   3.174  11.091  0.5402 -1.6924 -0.1803
  184MPD1    H7 2865   0.804   3.244  11.168  1.8495  1.1081  0.2209
  185MPD1     C 2866   0.333   2.720   9.844  0.3655 -0.4840  0.0800
  185MPD1    C1 2867   0.296   2.726   9.977  0.2072 -0.0930 -0.1286
  185MPD1    C2 2868   0.396   2.752  10.072 -0.3613  0.6364  0.5403
  185MPD1    C3 2869   0.528   2.771  10.036  0.8895 -0.4492 -0.1969
  185MPD1    C4 2870   0.556   2.775   9.906  0.2527  0.5906  0.1718
  185MPD1    C5 2871   0.461   2.756   9.809 -0.5744  0.0537 -0.0383
  185MPD1     H 2872   0.371   2.750  10.178  2.2999 -2.0799  1.1318
  185MPD1    H1 2873   0.659   2.784   9.872  0.6438 -1.1740  0.8707
  185MPD1    H2 2874   0.259   2.703   9.767 -0.4174  1.7154  0.3375
  185MPD1    H3 2875   0.476   2.770   9.702 -2.0963 -1.4831 -0.4440
  185MPD1     N 2876   0.641   2.782  10.117 -0.6210 -0.2193  0.8911
  185MPD1    H5 2877   0.728   2.796  10.065 -0.8720  0.3214  0.6191
  185MPD1    N1 2878   0.158   2.720  10.004 -0.0825  0.1784  0.2826
  185MPD1    H6 2879   0.103   2.795   9.962 -1.2293 -0.4678  0.6544
  185MPD1    H7 2880   0.146   2.723  10.105 -0.4581 -0.1674  0.2483
  186MPD1     C 2881   4.107   3.596  15.703 -0.2540 -0.1985  0.4279
  186MPD1    C1 2882   4.119   3.464  15.725 -0.0237  0.6458 -0.7740
  186MPD1    C2 2883   4.199   3.429  15.833 -0.0747 -0.2886 -0.0994
  186MPD1    C3 2884   4.252   3.523  15.920 -0.0911  0.1047  0.3851
  186MPD1    C4 2885   4.229   3.656  15.896  0.3579 -0.8138 -0.9591
  186MPD1    C5 2886   4.164   3.693  15.782  0.4269 -0.0683 -0.1167
  186MPD1     H 2887   4.228   3.326  15.846  0.7476 -0.1816 -1.0884
  186MPD1    H1 2888   4.263   3.740  15.956  0.2032  0.2346 -2.3452
  186MPD1    H2 2889   4.056   3.635  15.615  1.4292  1.5992  0.2452
  186MPD1    H3 2890   4.153   3.792  15.739  1.0684 -1.2791 -3.0759
  186MPD1     N 2891   4.312   3.487  16.046 -0.2386  0.7095 -0.0639
  186MPD1    H5 2892   4.341   3.565  16.104 -1.4930 -1.1613  3.0807
  186MPD1    N1 2893   4.063   3.371  15.630 -0.2102 -0.2971  0.1070
  186MPD1    H6 2894   4.045   3.276  15.661  1.1698 -0.1913  1.2066
  186MPD1    H7 2895   3.971   3.410  15.608  0.5306  0.9350 -0.8261
  187MPD1     C 2896   4.404   0.013   0.137  0.2269  0.6386 -0.2239
  187MPD1    C1 2897   4.312   4.657   0.164 -0.2246 -0.2817 -0.1008
  187MPD1    C2 2898   4.192   4.671   0.101  0.0219  0.5991 -0.3613
  187MPD1    C3 2899   4.158   0.032   0.009 -0.2281 -0.5442 -0.6082
  187MPD1    C4 2900   4.254   0.132  17.748  0.5485 -0.2579 -0.5009
  187MPD1    C5 2901   4.372   0.124   0.060 -0.2718 -0.2010 -0.2206
  187MPD1     H 2902   4.127   4.588   0.126 -0.6969  1.3878  0.3808
  187MPD1    H1 2903   4.234   0.206  17.672 -0.2404  0.4001  0.3420
  187MPD1    H2 2904   4.498   4.737   0.188 -1.1083  0.8634  2.2995
  187MPD1    H3 2905   4.452   0.196   0.052 -0.2135 -0.2885 -0.4244
  187MPD1     N 2906   4.031   0.048  17.697  0.2748  0.1408  0.2007
  187MPD1    H5 2907   4.027   0.136  17.646 -2.3661  0.0045  0.1560
  187MPD1    N1 2908   4.351   4.542   0.227  0.2111  0.1330  0.0911
  187MPD1    H6 2909   4.427   4.539   0.296  0.4848  0.8690 -0.1823
  187MPD1    H7 2910   4.282   4.470   0.248  1.1199 -1.2462 -1.6590
  188MPD1     C 2911   3.366   4.729  11.006  0.3911  0.6400 -0.0044
  188MPD1    C1 2912   3.312   0.033  10.885  0.2135  0.1865  0.1693
  188MPD1    C2 2913   3.316   4.680  10.778 -0.4719 -0.3961 -0.3171
  188MPD1    C3 2914   3.354   4.546  10.793 -0.5689 -0.8916 -0.4790
  188MPD1    C4 2915   3.387   4.508  10.916  0.8764  0.4297 -0.0322
  188MPD1    C5 2916   3.397   4.600  11.023  0.6431  0.2835  0.5195
  188MPD1     H 2917   3.281   4.722  10.684  0.4054  2.6238  0.7302
  188MPD1    H1 2918   3.443   4.416  10.928  1.3105  0.6789 -0.1263
  188MPD1    H2 2919   3.345   0.044  11.097 -2.6766  1.2826 -1.0925
  188MPD1    H3 2920   3.434   4.566  11.119 -1.4265 -0.4695  1.0503
  188MPD1     N 2921   3.359   4.449  10.696 -0.4815  0.1268 -0.3605
  188MPD1    H5 2922   3.371   4.354  10.731  1.6874  0.5251 -0.0276
  188MPD1    N1 2923   3.273   0.167  10.861 -0.7233  0.3149  0.3114
  188MPD1    H6 2924   3.210   0.163  10.781 -0.4236 -0.3584  0.1087
  188MPD1    H7 2925   3.221   0.193  10.944  0.1709  2.2737  0.2694
  189MPD1     C 2926   0.634   0.823   0.427 -0.4385  0.0417  0.2772
  189MPD1    C1 2927   0.517   0.831   0.497  0.1856  1.3376  0.5664
  189MPD1    C2 2928   0.438   0.944   0.510  0.1588  0.4825 -0.2831
  189MPD1    C3 2929   0.493   1.063   0.466 -0.2063  0.1576  0.8592
  189MPD1    C4 2930   0.608   1.057   0.401 -0.4301  0.4355 -0.4154
  189MPD1    C5 2931   0.683   0.942   0.392 -0.3050  0.0414 -0.2746
  189MPD1     H 2932   0.343   0.941   0.561 -0.2361  1.0212 -0.9901
  189MPD1    H1 2933   0.659   1.148   0.371  2.5778 -1.0360  0.2490
  189MPD1    H2 2934   0.697   0.735   0.424  0.7796  0.9621 -1.5370
  189MPD1    H3 2935   0.785   0.951   0.354 -0.7253 -1.5180 -1.7469
  189MPD1     N 2936   0.420   1.180   0.477  0.1132  0.4050 -0.1735
  189MPD1    H5 2937   0.323   1.170   0.508 -0.5516 -0.1354 -2.4643
  189MPD1    N1 2938   0.471   0.704   0.528  0.3103 -0.4552 -0.8109
  189MPD1    H6 2939   0.408   0.709   0.608  1.2290  1.0823 -0.1652
  189MPD1    H7 2940   0.543   0.638   0.557  1.9454  0.9537 -1.6810
  190MPD1     C 2941   3.824   4.638  15.417  0.5870 -0.4246 -0.8175
  190MPD1    C1 2942   3.966   4.645  15.426  0.1295  0.6882 -0.3692
  190MPD1    C2 2943   4.023   4.556  15.516  0.7544 -0.3843  0.5817
  190MPD1    C3 2944   3.951   4.458  15.586 -0.1930 -0.0380 -0.2929
  190MPD1    C4 2945   3.820   4.447  15.556 -0.3762  0.3928 -0.1267
  190MPD1    C5 2946   3.759   4.529  15.471  1.4844 -0.0121  0.3248
  190MPD1     H 2947   4.130   4.558  15.531  1.1431 -2.2378 -1.9028
  190MPD1    H1 2948   3.764   4.358  15.582  0.2527 -0.3491 -1.3089
  190MPD1    H2 2949   3.768   4.702  15.350 -0.3043 -0.7573 -0.4043
  190MPD1    H3 2950   3.656   4.508  15.443  1.8303  0.3655 -1.1909
  190MPD1     N 2951   4.015   4.361  15.664  0.0032  0.3915 -0.2340
  190MPD1    H5 2952   4.116   4.373  15.658 -0.1531  1.7426 -0.1883
  190MPD1    N1 2953   4.041   0.016  15.376 -0.6390 -0.3485 -0.2841
  190MPD1    H6 2954   3.987   0.064  15.305 -1.5496  0.7924  1.1694
  190MPD1    H7 2955   4.136   4.731  15.350 -0.4339 -2.9752  2.8552
  191MPD1     C 2956   3.990   1.589  12.123 -0.4328  0.4852 -0.9051
  191MPD1    C1 2957   3.899   1.547  12.218  0.2646  0.0309  0.6986
  191MPD1    C2 2958   3.834   1.430  12.198  0.1916  0.2670  0.2051
  191MPD1    C3 2959   3.861   1.344  12.085  0.3593 -0.5589 -0.1864
  191MPD1    C4 2960   3.957   1.380  12.000 -0.0838 -0.6993 -0.1518
  191MPD1    C5 2961   4.020   1.501  12.026 -0.2700  0.2925  0.1597
  191MPD1     H 2962   3.763   1.394  12.271 -1.6751 -1.8299 -2.6373
  191MPD1    H1 2963   3.982   1.319  11.914  1.0278  0.3541 -0.5794
  191MPD1    H2 2964   4.045   1.682  12.129 -0.1603  0.4267 -2.5051
  191MPD1    H3 2965   4.094   1.536  11.954 -1.2905 -1.6792 -1.8447
  191MPD1     N 2966   3.791   1.221  12.088  0.3444  0.3212 -0.1158
  191MPD1    H5 2967   3.720   1.207  12.159  0.8403 -0.7865  0.1647
  191MPD1    N1 2968   3.866   1.639  12.319 -0.3158 -0.0683 -0.2232
  191MPD1    H6 2969   3.832   1.599  12.406 -1.9033  0.3620 -0.6492
  191MPD1    H7 2970   3.934   1.714  12.331 -0.5314  0.2635 -1.0959
  192MPD1     C 2971   3.256   0.697  11.451 -0.3394  0.1969  0.2773
  192MPD1    C1 2972   3.301   0.599  11.534 -0.2439  0.7285 -0.5337
  192MPD1    C2 2973   3.375   0.629  11.642  0.1848 -1.3653 -0.1832
  192MPD1    C3 2974   3.411   0.759  11.668 -0.2651  0.0662 -0.5155
  192MPD1    C4 2975   3.351   0.856  11.599  0.0404 -0.5956  0.2786
  192MPD1    C5 2976   3.270   0.824  11.495 -0.1270  0.3482  0.2702
  192MPD1     H 2977   3.403   0.547  11.706  2.1758  0.4889  1.3276
  192MPD1    H1 2978   3.377   0.959  11.623 -1.9571 -0.2876  1.0896
  192MPD1    H2 2979   3.193   0.676  11.366  0.8279 -0.2376 -0.4762
  192MPD1    H3 2980   3.217   0.902  11.440 -1.2507 -1.8604 -1.7718
  192MPD1     N 2981   3.512   0.800  11.762  0.0024  0.2094  0.1005
  192MPD1    H5 2982   3.536   0.899  11.765  0.7536  0.0953 -2.5983
  192MPD1    N1 2983   3.254   0.471  11.515  0.6076 -0.4827 -0.1850
  192MPD1    H6 2984   3.319   0.402  11.552  1.9398  0.2655 -1.1313
  192MPD1    H7 2985   3.226   0.447  11.420  1.8021  1.2768 -0.9970
  193MPD1     C 2986   2.572   1.414  16.492 -0.2995  0.3109 -0.1021
  193MPD1    C1 2987   2.638   1.419  16.368  0.3118  0.5450  0.5474
  193MPD1    C2 2988   2.764   1.475  16.355  0.3264  0.2509  0.2011
  193MPD1    C3 2989   2.809   1.550  16.467  0.1386  0.2839 -0.2637
  193MPD1    C4 2990   2.735   1.555  16.584  0.9555 -0.3896  0.0531
  193MPD1    C5 2991   2.616   1.481  16.601 -0.1219  0.2036  0.4432
  193MPD1     H 2992   2.810   1.471  16.257 -1.0590  0.7853 -0.4778
  193MPD1    H1 2993   2.763   1.619  16.666 -2.8747  0.7376  0.5069
  193MPD1    H2 2994   2.480   1.359  16.508 -1.7147  3.0669  1.3896
  193MPD1    H3 2995   2.561   1.487  16.694  1.1383  0.9198  1.1419
  193MPD1     N 2996   2.933   1.612  16.472  0.7951  0.1811 -0.0026
  193MPD1    H5 2997   2.959   1.648  16.563 -0.2580  0.7882  0.0466
  193MPD1    N1 2998   2.587   1.348  16.261  0.1055  0.2511  0.2234
  193MPD1    H6 2999   2.488   1.368  16.253 -0.0140 -0.4250  0.0091
  193MPD1    H7 3000   2.627   1.368  16.170  1.1551  2.6629  1.2121
  194MPD1     C 3001   1.434   4.061  17.229  0.2954 -0.1475  0.0157
  194MPD1    C1 3002   1.354   3.976  17.159  0.0688  0.0160 -0.2563
  194MPD1    C2 3003   1.370   3.834  17.175 -0.2384  0.0851 -0.1281
  194MPD1    C3 3004   1.473   3.780  17.248  0.1380  0.3073 -0.4759
  194MPD1    C4 3005   1.552   3.870  17.317  0.7820  0.5626 -0.2453
  194MPD1    C5 3006   1.532   4.007  17.305  0.6677 -1.1637 -0.3397
  194MPD1     H 3007   1.304   3.767  17.122  1.0488 -1.3737  0.1029
  194MPD1    H1 3008   1.637   3.836  17.375 -0.5299  0.0351  1.3594
  194MPD1    H2 3009   1.431   4.169  17.219  0.2415 -0.2927 -1.5016
  194MPD1    H3 3010   1.609   4.075  17.339  2.5166 -2.6336 -1.5799
  194MPD1     N 3011   1.498   3.641  17.248  0.0111  0.1699 -0.1505
  194MPD1    H5 3012   1.555   3.592  17.316 -1.3094 -2.1483 -0.7158
  194MPD1    N1 3013   1.273   4.025  17.053  0.3153 -0.0047  0.3045
  194MPD1    H6 3014   1.213   3.949  17.022  1.0849 -1.2569  1.8825
  194MPD1    H7 3015   1.212   4.104  17.072  0.1900  0.5052 -2.2700
  195MPD1     C 3016   3.853   0.503   0.198  0.0797  0.0030  0.2633
  195MPD1    C1 3017   3.974   0.429   0.219 -0.1118 -0.6112 -0.1082
  195MPD1    C2 3018   3.967   0.301   0.264  0.0709  0.1726  0.2113
  195MPD1    C3 3019   3.841   0.240   0.286 -0.1663  0.5374  0.1264
  195MPD1    C4 3020   3.730   0.314   0.260 -0.1916 -0.8252 -0.2191
  195MPD1    C5 3021   3.732   0.442   0.215  0.3231  0.0580 -0.3256
  195MPD1     H 3022   4.055   0.242   0.286 -0.2707 -0.9325 -1.3057
  195MPD1    H1 3023   3.631   0.270   0.272  0.0560 -1.4405 -0.4214
  195MPD1    H2 3024   3.842   0.603   0.157 -3.6057 -0.8972 -0.9728
  195MPD1    H3 3025   3.644   0.495   0.182  0.1672 -0.7836 -1.2626
  195MPD1     N 3026   3.822   0.104   0.327 -0.6877 -0.4282  0.4147
  195MPD1    H5 3027   3.732   0.061   0.310  0.4739 -2.6537 -0.2810
  195MPD1    N1 3028   4.098   0.480   0.177 -0.2284 -0.2164  0.5062
  195MPD1    H6 3029   4.112   0.574   0.213 -3.4150  0.4048  0.1659
  195MPD1    H7 3030   4.173   0.426   0.220  0.5755  0.2089 -0.3666
  196MPD1     C 3031   1.190   0.014  17.629  0.3661 -0.0369  0.0357
  196MPD1    C1 3032   1.277   0.104  17.579 -0.2075 -0.0061  0.6513
  196MPD1    C2 3033   1.410   0.073  17.577 -0.6769 -0.6180  0.2228
  196MPD1    C3 3034   1.452   4.689  17.624 -0.1367  0.2535  0.4050
  196MPD1    C4 3035   1.359   4.598  17.669  0.0660  0.0215 -0.0497
  196MPD1    C5 3036   1.232   4.633  17.681  0.2307 -0.5428 -1.0165
  196MPD1     H 3037   1.482   0.146  17.542  0.0788 -0.2635  2.4995
  196MPD1    H1 3038   1.391   4.503  17.712 -0.3412  0.9779  2.3699
  196MPD1    H2 3039   1.082   0.030  17.629  0.5364  1.1134  0.6551
  196MPD1    H3 3040   1.162   4.558  17.716  0.8012  0.1399  1.6332
  196MPD1     N 3041   1.584   4.644  17.632  0.3130 -0.4472 -0.1949
  196MPD1    H5 3042   1.604   4.559  17.685  0.0255 -1.4012 -1.6209
  196MPD1    N1 3043   1.217   0.209  17.506 -0.2745 -0.3089 -0.2279
  196MPD1    H6 3044   1.277   0.291  17.506  1.8857 -1.8686  0.5639
  196MPD1    H7 3045   1.126   0.240  17.539  0.6886  0.6250  1.6234
  197MPD1     C 3046   2.100   1.256  17.383  0.1083 -0.0447  0.3694
  197MPD1    C1 3047   2.205   1.340  17.417  0.3086 -0.3410  0.1506
  197MPD1    C2 3048   2.194   1.469  17.366  0.6821 -0.5448  1.0285
  197MPD1    C3 3049   2.084   1.510  17.280  0.5568  0.1881  0.1036
  197MPD1    C4 3050   1.983   1.421  17.256 -0.1843  0.0809 -0.4541
  197MPD1    C5 3051   1.993   1.296  17.307 -0.6496 -0.4041  0.7060
  197MPD1     H 3052   2.272   1.543  17.382  0.2231  0.0925  0.3098
  197MPD1    H1 3053   1.893   1.443  17.201 -0.2570  4.3842  1.4100
  197MPD1    H2 3054   2.103   1.151  17.411 -0.1855 -0.4627 -1.1886
  197MPD1    H3 3055   1.919   1.218  17.299  2.1043 -3.1565  1.8285
  197MPD1     N 3056   2.065   1.635  17.219  0.1354 -0.0789 -0.2437
  197MPD1    H5 3057   1.978   1.640  17.166 -0.4511 -1.8610  0.5473
  197MPD1    N1 3058   2.306   1.295  17.504 -0.4313  0.1988 -0.1015
  197MPD1    H6 3059   2.322   1.195  17.520 -1.6067  0.1527  0.7346
  197MPD1    H7 3060   2.391   1.351  17.500 -0.0446 -0.2976  1.1154
  198MPD1     C 3061   2.732   0.333  15.730  0.4138  0.5418 -0.4838
  198MPD1    C1 3062   2.799   0.225  15.695 -0.7211  0.3727 -0.0725
  198MPD1    C2 3063   2.937   0.242  15.694 -0.2653  0.7301 -0.1334
  198MPD1    C3 3064   2.993   0.364  15.733  0.9864  0.3210 -0.2149
  198MPD1    C4 3065   2.909   0.476  15.757  0.3185  0.3091 -0.1951
  198MPD1    C5 3066   2.779   0.456  15.745  0.0096  0.4484  0.4871
  198MPD1     H 3067   3.001   0.156  15.679 -0.3156  1.2925 -3.7161
  198MPD1    H1 3068   2.953   0.572  15.780 -0.0514  0.5336 -0.4294
  198MPD1    H2 3069   2.624   0.335  15.730  0.4006 -0.0081  0.7081
  198MPD1    H3 3070   2.704   0.533  15.754  0.7026  1.3646 -1.6164
  198MPD1     N 3071   3.136   0.366  15.755 -0.4217 -0.5405 -0.0679
  198MPD1    H5 3072   3.188   0.279  15.759  0.3997 -0.1065 -1.2360
  198MPD1    N1 3073   2.743   0.095  15.694 -0.4239  0.2950 -0.2823
  198MPD1    H6 3074   2.810   0.033  15.648 -2.0674 -0.8540 -1.1286
  198MPD1    H7 3075   2.646   0.089  15.665 -0.9092  0.9412  1.1706
  199MPD1     C 3076   1.460   1.958  10.049  0.0408  0.8102  0.1267
  199MPD1    C1 3077   1.441   1.859  10.144  0.2188  0.5656 -0.1796
  199MPD1    C2 3078   1.332   1.777  10.126 -0.0886 -0.2065 -0.9896
  199MPD1    C3 3079   1.239   1.810  10.029  0.6322 -0.0747  0.2229
  199MPD1    C4 3080   1.250   1.921   9.945 -0.3619 -0.6616 -0.3866
  199MPD1    C5 3081   1.370   1.987   9.950  0.1705  0.2026 -0.9160
  199MPD1     H 3082   1.333   1.687  10.186 -1.7645  1.2114  1.1824
  199MPD1    H1 3083   1.175   1.953   9.874  0.6979  0.4328 -1.0114
  199MPD1    H2 3084   1.546   2.023  10.052 -1.6713  3.1566 -2.0529
  199MPD1    H3 3085   1.395   2.063   9.877 -0.3775  0.9232 -0.3433
  199MPD1     N 3086   1.116   1.735  10.023 -0.3326  0.0618  0.2330
  199MPD1    H5 3087   1.044   1.770   9.961  1.5861  0.5552 -1.7233
  199MPD1    N1 3088   1.544   1.837  10.240 -0.5747 -0.3256 -0.2000
  199MPD1    H6 3089   1.514   1.796  10.328  2.9700  1.3999  1.8079
  199MPD1    H7 3090   1.583   1.927  10.268 -0.1649 -1.2918  2.2428
  200MPD1     C 3091   1.282   2.311  14.232 -0.0202 -0.3075 -0.2594
  200MPD1    C1 3092   1.267   2.252  14.355  0.5085  0.0636 -0.1798
  200MPD1    C2 3093   1.281   2.331  14.467 -0.0338 -0.2343  0.6204
  200MPD1    C3 3094   1.303   2.466  14.453  0.7486  0.6249 -0.4049
  200MPD1    C4 3095   1.309   2.521  14.331 -0.2631 -0.5267  0.0763
  200MPD1    C5 3096   1.298   2.445  14.220  0.2515  0.3504  0.5846
  200MPD1     H 3097   1.270   2.288  14.565 -1.3643  0.0056  0.5764
  200MPD1    H1 3098   1.328   2.626  14.312  0.5767 -0.8530 -0.9000
  200MPD1    H2 3099   1.267   2.251  14.143  0.2576 -1.1557  0.2638
  200MPD1    H3 3100   1.316   2.487  14.121  0.4505 -0.4391  0.2858
  200MPD1     N 3101   1.306   2.549  14.570 -0.2827  0.2362 -0.2365
  200MPD1    H5 3102   1.274   2.519  14.661 -1.5200 -0.8880 -1.0505
  200MPD1    N1 3103   1.218   2.115  14.379  0.3066  0.2992  0.2712
  200MPD1    H6 3104   1.236   2.047  14.305  1.7442  2.4869 -1.4187
  200MPD1    H7 3105   1.256   2.097  14.472  2.8554 -1.2143 -1.0755
  201MPD1     C 3106   2.060   0.759  13.353 -0.6169 -0.0093  0.2123
  201MPD1    C1 3107   2.064   0.633  13.291 -0.6301  0.1191  0.0936
  201MPD1    C2 3108   2.173   0.551  13.312 -1.0537 -0.2112  0.4772
  201MPD1    C3 3109   2.277   0.597  13.390  0.1643  0.4941  0.0265
  201MPD1    C4 3110   2.271   0.716  13.461  0.4558  0.1938  0.2241
  201MPD1    C5 3111   2.165   0.793  13.432 -0.3404  0.1050  0.1650
  201MPD1     H 3112   2.172   0.447  13.282  0.3866  0.2303 -1.0749
  201MPD1    H1 3113   2.342   0.769  13.523 -0.6051  3.4752 -1.3268
  201MPD1    H2 3114   1.982   0.828  13.325 -0.8917  0.0862  1.2073
  201MPD1    H3 3115   2.159   0.893  13.474 -0.6892  0.0722  0.1999
  201MPD1     N 3116   2.388   0.508  13.408  0.6031  0.2392  1.0604
  201MPD1    H5 3117   2.377   0.411  13.380 -2.4081  0.5569  1.1959
  201MPD1    N1 3118   1.951   0.584  13.224  0.1665 -0.4006 -0.5216
  201MPD1    H6 3119   1.978   0.545  13.134  0.7311 -0.5443 -0.2838
  201MPD1    H7 3120   1.884   0.656  13.197  0.5362  0.2120  0.2024
  202MPD1     C 3121   1.735   3.817   9.042  0.1944  0.3403 -0.0673
  202MPD1    C1 3122   1.592   3.828   9.043  0.1254 -0.2557 -0.1618
  202MPD1    C2 3123   1.532   3.818   9.167  0.3166 -0.7775  0.3093
  202MPD1    C3 3124   1.605   3.787   9.284  0.1750 -0.0203  0.6340
  202MPD1    C4 3125   1.746   3.764   9.278 -0.3505  0.1084 -0.4559
  202MPD1    C5 3126   1.809   3.782   9.156 -0.1014  0.0182  0.4374
  202MPD1     H 3127   1.424   3.815   9.178  0.1247  1.4909 -1.0134
  202MPD1    H1 3128   1.812   3.746   9.363 -0.3939  2.1058 -0.0022
  202MPD1    H2 3129   1.794   3.843   8.954  0.0398  1.6693  0.2169
  202MPD1    H3 3130   1.914   3.759   9.161  0.2750  1.7301  0.5083
  202MPD1     N 3131   1.539   3.774   9.409 -0.4957 -0.6679  0.5280
  202MPD1    H5 3132   1.601   3.754   9.487  1.0722 -2.1134 -1.1097
  202MPD1    N1 3133   1.532   3.897   8.936  0.0903  1.0710 -0.0763
  202MPD1    H6 3134   1.435   3.866   8.929  0.9036 -1.4394 -0.3150
  202MPD1    H7 3135   1.577   3.872   8.848 -0.5172 -0.8524  0.1511
  203MPD1     C 3136   1.167   1.334  12.604 -0.8619  0.3918  0.0666
  203MPD1    C1 3137   1.266   1.356  12.696  0.5750 -0.0199  0.7194
  203MPD1    C2 3138   1.312   1.251  12.775 -0.6639 -0.2937  0.5162
  203MPD1    C3 3139   1.253   1.125  12.763  0.6513 -0.3266  0.2437
  203MPD1    C4 3140   1.147   1.114  12.676 -0.3099  0.0828 -0.3925
  203MPD1    C5 3141   1.111   1.209  12.590  0.0121 -0.1015  0.1137
  203MPD1     H 3142   1.382   1.271  12.856  0.9049 -0.9587 -0.6621
  203MPD1    H1 3143   1.088   1.025  12.663  1.6847 -1.2047 -0.6188
  203MPD1    H2 3144   1.127   1.417  12.547 -2.0229 -0.6697 -0.6579
  203MPD1    H3 3145   1.026   1.193  12.524  2.0313 -2.5092 -1.9005
  203MPD1     N 3146   1.318   1.016  12.819  0.0370  0.1089  0.8380
  203MPD1    H5 3147   1.391   1.035  12.887 -0.2703  2.8082  0.4087
  203MPD1    N1 3148   1.336   1.474  12.687 -0.5917 -0.3204 -0.3509
  203MPD1    H6 3149   1.380   1.491  12.778 -0.1840  0.6600 -0.7354
  203MPD1    H7 3150   1.272   1.550  12.663  0.8566  0.5112 -1.5566
  204MPD1     C 3151   0.643   2.574   0.135  0.0979  0.8620 -0.3185
  204MPD1    C1 3152   0.724   2.602   0.018  0.1821 -0.2182  0.3222
  204MPD1    C2 3153   0.771   2.489  17.713  0.5956  0.6728 -0.2444
  204MPD1    C3 3154   0.747   2.359  17.752 -0.8046  0.2294  0.1669
  204MPD1    C4 3155   0.661   2.335   0.097  0.3462  0.4019 -0.0145
  204MPD1    C5 3156   0.606   2.447   0.165 -0.5263  0.0891 -0.3672
  204MPD1     H 3157   0.830   2.511  17.625  1.0944  0.4017  0.0280
  204MPD1    H1 3158   0.628   2.234   0.120 -1.8339  1.1707  0.2386
  204MPD1    H2 3159   0.599   2.657   0.188  0.6768  1.8693 -1.4186
  204MPD1    H3 3160   0.535   2.429   0.244 -0.8744 -0.0644 -0.7152
  204MPD1     N 3161   0.819   2.254  17.688 -0.0413  0.0517 -0.1223
  204MPD1    H5 3162   0.879   2.266  17.607  0.3443  0.6418  0.2490
  204MPD1    N1 3163   0.733   2.725  17.710 -0.4692 -0.7844 -0.1961
  204MPD1    H6 3164   0.813   2.734  17.648 -1.7086 -0.0009 -1.6671
  204MPD1    H7 3165   0.719   2.811   0.006  1.4807 -1.2434  1.0744
  205MPD1     C 3166   1.116   1.071  16.708 -0.1870 -0.1902  1.1135
  205MPD1    C1 3167   1.137   0.946  16.761  0.5093  0.7753 -0.2665
  205MPD1    C2 3168   1.076   0.917  16.887 -0.3892  0.2805 -0.1754
  205MPD1    C3 3169   1.015   1.025  16.955 -0.3073 -0.4397  0.4040
  205MPD1    C4 3170   1.005   1.153  16.900 -0.0740 -0.1048 -0.0055
  205MPD1    C5 3171   1.054   1.175  16.778  0.1214  0.0919  0.7825
  205MPD1     H 3172   1.089   0.816  16.922  1.0455  1.0699  1.5743
  205MPD1    H1 3173   0.970   1.238  16.958  1.5896 -0.4925  1.5786
  205MPD1    H2 3174   1.154   1.089  16.608  0.5795  0.6016  1.5485
  205MPD1    H3 3175   1.038   1.275  16.740  0.7648 -0.5414 -1.1801
  205MPD1     N 3176   0.965   1.003  17.082 -0.2910 -0.3869 -0.3497
  205MPD1    H5 3177   0.934   1.082  17.138  1.4430  0.2564 -0.2851
  205MPD1    N1 3178   1.191   0.842  16.687 -0.3519  0.6115  0.3713
  205MPD1    H6 3179   1.243   0.777  16.746  0.3676  0.7615 -0.0962
  205MPD1    H7 3180   1.259   0.867  16.615 -1.6812  1.0028 -0.7411
  206MPD1     C 3181   0.954   3.278  16.798  0.3594  0.5674 -0.3100
  206MPD1    C1 3182   0.942   3.417  16.812  0.3404 -0.0561 -0.5465
  206MPD1    C2 3183   0.930   3.490  16.697 -0.1870 -0.9338  0.2076
  206MPD1    C3 3184   0.908   3.434  16.572 -0.5133 -0.9776 -0.5961
  206MPD1    C4 3185   0.914   3.293  16.568  0.7333 -0.4197  0.0972
  206MPD1    C5 3186   0.935   3.219  16.677 -1.0214 -0.4827 -0.4554
  206MPD1     H 3187   0.938   3.598  16.697  1.0165 -1.0246 -0.7159
  206MPD1    H1 3188   0.887   3.242  16.476  0.3639 -1.4349  0.7703
  206MPD1    H2 3189   0.979   3.217  16.884  0.1307 -0.5037 -1.0147
  206MPD1    H3 3190   0.943   3.111  16.678 -0.1061 -0.4016  0.1391
  206MPD1     N 3191   0.893   3.496  16.452  0.0153  0.2139 -0.0406
  206MPD1    H5 3192   0.869   3.440  16.371  0.2410  0.1240 -0.0471
  206MPD1    N1 3193   0.986   3.464  16.932 -0.5154 -0.3852 -0.0175
  206MPD1    H6 3194   0.955   3.401  17.006 -0.2329 -0.9710 -0.3967
  206MPD1    H7 3195   0.943   3.555  16.946  0.8430  0.3599 -0.6989
  207MPD1     C 3196   2.625   1.029  10.275  0.3872 -0.0568  0.3259
  207MPD1    C1 3197   2.691   1.091  10.179  0.1827  0.4378 -0.1660
  207MPD1    C2 3198   2.818   1.145  10.204  0.3381  0.0189  0.5676
  207MPD1    C3 3199   2.868   1.125  10.330 -0.0976  0.5220  1.1043
  207MPD1    C4 3200   2.799   1.053  10.428  0.0081 -0.8214  0.0533
  207MPD1    C5 3201   2.675   1.000  10.391  0.1611 -0.4504 -0.1645
  207MPD1     H 3202   2.870   1.205  10.130 -0.1397 -0.4066 -0.1129
  207MPD1    H1 3203   2.840   1.042  10.527  1.4000 -0.3262 -0.4714
  207MPD1    H2 3204   2.522   0.997  10.259  0.3704  0.3028 -0.2518
  207MPD1    H3 3205   2.615   0.936  10.454 -0.4079 -1.3664 -1.6397
  207MPD1     N 3206   2.997   1.160  10.364  0.6425 -0.4577  0.0357
  207MPD1    H5 3207   3.017   1.147  10.462  2.4530 -0.2917 -0.3122
  207MPD1    N1 3208   2.626   1.133  10.064 -0.1711 -0.1519  0.1993
  207MPD1    H6 3209   2.544   1.074  10.049  0.9804 -1.4920 -0.8026
  207MPD1    H7 3210   2.684   1.109   9.984 -2.4470 -2.2162 -0.8372
  208MPD1     C 3211   0.323   4.101  17.109 -0.1924 -0.1908  0.1044
  208MPD1    C1 3212   0.252   4.187  17.186  0.1026 -0.1166  0.7615
  208MPD1    C2 3213   0.320   4.251  17.286 -0.0736  0.0083 -0.3228
  208MPD1    C3 3214   0.448   4.226  17.311  0.1144 -0.2134  0.1632
  208MPD1    C4 3215   0.521   4.150  17.229 -0.3308 -0.1395 -0.3147
  208MPD1    C5 3216   0.458   4.082  17.124  0.3771  0.6845 -0.2103
  208MPD1     H 3217   0.265   4.328  17.339  1.3256  2.2801 -2.2180
  208MPD1    H1 3218   0.630   4.145  17.228 -0.3902 -1.1635 -1.5197
  208MPD1    H2 3219   0.276   4.052  17.025 -1.8312  2.0722 -0.3024
  208MPD1    H3 3220   0.514   4.019  17.057  0.3444 -0.8477  1.1940
  208MPD1     N 3221   0.500   4.309  17.417 -0.0592 -0.7124 -0.3149
  208MPD1    H5 3222   0.451   4.392  17.447 -2.4034 -2.8490  1.7536
  208MPD1    N1 3223   0.121   4.225  17.157 -0.6990  0.2653 -0.4406
  208MPD1    H6 3224   0.065   4.203  17.240 -0.1541  3.1069  0.6951
  208MPD1    H7 3225   0.081   4.168  17.084 -0.4084  0.3770 -0.6867
  209MPD1     C 3226   3.092   0.191  11.242 -0.2311 -0.0998 -0.0799
  209MPD1    C1 3227   3.082   0.290  11.151  1.0917 -0.3600 -0.0073
  209MPD1    C2 3228   3.192   0.367  11.116 -0.2586 -0.3497  0.6985
  209MPD1    C3 3229   3.306   0.364  11.198 -0.1824 -0.2814 -0.0164
  209MPD1    C4 3230   3.319   0.252  11.274  0.2025  0.1976 -0.3398
  209MPD1    C5 3231   3.215   0.164  11.297 -0.1224 -0.5498  0.4439
  209MPD1     H 3232   3.188   0.446  11.041  1.9966  0.1777  1.1250
  209MPD1    H1 3233   3.414   0.235  11.322  0.6047  0.3542 -1.0824
  209MPD1    H2 3234   3.005   0.128  11.259  0.2335 -0.5389  0.6908
  209MPD1    H3 3235   3.243   0.084  11.363 -1.8080 -1.7647 -0.3110
  209MPD1     N 3236   3.399   0.473  11.199  0.1945 -0.2050  0.0172
  209MPD1    H5 3237   3.374   0.546  11.133  0.1488 -1.3391 -1.2068
  209MPD1    N1 3238   2.962   0.294  11.077 -0.0192  0.2626 -0.2211
  209MPD1    H6 3239   2.950   0.391  11.049  1.6820  0.7757  0.8175
  209MPD1    H7 3240   2.878   0.279  11.133  1.6751 -1.1048  2.0013
  210MPD1     C 3241   4.081   0.729  11.877  0.0538  0.3445  0.7790
  210MPD1    C1 3242   4.020   0.853  11.850  0.6079 -0.1651  0.0533
  210MPD1    C2 3243   3.932   0.849  11.744 -0.2126 -0.2094 -0.7412
  210MPD1    C3 3244   3.892   0.726  11.690 -0.1012 -0.6635 -0.9155
  210MPD1    C4 3245   3.937   0.606  11.736 -0.1632  0.3990 -0.0826
  210MPD1    C5 3246   4.033   0.610  11.828 -0.2939 -0.1900 -0.1316
  210MPD1     H 3247   3.895   0.940  11.700 -0.0092 -0.2147 -0.9240
  210MPD1    H1 3248   3.896   0.508  11.715 -3.6470  1.7511  0.4450
  210MPD1    H2 3249   4.162   0.731  11.949 -0.5889  0.8754  1.4891
  210MPD1    H3 3250   4.067   0.518  11.873  1.0277  0.9266  1.1305
  210MPD1     N 3251   3.809   0.728  11.582 -0.0999 -0.1588 -0.0186
  210MPD1    H5 3252   3.793   0.635  11.543  1.1576 -0.3814  0.0237
  210MPD1    N1 3253   4.079   0.976  11.897 -0.2329 -0.0379 -0.0711
  210MPD1    H6 3254   3.999   1.040  11.900  1.2022  1.7264  0.3114
  210MPD1    H7 3255   4.112   0.964  11.992 -0.6137 -0.1330  0.0483
  211MPD1     C 3256   1.184   0.413  15.712 -0.6912 -0.6926  0.1474
  211MPD1    C1 3257   1.149   0.536  15.676  0.3172  0.1522 -0.6734
  211MPD1    C2 3258   1.047   0.602  15.752  0.2060 -0.5842 -0.1351
  211MPD1    C3 3259   0.992   0.546  15.863  0.3328 -0.3819  0.1897
  211MPD1    C4 3260   1.032   0.425  15.901 -0.9391 -0.5422  0.0905
  211MPD1    C5 3261   1.125   0.358  15.824  0.8857  0.1119 -0.2962
  211MPD1     H 3262   1.014   0.698  15.715 -0.2108 -1.7673 -2.7799
  211MPD1    H1 3263   0.999   0.377  15.993 -0.9816  0.9200  0.8259
  211MPD1    H2 3264   1.268   0.364  15.665  0.4022  0.8527  0.4920
  211MPD1    H3 3265   1.179   0.273  15.863 -1.1176 -0.6623  0.7681
  211MPD1     N 3266   0.894   0.619  15.938 -0.4260 -0.5305  0.2678
  211MPD1    H5 3267   0.885   0.718  15.918  1.9484 -0.5431 -0.8284
  211MPD1    N1 3268   1.224   0.610  15.593  0.2727 -0.1316 -0.5781
  211MPD1    H6 3269   1.164   0.683  15.555 -1.4707 -0.8473  0.7915
  211MPD1    H7 3270   1.247   0.554  15.512  1.8176 -1.4100  0.7413
  212MPD1     C 3271   0.975   3.839  17.268 -0.4930  0.2068  0.2393
  212MPD1    C1 3272   0.991   3.698  17.260 -0.3640  0.5862  0.1236
  212MPD1    C2 3273   0.890   3.622  17.212  0.7366 -0.4672 -1.4418
  212MPD1    C3 3274   0.767   3.683  17.181 -0.6855 -0.4746 -0.8984
  212MPD1    C4 3275   0.749   3.817  17.202 -0.5431 -0.4359 -0.4210
  212MPD1    C5 3276   0.850   3.887  17.239  0.3779  0.3037 -0.8126
  212MPD1     H 3277   0.900   3.516  17.190  2.5481 -0.7327  0.6792
  212MPD1    H1 3278   0.653   3.867  17.199 -0.8589 -1.0028  0.4147
  212MPD1    H2 3279   1.053   3.900  17.310  0.2042  1.1216 -2.3599
  212MPD1    H3 3280   0.833   3.993  17.256  1.2018  0.2367  0.4727
  212MPD1     N 3281   0.654   3.617  17.131 -0.4368  0.1601 -0.3620
  212MPD1    H5 3282   0.579   3.681  17.107 -1.1078 -1.1808 -1.8518
  212MPD1    N1 3283   1.117   3.636  17.265  0.3483 -0.6231 -0.6001
  212MPD1    H6 3284   1.183   3.678  17.331 -1.5753  1.5112 -0.0308
  212MPD1    H7 3285   1.114   3.538  17.291 -1.5073  0.1339  2.0679
  213MPD1     C 3286   3.480   4.587  15.692  0.7055 -0.8181  0.5024
  213MPD1    C1 3287   3.491   4.690  15.604 -0.5353  1.0674 -0.7315
  213MPD1    C2 3288   3.396   4.686  15.503  0.2064  0.3351  0.1635
  213MPD1    C3 3289   3.316   4.575  15.465 -0.5936  0.1280  0.3057
  213MPD1    C4 3290   3.343   4.460  15.536  0.5108 -0.0746  0.5782
  213MPD1    C5 3291   3.423   4.475  15.645 -0.0428 -0.4777 -0.3577
  213MPD1     H 3292   3.371   0.031  15.439 -1.2132 -0.5164 -0.4016
  213MPD1    H1 3293   3.297   4.363  15.522 -0.4427  0.4940 -0.2784
  213MPD1    H2 3294   3.532   4.592  15.787 -0.8659  0.8284  1.2767
  213MPD1    H3 3295   3.437   4.390  15.711 -1.8112  0.1840  0.8758
  213MPD1     N 3296   3.232   4.580  15.350 -0.8351  0.3639  0.0794
  213MPD1    H5 3297   3.221   4.675  15.316 -1.6689 -1.0267 -3.5118
  213MPD1    N1 3298   3.542   0.075  15.640  0.3435  0.1876 -0.3058
  213MPD1    H6 3299   3.579   0.123  15.558  1.7610 -2.2626 -1.0893
  213MPD1    H7 3300   3.623   0.064  15.700 -1.5877 -0.3360  2.2124
  214MPD1     C 3301   2.576   3.986  14.718  0.6493  0.0270  0.7171
  214MPD1    C1 3302   2.652   4.076  14.640  0.2620  0.1351 -0.9764
  214MPD1    C2 3303   2.716   4.183  14.704 -0.1097 -0.5254  0.5774
  214MPD1    C3 3304   2.717   4.185  14.843 -0.1532 -0.5457  0.1658
  214MPD1    C4 3305   2.662   4.082  14.917  0.5581  0.1932  0.1052
  214MPD1    C5 3306   2.583   3.995  14.854 -0.0829  0.5619  0.2587
  214MPD1     H 3307   2.764   4.264  14.649 -0.6076 -1.6453 -1.5356
  214MPD1    H1 3308   2.688   4.070  15.022 -0.5949 -1.0385  0.2378
  214MPD1    H2 3309   2.521   3.901  14.679 -0.0647 -0.1176  2.0529
  214MPD1    H3 3310   2.532   3.922  14.915  0.6358 -0.8223 -0.7865
  214MPD1     N 3311   2.786   4.297  14.898 -0.2703  0.6246 -0.2484
  214MPD1    H5 3312   2.820   4.370  14.836 -1.6932 -0.8955 -2.8389
  214MPD1    N1 3313   2.643   4.069  14.499 -0.0492  0.2074  0.7239
  214MPD1    H6 3314   2.729   4.108  14.461 -0.4760 -0.1309 -0.5820
  214MPD1    H7 3315   2.645   3.970  14.474 -1.8331 -0.4685  3.2329
  215MPD1     C 3316   2.338   0.572  11.749  0.0950  0.2002  0.6619
  215MPD1    C1 3317   2.446   0.630  11.816 -0.8034 -0.4308 -0.2755
  215MPD1    C2 3318   2.503   0.743  11.772 -0.0216 -0.2740  1.0864
  215MPD1    C3 3319   2.466   0.792  11.647  0.4015 -0.1273  0.6866
  215MPD1    C4 3320   2.366   0.733  11.569  0.4783 -0.1141 -0.6930
  215MPD1    C5 3321   2.303   0.629  11.626 -0.0661  0.6312 -0.4213
  215MPD1     H 3322   2.581   0.793  11.828  0.4173  0.5704 -0.2598
  215MPD1    H1 3323   2.329   0.764  11.471 -0.0348 -0.7291 -0.6946
  215MPD1    H2 3324   2.282   0.484  11.774  0.0754 -0.1334 -0.5509
  215MPD1    H3 3325   2.222   0.577  11.576  0.1163 -0.3451  0.3132
  215MPD1     N 3326   2.555   0.893  11.593  0.2510  0.2132 -0.3316
  215MPD1    H5 3327   2.632   0.930  11.648 -0.0843 -0.6282  0.7122
  215MPD1    N1 3328   2.462   0.581  11.949 -0.6001 -0.3867 -0.6007
  215MPD1    H6 3329   2.557   0.591  11.983 -0.5529 -1.5057 -0.3916
  215MPD1    H7 3330   2.438   0.482  11.957 -1.1499  0.1218  3.7218
  216MPD1     C 3331   0.501   3.942  17.503 -0.2992 -0.0031 -0.2586
  216MPD1    C1 3332   0.624   3.882  17.504 -0.5525  0.7479  0.2706
  216MPD1    C2 3333   0.611   3.745  17.498 -0.6338 -0.3277  0.2327
  216MPD1    C3 3334   0.495   3.679  17.462 -0.0665 -0.2122  0.3481
  216MPD1    C4 3335   0.379   3.745  17.446 -0.3890  0.9123  0.1759
  216MPD1    C5 3336   0.380   3.880  17.468  0.0544  0.4078  0.2998
  216MPD1     H 3337   0.693   3.675  17.513 -2.5211 -2.1706  1.9198
  216MPD1    H1 3338   0.282   3.698  17.439 -0.4031  1.2846 -2.1164
  216MPD1    H2 3339   0.491   4.049  17.518 -1.1045 -0.0066 -0.7521
  216MPD1    H3 3340   0.294   3.945  17.458  0.8963  1.5853  0.6151
  216MPD1     N 3341   0.504   3.547  17.460 -0.3888  0.2876 -0.0925
  216MPD1    H5 3342   0.594   3.503  17.480 -1.2402 -1.2958  0.2715
  216MPD1    N1 3343   0.745   3.947  17.539  0.3079 -0.1694  0.5095
  216MPD1    H6 3344   0.749   4.042  17.502 -1.6991  0.4148  1.8256
  216MPD1    H7 3345   0.823   3.896  17.498 -0.1013 -0.4938  0.1401
  217MPD1     C 3346   0.842   0.078   8.670 -0.3195 -0.1840 -0.2916
  217MPD1    C1 3347   0.722   0.062   8.736 -0.8297 -0.1153 -0.8091
  217MPD1    C2 3348   0.719   4.695   8.822 -0.4351  0.1184 -0.2419
  217MPD1    C3 3349   0.836   4.635   8.869  0.7086 -0.0793  0.0663
  217MPD1    C4 3350   0.958   4.669   8.818  0.0396  0.3351  0.3949
  217MPD1    C5 3351   0.958   0.009   8.710 -0.0253  0.1180  0.2157
  217MPD1     H 3352   0.624   4.651   8.850 -0.8205  0.1987 -1.4424
  217MPD1    H1 3353   1.048   4.612   8.839  0.8964  1.7936  0.6399
  217MPD1    H2 3354   0.853   0.148   8.588 -1.3116  1.0493  0.6251
  217MPD1    H3 3355   1.048   0.020   8.651  0.4393  0.8145  1.0520
  217MPD1     N 3356   0.832   4.518   8.957  0.2839  0.4470 -0.7074
  217MPD1    H5 3357   0.914   4.458   8.958  0.9644  1.3968  1.1355
  217MPD1    N1 3358   0.600   0.118   8.693  0.6339  0.2590 -0.6345
  217MPD1    H6 3359   0.534   0.101   8.768  3.8082 -2.0184  1.6095
  217MPD1    H7 3360   0.596   0.216   8.665 -0.4862  0.8808  1.7373
  218MPD1     C 3361   4.051   1.322  13.117  0.0481 -0.4203  0.1916
  218MPD1    C1 3362   3.964   1.242  13.183 -0.4284  0.5055  0.3871
  218MPD1    C2 3363   3.855   1.189  13.110 -0.0137  0.4707 -0.0091
  218MPD1    C3 3364   3.826   1.235  12.981  0.5778  0.3284 -0.3904
  218MPD1    C4 3365   3.921   1.312  12.915  0.1856  0.2566  0.4601
  218MPD1    C5 3366   4.032   1.355  12.984 -0.6149  0.8840 -1.0264
  218MPD1     H 3367   3.779   1.142  13.170 -1.3480  0.4651 -1.7253
  218MPD1    H1 3368   3.899   1.357  12.819 -0.6735  0.7939  0.9056
  218MPD1    H2 3369   4.146   1.346  13.163 -0.3683  1.2462  0.1687
  218MPD1    H3 3370   4.107   1.421  12.942  1.2313  0.8905  2.2417
  218MPD1     N 3371   3.702   1.190  12.921  0.1260 -0.4640  0.0355
  218MPD1    H5 3372   3.634   1.150  12.984 -1.1849  1.6774 -0.0165
  218MPD1    N1 3373   3.986   1.212  13.321 -0.2400 -0.4497  0.2168
  218MPD1    H6 3374   4.063   1.248  13.377 -0.9502  2.4056 -0.6337
  218MPD1    H7 3375   3.949   1.123  13.356 -0.8854 -1.2876 -2.5919
  219MPD1     C 3376   2.841   1.127  12.247  0.5397 -0.0337  0.7372
  219MPD1    C1 3377   2.965   1.148  12.199 -0.0084 -0.5243 -0.8164
  219MPD1    C2 3378   3.079   1.138  12.282 -0.3283 -1.2159  0.1824
  219MPD1    C3 3379   3.062   1.100  12.409  0.8441 -0.1121  0.1509
  219MPD1    C4 3380   2.936   1.062  12.453  0.4518  0.4420 -0.1866
  219MPD1    C5 3381   2.827   1.071  12.370  0.2203  0.1782  0.7689
  219MPD1     H 3382   3.173   1.170  12.240 -1.4107  1.9036  0.1324
  219MPD1    H1 3383   2.918   1.012  12.548 -1.0515  1.1776 -0.0810
  219MPD1    H2 3384   2.763   1.133  12.172  0.9532  0.9527  0.3879
  219MPD1    H3 3385   2.729   1.035  12.397 -0.2863  1.9671  1.3319
  219MPD1     N 3386   3.165   1.091  12.508  0.8602  0.0020  0.4387
  219MPD1    H5 3387   3.131   1.038  12.588  1.3446  0.6098  1.0492
  219MPD1    N1 3388   2.975   1.198  12.067 -0.2086 -0.8453  0.3300
  219MPD1    H6 3389   3.064   1.171  12.026  0.0735 -0.6891  0.8358
  219MPD1    H7 3390   2.895   1.179  12.006 -0.0172  0.4973 -0.3455
  220MPD1     C 3391   2.778   0.787   9.823 -0.0783 -0.3623  1.1556
  220MPD1    C1 3392   2.869   0.743   9.920  0.7100 -0.1466  0.0931
  220MPD1    C2 3393   2.820   0.715  10.050  0.1351 -0.4995  0.2617
  220MPD1    C3 3394   2.680   0.698  10.069 -0.0226  0.1511 -0.9142
  220MPD1    C4 3395   2.597   0.727   9.965 -1.1242 -0.0119  0.3998
  220MPD1    C5 3396   2.649   0.785   9.849 -0.1976  0.0896 -0.6684
  220MPD1     H 3397   2.877   0.694  10.140 -0.9921 -1.2253  0.7984
  220MPD1    H1 3398   2.489   0.719   9.975 -1.0886  0.4443  1.1372
  220MPD1    H2 3399   2.804   0.825   9.725 -1.8961  1.6215  1.4328
  220MPD1    H3 3400   2.588   0.826   9.769  0.1539 -0.9271 -1.4555
  220MPD1     N 3401   2.627   0.643  10.186 -0.8884 -0.0591 -0.6272
  220MPD1    H5 3402   2.704   0.611  10.245  0.7804  0.2314 -2.6453
  220MPD1    N1 3403   3.006   0.757   9.900 -0.5862  0.1649  0.4818
  220MPD1    H6 3404   3.057   0.680   9.944 -1.9470 -0.5424  0.8226
  220MPD1    H7 3405   3.038   0.767   9.804  0.4536 -1.1549  0.6877
  221MPD1     C 3406   1.271   3.791  16.451  0.7400 -0.4109 -0.4814
  221MPD1    C1 3407   1.190   3.899  16.500 -0.1573 -0.3016  0.0430
  221MPD1    C2 3408   1.188   4.011  16.420 -0.4537 -0.4953  1.1967
  221MPD1    C3 3409   1.248   4.012  16.295  0.8133 -0.5374  0.1785
  221MPD1    C4 3410   1.317   3.901  16.251 -0.0236 -0.0783  0.3681
  221MPD1    C5 3411   1.336   3.793  16.329  0.6882  0.9733  0.4111
  221MPD1     H 3412   1.135   4.101  16.451 -0.2774  0.1420 -0.3413
  221MPD1    H1 3413   1.365   3.914  16.154  1.5329 -0.0333  1.1555
  221MPD1    H2 3414   1.293   3.703  16.509 -1.2743 -0.6511 -0.0622
  221MPD1    H3 3415   1.388   3.704  16.296 -0.8585  0.6128 -1.0715
  221MPD1     N 3416   1.235   4.115  16.206  0.0821 -0.1131  0.2317
  221MPD1    H5 3417   1.280   4.104  16.116  0.1083 -0.2986  0.2678
  221MPD1    N1 3418   1.145   3.905  16.632 -0.1909  0.0954 -0.6658
  221MPD1    H6 3419   1.112   3.820  16.677 -1.9894 -0.0998 -2.3501
  221MPD1    H7 3420   1.076   3.978  16.647 -0.3478 -0.2217  0.1355
  222MPD1     C 3421   0.083   3.101  17.657  0.7508 -0.0459 -0.6043
  222MPD1    C1 3422   0.084   3.214  17.585  0.3574  0.3468 -0.0228
  222MPD1    C2 3423   0.154   3.325  17.642  1.0401  0.3662 -0.3829
  222MPD1    C3 3424   0.227   3.312   0.003 -0.1529 -0.1045  0.7004
  222MPD1    C4 3425   0.235   3.193   0.070 -0.1062 -0.4966  0.0943
  222MPD1    C5 3426   0.157   3.090   0.016 -0.1875 -0.5138 -0.2242
  222MPD1     H 3427   0.160   3.420  17.590 -1.4416 -1.0265 -3.2408
  222MPD1    H1 3428   0.295   3.181   0.159 -0.7521 -0.0626  0.5873
  222MPD1    H2 3429   0.031   3.012  17.622  0.0394 -0.0658  0.4798
  222MPD1    H3 3430   0.172   2.992   0.061 -0.2441 -0.8370 -0.9093
  222MPD1     N 3431   0.310   3.411   0.058 -0.6077 -0.1835 -0.5399
  222MPD1    H5 3432   0.378   3.384   0.128 -1.0430  0.1948  0.0332
  222MPD1    N1 3433   0.018   3.229  17.467  0.0957 -1.0414 -0.4403
  222MPD1    H6 3434   0.080   3.280  17.405  0.5536 -0.3274  0.5954
  222MPD1    H7 3435   4.729   3.144  17.420 -0.2263 -0.2188 -1.7325
  223MPD1     C 3436   1.258   3.598  17.601  0.2309 -0.0875 -0.0094
  223MPD1    C1 3437   1.201   3.726  17.602  0.5154  0.0885  0.9518
  223MPD1    C2 3438   1.071   3.741  17.634 -0.2999 -0.2020  0.4020
  223MPD1    C3 3439   1.000   3.640  17.700  0.1301 -0.4266 -0.0866
  223MPD1    C4 3440   1.058   3.513  17.707  0.0273 -0.0305  0.5329
  223MPD1    C5 3441   1.179   3.499  17.653  0.0081 -0.5762  0.1741
  223MPD1     H 3442   1.029   3.841  17.633 -0.7333 -0.4029 -1.2754
  223MPD1    H1 3443   1.002   3.435   0.002 -0.1723  0.1340  0.5631
  223MPD1    H2 3444   1.360   3.570  17.577 -0.5581 -3.0689  0.1576
  223MPD1    H3 3445   1.218   3.398  17.654 -2.7331 -1.6268  0.5907
  223MPD1     N 3446   0.868   3.667  17.746 -0.0108  0.0345  0.7768
  223MPD1    H5 3447   0.833   3.757  17.716  1.5482  1.4976  3.2569
  223MPD1    N1 3448   1.261   3.826  17.522  0.7608 -0.4008  0.4273
  223MPD1    H6 3449   1.361   3.814  17.534  1.0781  2.0465  0.2031
  223MPD1    H7 3450   1.233   3.917  17.560  1.0033  0.0624 -0.4980
  224MPD1     C 3451   1.120   4.620   9.124  0.1611 -0.7629 -0.1182
  224MPD1    C1 3452   1.036   4.675   9.219 -0.2174 -0.1039 -0.5335
  224MPD1    C2 3453   0.988   4.600   9.332  0.2109  0.0547  0.1481
  224MPD1    C3 3454   1.034   4.469   9.340  0.9389  0.8950  0.8757
  224MPD1    C4 3455   1.124   4.425   9.249 -0.2110 -0.8917 -0.4828
  224MPD1    C5 3456   1.172   4.497   9.145  0.0087 -0.0721 -0.9619
  224MPD1     H 3457   0.943   4.652   9.416 -3.4013 -0.5586 -1.4267
  224MPD1    H1 3458   1.166   4.327   9.266 -1.1751 -0.8059  2.4240
  224MPD1    H2 3459   1.152   4.674   9.035 -2.7643  1.1581 -0.0355
  224MPD1    H3 3460   1.236   4.447   9.073  1.5276  0.2163  0.1889
  224MPD1     N 3461   0.997   4.387   9.447 -0.1644  0.4854  0.3367
  224MPD1    H5 3462   1.041   4.296   9.451 -0.4432  0.2897 -1.0921
  224MPD1    N1 3463   1.032   0.076   9.222  0.3631  0.3112  0.0958
  224MPD1    H6 3464   1.053   0.113   9.129 -1.2553  0.8025 -0.0666
  224MPD1    H7 3465   0.946   0.114   9.261 -0.0307 -2.7363  2.1881
  225MPD1     C 3466   3.601   1.885  12.355  0.3112  0.7963  0.2512
  225MPD1    C1 3467   3.529   1.823  12.257  0.3483  0.9130 -0.3023
  225MPD1    C2 3468   3.390   1.848  12.244 -0.2010 -0.1370 -0.0676
  225MPD1    C3 3469   3.329   1.935  12.337 -0.3070  0.0141  0.4547
  225MPD1    C4 3470   3.407   2.002  12.428 -0.3531  0.0850 -0.1970
  225MPD1    C5 3471   3.542   1.970  12.443 -0.3215 -0.1124 -0.1085
  225MPD1     H 3472   3.326   1.810  12.165 -0.8965 -1.5540  1.1862
  225MPD1    H1 3473   3.371   2.078  12.497 -0.6705 -0.2262 -0.0260
  225MPD1    H2 3474   3.708   1.866  12.362  0.0955 -0.2540  0.6834
  225MPD1    H3 3475   3.593   2.005  12.532 -0.1064 -1.4031  0.2778
  225MPD1     N 3476   3.191   1.952  12.342 -0.0287 -0.3405 -0.5356
  225MPD1    H5 3477   3.158   2.016  12.414 -2.0035  0.1181 -1.8196
  225MPD1    N1 3478   3.596   1.749  12.159 -0.3864 -0.1340 -0.3891
  225MPD1    H6 3479   3.536   1.700  12.093 -0.1781 -1.1397  0.1633
  225MPD1    H7 3480   3.680   1.702  12.193  0.0292 -0.8589 -2.3764
  226MPD1     C 3481   4.598   4.717   9.662 -0.6391 -0.3203  0.4717
  226MPD1    C1 3482   4.682   0.082   9.621 -0.4989 -0.4575 -0.3777
  226MPD1    C2 3483   4.731   0.164   9.718 -0.7449  0.1961  0.0904
  226MPD1    C3 3484   4.711   0.133   9.853 -0.4788  0.0949  0.1428
  226MPD1    C4 3485   4.628   0.025   9.893  0.2740 -0.1984 -0.0278
  226MPD1    C5 3486   4.575   4.688   9.792 -0.5450 -0.0788  0.2594
  226MPD1     H 3487   0.064   0.238   9.687 -1.2948  0.5339 -0.4034
  226MPD1    H1 3488   4.607   4.738   9.996 -1.4600  1.4170  0.0568
  226MPD1    H2 3489   4.547   4.650   9.593  1.2964 -1.5231  0.2124
  226MPD1    H3 3490   4.506   4.609   9.821 -0.5428 -0.4781 -0.8151
  226MPD1     N 3491   0.036   0.209   9.954  0.0934 -0.8583 -0.6789
  226MPD1    H5 3492   0.081   0.289   9.912 -2.2484 -0.2802 -2.1457
  226MPD1    N1 3493   4.701   0.117   9.486 -0.1994 -0.3879 -0.7820
  226MPD1    H6 3494   0.034   0.187   9.472 -0.2414  0.1103  1.4078
  226MPD1    H7 3495   4.695   0.041   9.419  0.8654 -0.3457 -0.9192
  227MPD1     C 3496   4.362   0.658  10.698 -0.5065 -0.3575 -0.1142
  227MPD1    C1 3497   4.347   0.527  10.665  0.3185  0.4637  0.3240
  227MPD1    C2 3498   4.435   0.475  10.578 -0.2780  0.4994 -0.6436
  227MPD1    C3 3499   4.552   0.538  10.540  0.5020 -0.6472  0.4257
  227MPD1    C4 3500   4.569   0.665  10.586  0.3852 -0.0619 -0.0781
  227MPD1    C5 3501   4.470   0.731  10.656  0.2587  0.4847 -0.6595
  227MPD1     H 3502   4.422   0.375  10.539  1.3010 -0.1269  0.4391
  227MPD1    H1 3503   4.658   0.724  10.570 -0.1717  0.7679 -0.0709
  227MPD1    H2 3504   4.292   0.706  10.765 -0.3623 -1.6055  0.9396
  227MPD1    H3 3505   4.497   0.832  10.683  0.2791  0.9595 -2.4570
  227MPD1     N 3506   4.646   0.477  10.454  0.1227  0.0725  0.6782
  227MPD1    H5 3507   4.612   0.389  10.418 -1.8301  1.3520 -0.6202
  227MPD1    N1 3508   4.231   0.453  10.690 -0.9080  0.3142  0.0330
  227MPD1    H6 3509   4.239   0.355  10.715  0.9948  0.7474  1.0875
  227MPD1    H7 3510   4.179   0.500  10.764 -0.8082 -1.0386  0.9489
  228MPD1     C 3511   4.391   4.261  12.443 -0.6150  0.7008  0.2781
  228MPD1    C1 3512   4.254   4.246  12.413  0.0348  0.2739  0.6333
  228MPD1    C2 3513   4.177   4.211  12.517 -0.1061  0.4300 -0.9091
  228MPD1    C3 3514   4.223   4.199  12.647 -0.3355  0.1094  0.0534
  228MPD1    C4 3515   4.364   4.206  12.669 -0.0581  0.0303  0.0426
  228MPD1    C5 3516   4.449   4.239  12.570  0.5656  0.2609 -0.6302
  228MPD1     H 3517   4.071   4.190  12.503  0.1853 -1.8216  0.2200
  228MPD1    H1 3518   4.415   4.183  12.762 -0.5882  1.3621  0.6636
  228MPD1    H2 3519   4.462   4.280  12.364 -1.0347 -0.0248 -0.2746
  228MPD1    H3 3520   4.554   4.260  12.586  0.4315  2.4881 -2.6875
  228MPD1     N 3521   4.135   4.164  12.751  0.1446 -0.7849  0.7907
  228MPD1    H5 3522   4.041   4.146  12.718  0.4224 -0.2145 -0.2867
  228MPD1    N1 3523   4.204   4.268  12.283 -0.5283 -0.1187 -0.2078
  228MPD1    H6 3524   4.268   4.237  12.209 -1.5041  0.7772 -1.4315
  228MPD1    H7 3525   4.108   4.242  12.261 -0.4422 -1.7702  1.4067
  229MPD1     C 3526   3.599   2.564  15.271 -0.8334 -0.4822 -0.0947
  229MPD1    C1 3527   3.663   2.665  15.332  0.6420  0.0593 -1.2152
  229MPD1    C2 3528   3.800   2.668  15.332 -0.1700 -0.4189  0.3281
  229MPD1    C3 3529   3.872   2.575  15.257 -0.6691  0.1658 -0.3149
  229MPD1    C4 3530   3.804   2.481  15.181 -0.2404  0.0972 -0.2533
  229MPD1    C5 3531   3.669   2.477  15.194  0.3171  0.8529  0.3948
  229MPD1     H 3532   3.855   2.736  15.395  0.6875 -0.3881 -0.4520
  229MPD1    H1 3533   3.855   2.403  15.124 -1.0846  0.9153 -2.1511
  229MPD1    H2 3534   3.492   2.564  15.254 -1.4376 -2.1930  3.8241
  229MPD1    H3 3535   3.614   2.407  15.131 -0.5674  2.8492 -1.0692
  229MPD1     N 3536   4.014   2.574  15.244  0.3520 -0.5550  0.1477
  229MPD1    H5 3537   4.054   2.505  15.181  2.1245  1.0000 -0.4276
  229MPD1    N1 3538   3.597   2.748  15.418  0.1068 -0.0674 -0.1436
  229MPD1    H6 3539   3.517   2.791  15.372 -0.8099 -1.2291  0.3547
  229MPD1    H7 3540   3.657   2.828  15.434 -0.1776  0.1408 -0.1184
  230MPD1     C 3541   0.160   2.326  15.798  0.1103  0.0430  0.4304
  230MPD1    C1 3542   0.173   2.278  15.671 -0.3681 -0.4587  0.1543
  230MPD1    C2 3543   0.082   2.307  15.570 -0.9587  0.0976 -0.2658
  230MPD1    C3 3544   4.708   2.378  15.605 -0.0668 -0.4222 -0.0158
  230MPD1    C4 3545   4.684   2.407  15.742  0.5593 -0.2721  0.3008
  230MPD1    C5 3546   0.042   2.384  15.839 -0.2456 -0.7860 -0.7135
  230MPD1     H 3547   0.096   2.262  15.472 -0.5538  0.5298 -0.4015
  230MPD1    H1 3548   4.597   2.461  15.776 -1.4272 -1.4944 -2.8760
  230MPD1    H2 3549   0.240   2.299  15.866  0.4025  0.2099  0.1540
  230MPD1    H3 3550   0.020   2.411  15.942  2.3224 -0.2742 -0.3088
  230MPD1     N 3551   4.617   2.403  15.503 -0.0309 -0.4565 -0.7961
  230MPD1    H5 3552   4.641   2.365  15.412  0.1157 -1.7105 -0.2272
  230MPD1    N1 3553   0.287   2.204  15.640 -0.2321 -0.4581  0.0249
  230MPD1    H6 3554   0.348   2.270  15.592 -0.1704  0.0456  0.7978
  230MPD1    H7 3555   0.264   2.137  15.567 -2.0668  1.0712 -0.7982
  231MPD1     C 3556   2.913   4.535  15.505 -0.7616  0.0459  0.3603
  231MPD1    C1 3557   2.814   4.527  15.414  0.0299  0.2748 -0.2180
  231MPD1    C2 3558   2.775   4.645  15.354  0.4603 -0.1829  0.1197
  231MPD1    C3 3559   2.842   0.026  15.353  0.6409  0.3577  0.0139
  231MPD1    C4 3560   2.941   0.036  15.448 -0.3382 -0.0412  0.1194
  231MPD1    C5 3561   2.969   4.661  15.523 -0.3020 -0.3361 -0.7118
  231MPD1     H 3562   2.701   4.628  15.277 -0.1155 -1.8292  1.0207
  231MPD1    H1 3563   2.996   0.127  15.468 -0.3478 -0.0090 -0.0009
  231MPD1    H2 3564   2.949   4.453  15.567 -0.2550 -0.5029 -0.6630
  231MPD1    H3 3565   3.042   4.675  15.603 -0.5121 -0.4115 -0.5065
  231MPD1     N 3566   2.824   0.126  15.251 -0.0420  0.1576  0.0896
  231MPD1    H5 3567   2.763   0.095  15.175 -1.3414  2.4644  0.1939
  231MPD1    N1 3568   2.746   4.405  15.410  1.1372  0.2972  0.1024
  231MPD1    H6 3569   2.728   4.384  15.313 -0.1332 -1.8397  0.8175
  231MPD1    H7 3570   2.800   4.325  15.442 -0.7390 -1.9114 -2.2920
  232MPD1     C 3571   4.490   2.240   0.606 -0.6743 -0.3849  0.5946
  232MPD1    C1 3572   4.419   2.343   0.551 -0.3887  0.2788  0.4383
  232MPD1    C2 3573   4.342   2.319   0.443  0.0404 -0.1612  0.7010
  232MPD1    C3 3574   4.330   2.190   0.391  1.3763 -0.4134  0.2365
  232MPD1    C4 3575   4.407   2.090   0.443 -0.1703  0.0414  0.2020
  232MPD1    C5 3576   4.487   2.115   0.549  0.8302  0.3233  0.2210
  232MPD1     H 3577   4.292   2.404   0.397  0.9183  0.5214  1.0129
  232MPD1    H1 3578   4.397   1.989   0.405 -2.3676 -0.2806  1.5932
  232MPD1    H2 3579   4.551   2.262   0.693 -1.1844  0.5187  0.7175
  232MPD1    H3 3580   4.549   2.041   0.598 -1.8739 -1.5026  0.8547
  232MPD1     N 3581   4.249   2.173   0.278  0.0972 -0.3649 -0.6427
  232MPD1    H5 3582   4.202   2.254   0.240  1.0354  1.8252  2.7823
  232MPD1    N1 3583   4.412   2.467   0.617 -0.0928 -0.0318  0.4234
  232MPD1    H6 3584   4.492   2.483   0.678 -0.9914  1.1587  1.2621
  232MPD1    H7 3585   4.410   2.549   0.556  0.6330 -0.3031  0.0299
  233MPD1     C 3586   0.242   0.901   1.526  0.0386 -0.1116  0.0365
  233MPD1    C1 3587   0.207   0.811   1.426  1.0735 -0.0995  0.8503
  233MPD1    C2 3588   0.312   0.731   1.377 -0.0914 -0.1612 -0.2883
  233MPD1    C3 3589   0.444   0.741   1.420 -0.0134  0.6830  0.0719
  233MPD1    C4 3590   0.465   0.818   1.530  0.3689  0.5317  0.8692
  233MPD1    C5 3591   0.365   0.888   1.588  0.0139  0.5492  0.3467
  233MPD1     H 3592   0.286   0.670   1.292  1.3394  2.1188 -2.3411
  233MPD1    H1 3593   0.561   0.823   1.580  0.0199 -1.1937  1.7409
  233MPD1    H2 3594   0.176   0.972   1.573  0.0533  0.3796 -0.6876
  233MPD1    H3 3595   0.378   0.945   1.679 -1.7195  0.6156  0.5425
  233MPD1     N 3596   0.556   0.677   1.357  1.0308  0.4767 -0.3419
  233MPD1    H5 3597   0.646   0.675   1.405  0.4105 -1.3535  0.7246
  233MPD1    N1 3598   0.080   0.831   1.358 -0.0550  0.4840 -0.0753
  233MPD1    H6 3599   0.013   0.856   1.430 -1.9621 -1.4388 -1.2025
  233MPD1    H7 3600   0.054   0.740   1.320 -1.2348  0.8161 -0.0605
  234MPD1     C 3601   2.113   3.416   8.960  0.1501  0.1406  0.1789
  234MPD1    C1 3602   2.018   3.479   8.881  1.1282 -0.1938  0.4160
  234MPD1    C2 3603   1.891   3.502   8.932 -0.3625 -0.5309 -0.0854
  234MPD1    C3 3604   1.852   3.440   9.048  1.0665 -0.0847  0.1249
  234MPD1    C4 3605   1.945   3.367   9.111  0.2164 -0.1792 -0.9214
  234MPD1    C5 3606   2.073   3.359   9.073 -0.3349 -0.1360 -0.6242
  234MPD1     H 3607   1.815   3.560   8.881 -0.6972 -2.5677 -1.9204
  234MPD1    H1 3608   1.921   3.305   9.196  1.1144  1.9708  0.9185
  234MPD1    H2 3609   2.214   3.411   8.919 -0.6714  1.8975 -2.1028
  234MPD1    H3 3610   2.145   3.309   9.137 -0.7321  1.0904  0.7968
  234MPD1     N 3611   1.718   3.445   9.080  0.2371  0.9104  0.2319
  234MPD1    H5 3612   1.662   3.487   9.007  0.2339  1.1929  0.3952
  234MPD1    N1 3613   2.055   3.545   8.760 -0.3189  0.2069  0.2841
  234MPD1    H6 3614   1.979   3.533   8.692  0.2152  0.8642 -0.4267
  234MPD1    H7 3615   2.137   3.504   8.715 -1.6601 -2.2728  0.0594
  235MPD1     C 3616   3.601   1.413  11.157  0.0028 -0.4586 -0.8545
  235MPD1    C1 3617   3.733   1.467  11.168  0.0348 -0.5235 -0.1680
  235MPD1    C2 3618   3.775   1.539  11.056  0.1430  0.4191  0.0246
  235MPD1    C3 3619   3.703   1.540  10.934  0.2129  0.4530 -0.5663
  235MPD1    C4 3620   3.578   1.486  10.929 -0.4945 -0.3235 -0.3086
  235MPD1    C5 3621   3.522   1.435  11.043 -0.4753 -0.7109 -0.8288
  235MPD1     H 3622   3.870   1.591  11.051  0.4265 -0.3121 -1.8947
  235MPD1    H1 3623   3.517   1.492  10.840  1.2740 -0.9414 -1.5638
  235MPD1    H2 3624   3.551   1.358  11.236 -0.6187  0.6131 -0.5031
  235MPD1    H3 3625   3.422   1.394  11.037 -0.6193 -0.3454 -0.9573
  235MPD1     N 3626   3.772   1.581  10.815 -0.2696 -0.2295  0.0230
  235MPD1    H5 3627   3.870   1.604  10.824  0.4087 -2.7324 -1.0628
  235MPD1    N1 3628   3.805   1.473  11.286 -0.1204 -0.2081 -0.4437
  235MPD1    H6 3629   3.907   1.470  11.288 -0.1289  0.2404  0.7162
  235MPD1    H7 3630   3.770   1.389  11.331 -1.8677  0.8121  0.1101
  236MPD1     C 3631   2.231   2.496   9.686  0.1350 -0.4073 -0.3170
  236MPD1    C1 3632   2.298   2.614   9.670  0.6984  0.6166 -0.6533
  236MPD1    C2 3633   2.419   2.626   9.732  0.6384 -0.2411  0.3570
  236MPD1    C3 3634   2.476   2.529   9.810  0.1671  0.8470 -0.4580
  236MPD1    C4 3635   2.410   2.420   9.839 -0.4925  0.2286 -0.1288
  236MPD1    C5 3636   2.287   2.404   9.774 -0.0616 -1.1366 -0.3312
  236MPD1     H 3637   2.466   2.723   9.725  0.0140  0.0335 -0.0870
  236MPD1    H1 3638   2.439   2.339   9.905 -3.2803  0.3806  1.3051
  236MPD1    H2 3639   2.129   2.477   9.653  0.3320 -1.6177 -0.2296
  236MPD1    H3 3640   2.225   2.318   9.797 -1.5454 -0.7888 -3.0372
  236MPD1     N 3641   2.605   2.539   9.872  0.0350  0.3645 -0.3227
  236MPD1    H5 3642   2.620   2.480   9.953  0.0227 -0.4236 -0.8974
  236MPD1    N1 3643   2.264   2.719   9.588  0.3802  0.8012  0.1454
  236MPD1    H6 3644   2.315   2.807   9.598 -1.9693  2.3045 -0.8556
  236MPD1    H7 3645   2.163   2.737   9.589  0.1557 -0.4558 -0.6727
  237MPD1     C 3646   3.286   1.318  15.233  0.3107  0.2150  0.4643
  237MPD1    C1 3647   3.203   1.427  15.216  0.0496 -0.7446  1.1856
  237MPD1    C2 3648   3.067   1.402  15.225  0.0350 -0.3366  0.1012
  237MPD1    C3 3649   3.017   1.281  15.278  0.6324 -0.6918 -0.7503
  237MPD1    C4 3650   3.110   1.184  15.316 -0.7907 -0.1853 -0.0288
  237MPD1    C5 3651   3.242   1.198  15.285  0.7219  0.3384 -0.4595
  237MPD1     H 3652   3.006   1.486  15.193  0.4985 -0.1248 -0.2323
  237MPD1    H1 3653   3.068   1.091  15.353 -0.1026  0.7393  3.0598
  237MPD1    H2 3654   3.392   1.322  15.212  0.6017 -3.7269  1.2222
  237MPD1    H3 3655   3.318   1.128  15.320  0.5091  0.6521  0.6154
  237MPD1     N 3656   2.876   1.256  15.301 -0.7376 -0.5541 -0.1621
  237MPD1    H5 3657   2.846   1.168  15.341  0.7941 -0.7163  0.6323
  237MPD1    N1 3658   3.251   1.544  15.171 -0.2799 -0.4997  0.9304
  237MPD1    H6 3659   3.199   1.621  15.212  0.8069 -0.7940  2.8837
  237MPD1    H7 3660   3.350   1.550  15.192 -0.8503  0.5311  3.3136
  238MPD1     C 3661   4.500   3.822  15.161  0.2694 -0.1212  0.0936
  238MPD1    C1 3662   4.370   3.811  15.202 -0.2277  1.0565  0.4602
  238MPD1    C2 3663   4.285   3.921  15.177 -0.1999 -0.3722  0.8960
  238MPD1    C3 3664   4.337   4.047  15.139 -0.1927 -0.4277 -0.2183
  238MPD1    C4 3665   4.464   4.048  15.101  0.7533  0.1138 -0.5135
  238MPD1    C5 3666   4.546   3.940  15.109 -0.2742  0.2168 -0.0784
  238MPD1     H 3667   4.179   3.910  15.197 -0.4522 -2.7506 -1.7934
  238MPD1    H1 3668   4.498   4.144  15.064  1.3445 -0.0349 -0.3482
  238MPD1    H2 3669   4.572   3.742  15.166  1.9685  1.3164 -1.5397
  238MPD1    H3 3670   4.648   3.949  15.074 -0.8971 -1.6728 -2.3771
  238MPD1     N 3671   4.262   4.169  15.134 -0.3756  0.2733 -0.0797
  238MPD1    H5 3672   4.307   4.240  15.078  1.2048 -0.2102  0.5879
  238MPD1    N1 3673   4.319   3.682  15.239 -0.6467 -0.4718 -0.4764
  238MPD1    H6 3674   4.386   3.637  15.301 -0.9599  0.4245  0.5105
  238MPD1    H7 3675   4.228   3.683  15.285 -0.1828  0.0929  0.4485
  239MPD1     C 3676   4.450   0.389  15.177  0.5479  0.8738  0.4273
  239MPD1    C1 3677   4.573   0.438  15.133  0.2849  0.7355  0.6266
  239MPD1    C2 3678   4.569   0.508  15.015 -0.0683  0.3277  1.0850
  239MPD1    C3 3679   4.451   0.553  14.961  0.0249  0.6257  0.4071
  239MPD1    C4 3680   4.333   0.513  15.025 -0.6228  0.9199 -0.3285
  239MPD1    C5 3681   4.332   0.426  15.135 -0.3343  0.0858  0.4908
  239MPD1     H 3682   4.665   0.538  14.975 -1.6485  1.0855 -2.1591
  239MPD1    H1 3683   4.242   0.556  14.985 -1.2022 -0.8029 -0.8896
  239MPD1    H2 3684   4.446   0.326  15.265  0.2153 -0.4003 -0.4831
  239MPD1    H3 3685   4.243   0.386  15.184 -1.3759  1.8147  0.0003
  239MPD1     N 3686   4.440   0.644  14.852 -0.3791  0.9072 -0.5937
  239MPD1    H5 3687   4.348   0.667  14.818 -1.0657 -2.4881 -1.0824
  239MPD1    N1 3688   4.694   0.381  15.183  0.0833 -0.3802 -0.8885
  239MPD1    H6 3689   0.030   0.447  15.167 -0.3478 -0.0961 -1.7563
  239MPD1    H7 3690   4.690   0.344  15.278 -0.4339  0.3977 -0.6069
  240MPD1     C 3691   3.578   0.884  13.942 -0.1016  0.0650  0.4363
  240MPD1    C1 3692   3.664   0.781  13.908 -0.3450 -1.1559  0.4819
  240MPD1    C2 3693   3.677   0.671  13.989 -0.4953  0.3390 -0.0136
  240MPD1    C3 3694   3.611   0.668  14.109 -0.7948 -0.0107 -0.2441
  240MPD1    C4 3695   3.532   0.776  14.145 -0.1397  0.0499 -0.3099
  240MPD1    C5 3696   3.508   0.878  14.058 -0.0519  0.5609 -0.1569
  240MPD1     H 3697   3.747   0.592  13.964  1.8346  2.1759  0.6935
  240MPD1    H1 3698   3.471   0.777  14.234  0.7506  0.8035  0.2907
  240MPD1    H2 3699   3.563   0.971  13.880  3.0912  0.6135  0.4364
  240MPD1    H3 3700   3.460   0.969  14.092 -0.1832  0.0108  1.1603
  240MPD1     N 3701   3.628   0.548  14.178  0.5527 -0.3692  0.2633
  240MPD1    H5 3702   3.680   0.474  14.133 -0.1222 -1.2614  0.9522
  240MPD1    N1 3703   3.761   0.806  13.811  0.2849  0.2462 -0.0543
  240MPD1    H6 3704   3.787   0.725  13.755  2.8260  1.5958 -0.8259
  240MPD1    H7 3705   3.738   0.878  13.743 -1.6727 -0.1754  0.1575
  241MPD1     C 3706   3.555   0.165  15.210 -0.4677  0.4258  0.0800
  241MPD1    C1 3707   3.609   0.287  15.172  0.2462  0.4453 -0.2974
  241MPD1    C2 3708   3.612   0.310  15.036  0.1553  0.3799 -0.3880
  241MPD1    C3 3709   3.591   0.204  14.944  0.3605 -0.3821 -0.3740
  241MPD1    C4 3710   3.534   0.087  14.992  0.1077 -0.3919  0.0082
  241MPD1    C5 3711   3.515   0.068  15.122  0.4514  0.3477 -0.1004
  241MPD1     H 3712   3.644   0.409  15.005  0.5738  0.2512 -0.3727
  241MPD1    H1 3713   3.485   0.028  14.916  1.9513  0.4547 -1.8168
  241MPD1    H2 3714   3.553   0.133  15.313 -0.5782  0.7695  0.1863
  241MPD1    H3 3715   3.457   4.720  15.150 -0.0382  0.0587 -2.0517
  241MPD1     N 3716   3.599   0.218  14.806 -0.1047  0.0365 -0.1215
  241MPD1    H5 3717   3.557   0.145  14.748 -1.4804  1.2910 -0.7122
  241MPD1    N1 3718   3.637   0.382  15.273 -0.3663  0.7931  0.4107
  241MPD1    H6 3719   3.710   0.447  15.244  0.2331 -0.8668 -1.7519
  241MPD1    H7 3720   3.669   0.341  15.360 -0.5986 -1.5631 -0.6301
  242MPD1     C 3721   3.415   3.876  15.894 -0.5375  0.2977  0.3393
  242MPD1    C1 3722   3.336   3.760  15.913  0.0784  0.1454  0.4334
  242MPD1    C2 3723   3.350   3.663  15.821  0.0716  0.3272  0.3698
  242MPD1    C3 3724   3.431   3.673  15.709 -0.9651 -0.2877  0.5326
  242MPD1    C4 3725   3.485   3.796  15.680  0.0177  0.2021  0.1467
  242MPD1    C5 3726   3.484   3.887  15.775  0.5353 -0.3238  0.3045
  242MPD1     H 3727   3.296   3.570  15.833  2.3549 -1.1239 -0.6055
  242MPD1    H1 3728   3.542   3.806  15.588  0.4023  1.2654  0.5018
  242MPD1    H2 3729   3.429   3.955  15.967 -2.3237  0.9434 -0.0163
  242MPD1    H3 3730   3.531   3.982  15.756  1.9499 -1.2963 -1.0038
  242MPD1     N 3731   3.439   3.565  15.616 -0.1216  0.0327  0.7309
  242MPD1    H5 3732   3.474   3.596  15.526  0.9898 -1.7220  0.5539
  242MPD1    N1 3733   3.259   3.734  16.030  0.1025  0.1202  0.1405
  242MPD1    H6 3734   3.181   3.672  16.014  0.6461 -0.6995  0.6768
  242MPD1    H7 3735   3.217   3.815  16.077  1.4923  0.6109  0.5573
  243MPD1     C 3736   4.731   2.657   0.262 -0.0635  0.2010 -0.5086
  243MPD1    C1 3737   0.030   2.530   0.250 -1.1217 -0.7547 -0.3281
  243MPD1    C2 3738   0.142   2.497   0.171 -0.3082 -0.1261  0.1428
  243MPD1    C3 3739   0.190   2.591   0.078 -0.7837 -0.6076 -0.2766
  243MPD1    C4 3740   0.137   2.720   0.080 -0.1976  0.0764  0.5589
  243MPD1    C5 3741   0.039   2.752   0.168 -0.4211  0.2348 -0.3898
  243MPD1     H 3742   0.181   2.396   0.170  2.2419  0.8971 -3.2634
  243MPD1    H1 3743   0.144   2.790  17.754  2.1060 -0.7261  0.0690
  243MPD1    H2 3744   4.661   2.694   0.336  0.8433 -1.5871  1.2414
  243MPD1    H3 3745   4.739   2.852   0.178  0.8461  0.4259  2.7031
  243MPD1     N 3746   0.283   2.553  17.736  0.5001 -0.3096  0.3618
  243MPD1    H5 3747   0.306   2.455  17.753 -0.2781 -0.6491 -0.5508
  243MPD1    N1 3748   4.713   2.438   0.346 -0.2908  0.1968  0.3444
  243MPD1    H6 3749   4.721   2.339   0.324  1.2039  0.2089  0.8536
  243MPD1    H7 3750   4.620   2.454   0.384  0.0737  2.9268  0.0860
  244MPD1     C 3751   0.546   1.746  17.637 -0.7602  0.7492 -0.1191
  244MPD1    C1 3752   0.457   1.823  17.716 -0.5241 -0.4589 -0.1307
  244MPD1    C2 3753   0.460   1.960  17.692 -0.2937  0.7988 -0.2051
  244MPD1    C3 3754   0.522   2.018  17.584 -0.1910  0.6496  0.0168
  244MPD1    C4 3755   0.595   1.938  17.501 -0.6534  1.0277  0.9102
  244MPD1    C5 3756   0.605   1.804  17.528  0.1327  0.5802 -0.9149
  244MPD1     H 3757   0.403   2.035  17.746 -0.8281  0.1398  0.1482
  244MPD1    H1 3758   0.649   1.973  17.415  0.6055 -0.0955  1.2365
  244MPD1    H2 3759   0.557   1.640  17.655 -2.1728  0.8765  1.5734
  244MPD1    H3 3760   0.665   1.747  17.457  0.8611  1.1478 -0.7558
  244MPD1     N 3761   0.503   2.157  17.562 -0.3297  0.2380  0.5026
  244MPD1    H5 3762   0.454   2.205  17.637  1.2218  1.2863  0.8603
  244MPD1    N1 3763   0.408   1.766   0.078 -0.3594  0.2879 -0.3761
  244MPD1    H6 3764   0.429   1.667   0.087  2.7483  0.9811 -0.0745
  244MPD1    H7 3765   0.313   1.793   0.105 -0.1168 -0.0856  0.8553
  245MPD1     C 3766   1.692   2.398  13.202 -0.0411 -0.2187  0.5904
  245MPD1    C1 3767   1.689   2.434  13.335 -0.5439  0.0875  0.7330
  245MPD1    C2 3768   1.783   2.528  13.383  1.2628 -0.7470  0.2251
  245MPD1    C3 3769   1.868   2.588  13.298 -0.0089  0.0380 -0.8733
  245MPD1    C4 3770   1.851   2.570  13.164  0.0854  0.2335  0.2348
  245MPD1    C5 3771   1.765   2.470  13.114  0.0982  0.2939 -0.0719
  245MPD1     H 3772   1.775   2.540  13.490 -0.1585  0.1119  0.0237
  245MPD1    H1 3773   1.912   2.619  13.089 -2.0364  1.7570 -0.4960
  245MPD1    H2 3774   1.621   2.329  13.157 -0.9853  0.9793  0.2325
  245MPD1    H3 3775   1.763   2.446  13.009 -0.6427 -2.4088  0.5578
  245MPD1     N 3776   1.963   2.679  13.353  0.5581 -0.0476 -0.1136
  245MPD1    H5 3777   1.965   2.684  13.454 -1.6041 -0.1732 -0.0633
  245MPD1    N1 3778   1.611   2.356  13.420 -0.6752 -0.1961 -0.2525
  245MPD1    H6 3779   1.592   2.401  13.509  1.8883 -1.4893  0.9545
  245MPD1    H7 3780   1.538   2.303  13.374 -2.1314  2.4154 -0.9542
  246MPD1     C 3781   3.382   4.655  10.140  1.0206 -0.2278  0.6490
  246MPD1    C1 3782   3.316   4.601  10.034  0.1893 -0.3220  0.0850
  246MPD1    C2 3783   3.362   4.484   9.972  0.6066 -0.1157  0.1046
  246MPD1    C3 3784   3.481   4.426  10.015 -0.0741  0.0333  0.2879
  246MPD1    C4 3785   3.541   4.477  10.124  0.6283  0.3776  0.6867
  246MPD1    C5 3786   3.487   4.584  10.187 -0.0048 -0.7061 -0.0449
  246MPD1     H 3787   3.313   4.450   9.882  0.8277 -1.8742  0.6610
  246MPD1    H1 3788   3.617   4.424  10.180  0.2832 -1.2074 -0.3532
  246MPD1    H2 3789   3.352   4.730  10.213 -0.8656 -1.4258  1.0903
  246MPD1    H3 3790   3.509   4.608  10.291  3.9639 -0.7200 -0.9130
  246MPD1     N 3791   3.515   4.300   9.956 -0.1748  0.1308 -0.1615
  246MPD1    H5 3792   3.476   4.276   9.865  2.6019 -1.1503 -0.9964
  246MPD1    N1 3793   3.191   4.644  10.008 -0.4437  0.2074 -0.0845
  246MPD1    H6 3794   3.148   4.635   9.916 -1.6452  1.4074  0.3600
  246MPD1    H7 3795   3.175   0.004  10.021  0.0483  0.4596 -1.4312
  247MPD1     C 3796   1.799   2.241  16.946 -0.4205  0.3264 -0.1505
  247MPD1    C1 3797   1.769   2.122  16.881  0.4996  0.4198  0.8201
  247MPD1    C2 3798   1.793   2.125  16.739 -0.6792 -0.2667  0.6061
  247MPD1    C3 3799   1.816   2.242  16.672 -0.6080  0.5380  0.3246
  247MPD1    C4 3800   1.854   2.353  16.742 -0.3771  0.6147 -0.6147
  247MPD1    C5 3801   1.847   2.344  16.880  0.3452 -0.7184 -0.2658
  247MPD1     H 3802   1.796   2.030  16.687 -0.4865 -0.5733  1.1788
  247MPD1    H1 3803   1.886   2.443  16.690 -0.6039  0.9760 -0.1210
  247MPD1    H2 3804   1.797   2.244  17.054  1.3264 -0.5936 -0.0869
  247MPD1    H3 3805   1.865   2.435  16.936 -1.4617  0.1647 -1.1318
  247MPD1     N 3806   1.843   2.252  16.534  0.1845 -0.4006 -0.2591
  247MPD1    H5 3807   1.876   2.342  16.499 -1.0659  0.0642 -0.2286
  247MPD1    N1 3808   1.736   2.009  16.951 -0.2137  0.1780  0.0888
  247MPD1    H6 3809   1.688   1.938  16.897 -2.3052  2.3944 -0.9718
  247MPD1    H7 3810   1.670   2.028  17.026  1.5269 -1.5018  2.0525
  248MPD1     C 3811   2.000   1.776  17.562 -0.1136  0.5318 -0.2858
  248MPD1    C1 3812   2.082   1.741  17.666  0.2301 -0.5293 -0.3938
  248MPD1    C2 3813   2.130   1.842  17.748  0.5526  0.6481  0.6248
  248MPD1    C3 3814   2.093   1.975  17.722 -0.3119  0.3581  0.1366
  248MPD1    C4 3815   2.018   2.004  17.613  0.0459 -0.1859  0.6210
  248MPD1    C5 3816   1.976   1.906  17.528  0.4199  0.0570 -0.0867
  248MPD1     H 3817   2.192   1.813   0.075 -0.7120  3.2277  2.4397
  248MPD1    H1 3818   1.993   2.108  17.595 -0.4152 -0.3988  0.0211
  248MPD1    H2 3819   1.964   1.698  17.496 -2.3069  0.8169  0.5658
  248MPD1    H3 3820   1.914   1.924  17.441  0.5442 -1.7859 -0.5527
  248MPD1     N 3821   2.145   2.073   0.051 -0.1321  0.8391 -0.0607
  248MPD1    H5 3822   2.215   2.040   0.117 -0.5993  0.2745  0.1558
  248MPD1    N1 3823   2.094   1.608  17.704  0.3565  0.3908  0.0776
  248MPD1    H6 3824   2.066   1.541  17.632  0.3982  0.2148  0.2241
  248MPD1    H7 3825   2.194   1.600  17.718  0.8230  1.2249 -2.8395
  249MPD1     C 3826   3.209   0.832  10.208 -1.1472  0.2498  0.2389
  249MPD1    C1 3827   3.208   0.762  10.331 -0.7623  0.1049 -0.1923
  249MPD1    C2 3828   3.277   0.807  10.441 -0.7041 -0.7067  0.2213
  249MPD1    C3 3829   3.364   0.917  10.427 -0.0094  0.5211  0.9251
  249MPD1    C4 3830   3.375   0.981  10.305  1.2739  0.1016  0.5782
  249MPD1    C5 3831   3.292   0.941  10.197 -0.3243 -0.1268 -0.6704
  249MPD1     H 3832   3.260   0.750  10.531 -0.8424 -2.1854 -0.7355
  249MPD1    H1 3833   3.446   1.059  10.281  0.1202  0.3870 -1.9636
  249MPD1    H2 3834   3.165   0.800  10.114 -0.9244 -1.0892  0.5861
  249MPD1    H3 3835   3.314   0.989  10.103 -2.6829  3.3506  0.5038
  249MPD1     N 3836   3.454   0.941  10.538 -0.4559  0.2933 -0.2117
  249MPD1    H5 3837   3.423   0.892  10.622  0.3748  3.2177  1.7953
  249MPD1    N1 3838   3.117   0.652  10.352  0.9725  0.3921  0.2287
  249MPD1    H6 3839   3.138   0.594  10.433 -1.7076 -1.1231 -0.1729
  249MPD1    H7 3840   3.107   0.602  10.265 -1.2020  0.6651  0.3132
  250MPD2     C 3841   0.971   0.951  12.898  0.6212 -0.5262 -0.1185
  250MPD2    C1 3842   0.850   1.010  12.917 -0.1182 -0.2587  1.2792
  250MPD2    C2 3843   0.737   0.934  12.901 -0.3564  0.9833  0.1561
  250MPD2    C3 3844   0.733   0.803  12.863 -0.3682  0.4885 -1.2237
  250MPD2    C4 3845   0.858   0.750  12.832  0.6820  0.3455  0.4901
  250MPD2    C5 3846   0.972   0.823  12.850  0.0537 -0.3730  0.1152
  250MPD2     H 3847   0.639   0.978  12.911 -0.8019  0.2993 -1.1726
  250MPD2    H1 3848   0.871   0.652  12.785  1.8761 -0.1087  1.7759
  250MPD2    H2 3849   1.060   1.007  12.927  0.5733  0.1471 -1.2755
  250MPD2    H3 3850   1.073   0.792  12.828  0.4480  0.2241  1.0795
  250MPD2     N 3851   0.627   0.714  12.846  0.0582  0.4471 -0.7254
  250MPD2    H5 3852   0.645   0.617  12.821  1.0371  0.5067 -0.2244
  250MPD2    N1 3853   0.852   1.146  12.958  0.1302 -0.2165 -0.2358
  250MPD2    H7 3854   0.945   1.184  12.973  0.1229 -0.3938  0.2681
  251TMC3    C1 3855   0.789   1.357  13.029  0.1770  0.3282  0.1845
  251TMC3    C2 3856   0.705   1.463  13.009 -0.2792  0.0712 -0.2489
  251TMC3    C3 3857   0.761   1.587  12.994 -0.1538  0.0178 -0.9403
  251TMC3    C4 3858   0.924   1.384  13.058  0.2192 -0.1526 -0.2963
  251TMC3    C5 3859   0.974   1.513  13.047 -0.0744  0.3533  0.5439
  251TMC3    C6 3860   0.894   1.612  13.008  0.3373 -0.5221 -0.1770
  251TMC3     C 3861   0.744   1.221  12.991 -0.0176 -0.3380  0.0487
  251TMC3     O 3862   0.624   1.195  12.972 -0.4169 -0.7417  0.5551
  251TMC3     H 3863   0.600   1.439  12.994  0.1934 -0.8996 -1.9746
  251TMC3    H1 3864   0.988   1.302  13.087  1.8697  1.2135 -0.0870
  251TMC3    H2 3865   0.928   1.715  13.015  0.7794 -0.8759  2.9067
  251TMC3    C7 3866   1.122   1.533  13.031  0.8461  0.0699 -0.3573
  251TMC3    C8 3867   0.662   1.693  13.028  0.3122  0.0815 -0.3982
  251TMC3    O1 3868   1.194   1.449  13.083  0.0138  0.3464  0.2997
  251TMC3    O2 3869   0.553   1.648  13.064 -0.6999  0.1691 -0.0579
  252TMC3    C1 3870   4.692   2.046   9.657 -0.1127  0.9691  0.3131
  252TMC3    C2 3871   0.068   2.089   9.593 -0.1761  0.1438  0.2689
  252TMC3    C3 3872   0.172   2.112   9.675 -0.5195  0.3924  0.0326
  252TMC3    C4 3873   4.683   2.033   9.795 -0.0194 -0.6391 -0.1930
  252TMC3    C5 3874   0.056   2.039   9.868  0.1104  0.5736  0.1877
  252TMC3    C6 3875   0.170   2.071   9.813  0.0211  0.1401  1.0262
  252TMC3     C 3876   4.577   2.052   9.573  0.1776  0.6199  0.0053
  252TMC3     O 3877   4.587   2.101   9.459 -0.1478  0.4787 -1.0123
  252TMC3     H 3878   0.069   2.126   9.491 -1.7869  0.6586  0.4325
  252TMC3    H1 3879   4.591   1.992   9.835 -0.6696  0.7621 -0.2501
  252TMC3    H2 3880   0.247   2.108   9.879 -0.2043  0.5397  1.0676
  252TMC3    C7 3881   0.057   1.967   9.992  0.1299  0.2974 -0.0473
  252TMC3    C8 3882   0.293   2.180   9.625  0.5423 -0.0689  0.2594
  252TMC3    O1 3883   4.690   1.945  10.046 -0.4491 -0.1028  0.7409
  252TMC3    O2 3884   0.273   2.251   9.524 -0.9781  0.0035  0.0840
  253MPD2     C 3885   2.081   1.355  15.331 -0.0754 -0.1660 -0.4552
  253MPD2    C1 3886   1.948   1.316  15.318  0.0025 -0.1046  0.1259
  253MPD2    C2 3887   1.878   1.268  15.427 -0.0915 -0.0906 -0.7897
  253MPD2    C3 3888   1.929   1.287  15.552 -0.8904  0.1501  0.5703
  253MPD2    C4 3889   2.062   1.319  15.565 -0.8324 -0.6520  0.5884
  253MPD2    C5 3890   2.141   1.336  15.451  0.2589 -0.0948  0.0479
  253MPD2     H 3891   1.780   1.225  15.409 -0.3823  0.2558 -0.0335
  253MPD2    H1 3892   2.098   1.337  15.666  0.2292  0.0955  0.0727
  253MPD2    H2 3893   2.147   1.381  15.249  1.5151  2.4272  1.6531
  253MPD2    H3 3894   2.241   1.364  15.483  0.5076 -1.1044  0.1534
  253MPD2     N 3895   1.852   1.281  15.675 -0.7419  0.9917 -0.3885
  253MPD2    H5 3896   1.903   1.298  15.761 -1.2583  0.4975  0.0081
  253MPD2    N1 3897   1.871   1.325  15.197 -0.5072  0.4267 -0.2015
  253MPD2    H7 3898   1.773   1.299  15.201  0.3084 -3.0065 -2.3426
  254TMC3    C1 3899   1.668   1.321  15.807 -0.1436  0.4050 -0.3988
  254TMC3    C2 3900   1.540   1.359  15.820  0.2097 -0.5172 -0.2741
  254TMC3    C3 3901   1.480   1.362  15.944 -0.3807  0.1667 -0.2771
  254TMC3    C4 3902   1.739   1.281  15.917  0.9007  0.2436 -0.4634
  254TMC3    C5 3903   1.676   1.278  16.038  0.2131  0.0471 -0.3353
  254TMC3    C6 3904   1.553   1.326  16.055 -0.2524  0.0004  0.1955
  254TMC3     C 3905   1.720   1.299  15.674 -0.2512 -0.5067  0.4661
  254TMC3     O 3906   1.650   1.310  15.576 -0.0953 -0.3137  0.1890
  254TMC3     H 3907   1.473   1.371  15.736  0.4880  0.5237 -0.3491
  254TMC3    H1 3908   1.833   1.228  15.913  0.6961 -0.1335 -0.3126
  254TMC3    H2 3909   1.510   1.330  16.155  0.3176  1.8430  0.3779
  254TMC3    C7 3910   1.742   1.254  16.161  0.1263 -0.1538 -0.2066
  254TMC3    C8 3911   1.366   1.446  15.971  0.3425  0.0459  0.1596
  254TMC3    O1 3912   1.671   1.220  16.254  0.7487  0.3662  0.0248
  254TMC3    O2 3913   1.337   1.454  16.086 -0.3510  0.1076  0.2071
  255MPD2     C 3914   4.544   3.081  10.433 -0.6438  0.0922  0.3474
  255MPD2    C1 3915   4.626   3.187  10.470 -0.6130 -0.8981 -0.8033
  255MPD2    C2 3916   4.739   3.208  10.382 -0.3130 -0.0502  0.0989
  255MPD2    C3 3917   0.016   3.140  10.269  1.0728 -0.4947  0.2914
  255MPD2    C4 3918   4.672   3.031  10.244 -0.1314  0.5540  0.3362
  255MPD2    C5 3919   4.564   3.013  10.324  0.5424 -0.7807  0.4042
  255MPD2     H 3920   0.069   3.288  10.404 -0.8339  0.0982  1.2289
  255MPD2    H1 3921   4.689   2.958  10.165  0.7309  3.0397 -1.7555
  255MPD2    H2 3922   4.460   3.062  10.499  0.9465 -4.3590  1.0860
  255MPD2    H3 3923   4.496   2.930  10.311  0.7656 -1.0837  1.1879
  255MPD2     N 3924   0.131   3.171  10.186  0.0305  0.1769 -0.3707
  255MPD2    H5 3925   0.185   3.254  10.207 -0.5804 -0.1178  2.4052
  255MPD2    N1 3926   4.598   3.253  10.592  0.0651 -0.0390  0.2215
  255MPD2    H7 3927   4.541   3.211  10.665 -4.3853 -1.3889 -3.9933
  256TMC3    C1 3928   4.631   3.416  10.765 -0.0139  0.0225 -0.0916
  256TMC3    C2 3929   4.720   3.498  10.815 -0.6556 -0.0391  0.2517
  256TMC3    C3 3930   4.674   3.587  10.906 -0.3651 -0.4970 -0.3196
  256TMC3    C4 3931   4.504   3.392  10.805 -0.0453  0.7762  0.1465
  256TMC3    C5 3932   4.453   3.482  10.899  0.0317 -0.7369  0.7239
  256TMC3    C6 3933   4.539   3.578  10.946  0.2196 -0.1258 -0.8337
  256TMC3     C 3934   4.671   3.359  10.633  0.5735  0.3989 -0.4172
  256TMC3     O 3935   0.018   3.415  10.571  0.3067  0.2541 -0.7270
  256TMC3     H 3936   0.074   3.512  10.761  0.5095  0.6069  2.4432
  256TMC3    H1 3937   4.439   3.324  10.752  0.5482  0.1005  0.2987
  256TMC3    H2 3938   4.504   3.634  11.033  1.6510 -0.8879  0.2375
  256TMC3    C7 3939   4.337   3.540  10.846 -0.6753 -0.1938  0.4864
  256TMC3    C8 3940   4.728   3.723  10.905  0.3445  0.0081 -0.4581
  256TMC3    O1 3941   4.272   3.471  10.773  0.1275  0.4783  0.1978
  256TMC3    O2 3942   4.695   3.794  10.998 -0.1408  0.4411 -0.1430
  257MPD2     C 3943   4.325   1.160  13.567 -0.3226 -0.0235 -0.6591
  257MPD2    C1 3944   4.283   1.065  13.477 -0.0301 -0.3598  0.6871
  257MPD2    C2 3945   4.248   0.934  13.527 -0.3307 -0.3516 -0.2990
  257MPD2    C3 3946   4.244   0.912  13.666  0.1098  0.2583  0.5952
  257MPD2    C4 3947   4.298   1.012  13.745  0.4309 -0.6803  0.2896
  257MPD2    C5 3948   4.340   1.138  13.700 -0.5259  0.0347  0.0656
  257MPD2     H 3949   4.223   0.846  13.469 -1.2203  0.3591 -1.0011
  257MPD2    H1 3950   4.300   1.003  13.853 -1.6371  0.8583  0.4436
  257MPD2    H2 3951   4.356   1.261  13.543 -1.0032  0.1813 -0.6895
  257MPD2    H3 3952   4.363   1.222  13.764  1.2964 -0.2536 -0.2088
  257MPD2     N 3953   4.193   0.791  13.718 -0.3809  0.2536  0.1839
  257MPD2    H5 3954   4.156   0.723  13.652 -0.6625  0.8772 -0.2990
  257MPD2    N1 3955   4.294   1.089  13.335  0.1810 -0.6401 -0.2652
  257MPD2    H7 3956   4.335   1.175  13.303  1.6948 -1.4760 -0.5619
  258TMC3    C1 3957   4.120   0.616  13.849 -0.1279 -0.6250  0.3783
  258TMC3    C2 3958   4.038   0.567  13.752  0.6203  0.6016 -0.7682
  258TMC3    C3 3959   3.992   0.441  13.763  0.2891  0.1412  0.3099
  258TMC3    C4 3960   4.167   0.538  13.951 -0.0286  0.2686 -0.0025
  258TMC3    C5 3961   4.122   0.409  13.957 -0.2034  0.1974 -0.4354
  258TMC3    C6 3962   4.024   0.363  13.873 -0.4047 -0.1439  0.1120
  258TMC3     C 3963   4.171   0.748  13.846 -0.0294 -0.6953 -0.0078
  258TMC3     O 3964   4.217   0.802  13.941 -0.1846  0.1816 -0.2968
  258TMC3     H 3965   4.014   0.623  13.662  0.8777  2.3695  0.2701
  258TMC3    H1 3966   4.240   0.581  14.019  0.1511  2.1626 -1.3758
  258TMC3    H2 3967   3.983   0.267  13.903 -0.1623 -1.1561 -2.7743
  258TMC3    C7 3968   4.155   0.329  14.075  0.0285 -0.8444  0.6174
  258TMC3    C8 3969   3.980   0.352  13.647 -0.1000 -0.5246  0.6635
  258TMC3    O1 3970   4.084   0.233  14.103  0.2602  0.4143  0.1446
  258TMC3    O2 3971   4.040   0.243  13.651  0.0477  0.4626 -0.3145
  259MPD2     C 3972   3.171   2.699   0.696  0.8646 -0.4654  0.1125
  259MPD2    C1 3973   3.183   2.575   0.647  0.1840  0.0166 -0.4372
  259MPD2    C2 3974   3.198   2.569   0.510 -0.6032 -0.0580 -0.0237
  259MPD2    C3 3975   3.189   2.676   0.422  0.1841  0.2858 -0.2702
  259MPD2    C4 3976   3.176   2.805   0.477 -0.2961 -0.1457  0.8398
  259MPD2    C5 3977   3.167   2.810   0.614 -0.6435 -0.1922  0.3787
  259MPD2     H 3978   3.215   2.473   0.463 -1.8524  0.9852 -2.5938
  259MPD2    H1 3979   3.164   2.895   0.418  0.9836  1.3096  2.7945
  259MPD2    H2 3980   3.172   2.713   0.803 -3.5738 -2.7347  0.4712
  259MPD2    H3 3981   3.163   2.906   0.665 -2.1903 -0.7593  1.3252
  259MPD2     N 3982   3.207   2.644   0.285  0.2714 -0.2119  0.1629
  259MPD2    H5 3983   3.228   2.547   0.263 -1.0930 -0.4594 -0.0941
  259MPD2    N1 3984   3.202   2.467   0.735 -0.5964  0.0543 -0.1227
  259MPD2    H7 3985   3.182   2.480   0.834 -2.0248  1.3888 -0.5928
  260TMC3    C1 3986   3.291   2.678   0.064  0.2159  0.6986  0.4015
  260TMC3    C2 3987   3.376   2.763  17.746 -0.2162  0.1736 -0.4349
  260TMC3    C3 3988   3.445   2.702  17.646  0.0089 -0.0009 -0.5937
  260TMC3    C4 3989   3.271   2.548   0.045  0.0613  0.5076 -0.1678
  260TMC3    C5 3990   3.338   2.490  17.701 -0.7527  0.0830 -0.4458
  260TMC3    C6 3991   3.430   2.567  17.626 -0.0681 -0.4127 -0.0165
  260TMC3     C 3992   3.234   2.734   0.190  0.1265 -0.0691 -0.4257
  260TMC3     O 3993   3.253   2.853   0.197 -0.3403 -0.1093 -0.1744
  260TMC3     H 3994   3.372   2.870   0.003 -0.9360  0.0284  0.5598
  260TMC3    H1 3995   3.199   2.490   0.100  2.3065 -1.7208  0.4144
  260TMC3    H2 3996   3.474   2.521  17.538  1.4378  1.5055 -0.2491
  260TMC3    C7 3997   3.324   2.348  17.670  0.0261  0.2124 -0.0889
  260TMC3    C8 3998   3.579   2.756  17.648  0.4431 -0.4447 -0.5523
  260TMC3    O1 3999   3.326   2.320  17.551  0.3120 -0.3602 -0.4725
  260TMC3    O2 4000   3.585   2.848  17.731  0.2113  0.1265  0.0519
  261MPD2     C 4001   4.653   0.462  12.456 -0.5706 -0.0594  0.4450
  261MPD2    C1 4002   0.022   0.552  12.460  0.3755 -0.1471  0.1047
  261MPD2    C2 4003   0.056   0.621  12.344 -0.6979  0.0826  0.9485
  261MPD2    C3 4004   0.003   0.592  12.219 -0.1951 -0.5034  0.0757
  261MPD2    C4 4005   4.629   0.507  12.225  0.8842  0.9316 -0.2616
  261MPD2    C5 4006   4.581   0.446  12.339  0.2434 -0.4458 -0.6500
  261MPD2     H 4007   0.142   0.685  12.356 -0.3328 -0.1782 -0.2924
  261MPD2    H1 4008   4.583   0.479  12.131 -0.1988  0.3791  0.4328
  261MPD2    H2 4009   4.627   0.412  12.548  0.2659  0.3625  0.9032
  261MPD2    H3 4010   4.492   0.386  12.330  0.9733 -1.2939 -2.0995
  261MPD2     N 4011   0.036   0.663  12.102 -0.5402  0.1976 -0.0541
  261MPD2    H5 4012   0.097   0.741  12.122 -1.2777  1.2902 -2.1184
  261MPD2    N1 4013   0.102   0.569  12.580 -0.4078  0.0039 -0.3243
  261MPD2    H7 4014   0.191   0.617  12.566  0.2403 -0.8699  0.7857
  262TMC3    C1 4015   0.049   0.730  11.879 -0.4426 -0.9640 -0.1446
  262TMC3    C2 4016   0.072   0.854  11.936 -0.3882 -0.6183 -0.1155
  262TMC3    C3 4017   0.109   0.959  11.848  0.1928 -0.0797  0.3479
  262TMC3    C4 4018   0.094   0.693  11.757 -0.2781  0.9526 -0.3384
  262TMC3    C5 4019   0.136   0.796  11.678 -0.3712 -0.4980 -0.1769
  262TMC3    C6 4020   0.148   0.925  11.718  0.5272 -1.2567 -0.5952
  262TMC3     C 4021   0.022   0.618  11.966  0.0562  0.4032 -0.5449
  262TMC3     O 4022   0.000   0.508  11.913 -0.4970  0.3159 -0.5393
  262TMC3     H 4023   0.026   0.888  12.028 -0.8187  0.2868 -0.6655
  262TMC3    H1 4024   0.103   0.591  11.722  1.0379  1.3088 -1.0380
  262TMC3    H2 4025   0.185   0.991  11.641 -2.4854 -1.2512 -2.0532
  262TMC3    C7 4026   0.195   0.757  11.548  0.5416 -0.0847 -0.5342
  262TMC3    C8 4027   0.140   1.092  11.882 -0.3737 -0.2306  0.2746
  262TMC3    O1 4028   0.144   0.670  11.476  0.4002 -0.6562 -1.0654
  262TMC3    O2 4029   0.158   1.169  11.786  0.3033  0.0375  0.1166
  263MPD2     C 4030   1.077   0.026  11.993  0.3679  0.3455 -0.2044
  263MPD2    C1 4031   1.194   0.008  11.922  0.0404  0.2840  0.6772
  263MPD2    C2 4032   1.179   0.001  11.789  0.0785 -0.2677  0.2275
  263MPD2    C3 4033   1.061   0.015  11.720 -0.2781  0.8550  0.9419
  263MPD2    C4 4034   0.946   0.028  11.793 -0.2617  0.0208  0.7310
  263MPD2    C5 4035   0.956   0.025  11.934 -0.2109  0.7022 -1.0228
  263MPD2     H 4036   1.262   4.738  11.720  1.3894  1.3414  1.7236
  263MPD2    H1 4037   0.852   0.041  11.741 -0.3506 -1.0562  0.6315
  263MPD2    H2 4038   1.092   0.035  12.100  2.8411  1.3470 -0.6294
  263MPD2    H3 4039   0.872   0.030  12.004  1.0396 -0.4728  0.5681
  263MPD2     N 4040   1.061   0.046  11.580  0.2129  0.0291 -0.5915
  263MPD2    H5 4041   1.152   0.036  11.535  1.0187  1.7950  0.6661
  263MPD2    N1 4042   1.321   0.017  11.980 -0.0520  0.7007 -0.4322
  263MPD2    H7 4043   1.323   0.048  12.077 -0.3560  0.6495 -0.4076
  264TMC3    C1 4044   1.006   0.137  11.373 -0.7289 -0.6525  0.0641
  264TMC3    C2 4045   1.033   0.272  11.384 -0.8126  0.9188  0.7238
  264TMC3    C3 4046   1.130   0.324  11.317 -1.3128 -0.1949  0.5175
  264TMC3    C4 4047   1.085   0.052  11.294  0.8728 -0.4500 -0.7124
  264TMC3    C5 4048   1.188   0.110  11.229  0.4139 -0.3717  0.2589
  264TMC3    C6 4049   1.211   0.246  11.234  0.7539 -0.1686  0.0860
  264TMC3     C 4050   0.956   0.082  11.496 -0.4217  0.6106  0.3275
  264TMC3     O 4051   0.840   0.113  11.530  0.3551 -0.0528 -0.4814
  264TMC3     H 4052   0.967   0.333  11.446 -0.7175  0.9808  0.7638
  264TMC3    H1 4053   1.050   4.689  11.284  0.7180 -0.4510 -0.1904
  264TMC3    H2 4054   1.296   0.291  11.185  1.0364  0.3161  1.0323
  264TMC3    C7 4055   1.255   0.041  11.127 -0.2554 -0.8064 -0.2813
  264TMC3    C8 4056   1.155   0.465  11.326  0.2309  0.4858 -0.0247
  264TMC3    O1 4057   1.307   0.107  11.037  0.5268 -0.1576  0.0328
  264TMC3    O2 4058   1.189   0.531  11.227  0.0375 -0.0949 -0.2194
  265MPD2     C 4059   2.987   0.767  15.574 -0.0224 -0.5995  0.4029
  265MPD2    C1 4060   3.087   0.863  15.582 -0.2443 -0.5671 -0.5296
  265MPD2    C2 4061   3.194   0.850  15.497 -0.2800 -0.2208 -0.8862
  265MPD2    C3 4062   3.215   0.744  15.416 -0.6787  0.5675  0.6881
  265MPD2    C4 4063   3.118   0.647  15.421 -0.0788 -0.4076  0.0529
  265MPD2    C5 4064   3.000   0.667  15.493  0.4233 -0.3824 -0.2796
  265MPD2     H 4065   3.262   0.934  15.485  1.3730 -1.5313 -0.6997
  265MPD2    H1 4066   3.121   0.564  15.352  2.4401  0.1135 -0.4880
  265MPD2    H2 4067   2.890   0.764  15.623  0.4932  0.7926  1.5254
  265MPD2    H3 4068   2.925   0.588  15.489 -1.7306  1.6902 -0.5454
  265MPD2     N 4069   3.322   0.728  15.329  0.2249  0.2629  0.6866
  265MPD2    H5 4070   3.327   0.638  15.280 -3.0361 -0.3204  1.4583
  265MPD2    N1 4071   3.074   0.981  15.652 -0.3810 -0.2304  0.2236
  265MPD2    H7 4072   3.162   1.030  15.662 -0.1692 -0.9119  1.7420
  266TMC3    C1 4073   2.969   1.138  15.788 -0.3042  0.5211 -0.0356
  266TMC3    C2 4074   3.081   1.156  15.857 -0.1283  0.0219 -0.5323
  266TMC3    C3 4075   3.080   1.266  15.944 -0.7699  0.2720 -0.1247
  266TMC3    C4 4076   2.860   1.220  15.782  0.5792  0.3148  0.3055
  266TMC3    C5 4077   2.864   1.322  15.867 -0.6602  0.5491  1.0066
  266TMC3    C6 4078   2.970   1.345  15.946  0.5454 -0.2701 -0.8531
  266TMC3     C 4079   2.954   1.016  15.707 -1.3056  0.0171  0.4483
  266TMC3     O 4080   2.839   0.981  15.672 -0.5436 -0.8035  0.1316
  266TMC3     H 4081   3.160   1.082  15.860 -2.0682 -2.0058  0.5235
  266TMC3    H1 4082   2.767   1.199  15.729  1.1078 -1.0327 -0.0771
  266TMC3    H2 4083   2.965   1.422  16.021 -2.8136 -0.0760 -1.2883
  266TMC3    C7 4084   2.739   1.396  15.895  0.0275  0.2091 -0.3977
  266TMC3    C8 4085   3.211   1.302  15.989 -0.9973  0.0633 -1.4643
  266TMC3    O1 4086   2.717   1.421  16.013  0.1982  0.1973 -0.0996
  266TMC3    O2 4087   3.302   1.226  15.958 -0.0417  0.2211 -0.0792
  267MPD2     C 4088   0.609   2.844   0.379  0.4676  0.2677  0.2409
  267MPD2    C1 4089   0.711   2.921   0.313  0.2376 -0.5015 -0.5938
  267MPD2    C2 4090   0.682   2.973   0.189 -0.1734 -0.7549  0.6332
  267MPD2    C3 4091   0.549   2.958   0.136 -0.7772 -1.3188 -0.2954
  267MPD2    C4 4092   0.455   2.882   0.207 -0.1240 -0.5630 -0.8467
  267MPD2    C5 4093   0.484   2.822   0.331 -0.1390 -0.5603 -0.8078
  267MPD2     H 4094   0.760   3.030   0.140 -1.6924  0.7286 -0.0387
  267MPD2    H1 4095   0.354   2.866   0.171 -0.4817  0.5624 -0.3265
  267MPD2    H2 4096   0.631   2.815   0.481  1.6996 -3.3106 -1.0468
  267MPD2    H3 4097   0.416   2.766   0.393 -2.3052  1.7582 -1.1177
  267MPD2     N 4098   0.516   3.003   0.008  0.5098  0.1412  0.1810
  267MPD2    H5 4099   0.425   2.974  17.731  0.5098 -0.9615  1.1092
  267MPD2    N1 4100   0.837   2.921   0.373  0.7130  0.5928  0.6065
  267MPD2    H7 4101   0.847   2.862   0.455 -1.1764  0.5305  0.7734
  268TMC3    C1 4102   1.063   3.011   0.434  0.2522 -0.6457  0.5356
  268TMC3    C2 4103   1.153   3.110   0.404 -0.4671  0.2043 -0.3947
  268TMC3    C3 4104   1.270   3.119   0.477  1.0699 -0.3807  0.2425
  268TMC3    C4 4105   1.087   2.918   0.528 -0.4056 -0.4268  0.1179
  268TMC3    C5 4106   1.201   2.940   0.608 -0.6646 -0.3844  0.0727
  268TMC3    C6 4107   1.290   3.041   0.586  0.1543 -0.3659 -0.3989
  268TMC3     C 4108   0.948   2.999   0.338 -0.2892 -0.4974  0.0247
  268TMC3     O 4109   0.958   3.068   0.235  0.9864 -0.8275  0.2571
  268TMC3     H 4110   1.134   3.181   0.324 -1.4092 -1.0645 -1.2983
  268TMC3    H1 4111   1.026   2.834   0.557 -0.6287  0.0782  1.1148
  268TMC3    H2 4112   1.379   3.051   0.646  1.0028 -1.3050 -1.5006
  268TMC3    C7 4113   1.234   2.844   0.710  0.7817  0.6615  0.5445
  268TMC3    C8 4114   1.361   3.220   0.435  0.5270 -0.2276 -0.1609
  268TMC3    O1 4115   1.182   2.737   0.702  0.3633  0.9752  0.7208
  268TMC3    O2 4116   1.440   3.276   0.510 -0.0277 -0.0649 -0.1356
  269MPD2     C 4117   1.140   1.709  15.540  0.2813 -0.0263 -0.0882
  269MPD2    C1 4118   1.033   1.781  15.589  0.0637 -0.1758 -0.1779
  269MPD2    C2 4119   1.017   1.915  15.562 -0.2003  0.0518  0.2783
  269MPD2    C3 4120   1.103   1.974  15.475 -0.6932  0.0831 -0.5445
  269MPD2    C4 4121   1.209   1.905  15.420 -0.8580  0.2448 -0.2359
  269MPD2    C5 4122   1.235   1.774  15.462  0.2884 -0.2823  0.3626
  269MPD2     H 4123   0.939   1.965  15.617  0.7241 -0.6178  2.1855
  269MPD2    H1 4124   1.280   1.951  15.352 -1.0481 -0.6712 -1.0607
  269MPD2    H2 4125   1.158   1.605  15.563 -0.9966  0.0639  1.3661
  269MPD2    H3 4126   1.319   1.721  15.418 -2.3479 -1.0381 -3.6845
  269MPD2     N 4127   1.074   2.108  15.439 -0.5187  0.1410  0.0833
  269MPD2    H5 4128   0.981   2.135  15.468 -0.4394  1.4641 -0.8809
  269MPD2    N1 4129   0.948   1.704  15.673 -0.1894  0.6223 -0.1626
  269MPD2    H7 4130   0.966   1.606  15.690 -2.0938  0.7576  2.6695
  270TMC3    C1 4131   0.792   1.638  15.823  0.1001 -0.2332  0.6138
  270TMC3    C2 4132   0.668   1.592  15.800  1.2726  0.1851 -0.8359
  270TMC3    C3 4133   0.643   1.471  15.846  0.6466  0.2530 -0.3980
  270TMC3    C4 4134   0.891   1.562  15.879 -0.7942 -0.1468  0.1029
  270TMC3    C5 4135   0.857   1.440  15.938  0.5508  0.1329  0.5603
  270TMC3    C6 4136   0.733   1.393  15.919  0.0166  0.3325 -1.0687
  270TMC3     C 4137   0.836   1.742  15.738 -0.0902 -0.0045  0.5138
  270TMC3     O 4138   0.767   1.842  15.729 -0.5560 -0.6832  1.0319
  270TMC3     H 4139   0.594   1.652  15.748 -0.0211 -1.3129 -0.6905
  270TMC3    H1 4140   0.989   1.604  15.898 -0.6715 -0.8166  0.9561
  270TMC3    H2 4141   0.691   1.299  15.954 -0.3106  1.1020  0.6072
  270TMC3    C7 4142   0.959   1.345  15.915  0.4667 -0.2606  0.7103
  270TMC3    C8 4143   0.589   1.378  15.743  0.1967  0.1725  0.3334
  270TMC3    O1 4144   1.073   1.386  15.939 -0.3448  0.2098 -0.3007
  270TMC3    O2 4145   0.651   1.275  15.723  0.6883 -0.0845  0.4278
  271MPD2     C 4146   0.100   1.024  13.921 -0.2711  0.1555 -0.0333
  271MPD2    C1 4147   0.063   1.086  14.038 -0.0005  0.8812 -0.2514
  271MPD2    C2 4148   4.724   1.200  14.024  0.0110 -0.4649  0.2318
  271MPD2    C3 4149   4.702   1.259  13.905 -0.3441 -0.3678  0.3584
  271MPD2    C4 4150   0.002   1.190  13.788 -0.0888  1.1463 -0.1037
  271MPD2    C5 4151   0.070   1.073  13.797 -0.7449 -0.4237 -0.3058
  271MPD2     H 4152   4.705   1.263  14.110  0.3298  0.3532 -0.2904
  271MPD2    H1 4153   4.720   1.233  13.691 -2.7118  4.1500  1.8137
  271MPD2    H2 4154   0.149   0.928  13.911  1.6391  1.2200 -0.8556
  271MPD2    H3 4155   0.109   1.029  13.705  0.3939  0.2588 -0.1568
  271MPD2     N 4156   4.618   1.372  13.882 -0.5187  0.1228  0.2567
  271MPD2    H5 4157   4.601   1.399  13.785  0.3039  1.2469  0.4197
  271MPD2    N1 4158   0.096   1.047  14.170  0.0529 -0.0496 -0.1887
  271MPD2    H7 4159   0.069   1.110  14.245  0.2559  0.8986 -0.9127
  272TMC3    C1 4160   0.245   0.939  14.336  0.0912 -0.1477 -0.3193
  272TMC3    C2 4161   0.369   0.886  14.352 -0.3139  0.1192 -0.5507
  272TMC3    C3 4162   0.419   0.870  14.477  0.8727 -0.4355 -0.4748
  272TMC3    C4 4163   0.184   0.995  14.440  1.1975 -0.1880 -0.2469
  272TMC3    C5 4164   0.233   0.977  14.568  0.1350 -0.6554  0.7641
  272TMC3    C6 4165   0.348   0.905  14.593 -0.2080  0.5994  0.3597
  272TMC3     C 4166   0.190   0.950  14.195  0.1210 -0.0221  0.6255
  272TMC3     O 4167   0.234   0.867  14.116  0.5545 -0.3278 -0.4480
  272TMC3     H 4168   0.417   0.848  14.262 -1.4466 -0.5954 -0.8524
  272TMC3    H1 4169   0.095   1.056  14.429  1.1218  0.2676  2.7924
  272TMC3    H2 4170   0.390   0.892  14.692 -0.0290  0.8828  0.3237
  272TMC3    C7 4171   0.171   1.043  14.679 -0.6175 -0.7985  0.8079
  272TMC3    C8 4172   0.564   0.862  14.488 -0.3005  0.4597  0.4558
  272TMC3    O1 4173   0.048   1.058  14.674 -0.3596 -0.1519  0.3311
  272TMC3    O2 4174   0.618   0.892  14.382 -0.4939 -0.0218 -0.1656
  273MPD2     C 4175   2.625   3.500  12.082  0.4690 -0.2320 -0.4990
  273MPD2    C1 4176   2.636   3.629  12.128  0.7003  0.4269  0.0359
  273MPD2    C2 4177   2.557   3.724  12.056  0.2936  0.1855  0.4107
  273MPD2    C3 4178   2.488   3.695  11.940  0.1053  0.3965  0.0041
  273MPD2    C4 4179   2.490   3.565  11.894 -0.2469  0.3639  0.0592
  273MPD2    C5 4180   2.548   3.468  11.969  0.5085  0.0941 -0.2364
  273MPD2     H 4181   2.538   3.820  12.101  0.7146  0.3289  0.2797
  273MPD2    H1 4182   2.451   3.538  11.796 -1.0849 -1.4312  0.8944
  273MPD2    H2 4183   2.673   3.416  12.130 -0.2691 -0.3770 -0.0214
  273MPD2    H3 4184   2.549   3.363  11.940 -0.7018  0.9528 -3.4109
  273MPD2     N 4185   2.402   3.782  11.861  0.1927 -0.2039  0.6378
  273MPD2    H5 4186   2.362   3.741  11.777  0.2738  0.1070  0.4474
  273MPD2    N1 4187   2.728   3.683  12.220 -0.6758 -0.3934 -0.0700
  273MPD2    H7 4188   2.725   3.782  12.243 -0.6391 -0.4148  0.0282
  274TMC3    C1 4189   2.289   3.980  11.795  0.4268  0.2610  0.6684
  274TMC3    C2 4190   2.209   3.906  11.718 -0.3033 -0.5198  0.3695
  274TMC3    C3 4191   2.161   3.982  11.609 -0.5945  0.0990  0.5537
  274TMC3    C4 4192   2.321   4.112  11.782 -0.1176  0.3089 -0.0511
  274TMC3    C5 4193   2.261   4.178  11.680  0.2710 -0.1650 -0.2938
  274TMC3    C6 4194   2.185   4.116  11.587  0.4876 -0.4262 -0.1053
  274TMC3     C 4195   2.363   3.912  11.896  0.0102 -0.3070 -0.5289
  274TMC3     O 4196   2.392   3.974  11.994 -0.4123  0.0639  0.3715
  274TMC3     H 4197   2.166   3.812  11.751 -1.9406  0.2043  0.3062
  274TMC3    H1 4198   2.368   4.166  11.864 -2.9428  1.1564  1.0422
  274TMC3    H2 4199   2.133   4.173  11.512 -1.4873  1.1750  2.4650
  274TMC3    C7 4200   2.211   4.301  11.722  0.0013 -0.5769 -0.6594
  274TMC3    C8 4201   2.058   3.915  11.531  0.4190 -0.1098 -0.1088
  274TMC3    O1 4202   2.090   4.308  11.734  0.1955  0.3075  0.1436
  274TMC3    O2 4203   1.979   3.844  11.591  0.2564  0.6961 -0.0591
  275MPD2     C 4204   1.825   1.957  14.655  0.1476  0.5092  1.3035
  275MPD2    C1 4205   1.729   2.053  14.648  0.4568 -0.1502 -0.0870
  275MPD2    C2 4206   1.594   2.021  14.646  0.4388 -0.3160  0.6316
  275MPD2    C3 4207   1.545   1.892  14.637 -0.6250  0.2300 -0.5599
  275MPD2    C4 4208   1.640   1.794  14.640 -0.6370  0.0426  0.7353
  275MPD2    C5 4209   1.777   1.824  14.644  0.5711  0.1233  0.6079
  275MPD2     H 4210   1.528   2.107  14.654  2.7044  1.5745 -1.4742
  275MPD2    H1 4211   1.615   1.689  14.650 -0.9022 -0.1116 -1.5522
  275MPD2    H2 4212   1.933   1.964  14.662  0.1318  0.4336  1.6007
  275MPD2    H3 4213   1.844   1.740  14.654  1.4064  0.8588  1.1534
  275MPD2     N 4214   1.407   1.861  14.655  0.5702 -0.3142  0.5384
  275MPD2    H5 4215   1.383   1.762  14.660 -1.2748  0.1219  0.4503
  275MPD2    N1 4216   1.747   2.189  14.676  0.1279  1.2469 -0.5270
  275MPD2    H7 4217   1.663   2.246  14.668 -1.5681 -1.1671  0.4275
  276TMC3    C1 4218   1.814   2.362  14.820 -0.3463  0.6269 -0.3245
  276TMC3    C2 4219   1.684   2.365  14.870  0.1583  0.4614  0.2695
  276TMC3    C3 4220   1.664   2.407  15.000  0.2543 -0.2885 -0.2999
  276TMC3    C4 4221   1.917   2.404  14.901 -0.1891  0.4226 -0.1863
  276TMC3    C5 4222   1.888   2.438  15.031 -0.0774 -0.2674 -0.2638
  276TMC3    C6 4223   1.767   2.430  15.085 -0.0041 -0.9495 -0.4972
  276TMC3     C 4224   1.850   2.245  14.745 -0.0587  0.1721 -0.6712
  276TMC3     O 4225   1.959   2.209  14.774  0.8190  0.6415 -0.3697
  276TMC3     H 4226   1.600   2.334  14.809  0.1042  1.9929 -0.4358
  276TMC3    H1 4227   2.021   2.399  14.873  0.1204  1.8674  0.7030
  276TMC3    H2 4228   1.749   2.425  15.192 -4.2564 -0.7077 -1.1719
  276TMC3    C7 4229   1.997   2.511  15.102 -0.1710 -0.4959 -0.6166
  276TMC3    C8 4230   1.554   2.326  15.056  0.3112  0.1348 -0.1486
  276TMC3    O1 4231   2.008   2.496  15.223  0.5413 -0.3425 -0.3599
  276TMC3    O2 4232   1.452   2.377  15.100 -0.3421 -0.1545  0.2955
  277MPD2     C 4233   3.629   1.448  13.309  0.3182  0.0810  0.5727
  277MPD2    C1 4234   3.494   1.478  13.305  0.4491 -0.5705 -0.4222
  277MPD2    C2 4235   3.424   1.450  13.419  0.1073  0.1663  0.4409
  277MPD2    C3 4236   3.476   1.379  13.522 -0.4361 -0.4412  0.1780
  277MPD2    C4 4237   3.606   1.334  13.510  0.8987 -0.5812 -0.1410
  277MPD2    C5 4238   3.681   1.374  13.404 -0.2273 -0.2801  0.5053
  277MPD2     H 4239   3.324   1.490  13.435 -0.0365  0.3820 -0.9491
  277MPD2    H1 4240   3.658   1.278  13.586 -1.0589 -0.9685  0.9195
  277MPD2    H2 4241   3.682   1.479  13.219  2.3106  0.9767  2.0487
  277MPD2    H3 4242   3.787   1.359  13.387 -0.3314  0.7898 -1.0260
  277MPD2     N 4243   3.391   1.351  13.629  0.0721 -0.1664  0.0642
  277MPD2    H5 4244   3.305   1.405  13.629 -0.4170 -0.9481  0.3065
  277MPD2    N1 4245   3.431   1.550  13.204  0.1976  0.6604 -0.4318
  277MPD2    H7 4246   3.497   1.592  13.139  1.1453  0.9401  0.7044
  278TMC3    C1 4247   3.269   1.204  13.768  0.7851  0.0718  0.8540
  278TMC3    C2 4248   3.270   1.097  13.850  0.2103  0.2215 -0.0190
  278TMC3    C3 4249   3.146   1.056  13.908  0.6846 -0.3597  0.4327
  278TMC3    C4 4250   3.157   1.257  13.720 -0.3322 -0.8243  0.9749
  278TMC3    C5 4251   3.040   1.211  13.775 -0.1666  0.4134 -0.0976
  278TMC3    C6 4252   3.031   1.113  13.866 -0.1439  0.2131 -0.9287
  278TMC3     C 4253   3.398   1.240  13.710 -0.0032  0.1641 -0.0814
  278TMC3     O 4254   3.483   1.157  13.718 -0.2452 -0.4928  0.2736
  278TMC3     H 4255   3.361   1.048  13.881 -0.1803 -0.0938  0.6278
  278TMC3    H1 4256   3.144   1.326  13.637  0.1225 -0.6050  1.0878
  278TMC3    H2 4257   2.935   1.095  13.913  0.0384  1.4562 -0.0646
  278TMC3    C7 4258   2.927   1.293  13.749  0.3883  1.2061 -0.3733
  278TMC3    C8 4259   3.135   0.923  13.971 -0.2819  0.3208 -0.2551
  278TMC3    O1 4260   2.946   1.412  13.738  0.0128 -0.2593 -0.0053
  278TMC3    O2 4261   3.206   0.894  14.068 -0.3263 -0.0832  0.4367
  279MPD2     C 4262   2.444   0.492   0.134  0.3911  0.4809  0.3591
  279MPD2    C1 4263   2.451   0.616   0.089  0.4680  0.0751 -0.5715
  279MPD2    C2 4264   2.497   0.652  17.723  0.1262  0.0930 -0.1039
  279MPD2    C3 4265   2.543   0.551  17.638  0.0971  1.0044  0.1429
  279MPD2    C4 4266   2.526   0.419  17.680  0.6550 -0.2294 -0.6354
  279MPD2    C5 4267   2.492   0.391   0.054  0.5977  0.4738  0.5974
  279MPD2     H 4268   2.506   0.754  17.688  0.1229  0.7530  1.8399
  279MPD2    H1 4269   2.567   0.331  17.633 -1.5341 -1.0456 -0.9821
  279MPD2    H2 4270   2.429   0.469   0.239  0.8418  0.2107  0.3618
  279MPD2    H3 4271   2.504   0.292   0.095 -1.5812  0.4765  1.2489
  279MPD2     N 4272   2.621   0.579  17.524  0.3648 -0.7438 -0.2034
  279MPD2    H5 4273   2.641   0.500  17.464  2.9569 -0.3192  0.0981
  279MPD2    N1 4274   2.428   0.721   0.179 -0.3627 -0.3570  0.6074
  279MPD2    H7 4275   2.417   0.696   0.277  1.3028 -2.0469  0.3750
  280TMC3    C1 4276   2.458   0.937   0.266 -0.0613  0.3623 -0.1643
  280TMC3    C2 4277   2.569   0.885   0.327 -0.5345  0.2967  0.2919
  280TMC3    C3 4278   2.634   0.966   0.411 -0.9598 -0.1658 -0.3460
  280TMC3    C4 4279   2.413   1.067   0.283  0.2913  0.2996  0.0273
  280TMC3    C5 4280   2.481   1.145   0.372 -0.1327 -0.2295  0.3277
  280TMC3    C6 4281   2.592   1.094   0.447 -0.0081  0.3925  0.4417
  280TMC3     C 4282   2.424   0.856   0.148  0.7950 -0.6018  0.5087
  280TMC3     O 4283   2.364   0.912   0.060 -0.5949  0.0761 -0.2151
  280TMC3     H 4284   2.612   0.791   0.294 -0.5589  0.2980  0.2565
  280TMC3    H1 4285   2.321   1.110   0.243 -0.4516 -2.0885 -0.8355
  280TMC3    H2 4286   2.654   1.149   0.517 -1.4827  1.5889  0.8121
  280TMC3    C7 4287   2.416   1.258   0.445  0.6521  0.5881  0.4767
  280TMC3    C8 4288   2.751   0.913   0.480 -0.3852  0.1616  0.1887
  280TMC3    O1 4289   2.446   1.278   0.563  0.2372 -0.1160 -0.1235
  280TMC3    O2 4290   2.768   0.952   0.591 -0.2918 -0.4095 -0.0473
  281TMC3    C1 4291   1.344   1.527  13.363 -0.5231  0.4947  0.4716
  281TMC3    C2 4292   1.453   1.581  13.301  0.0174  0.3536 -0.0477
  281TMC3    C3 4293   1.547   1.495  13.235  0.2708 -0.3943  0.6053
  281TMC3    C4 4294   1.326   1.388  13.362 -0.0653  1.0327 -0.1720
  281TMC3    C5 4295   1.418   1.304  13.305  0.0774 -0.3268 -0.4978
  281TMC3    C6 4296   1.524   1.356  13.237 -0.6037 -0.1008 -0.0957
  281TMC3     C 4297   1.225   1.608  13.372  0.3172  0.5494  0.1427
  281TMC3     O 4298   1.115   1.562  13.412  0.3828 -0.2344  0.1639
  281TMC3     H 4299   1.472   1.688  13.308 -2.6155  0.7351  1.0903
  281TMC3    H1 4300   1.238   1.362  13.419  0.6583  0.4667  0.6889
  281TMC3    H2 4301   1.590   1.294  13.178  0.6533  0.8695  0.2914
  281TMC3    C7 4302   1.391   1.162  13.278 -0.0379  0.7188 -0.0347
  281TMC3    C8 4303   1.654   1.544  13.150 -0.8621 -1.4065 -0.0854
  281TMC3    O1 4304   1.466   1.095  13.207  0.5312  0.3547  0.2636
  281TMC3    O2 4305   1.757   1.475  13.161 -0.0925 -0.1536  0.5629
  282MPD2     C 4306   3.357   2.794  15.058  0.0975  0.4876 -0.1337
  282MPD2    C1 4307   3.224   2.833  15.092 -0.0245 -0.3113 -0.3062
  282MPD2    C2 4308   3.133   2.827  14.990 -0.3933  0.2097 -0.1065
  282MPD2    C3 4309   3.168   2.798  14.857 -0.8642  0.1785  0.4578
  282MPD2    C4 4310   3.301   2.773  14.824 -0.7679  0.4341  0.4509
  282MPD2    C5 4311   3.388   2.761  14.930 -0.0337 -0.6528 -0.1061
  282MPD2     H 4312   3.033   2.854  15.021 -0.4000  0.0658 -0.0045
  282MPD2    H1 4313   3.330   2.743  14.724 -3.1886  1.9677 -0.6995
  282MPD2    H2 4314   3.433   2.777  15.134  0.8499  1.8813 -0.5553
  282MPD2    H3 4315   3.490   2.729  14.912  0.5034  1.0027  0.0050
  282MPD2     N 4316   3.070   2.779  14.761  0.3910  0.7851  0.5073
  282MPD2    H5 4317   2.974   2.791  14.793 -0.4914 -1.8001 -1.1069
  282MPD2    N1 4318   3.186   2.869  15.221  0.0967 -0.6564 -0.2158
  282MPD2    H7 4319   3.086   2.880  15.237  0.5478  1.5142  1.1595
  283TMC3    C1 4320   3.200   2.935  15.441  1.1636  0.2107 -0.1418
  283TMC3    C2 4321   3.221   3.067  15.474  0.3896  0.0963  0.0183
  283TMC3    C3 4322   3.133   3.127  15.560 -0.6954 -0.0278  0.8575
  283TMC3    C4 4323   3.098   2.864  15.489 -0.6640  0.1706  0.3244
  283TMC3    C5 4324   3.004   2.933  15.566  0.3819  0.7325 -0.0935
  283TMC3    C6 4325   3.034   3.054  15.613 -0.0437  0.1967 -0.1612
  283TMC3     C 4326   3.273   2.891  15.330  0.2806 -0.1881  0.2930
  283TMC3     O 4327   3.394   2.898  15.342  0.2735  0.0954  0.5830
  283TMC3     H 4328   3.289   3.135  15.423  1.0150 -0.0878  0.6136
  283TMC3    H1 4329   3.085   2.760  15.460 -0.1789  0.0196  0.6374
  283TMC3    H2 4330   2.963   3.095  15.684  2.1866 -0.4845  2.4655
  283TMC3    C7 4331   2.887   2.854  15.614  0.0685 -0.3459  0.5714
  283TMC3    C8 4332   3.114   3.268  15.526  0.9524  0.4702 -0.0779
  283TMC3    O1 4333   2.835   2.901  15.719 -0.3105 -0.5339 -0.3000
  283TMC3    O2 4334   3.152   3.313  15.419  0.1460 -0.1726 -0.7750
  284MPD2     C 4335   1.041   2.034  12.096 -0.3452  0.5348 -0.1708
  284MPD2    C1 4336   1.153   2.007  12.019 -0.3701  0.5898 -0.4452
  284MPD2    C2 4337   1.271   1.977  12.079  0.0512 -0.0255 -0.7237
  284MPD2    C3 4338   1.286   1.977  12.215 -0.3353 -0.6800  0.2702
  284MPD2    C4 4339   1.174   2.019  12.298 -0.4234  0.4553 -0.0022
  284MPD2    C5 4340   1.056   2.053  12.233 -0.4013  0.0853 -0.1067
  284MPD2     H 4341   1.359   1.954  12.019  0.3355 -5.1499  1.6229
  284MPD2    H1 4342   1.177   2.020  12.407 -1.2244  1.1403  0.0175
  284MPD2    H2 4343   0.941   2.051  12.058  0.3111  2.1182 -1.1832
  284MPD2    H3 4344   0.973   2.074  12.299  1.0138  4.2351  0.3066
  284MPD2     N 4345   1.413   1.928  12.273  0.0963 -0.3397  0.2830
  284MPD2    H5 4346   1.492   1.898  12.217 -0.9726 -1.2637 -0.7342
  284MPD2    N1 4347   1.151   1.996  11.878 -0.3795  0.0555  0.3828
  284MPD2    H7 4348   1.234   1.954  11.836 -1.8131 -0.7403 -1.6495
  285TMC3    C1 4349   1.079   2.037  11.651 -0.1165 -0.0992 -0.0782
  285TMC3    C2 4350   1.154   1.924  11.608  0.1594 -0.8716  0.1656
  285TMC3    C3 4351   1.200   1.936  11.482 -0.2307 -0.1200  0.1120
  285TMC3    C4 4352   1.069   2.151  11.574 -0.1197 -0.3925  0.1759
  285TMC3    C5 4353   1.148   2.160  11.455  0.5102 -0.1403  1.0895
  285TMC3    C6 4354   1.200   2.044  11.404  0.5177 -0.2392 -0.0092
  285TMC3     C 4355   1.050   2.050  11.788 -0.1168  0.4261  0.1148
  285TMC3     O 4356   0.956   2.122  11.817 -0.1661  0.2012 -0.0423
  285TMC3     H 4357   1.168   1.837  11.672  0.0987 -0.8173  0.2531
  285TMC3    H1 4358   1.023   2.238  11.619 -0.2843 -1.1910  1.5526
  285TMC3    H2 4359   1.261   2.048  11.314  2.8037  1.0509  1.5870
  285TMC3    C7 4360   1.208   2.283  11.408 -0.3784 -0.1058  0.3394
  285TMC3    C8 4361   1.304   1.841  11.455  0.5832 -0.6495 -0.2286
  285TMC3    O1 4362   1.293   2.280  11.324  0.2900 -0.1960  0.2933
  285TMC3    O2 4363   1.281   1.731  11.500  0.4276 -0.5860  0.2390
  286MPD2     C 4364   2.139   0.955   0.929  0.6808  0.3530  0.1695
  286MPD2    C1 4365   2.042   0.908   0.853  0.8419  0.2802  0.1748
  286MPD2    C2 4366   2.045   0.774   0.829 -0.7952 -0.4573  0.8917
  286MPD2    C3 4367   2.145   0.688   0.877  0.6236  0.1769  0.5078
  286MPD2    C4 4368   2.247   0.740   0.951  0.6275  0.1999 -0.0781
  286MPD2    C5 4369   2.234   0.870   0.981 -0.1206  0.1429 -0.5147
  286MPD2     H 4370   1.963   0.726   0.776 -0.4870  1.2076 -1.1001
  286MPD2    H1 4371   2.327   0.676   0.988  0.5063  0.0635 -0.0511
  286MPD2    H2 4372   2.145   1.060   0.954 -0.8143  0.7102 -1.0177
  286MPD2    H3 4373   2.310   0.927   1.033 -0.7595  0.8972 -0.4086
  286MPD2     N 4374   2.133   0.549   0.858  0.1632 -0.7588  0.5043
  286MPD2    H5 4375   2.201   0.484   0.898  0.1054 -1.1784 -0.0756
  286MPD2    N1 4376   1.942   0.987   0.804 -0.4670 -0.0512 -0.5295
  286MPD2    H7 4377   1.873   0.942   0.745 -0.7213  0.8188 -0.8947
  287TMC3    C1 4378   2.064   0.352   0.772  0.5697  0.1870 -0.3514
  287TMC3    C2 4379   2.041   0.271   0.665 -0.1201 -0.1648  0.8840
  287TMC3    C3 4380   2.058   0.137   0.682 -0.6073  0.5748 -0.4808
  287TMC3    C4 4381   2.112   0.295   0.889  0.5410  0.5266  0.0565
  287TMC3    C5 4382   2.133   0.158   0.900  0.0006 -0.2426 -0.4529
  287TMC3    C6 4383   2.119   0.080   0.790 -0.3081  0.2529  0.5339
  287TMC3     C 4384   2.052   0.493   0.763 -0.4650 -0.2465  0.4916
  287TMC3     O 4385   1.992   0.542   0.666 -0.6181  0.0241 -0.8223
  287TMC3     H 4386   1.992   0.318   0.581 -1.6795 -1.3559  1.1315
  287TMC3    H1 4387   2.153   0.349   0.973 -0.9011 -0.9685  1.7300
  287TMC3    H2 4388   2.122   4.712   0.801 -0.4713  0.2085  0.1127
  287TMC3    C7 4389   2.219   0.099   1.002  0.1782 -0.3066  0.4113
  287TMC3    C8 4390   2.019   0.059   0.569 -0.3037 -0.4341  0.0465
  287TMC3    O1 4391   2.277   4.735   0.965 -0.1668  0.1170  0.1171
  287TMC3    O2 4392   2.062   4.683   0.564 -0.4621 -0.1747 -0.2887
  288TMC3    C1 4393   3.695   0.896  14.417  0.3972 -0.2142  0.7704
  288TMC3    C2 4394   3.587   0.900  14.494 -0.2176  0.0864  0.2609
  288TMC3    C3 4395   3.495   1.001  14.487 -0.1628 -0.1046 -0.2544
  288TMC3    C4 4396   3.728   0.991  14.324  0.1953  0.5246 -0.3219
  288TMC3    C5 4397   3.625   1.084  14.315 -0.2521 -0.1230 -0.4779
  288TMC3    C6 4398   3.510   1.097  14.394  0.0612 -0.0734 -0.4533
  288TMC3     C 4399   3.796   0.806  14.462  0.2285  0.7702  0.2941
  288TMC3     O 4400   3.794   0.766  14.576 -0.3609  0.2608 -0.1668
  288TMC3     H 4401   3.570   0.829  14.574 -1.1286  0.1457  0.1233
  288TMC3    H1 4402   3.816   0.993  14.260  0.9807 -1.6221  0.6516
  288TMC3    H2 4403   3.438   1.179  14.390 -0.1932 -0.3152 -0.7861
  288TMC3    C7 4404   3.640   1.185  14.211 -0.0391  1.2215 -0.0784
  288TMC3    C8 4405   3.420   1.030  14.606 -0.0707  0.0129  0.1423
  288TMC3    O1 4406   3.594   1.293  14.247 -0.1936  0.1363 -0.1226
  288TMC3    O2 4407   3.431   1.143  14.651  0.1876 -0.1435 -0.5538
  289MPD2     C 4408   3.302   4.533  14.459 -0.1617 -0.2828 -0.0046
  289MPD2    C1 4409   3.282   4.660  14.410 -0.0311  0.9689 -0.1204
  289MPD2    C2 4410   3.173   4.686  14.337  0.1343  0.1467  0.1641
  289MPD2    C3 4411   3.076   4.589  14.309  0.6686 -0.0265  0.1542
  289MPD2    C4 4412   3.086   4.463  14.369 -0.7504 -0.6437  0.5483
  289MPD2    C5 4413   3.197   4.441  14.447 -0.1878 -0.1325  0.5898
  289MPD2     H 4414   3.149   0.050  14.316 -0.1314 -0.0569 -0.5489
  289MPD2    H1 4415   3.010   4.387  14.359  0.2049 -1.8975  3.1362
  289MPD2    H2 4416   3.393   4.516  14.514  0.3028  0.4085 -0.5536
  289MPD2    H3 4417   3.201   4.349  14.503 -0.2843 -0.5860 -0.1415
  289MPD2     N 4418   2.965   4.611  14.227 -0.9148 -0.7401 -0.2788
  289MPD2    H5 4419   2.897   4.536  14.223 -2.4609  0.6709 -0.4370
  289MPD2    N1 4420   3.386   0.019  14.439 -0.3011  0.0494 -0.0681
  289MPD2    H7 4421   3.462   4.722  14.495 -0.6205  0.1815  0.4537
  290TMC3    C1 4422   2.809   0.009  14.092 -0.9937  0.6352 -0.3464
  290TMC3    C2 4423   2.778   0.134  14.056  0.0459 -0.3754  0.2663
  290TMC3    C3 4424   2.658   0.150  13.988 -0.2354  0.5924 -0.9722
  290TMC3    C4 4425   2.715   4.646  14.083  0.2213 -0.4406 -0.0639
  290TMC3    C5 4426   2.592   4.666  14.023 -0.5395 -0.0211 -0.0438
  290TMC3    C6 4427   2.570   0.049  13.970 -0.6944  0.1616 -0.3646
  290TMC3     C 4428   2.940   4.730  14.159  0.2831 -0.1854 -0.5316
  290TMC3     O 4429   3.014   0.085  14.146 -0.0437  0.1446 -0.5920
  290TMC3     H 4430   2.852   0.212  14.069 -0.3696 -0.3067  2.2275
  290TMC3    H1 4431   2.740   4.544  14.110  2.0585 -0.1062 -0.4611
  290TMC3    H2 4432   2.484   0.075  13.909 -0.7186 -0.4299 -0.5796
  290TMC3    C7 4433   2.501   4.565  13.976 -0.8918 -0.8058 -0.0376
  290TMC3    C8 4434   2.610   0.284  13.967 -0.3967  0.4986  0.1312
  290TMC3    O1 4435   2.426   4.587  13.876 -0.4871 -0.5471  0.1143
  290TMC3    O2 4436   2.519   0.292  13.886  0.4581  0.1025  0.3840
  291MPD2     C 4437   3.072   4.521   0.495 -0.2282  0.0551 -0.5375
  291MPD2    C1 4438   3.149   4.406   0.501  0.2396 -0.4975  0.2529
  291MPD2    C2 4439   3.286   4.408   0.476 -0.0252  0.0332  0.0717
  291MPD2    C3 4440   3.346   4.529   0.449 -0.7167  0.6220  0.3644
  291MPD2    C4 4441   3.269   4.646   0.450 -0.3808  0.3677  0.2174
  291MPD2    C5 4442   3.132   4.641   0.473 -0.5340 -0.0444 -1.5516
  291MPD2     H 4443   3.345   4.317   0.474 -1.3811 -0.8251 -1.1335
  291MPD2    H1 4444   3.307   0.004   0.425  0.5474 -0.0785 -0.1173
  291MPD2    H2 4445   2.965   4.505   0.502  0.2356 -3.0289 -0.4638
  291MPD2    H3 4446   3.077   4.735   0.469  1.0322  0.9596  0.3484
  291MPD2     N 4447   3.486   4.543   0.430  0.2785  0.0682  0.5560
  291MPD2    H5 4448   3.525   4.634   0.410 -0.5167 -0.4676 -3.3487
  291MPD2    N1 4449   3.100   4.277   0.528  0.4070  0.1285  0.8527
  291MPD2    H7 4450   3.158   4.195   0.517 -0.1172  0.2324 -2.5466
  292TMC3    C1 4451   2.957   4.102   0.591  0.4677 -0.5104 -0.2283
  292TMC3    C2 4452   3.057   4.070   0.682 -0.2733  0.1890 -0.5024
  292TMC3    C3 4453   3.126   3.959   0.662 -0.2934 -0.2460  0.3032
  292TMC3    C4 4454   2.938   4.034   0.472  0.4085 -1.0153 -1.2550
  292TMC3    C5 4455   3.017   3.923   0.454 -0.2042 -1.0170  0.0186
  292TMC3    C6 4456   3.113   3.891   0.546 -0.1594 -0.7018  0.7673
  292TMC3     C 4457   2.966   4.243   0.557 -0.6262  0.3284 -0.1106
  292TMC3     O 4458   2.867   4.313   0.553 -0.4563  0.5878 -0.4109
  292TMC3     H 4459   3.081   4.138   0.763  0.0787  0.3933 -0.7763
  292TMC3    H1 4460   2.875   4.085   0.400 -1.1043 -0.3708  0.5319
  292TMC3    H2 4461   3.162   3.795   0.533 -1.3739 -1.2648  0.3132
  292TMC3    C7 4462   2.985   3.812   0.365  0.2403  0.0327 -0.4226
  292TMC3    C8 4463   3.198   3.915   0.773  0.1952 -0.3577 -0.6469
  292TMC3    O1 4464   3.062   3.730   0.322  0.0795 -0.0342 -0.7452
  292TMC3    O2 4465   3.292   3.841   0.745  0.1785  0.2397 -0.3774
  293MPD2     C 4466   4.478   0.767  12.614 -0.4302 -0.3013  0.1462
  293MPD2    C1 4467   4.396   0.717  12.716  0.6597 -0.3275 -0.2656
  293MPD2    C2 4468   4.438   0.726  12.848 -1.0724  0.6530 -0.1429
  293MPD2    C3 4469   4.556   0.791  12.871  0.5990 -0.2286 -0.7916
  293MPD2    C4 4470   4.643   0.826  12.773 -0.3028 -0.2906  0.6318
  293MPD2    C5 4471   4.604   0.808  12.642 -0.4106 -0.8428 -0.1474
  293MPD2     H 4472   4.379   0.686  12.930  0.0139  1.3422  0.9656
  293MPD2    H1 4473   0.001   0.870  12.792 -1.3665  1.8328  1.2021
  293MPD2    H2 4474   4.462   0.746  12.509 -1.5771 -0.0170  0.2600
  293MPD2    H3 4475   4.675   0.820  12.561 -0.8649 -1.2708 -0.6074
  293MPD2     N 4476   4.600   0.816  12.997 -0.1367  0.7489 -0.0520
  293MPD2    H5 4477   4.686   0.870  13.002  0.1292  0.5156 -1.8821
  293MPD2    N1 4478   4.272   0.653  12.678 -0.4916 -0.4379 -0.3167
  293MPD2    H7 4479   4.254   0.626  12.582 -1.0559 -1.4816  0.0760
  294TMC3    C1 4480   4.112   0.483  12.719  0.2670  0.0260  0.1102
  294TMC3    C2 4481   4.002   0.444  12.796  0.4786 -0.7777  0.0615
  294TMC3    C3 4482   3.938   0.328  12.751 -0.5203  0.9505  0.1498
  294TMC3    C4 4483   4.163   0.408  12.618  0.1872 -0.5867  0.1995
  294TMC3    C5 4484   4.086   0.298  12.587  0.1899  0.4624  0.1836
  294TMC3    C6 4485   3.973   0.259  12.647 -0.5994 -0.3862  0.9017
  294TMC3     C 4486   4.183   0.601  12.763 -0.1477  0.0313  0.9643
  294TMC3     O 4487   4.164   0.629  12.880 -0.6319 -0.1234  0.1578
  294TMC3     H 4488   3.950   0.513  12.861 -0.8511  0.6052 -2.4482
  294TMC3    H1 4489   4.254   0.428  12.563 -1.0987  2.1090 -0.9315
  294TMC3    H2 4490   3.941   0.158  12.624 -1.8691  0.1022  0.4761
  294TMC3    C7 4491   4.064   0.264  12.443 -0.5779 -0.4548 -0.3396
  294TMC3    C8 4492   3.798   0.312  12.757 -0.0713  0.2124  0.2474
  294TMC3    O1 4493   3.949   0.237  12.414  0.0056  0.1296 -0.4004
  294TMC3    O2 4494   3.733   0.307  12.862  0.0879 -1.1225 -0.3014
  295MPD2     C 4495   1.137   4.579   0.748 -0.2441  0.1238  0.0572
  295MPD2    C1 4496   1.032   4.503   0.705  0.4370  0.4649 -0.1064
  295MPD2    C2 4497   1.023   4.375   0.767 -0.5266 -0.6365  0.2493
  295MPD2    C3 4498   1.107   4.346   0.872 -0.5802  0.2164  0.8208
  295MPD2    C4 4499   1.205   4.430   0.907  1.0191 -0.8488 -0.4113
  295MPD2    C5 4500   1.229   4.548   0.843  0.5186  0.4801  0.1607
  295MPD2     H 4501   0.953   4.306   0.722 -0.2310 -0.9650  0.2969
  295MPD2    H1 4502   1.268   4.405   0.992 -1.5317 -2.2531  1.0497
  295MPD2    H2 4503   1.157   4.673   0.700  0.3400  0.2341  0.5089
  295MPD2    H3 4504   1.308   4.613   0.879  2.3069  0.0404 -2.9587
  295MPD2     N 4505   1.085   4.226   0.948 -0.0179  0.0130 -0.7677
  295MPD2    H5 4506   1.146   4.184   1.018  1.3181  0.5483 -1.6136
  295MPD2    N1 4507   0.932   4.533   0.615 -0.3026 -0.2631 -0.1910
  295MPD2    H7 4508   0.869   4.454   0.603 -0.8231 -0.0185  0.8811
  296TMC3    C1 4509   0.969   4.018   0.997  0.1119 -0.2657  0.0789
  296TMC3    C2 4510   1.031   4.011   1.119  0.1030  0.1714  0.3609
  296TMC3    C3 4511   1.005   3.897   1.191  0.1125 -0.0834  0.3162
  296TMC3    C4 4512   0.886   3.922   0.947 -0.2816 -0.1027  0.0275
  296TMC3    C5 4513   0.860   3.812   1.025 -0.1071 -0.4588 -0.1605
  296TMC3    C6 4514   0.916   3.802   1.152 -0.6182  0.2685  0.1287
  296TMC3     C 4515   0.968   4.149   0.926 -0.0732  0.2796  0.4314
  296TMC3     O 4516   0.860   4.177   0.879 -0.8337  0.6901  0.3302
  296TMC3     H 4517   1.106   4.084   1.148  0.9451 -0.1346 -1.0080
  296TMC3    H1 4518   0.839   3.925   0.850 -1.0623  0.5763  0.4233
  296TMC3    H2 4519   0.899   3.714   1.214  1.6914 -1.0502 -1.1258
  296TMC3    C7 4520   0.817   3.690   0.955 -0.8498  0.4100  0.8524
  296TMC3    C8 4521   1.089   3.856   1.293 -0.0356 -0.5196 -0.2464
  296TMC3    O1 4522   0.826   3.689   0.834  0.3629  0.1135 -0.5432
  296TMC3    O2 4523   1.084   3.738   1.327 -0.7500  0.1287 -0.5023
  297MPD2     C 4524   2.096   1.596  16.528 -0.3872  0.1611  0.6533
  297MPD2    C1 4525   2.105   1.607  16.391 -0.1856  0.0759  0.2997
  297MPD2    C2 4526   2.223   1.645  16.338 -0.3451  0.0848  0.3186
  297MPD2    C3 4527   2.341   1.668  16.420 -0.9951 -0.4423 -0.6001
  297MPD2    C4 4528   2.324   1.640  16.554  0.0141 -0.3190 -0.2072
  297MPD2    C5 4529   2.205   1.610  16.607 -0.4870  0.3094  0.3226
  297MPD2     H 4530   2.226   1.661  16.231  1.1384  0.6446  0.4390
  297MPD2    H1 4531   2.414   1.645  16.613 -0.2208  1.3925  0.0068
  297MPD2    H2 4532   2.000   1.578  16.577  0.8365 -0.4927  2.8038
  297MPD2    H3 4533   2.187   1.603  16.713 -2.5927 -1.2748 -0.1200
  297MPD2     N 4534   2.470   1.714  16.367 -0.4192 -0.4895  0.8695
  297MPD2    H5 4535   2.535   1.731  16.443  1.1450 -2.7620  0.0187
  297MPD2    N1 4536   1.981   1.602  16.321  0.0709  0.0323 -0.1973
  297MPD2    H7 4537   1.903   1.550  16.361 -1.3227  0.5118 -2.2821
  298TMC3    C1 4538   1.826   1.620  16.146  0.5797 -0.0391 -0.4586
  298TMC3    C2 4539   1.816   1.639  16.015  0.2660  0.2747  0.6617
  298TMC3    C3 4540   1.708   1.702  15.967 -0.1755  0.2068  0.6796
  298TMC3    C4 4541   1.726   1.669  16.228 -0.4724 -0.0827 -0.3043
  298TMC3    C5 4542   1.615   1.729  16.178  0.4852  0.2502  0.2482
  298TMC3    C6 4543   1.601   1.740  16.042 -0.3806 -0.7567  0.0843
  298TMC3     C 4544   1.961   1.633  16.191 -1.0518 -0.7541  0.1337
  298TMC3     O 4545   2.039   1.681  16.109 -0.1447  0.4634  0.1276
  298TMC3     H 4546   1.894   1.615  15.944 -0.5783 -1.8814  0.4863
  298TMC3    H1 4547   1.736   1.676  16.336 -1.6281 -0.6950 -0.1522
  298TMC3    H2 4548   1.515   1.778  15.990 -0.2142 -0.0521  0.3317
  298TMC3    C7 4549   1.540   1.823  16.262 -0.3732 -0.9507 -1.0219
  298TMC3    C8 4550   1.702   1.705  15.821  0.0531 -1.0817 -0.0171
  298TMC3    O1 4551   1.558   1.817  16.385 -0.4085 -0.3920 -0.1434
  298TMC3    O2 4552   1.752   1.616  15.753 -0.0400 -0.0312  0.3029
  299MPD2     C 4553   3.150   1.620  10.486  0.7535 -0.6713 -0.4530
  299MPD2    C1 4554   3.092   1.565  10.597 -0.4492  0.7198  0.5981
  299MPD2    C2 4555   2.966   1.503  10.594  0.4377  0.6001  0.0700
  299MPD2    C3 4556   2.898   1.498  10.484 -0.2328  0.6655 -0.0275
  299MPD2    C4 4557   2.957   1.547  10.372  0.1145 -0.2618  0.0181
  299MPD2    C5 4558   3.078   1.608  10.377  0.6914 -0.3220  0.1231
  299MPD2     H 4559   2.924   1.474  10.690  0.7974  0.9493  0.3295
  299MPD2    H1 4560   2.901   1.542  10.279 -3.1767  1.3198  1.9217
  299MPD2    H2 4561   3.250   1.664  10.484  0.1834  0.7004  1.0512
  299MPD2    H3 4562   3.109   1.655  10.285 -2.0344  1.6277  0.2037
  299MPD2     N 4563   2.773   1.427  10.468  0.0370 -0.4788  0.6264
  299MPD2    H5 4564   2.719   1.426  10.381 -0.3368  2.1691  0.8160
  299MPD2    N1 4565   3.159   1.597  10.716  0.3868 -0.3757 -0.0931
  299MPD2    H7 4566   3.247   1.646  10.702 -0.3000  1.3778  1.6880
  300TMC3    C1 4567   2.580   1.298  10.537  0.0526  0.7028 -0.5115
  300TMC3    C2 4568   2.498   1.364  10.450 -0.3077  0.4907 -0.1410
  300TMC3    C3 4569   2.374   1.311  10.431 -0.1957 -0.3766  0.1105
  300TMC3    C4 4570   2.544   1.179  10.597  0.6070 -0.0900 -0.0542
  300TMC3    C5 4571   2.418   1.140  10.587  0.0861  0.1057  0.1686
  300TMC3    C6 4572   2.335   1.196  10.493 -0.0153 -0.2470  0.7793
  300TMC3     C 4573   2.714   1.343  10.564  0.2787 -0.4900 -0.5791
  300TMC3     O 4574   2.765   1.318  10.671 -0.4216 -0.0619 -0.4183
  300TMC3     H 4575   2.529   1.454  10.398  1.4813 -0.1383 -0.1814
  300TMC3    H1 4576   2.608   1.132  10.672  0.5432  0.4127  0.3172
  300TMC3    H2 4577   2.234   1.158  10.492 -0.1301  0.0670  0.5145
  300TMC3    C7 4578   2.373   1.050  10.682  0.0536 -0.0630  0.4964
  300TMC3    C8 4579   2.287   1.384  10.339 -0.3744  0.4402  0.1798
  300TMC3    O1 4580   2.461   0.967  10.707 -0.4630  0.5569 -0.4300
  300TMC3    O2 4581   2.206   1.316  10.273  0.4977 -0.4310 -0.3467
  301MPD2     C 4582   0.619   2.403   0.907  0.2940  0.0021  0.4427
  301MPD2    C1 4583   0.489   2.360   0.886 -0.2715 -0.2997 -0.2228
  301MPD2    C2 4584   0.460   2.229   0.847 -0.4972  0.0862 -0.6126
  301MPD2    C3 4585   0.558   2.134   0.835  0.2536  0.4714 -0.1575
  301MPD2    C4 4586   0.689   2.177   0.851 -0.1458 -0.3570  0.3375
  301MPD2    C5 4587   0.721   2.308   0.891 -0.6820 -0.1975 -0.5464
  301MPD2     H 4588   0.356   2.199   0.835 -0.2665 -0.6518 -0.7206
  301MPD2    H1 4589   0.774   2.110   0.861  0.5745  0.4392 -0.3436
  301MPD2    H2 4590   0.654   2.499   0.943 -2.6739  1.2124  0.1150
  301MPD2    H3 4591   0.822   2.337   0.917 -1.7891  0.8840  2.5274
  301MPD2     N 4592   0.535   1.995   0.813 -0.7274 -0.3224  0.5989
  301MPD2    H5 4593   0.614   1.931   0.808  0.7008  1.4553  0.4217
  301MPD2    N1 4594   0.375   2.445   0.906  0.2956 -0.1261 -0.0528
  301MPD2    H7 4595   0.284   2.409   0.881  0.0395 -0.5507  1.5096
  302TMC3    C1 4596   0.389   1.796   0.794 -0.0934  0.5460  0.0631
  302TMC3    C2 4597   0.474   1.702   0.851  0.1288 -0.3326 -0.9748
  302TMC3    C3 4598   0.433   1.577   0.879  0.2316  0.0142  0.5500
  302TMC3    C4 4599   0.260   1.757   0.771 -0.5201  0.2296 -0.1429
  302TMC3    C5 4600   0.231   1.626   0.793  0.4009  0.1853  0.6531
  302TMC3    C6 4601   0.312   1.533   0.854 -0.3007 -1.2451 -0.5522
  302TMC3     C 4602   0.405   1.939   0.813  0.4254  0.4260 -0.1610
  302TMC3     O 4603   0.293   1.990   0.828 -0.2041  0.3731  0.2209
  302TMC3     H 4604   0.560   1.737   0.907 -2.5018  3.0546  0.9076
  302TMC3    H1 4605   0.191   1.822   0.719 -0.7846  0.3267  0.3208
  302TMC3    H2 4606   0.286   1.429   0.867 -0.6543 -1.1477 -0.4769
  302TMC3    C7 4607   0.116   1.568   0.722  0.4545 -0.3180  0.5965
  302TMC3    C8 4608   0.532   1.489   0.934  0.1790 -0.2109  0.1204
  302TMC3    O1 4609   0.130   1.448   0.694  0.2656 -0.0284 -0.0479
  302TMC3    O2 4610   0.646   1.508   0.895  0.2070  0.3050  0.4004
  303MPD2     C 4611   0.185   0.997  10.799 -0.2948  0.4084  0.0663
  303MPD2    C1 4612   0.049   1.009  10.768 -0.2981 -0.5079  0.2014
  303MPD2    C2 4613   0.013   0.998  10.627  0.5152 -0.0370  0.2576
  303MPD2    C3 4614   0.112   0.987  10.529  0.4381  0.4538 -0.1732
  303MPD2    C4 4615   0.245   0.978  10.564  0.0699  0.8750  0.0450
  303MPD2    C5 4616   0.275   0.984  10.699  1.0816  0.0145 -0.1497
  303MPD2     H 4617   4.648   0.991  10.599  0.8854  1.4281 -1.5159
  303MPD2    H1 4618   0.327   0.967  10.493 -0.9771  1.0100 -1.1874
  303MPD2    H2 4619   0.225   0.993  10.900 -1.3132 -0.2621  0.4457
  303MPD2    H3 4620   0.379   0.979  10.730  0.3744 -0.3724  2.1640
  303MPD2     N 4621   0.082   0.962  10.395  0.1365 -0.1311  0.5308
  303MPD2    H5 4622   0.166   0.959  10.337  0.6824 -1.3110  1.3754
  303MPD2    N1 4623   4.704   1.018  10.875 -0.5838  0.1763  0.3488
  303MPD2    H7 4624   4.739   1.009  10.970 -2.3046 -1.6499  0.8005
  304TMC3    C1 4625   4.483   1.002  10.967  0.0604 -0.4779 -0.2412
  304TMC3    C2 4626   4.356   1.048  10.966 -0.1330  0.1665  0.3494
  304TMC3    C3 4627   4.257   0.985  11.046 -0.0742  0.5953 -0.0536
  304TMC3    C4 4628   4.513   0.901  11.053 -0.2286  0.2419 -0.1670
  304TMC3    C5 4629   4.423   0.850  11.136  0.1562  0.1508  0.7480
  304TMC3    C6 4630   4.290   0.895  11.138  0.4062 -0.1902  0.8175
  304TMC3     C 4631   4.565   1.039  10.857 -0.5288  1.1054 -0.8821
  304TMC3     O 4632   4.496   1.061  10.756 -0.2270 -0.9266  0.3308
  304TMC3     H 4633   4.323   1.120  10.893  3.1105  1.6968  0.3671
  304TMC3    H1 4634   4.601   0.838  11.046  0.4550  1.1568  0.1294
  304TMC3    H2 4635   4.215   0.846  11.199 -1.6198  0.0344 -1.5300
  304TMC3    C7 4636   4.428   0.706  11.157  0.9133  0.5156 -0.3613
  304TMC3    C8 4637   4.151   0.934  10.963 -0.1292 -0.6877 -0.6342
  304TMC3    O1 4638   4.529   0.654  11.192 -0.4099  0.1456 -0.1078
  304TMC3    O2 4639   4.096   0.831  11.007 -0.0305 -0.3035 -0.2806
  305MPD2     C 4640   3.576   3.171  14.004 -0.7345 -0.3210  0.2080
  305MPD2    C1 4641   3.461   3.097  14.016  0.0394  0.1773  0.5367
  305MPD2    C2 4642   3.383   3.069  13.908 -0.2876  0.2458 -0.0581
  305MPD2    C3 4643   3.412   3.112  13.786 -0.2109 -0.1488  0.3400
  305MPD2    C4 4644   3.527   3.180  13.767 -0.2387 -0.5395 -0.2142
  305MPD2    C5 4645   3.608   3.216  13.874 -0.3993  0.7353 -0.4129
  305MPD2     H 4646   3.291   3.015  13.924  0.7730 -1.2861  0.9048
  305MPD2    H1 4647   3.551   3.216  13.668 -1.9125 -0.4210 -0.5885
  305MPD2    H2 4648   3.630   3.210  14.089  1.0863 -1.9551 -0.1955
  305MPD2    H3 4649   3.686   3.290  13.857  0.7030 -0.0816  1.0724
  305MPD2     N 4650   3.334   3.081  13.674  0.8030 -0.0570  0.4712
  305MPD2    H5 4651   3.371   3.103  13.582  0.5589  1.0452  0.6366
  305MPD2    N1 4652   3.439   3.060  14.146 -0.0091  0.0810 -0.3774
  305MPD2    H7 4653   3.499   3.096  14.220 -0.8409 -0.3129  0.4888
  306TMC3    C1 4654   3.351   2.980  14.342  0.4758 -0.2817 -0.4975
  306TMC3    C2 4655   3.473   2.929  14.384  0.6834  0.7037 -0.0405
  306TMC3    C3 4656   3.495   2.945  14.520 -0.6185  0.2420  0.1947
  306TMC3    C4 4657   3.243   3.020  14.418  0.1053  0.4704 -0.5276
  306TMC3    C5 4658   3.272   3.038  14.548  0.6153  0.7967 -0.2921
  306TMC3    C6 4659   3.394   2.997  14.600 -0.1463  0.0614 -0.2736
  306TMC3     C 4660   3.332   2.991  14.196 -0.4703  0.2436  0.3958
  306TMC3     O 4661   3.236   2.950  14.142  0.1347 -0.5425  0.1844
  306TMC3     H 4662   3.541   2.885  14.311  0.3380 -3.5376  2.1790
  306TMC3    H1 4663   3.148   3.043  14.371  0.3607  0.5606 -1.0015
  306TMC3    H2 4664   3.425   2.998  14.704  2.0218  0.8050 -0.9521
  306TMC3    C7 4665   3.180   3.115  14.624 -0.3053 -0.3387 -0.8212
  306TMC3    C8 4666   3.612   2.873  14.567  0.0593 -0.9887 -0.2593
  306TMC3    O1 4667   3.060   3.126  14.583 -0.1006 -1.4282  0.3343
  306TMC3    O2 4668   3.639   2.778  14.500 -0.2515 -0.7377  0.8321
  307MPD2     C 4669   1.132   0.999  17.700 -0.1403  0.0478 -0.0005
  307MPD2    C1 4670   1.151   1.135  17.730 -0.4544  0.3004  0.0538
  307MPD2    C2 4671   1.134   1.169   0.106 -0.3011 -0.5565 -0.1555
  307MPD2    C3 4672   1.100   1.081   0.207 -0.0333  0.5573  0.5797
  307MPD2    C4 4673   1.077   0.945   0.171 -0.1567  0.4504 -0.0670
  307MPD2    C5 4674   1.098   0.912   0.042  0.1620  0.1586 -0.0877
  307MPD2     H 4675   1.158   1.271   0.132 -2.4345  0.1821 -1.0210
  307MPD2    H1 4676   1.064   0.868   0.247 -0.9907  1.6568  1.0064
  307MPD2    H2 4677   1.154   0.961  17.601  0.6671 -0.3801  0.3365
  307MPD2    H3 4678   1.075   0.811   0.013  1.7926  0.2030 -1.5587
  307MPD2     N 4679   1.083   1.142   0.337 -0.2006  0.3474  0.2370
  307MPD2    H5 4680   1.097   1.242   0.344 -2.5171  0.6364  0.8249
  307MPD2    N1 4681   1.191   1.242  17.639  0.4248 -0.0165  0.6236
  307MPD2    H7 4682   1.186   1.334  17.682  0.6114 -0.3424  1.3292
  308TMC3    C1 4683   0.832   1.156   0.729 -0.6836 -0.0302  0.4538
  308TMC3    C2 4684   0.826   1.295   0.724 -0.3410 -0.8706  0.4249
  308TMC3    C3 4685   0.883   1.358   0.621  0.0731 -0.7427 -0.1618
  308TMC3    C4 4686   0.914   1.086   0.641  0.0303  0.0824  0.8359
  308TMC3    C5 4687   0.985   1.157   0.551 -0.3270 -0.0747 -0.8095
  308TMC3    C6 4688   0.960   1.290   0.531  0.1590  0.2040 -0.3273
  308TMC3     C 4689   0.739   1.074   0.805  0.2533  0.5759  0.1205
  308TMC3     O 4690   0.784   0.976   0.859 -0.0765 -0.7773  0.4183
  308TMC3     H 4691   0.757   1.342   0.794 -0.2280 -1.0066  0.6297
  308TMC3    H1 4692   0.916   0.978   0.640 -2.1736  0.0190  2.3047
  308TMC3    H2 4693   1.013   1.350   0.458  1.5137  0.8126  1.1640
  308TMC3    C7 4694   1.042   1.073   0.448 -0.0106  0.3600 -0.2378
  308TMC3    C8 4695   0.905   1.505   0.616  0.0685 -0.0558  0.1590
  308TMC3    O1 4696   1.024   0.952   0.452  0.3518  0.0345  0.9312
  308TMC3    O2 4697   0.944   1.544   0.506 -0.1345 -0.0864 -0.2314
  309MPD2     C 4698   0.375   1.799  17.111 -0.3655  1.1850  0.4549
  309MPD2    C1 4699   0.260   1.751  17.047  0.0141 -0.6134 -0.6144
  309MPD2    C2 4700   0.157   1.713  17.130 -0.2968 -0.1975  0.3502
  309MPD2    C3 4701   0.154   1.735  17.262 -0.3176 -0.7336  0.5905
  309MPD2    C4 4702   0.268   1.780  17.327 -0.2005 -0.4386  0.1293
  309MPD2    C5 4703   0.375   1.805  17.244 -0.3776 -0.6402 -0.6184
  309MPD2     H 4704   0.064   1.685  17.082 -1.0317 -0.2577  1.8420
  309MPD2    H1 4705   0.279   1.782  17.435  2.9511  0.6783 -0.2425
  309MPD2    H2 4706   0.461   1.828  17.052  0.6092 -2.5821  0.0151
  309MPD2    H3 4707   0.468   1.829  17.294  0.4238  0.3168 -2.5474
  309MPD2     N 4708   0.028   1.708  17.328  0.0997  0.3517 -0.0099
  309MPD2    H5 4709   4.696   1.658  17.277 -0.5079  0.9786  0.2306
  309MPD2    N1 4710   0.249   1.732  16.908  0.5037 -0.3831  0.6074
  309MPD2    H7 4711   0.159   1.700  16.873  0.6033 -0.3741  0.3446
  310TMC3    C1 4712   0.301   1.727  16.685 -0.6531 -0.0040 -0.3708
  310TMC3    C2 4713   0.173   1.761  16.639 -0.1238  0.5586 -0.0396
  310TMC3    C3 4714   0.129   1.700  16.523 -0.0776 -0.7007  0.2720
  310TMC3    C4 4715   0.383   1.639  16.621 -0.2037  0.0272 -0.1827
  310TMC3    C5 4716   0.324   1.574  16.511 -0.1766 -0.2271  0.4095
  310TMC3    C6 4717   0.198   1.603  16.460  0.0895 -0.0402 -0.4817
  310TMC3     C 4718   0.342   1.764  16.817 -0.2477  0.3119 -0.5312
  310TMC3     O 4719   0.465   1.786  16.836 -0.4938  0.1590  0.4292
  310TMC3     H 4720   0.108   1.833  16.688  0.3498 -0.3952  1.9719
  310TMC3    H1 4721   0.463   1.593  16.677  1.1965  1.6343 -0.8722
  310TMC3    H2 4722   0.163   1.556  16.368 -0.7444  0.1168 -0.2457
  310TMC3    C7 4723   0.409   1.480  16.437 -0.2543 -0.0488 -0.2059
  310TMC3    C8 4724   0.015   1.745  16.440 -0.3095 -0.0470 -0.3271
  310TMC3    O1 4725   0.340   1.396  16.381  0.5056 -0.4809 -0.0345
  310TMC3    O2 4726   4.737   1.709  16.324 -0.0893  0.2358  0.1112
  311MPD2     C 4727   2.345   2.659  12.556 -0.4739 -0.7187  1.0243
  311MPD2    C1 4728   2.352   2.780  12.620 -0.3976 -0.4104 -1.3271
  311MPD2    C2 4729   2.232   2.823  12.675 -0.5733 -0.5513  0.0153
  311MPD2    C3 4730   2.114   2.755  12.687  0.1727 -0.2226  0.4925
  311MPD2    C4 4731   2.119   2.627  12.637 -0.0840 -0.5914 -0.6389
  311MPD2    C5 4732   2.235   2.580  12.571  0.6356  0.3066 -0.0793
  311MPD2     H 4733   2.237   2.923  12.718 -2.6557 -1.4188  2.2520
  311MPD2    H1 4734   2.038   2.556  12.643  0.7538 -1.5553 -0.6863
  311MPD2    H2 4735   2.429   2.613  12.503  0.1107 -0.6665  1.9085
  311MPD2    H3 4736   2.241   2.479  12.532 -0.6335 -0.2901  1.3126
  311MPD2     N 4737   2.005   2.803  12.766  0.4486 -0.0138 -0.0198
  311MPD2    H5 4738   2.014   2.898  12.802 -0.0070  0.5740 -1.4399
  311MPD2    N1 4739   2.464   2.865  12.629  0.6582 -0.1126 -0.4918
  311MPD2    H7 4740   2.451   2.956  12.671  0.1088 -1.0727  1.4190
  312TMC3    C1 4741   1.780   2.802  12.856 -0.7685 -0.4971  0.6599
  312TMC3    C2 4742   1.654   2.734  12.867 -0.9879  0.1468  0.0742
  312TMC3    C3 4743   1.573   2.763  12.973  0.2121 -0.3169  0.7103
  312TMC3    C4 4744   1.816   2.898  12.946 -0.3584 -0.6521  0.8399
  312TMC3    C5 4745   1.736   2.914  13.055  0.7410 -0.5539 -0.0117
  312TMC3    C6 4746   1.610   2.851  13.066 -0.1603 -0.5813  0.0710
  312TMC3     C 4747   1.886   2.737  12.776  0.1998  0.2997  0.1001
  312TMC3     O 4748   1.842   2.646  12.706  0.3235 -0.1879 -0.1288
  312TMC3     H 4749   1.618   2.672  12.786  0.7722  0.5243 -0.9878
  312TMC3    H1 4750   1.906   2.957  12.934  0.0088 -1.2475  0.6739
  312TMC3    H2 4751   1.542   2.877  13.146 -0.2351  0.9398 -0.4913
  312TMC3    C7 4752   1.791   2.977  13.175 -0.8990 -0.7772 -0.7944
  312TMC3    C8 4753   1.437   2.721  12.955  0.3499  0.0543  0.5768
  312TMC3    O1 4754   1.841   3.088  13.152  0.4057  0.2712 -0.1840
  312TMC3    O2 4755   1.432   2.615  12.903 -0.2896 -0.9203 -0.4858
  313MPD2     C 4756   1.817   0.925  10.451 -0.6949  0.2908  0.0723
  313MPD2    C1 4757   1.688   0.967  10.452  0.1870 -0.0542  0.6124
  313MPD2    C2 4758   1.588   0.892  10.391  0.0631 -0.9416 -0.2230
  313MPD2    C3 4759   1.608   0.759  10.344  0.1386  0.1541 -0.5369
  313MPD2    C4 4760   1.741   0.714  10.347  0.1237 -0.2433  0.2467
  313MPD2    C5 4761   1.840   0.804  10.390 -0.6503  0.7345 -0.3277
  313MPD2     H 4762   1.492   0.942  10.386 -0.0004 -1.2574 -2.1961
  313MPD2    H1 4763   1.764   0.612  10.320  1.7495  0.1800  0.0130
  313MPD2    H2 4764   1.904   0.972  10.495  0.2762 -0.8548 -0.6227
  313MPD2    H3 4765   1.942   0.768  10.398 -1.6667 -1.5612  2.3184
  313MPD2     N 4766   1.503   0.681  10.280  0.2535 -1.1118  0.2464
  313MPD2    H5 4767   1.419   0.725  10.244 -0.6920 -2.9004  0.2967
  313MPD2    N1 4768   1.646   1.084  10.514 -0.0845  0.1882  0.2955
  313MPD2    H7 4769   1.549   1.111  10.506  0.6166  1.9301 -2.4315
  314TMC3    C1 4770   1.646   1.272  10.644  0.2763  0.4718 -0.0812
  314TMC3    C2 4771   1.715   1.370  10.713 -0.0891 -0.2025  0.6084
  314TMC3    C3 4772   1.636   1.473  10.763 -0.6250 -0.9699  0.3978
  314TMC3    C4 4773   1.515   1.289  10.609  0.1484  0.3025  0.0442
  314TMC3    C5 4774   1.454   1.402  10.651  0.2171 -0.2122 -0.0737
  314TMC3    C6 4775   1.509   1.498  10.727  0.0205 -0.9873 -0.2839
  314TMC3     C 4776   1.727   1.172  10.578  0.9205  0.5418  0.3353
  314TMC3     O 4777   1.847   1.159  10.605  0.1934  0.1067 -0.4623
  314TMC3     H 4778   1.823   1.364  10.715 -0.1389 -1.6366 -0.6141
  314TMC3    H1 4779   1.454   1.214  10.560 -1.2601  1.2685  0.3122
  314TMC3    H2 4780   1.461   1.592  10.751 -1.1589 -1.0357 -2.4989
  314TMC3    C7 4781   1.329   1.432  10.583 -0.8088  0.2804 -0.7039
  314TMC3    C8 4782   1.699   1.572  10.852  0.3956 -0.3491 -0.6872
  314TMC3    O1 4783   1.268   1.336  10.540  0.1150  0.6069  0.8030
  314TMC3    O2 4784   1.648   1.679  10.870 -0.0931  0.0091 -0.0062
  315MPD2     C 4785   1.578   1.093  17.460  0.2240  0.0998 -0.2604
  315MPD2    C1 4786   1.607   1.096  17.594  0.5016  0.4382 -0.2015
  315MPD2    C2 4787   1.668   1.207  17.648  0.3278 -0.1029 -0.0418
  315MPD2    C3 4788   1.691   1.327  17.580 -0.6663  0.3897  0.4885
  315MPD2    C4 4789   1.654   1.321  17.447 -0.6098  0.1287 -0.7528
  315MPD2    C5 4790   1.598   1.208  17.394  0.0293  0.0954  0.0318
  315MPD2     H 4791   1.712   1.202  17.747  0.8813 -1.5217 -0.3635
  315MPD2    H1 4792   1.689   1.400  17.380  1.4841  0.4430  0.7278
  315MPD2    H2 4793   1.542   1.003  17.412  1.5180 -0.7386  0.3367
  315MPD2    H3 4794   1.567   1.202  17.291 -1.6722  0.8711  0.4924
  315MPD2     N 4795   1.740   1.442  17.648  0.6492 -0.2206  0.2549
  315MPD2    H5 4796   1.777   1.420  17.741  1.1508  1.0008  0.3484
  315MPD2    N1 4797   1.612   0.981  17.668 -0.4509 -0.5801 -0.3836
  315MPD2    H7 4798   1.671   0.981  17.750 -1.3425 -2.4531  0.2602
  316TMC3    C1 4799   1.705   1.668  17.717  0.1979  0.1457  0.2545
  316TMC3    C2 4800   1.782   1.641   0.072 -0.6436  0.1489 -0.9116
  316TMC3    C3 4801   1.820   1.751   0.142 -0.1158 -0.6091  0.6728
  316TMC3    C4 4802   1.666   1.789  17.673 -0.4970  0.1232  0.0042
  316TMC3    C5 4803   1.699   1.893  17.754  0.3051 -0.4515  0.5418
  316TMC3    C6 4804   1.780   1.876   0.108 -0.2192  0.2841  0.6062
  316TMC3     C 4805   1.706   1.565  17.605 -0.4884  0.0683  0.1355
  316TMC3     O 4806   1.667   1.595  17.495 -0.1149 -0.3819  0.3977
  316TMC3     H 4807   1.803   1.540   0.105 -1.1178  0.9706  1.9284
  316TMC3    H1 4808   1.608   1.796  17.581 -0.3609 -1.5487 -0.2165
  316TMC3    H2 4809   1.809   1.958   0.173  1.0969  0.6894 -0.4967
  316TMC3    C7 4810   1.699   2.029  17.714 -0.3394  0.2777  0.5618
  316TMC3    C8 4811   1.914   1.748   0.252 -0.1482  0.4080  0.3171
  316TMC3    O1 4812   1.715   2.112   0.043  0.5017 -0.0989 -0.2088
  316TMC3    O2 4813   1.891   1.822   0.349  0.4902 -0.3150 -0.7118
  317MPD2     C 4814   3.212   0.118  13.470 -0.1905 -0.2641  0.2421
  317MPD2    C1 4815   3.239   0.008  13.394 -0.3483  0.2130  0.1334
  317MPD2    C2 4816   3.323   4.648  13.448 -0.3908 -0.2049 -0.3684
  317MPD2    C3 4817   3.385   4.659  13.566  0.2671 -0.3409 -0.4536
  317MPD2    C4 4818   3.356   0.032  13.646  0.0302  0.2912 -0.4334
  317MPD2    C5 4819   3.273   0.130  13.591 -0.1475 -0.6881  0.1518
  317MPD2     H 4820   3.349   4.561  13.389 -0.1650 -0.8945  0.7536
  317MPD2    H1 4821   3.394   0.043  13.748  0.4435  0.2055 -0.5773
  317MPD2    H2 4822   3.133   0.190  13.453  1.9586  1.6008 -1.6974
  317MPD2    H3 4823   3.250   0.213  13.657 -2.6806 -2.1433  1.1380
  317MPD2     N 4824   3.485   4.563  13.606  0.0412 -0.2507  0.4272
  317MPD2    H5 4825   3.500   4.484  13.544 -1.3870  0.5986 -0.9771
  317MPD2    N1 4826   3.176   4.707  13.279  0.4389 -0.6814  0.2322
  317MPD2    H7 4827   3.196   4.616  13.239  1.6746 -0.4650  0.3745
  318TMC3    C1 4828   3.626   4.440  13.748  0.0696 -1.0567 -0.4022
  318TMC3    C2 4829   3.615   4.339  13.657  0.3309 -0.2286 -0.1793
  318TMC3    C3 4830   3.714   4.239  13.672 -0.2162  0.7170 -0.2061
  318TMC3    C4 4831   3.720   4.453  13.843  0.5433 -0.1266 -0.3486
  318TMC3    C5 4832   3.802   4.350  13.859 -0.0942  0.1118 -1.1554
  318TMC3    C6 4833   3.807   4.244  13.770 -0.0456 -0.2497  0.5541
  318TMC3     C 4834   3.562   4.567  13.720 -0.5958  0.2242  0.0184
  318TMC3     O 4835   3.566   4.652  13.812 -0.4090  0.0485  0.2488
  318TMC3     H 4836   3.559   4.347  13.564 -0.1857  1.9171  0.3166
  318TMC3    H1 4837   3.724   4.538  13.910  0.8681 -0.3659 -0.0721
  318TMC3    H2 4838   3.865   4.155  13.791  2.3235  1.0783 -0.3588
  318TMC3    C7 4839   3.908   4.361  13.964 -0.6772  0.3634 -0.0755
  318TMC3    C8 4840   3.670   4.105  13.642  0.4317  0.4033  0.1891
  318TMC3    O1 4841   3.904   4.457  14.041  0.1163  0.2813 -0.0353
  318TMC3    O2 4842   3.746   4.012  13.663 -0.1518  0.5040 -0.3207
  319MPD2     C 4843   4.468   1.431  16.568  0.6837  0.3338  0.0707
  319MPD2    C1 4844   4.493   1.303  16.610  0.0050  0.0111  0.0279
  319MPD2    C2 4845   4.401   1.208  16.576  0.3662 -0.5966 -0.1918
  319MPD2    C3 4846   4.296   1.234  16.494 -0.0193  0.5214  0.0451
  319MPD2    C4 4847   4.273   1.360  16.444 -0.3548  0.1015  0.5295
  319MPD2    C5 4848   4.357   1.453  16.486 -0.2738  0.6262  0.3989
  319MPD2     H 4849   4.420   1.104  16.604 -2.2768 -0.9659  0.1847
  319MPD2    H1 4850   4.192   1.393  16.379  0.9538  2.0644 -0.0857
  319MPD2    H2 4851   4.537   1.511  16.588 -1.5503  2.2980 -0.0683
  319MPD2    H3 4852   4.350   1.553  16.445 -1.1757 -0.0426 -1.0591
  319MPD2     N 4853   4.209   1.142  16.447 -0.9050 -0.2099 -0.3506
  319MPD2    H5 4854   4.128   1.166  16.391 -1.6083  2.0334  1.6280
  319MPD2    N1 4855   4.609   1.254  16.681  0.1212  0.0378 -0.2655
  319MPD2    H7 4856   4.605   1.157  16.710 -1.7580  0.8791  2.2387
  320TMC3    C1 4857   4.135   0.925  16.395  0.1327 -0.1909  0.3592
  320TMC3    C2 4858   4.082   0.974  16.278 -0.1833  0.9970  0.3888
  320TMC3    C3 4859   4.046   0.886  16.181 -0.0923 -1.1711 -0.0586
  320TMC3    C4 4860   4.130   0.791  16.424  0.3118 -0.5345 -0.2275
  320TMC3    C5 4861   4.097   0.702  16.324 -0.3266 -0.0581 -0.2324
  320TMC3    C6 4862   4.050   0.751  16.203  0.7715 -0.3780  0.2959
  320TMC3     C 4863   4.224   1.005  16.472  0.0251 -0.3160 -0.1377
  320TMC3     O 4864   4.301   0.942  16.540  0.4472  0.1540 -0.2880
  320TMC3     H 4865   4.094   1.078  16.249 -1.8770  0.4146 -2.3276
  320TMC3    H1 4866   4.163   0.754  16.521  2.6974  2.1711  0.0049
  320TMC3    H2 4867   4.038   0.688  16.116 -0.3030  2.5294 -1.6489
  320TMC3    C7 4868   4.049   0.574  16.353 -0.3150  0.2315  0.1447
  320TMC3    C8 4869   3.938   0.937  16.101  0.9228 -1.2366 -0.9577
  320TMC3    O1 4870   4.039   0.494  16.260  0.5168 -0.3669  0.4115
  320TMC3    O2 4871   3.951   1.051  16.060  0.4571 -0.5531  0.3297
  321TMC3    C1 4872   0.082   1.281  16.781  0.2078  0.4841  0.2250
  321TMC3    C2 4873   0.071   1.149  16.822 -0.1096  0.6166 -0.2632
  321TMC3    C3 4874   0.180   1.077  16.850 -0.6225  0.1259  0.0908
  321TMC3    C4 4875   0.202   1.344  16.763 -0.3630 -0.4886  0.4412
  321TMC3    C5 4876   0.314   1.274  16.796 -1.1212 -0.3433  0.1524
  321TMC3    C6 4877   0.304   1.137  16.821 -0.6118  0.5525  0.3172
  321TMC3     C 4878   4.708   1.341  16.717 -0.1395 -0.0283 -0.4346
  321TMC3     O 4879   4.730   1.456  16.689 -0.3194 -0.6107  0.2988
  321TMC3     H 4880   4.719   1.113  16.866 -0.0459  0.0029 -0.6197
  321TMC3    H1 4881   0.208   1.452  16.760  1.5476 -0.5918  0.9471
  321TMC3    H2 4882   0.397   1.083  16.838  0.6400  1.8764 -2.2132
  321TMC3    C7 4883   0.391   1.347  16.895  0.5247  0.1475  0.2520
  321TMC3    C8 4884   0.187   1.000  16.972 -0.1130 -0.6674  0.6329
  321TMC3    O1 4885   0.446   1.451  16.865  0.8434 -0.5785 -0.4403
  321TMC3    O2 4886   0.285   1.027  17.038  0.6328 -0.0433  0.4672
  322MPD2     C 4887   3.147   2.528  13.593 -0.5255 -0.4390 -0.1631
  322MPD2    C1 4888   3.172   2.447  13.698 -0.5914  0.3683 -0.0199
  322MPD2    C2 4889   3.210   2.310  13.672  0.0006 -0.7430 -0.5241
  322MPD2    C3 4890   3.239   2.264  13.544 -0.1202 -0.4147 -0.3530
  322MPD2    C4 4891   3.223   2.357  13.440  0.1617  0.5087 -0.7107
  322MPD2    C5 4892   3.174   2.484  13.467 -0.0607 -0.0867  0.2684
  322MPD2     H 4893   3.219   2.239  13.753 -1.8942 -0.5589 -0.1485
  322MPD2    H1 4894   3.255   2.328  13.341  0.2129  3.9582 -1.6892
  322MPD2    H2 4895   3.115   2.632  13.595  1.9589  0.3572 -1.9274
  322MPD2    H3 4896   3.171   2.553  13.383 -1.3379  1.4818  1.6018
  322MPD2     N 4897   3.277   2.132  13.537  0.4956  0.8310  0.0557
  322MPD2    H5 4898   3.300   2.078  13.621  3.1040  3.5082  1.0403
  322MPD2    N1 4899   3.166   2.500  13.834  0.0586 -1.0400 -0.4089
  322MPD2    H7 4900   3.155   2.600  13.846  0.5005 -1.0389  0.0028
  323TMC3    C1 4901   3.216   2.505  14.065  0.4847 -0.0811 -0.1876
  323TMC3    C2 4902   3.300   2.606  14.041  0.1827 -0.1026  0.2393
  323TMC3    C3 4903   3.371   2.650  14.152  0.5497 -0.3129  1.1930
  323TMC3    C4 4904   3.191   2.442  14.185 -0.1066 -0.3335  0.4224
  323TMC3    C5 4905   3.255   2.499  14.296  0.2010  0.5792  0.5893
  323TMC3    C6 4906   3.343   2.607  14.280 -0.2219  0.0279  0.0876
  323TMC3     C 4907   3.179   2.426  13.952  0.6484  0.0328  0.2581
  323TMC3     O 4908   3.160   2.300  13.968  0.0243  0.7619 -0.0793
  323TMC3     H 4909   3.320   2.654  13.946 -2.9751  0.2973 -0.2250
  323TMC3    H1 4910   3.125   2.356  14.188  2.0428 -2.0357 -2.1505
  323TMC3    H2 4911   3.404   2.640  14.363 -0.8226  1.0741  0.1041
  323TMC3    C7 4912   3.300   2.401  14.387  0.2558  0.0530  0.1872
  323TMC3    C8 4913   3.513   2.674  14.131  1.6140  1.1706 -0.1968
  323TMC3    O1 4914   3.305   2.290  14.332  0.2741  0.9724  0.0059
  323TMC3    O2 4915   3.593   2.635  14.214 -0.2066 -0.6377 -0.0859
  324MPD2     C 4916   0.435   3.792  14.205  0.0946  0.3164  0.1000
  324MPD2    C1 4917   0.385   3.858  14.312 -0.8855 -0.0308  0.2898
  324MPD2    C2 4918   0.249   3.860  14.330  0.5107  0.0552 -1.1532
  324MPD2    C3 4919   0.165   3.801  14.237 -0.1668  0.1884  1.5642
  324MPD2    C4 4920   0.214   3.735  14.126 -0.6558  0.8519  0.0134
  324MPD2    C5 4921   0.351   3.735  14.112 -0.1966 -0.0494 -0.0988
  324MPD2     H 4922   0.210   3.905  14.420 -0.1306  0.2967 -1.5432
  324MPD2    H1 4923   0.159   3.677  14.053  1.1481  0.8222 -1.3302
  324MPD2    H2 4924   0.540   3.784  14.181  0.5147 -2.1536  2.7031
  324MPD2    H3 4925   0.384   3.674  14.029 -1.3998 -0.0074 -0.6126
  324MPD2     N 4926   0.031   3.776  14.265  1.0285 -0.1981 -0.0419
  324MPD2    H5 4927   4.725   3.699  14.216 -1.4342  0.1695  1.7144
  324MPD2    N1 4928   0.473   3.905  14.413  0.7294  0.5706  0.6406
  324MPD2    H7 4929   0.432   3.955  14.491 -0.4484  0.3079  0.1994
  325TMC3    C1 4930   4.568   3.784  14.367 -0.9041 -0.0989 -0.0286
  325TMC3    C2 4931   4.557   3.651  14.341  0.3638 -0.0803 -0.2451
  325TMC3    C3 4932   4.431   3.594  14.350  0.4735  0.5656 -0.1371
  325TMC3    C4 4933   4.459   3.860  14.398  0.0967  0.0234  0.9277
  325TMC3    C5 4934   4.336   3.806  14.407 -0.5126  0.3987  0.4455
  325TMC3    C6 4935   4.315   3.669  14.390 -0.3333 -0.0418 -0.3619
  325TMC3     C 4936   4.692   3.844  14.351 -0.2875 -0.6238  0.6440
  325TMC3     O 4937   4.723   3.947  14.414  0.4210 -0.4581 -0.3016
  325TMC3     H 4938   4.637   3.583  14.315 -1.2807 -2.3155  0.4889
  325TMC3    H1 4939   4.473   3.967  14.410 -0.1150  0.1448  0.0723
  325TMC3    H2 4940   4.218   3.622  14.398 -0.0367 -0.5222  0.4092
  325TMC3    C7 4941   4.224   3.892  14.454 -0.5569 -0.4065 -0.1345
  325TMC3    C8 4942   4.411   3.463  14.296  0.6890 -0.4173  0.4751
  325TMC3    O1 4943   4.232   4.010  14.439  0.5448  0.1614  0.3890
  325TMC3    O2 4944   4.511   3.423  14.233 -0.3501  0.1775  0.2032
  326MPD2     C 4945   1.706   4.165  11.556 -0.2372  0.0205  0.1716
  326MPD2    C1 4946   1.678   4.150  11.422  0.5320 -0.2869  0.4380
  326MPD2    C2 4947   1.764   4.213  11.329  0.4741 -0.2983  0.1140
  326MPD2    C3 4948   1.864   4.298  11.372  0.4738 -0.2499 -0.0717
  326MPD2    C4 4949   1.887   4.311  11.504 -0.0484  0.3912  0.2293
  326MPD2    C5 4950   1.809   4.245  11.597  0.0359  0.0719 -0.0865
  326MPD2     H 4951   1.747   4.205  11.222  0.9045  0.5186 -0.0187
  326MPD2    H1 4952   1.961   4.380  11.544 -0.6006  0.4790  1.0845
  326MPD2    H2 4953   1.660   4.106  11.634 -1.1602  2.9645  1.8398
  326MPD2    H3 4954   1.819   4.260  11.704  1.5086  2.1548 -0.5236
  326MPD2     N 4955   1.943   4.381  11.279  0.3390  0.5879 -0.0180
  326MPD2    H5 4956   2.010   4.445  11.320  0.2256 -0.1351  1.2894
  326MPD2    N1 4957   1.577   4.062  11.372  0.1642  0.4825 -0.1558
  326MPD2    H7 4958   1.584   4.042  11.273  1.0719 -0.6335  0.1306
  327TMC3    C1 4959   1.415   3.900  11.381  0.4271 -0.1826 -0.4827
  327TMC3    C2 4960   1.316   3.944  11.302  0.6516 -0.9371 -0.9589
  327TMC3    C3 4961   1.294   3.870  11.185 -0.1542  0.6148  0.1437
  327TMC3    C4 4962   1.491   3.788  11.345 -0.2315 -0.0080 -0.1578
  327TMC3    C5 4963   1.471   3.725  11.226 -0.0950 -0.1497  0.0262
  327TMC3    C6 4964   1.361   3.756  11.149  0.8852 -0.4092 -0.1994
  327TMC3     C 4965   1.477   4.006  11.451  0.5005  0.0342  0.2915
  327TMC3     O 4966   1.447   4.019  11.568  0.0656  0.4462 -0.4680
  327TMC3     H 4967   1.263   4.029  11.343  1.1740 -1.6185  1.1626
  327TMC3    H1 4968   1.556   3.746  11.420  1.1996 -0.3215 -1.5701
  327TMC3    H2 4969   1.340   3.706  11.055  1.2827  0.0603 -0.5357
  327TMC3    C7 4970   1.588   3.698  11.141 -0.5238  0.3195 -0.1741
  327TMC3    C8 4971   1.194   3.932  11.101 -0.0418 -0.3662  0.3205
  327TMC3    O1 4972   1.577   3.700  11.021 -0.4130  0.2779  0.1266
  327TMC3    O2 4973   1.220   3.948  10.985  0.8256 -0.2813  0.3536
  328MPD2     C 4974   3.904   4.319  17.322  0.4635  0.3075  0.7221
  328MPD2    C1 4975   3.810   4.247  17.249  0.7335  0.0507  0.2576
  328MPD2    C2 4976   3.706   4.310  17.183  0.4406 -0.1064 -0.0946
  328MPD2    C3 4977   3.706   4.450  17.184  0.2192 -0.6948  0.3092
  328MPD2    C4 4978   3.792   4.516  17.268  0.3889  0.1355 -0.3484
  328MPD2    C5 4979   3.886   4.455  17.343  0.1365  0.5544 -0.5306
  328MPD2     H 4980   3.629   4.263  17.123 -0.3289  2.5066 -1.1437
  328MPD2    H1 4981   3.767   4.615  17.304  0.6565  0.8410 -2.1087
  328MPD2    H2 4982   3.985   4.266  17.372  2.9977  1.7153 -1.8685
  328MPD2    H3 4983   3.953   4.511  17.407  1.7522 -0.3528 -1.4186
  328MPD2     N 4984   3.613   4.535  17.123  0.1247 -0.3268  0.7430
  328MPD2    H5 4985   3.630   4.633  17.142  1.8405 -0.4642 -0.0799
  328MPD2    N1 4986   3.826   4.107  17.259 -0.0792  0.1976 -0.6699
  328MPD2    H7 4987   3.897   4.059  17.313  1.3327  1.4034 -1.4609
  329TMC3    C1 4988   3.798   3.889  17.243  0.5352 -0.4079 -0.1183
  329TMC3    C2 4989   3.826   3.883  17.383 -0.2561  0.5272 -0.0458
  329TMC3    C3 4990   3.872   3.771  17.438  0.0555 -0.9190  1.2883
  329TMC3    C4 4991   3.820   3.778  17.169 -0.4157 -1.1853 -0.7898
  329TMC3    C5 4992   3.877   3.670  17.230 -0.5733  0.1140 -0.0616
  329TMC3    C6 4993   3.911   3.666  17.363  0.0086  0.6399 -0.4588
  329TMC3     C 4994   3.745   4.016  17.196 -0.1905  0.3842  0.0027
  329TMC3     O 4995   3.653   4.026  17.116 -0.1510 -0.1090 -0.0313
  329TMC3     H 4996   3.798   3.964  17.450 -0.1907 -0.0216  0.6526
  329TMC3    H1 4997   3.763   3.766  17.077  0.6129  1.0005 -1.7052
  329TMC3    H2 4998   3.944   3.571  17.405 -1.1795  1.1180  1.5434
  329TMC3    C7 4999   3.916   3.556  17.145  1.0122 -0.1716  0.6762
  329TMC3    C8 5000   3.956   3.793  17.558  0.0649 -0.9828 -0.3970
  329TMC3    O1 5001   3.954   3.454  17.200 -0.5878 -0.0416  0.5309
  329TMC3    O2 5002   4.051   3.718  17.566 -0.1958  0.0030  0.2996
  330TMC3    C1 5003   1.268   2.902   9.779 -0.4196  0.0922  0.1695
  330TMC3    C2 5004   1.147   2.857   9.822 -0.2342 -0.1098  0.0962
  330TMC3    C3 5005   1.140   2.773   9.932  0.1040 -0.1249  0.7430
  330TMC3    C4 5006   1.385   2.882   9.857  0.1211  0.5251  0.5581
  330TMC3    C5 5007   1.377   2.802   9.965 -0.9364 -0.5369  0.4409
  330TMC3    C6 5008   1.250   2.748  10.004 -0.2280 -0.1425  0.3177
  330TMC3     C 5009   1.280   2.973   9.660 -0.0524 -0.6750 -0.4244
  330TMC3     O 5010   1.384   2.956   9.599  0.0556 -0.1780 -0.0254
  330TMC3     H 5011   1.061   2.867   9.757 -0.2165 -0.5878 -0.0016
  330TMC3    H1 5012   1.482   2.917   9.824  0.2765  0.8947  1.3842
  330TMC3    H2 5013   1.254   2.666  10.074  2.2760 -0.6312 -0.3739
  330TMC3    C7 5014   1.496   2.768  10.040 -0.4381  0.7335 -0.8279
  330TMC3    C8 5015   1.021   2.693   9.948  0.4586 -0.3031 -0.0606
  330TMC3    O1 5016   1.601   2.774   9.973 -0.2116 -0.1505 -0.1661
  330TMC3    O2 5017   0.938   2.709   9.863  0.5420 -0.1253 -0.0938
  331MPD2     C 5018   4.324   2.901  12.985 -0.0265 -0.0862  0.5719
  331MPD2    C1 5019   4.446   2.889  12.913  0.6871 -0.0448 -0.0179
  331MPD2    C2 5020   4.476   2.772  12.852  0.6593 -0.7893  0.1779
  331MPD2    C3 5021   4.395   2.663  12.860  0.2705  0.1938  0.8865
  331MPD2    C4 5022   4.273   2.670  12.931 -0.4064  0.2602 -0.6635
  331MPD2    C5 5023   4.235   2.796  12.989 -0.4726 -0.0092  0.3143
  331MPD2     H 5024   4.569   2.765  12.797 -1.1563 -1.2047 -2.8254
  331MPD2    H1 5025   4.197   2.593  12.931 -0.8455  0.6835 -2.5216
  331MPD2    H2 5026   4.310   2.988  13.049 -1.0150 -0.1991  0.5040
  331MPD2    H3 5027   4.151   2.797  13.058 -2.5877  0.1785 -2.2808
  331MPD2     N 5028   4.433   2.544  12.789  0.6250  0.1965 -0.0012
  331MPD2    H5 5029   4.513   2.568  12.730  0.9242  3.1429  1.6020
  331MPD2    N1 5030   4.524   3.010  12.910 -0.5233  0.7828  0.0964
  331MPD2    H7 5031   4.498   3.088  12.969 -2.1032 -2.0202  3.1236
  332TMC3    C1 5032   4.406   2.342  12.663  0.6555 -0.4989  0.6401
  332TMC3    C2 5033   4.472   2.408  12.560  0.6090 -0.4386 -0.1805
  332TMC3    C3 5034   4.557   2.332  12.485 -0.2312  0.0189  0.5461
  332TMC3    C4 5035   4.417   2.211  12.689 -0.3895  0.2949 -0.3870
  332TMC3    C5 5036   4.519   2.138  12.623  0.8313  0.3232 -0.7466
  332TMC3    C6 5037   4.581   2.201  12.514 -0.1600 -0.8652 -0.2145
  332TMC3     C 5038   4.358   2.423  12.776 -0.2973 -0.2254  0.1994
  332TMC3     O 5039   4.261   2.385  12.833 -0.2093 -0.7077  0.1814
  332TMC3     H 5040   4.462   2.514  12.543  1.0451 -0.4269 -0.3653
  332TMC3    H1 5041   4.374   2.178  12.782 -0.9436  1.8577 -0.0837
  332TMC3    H2 5042   4.660   2.142  12.470 -0.1189  0.3915 -1.8235
  332TMC3    C7 5043   4.600   2.047  12.706  0.1863 -0.2069 -0.1269
  332TMC3    C8 5044   4.631   2.392  12.375 -0.2741 -0.3292 -0.0262
  332TMC3    O1 5045   4.546   1.966  12.780 -0.4706  0.3444 -0.2401
  332TMC3    O2 5046   4.681   2.501  12.399  0.1240 -0.1267  0.1466
  333MPD2     C 5047   0.019   2.959  11.362 -0.0479  0.0708  0.2563
  333MPD2    C1 5048   4.735   2.840  11.301 -0.0882 -0.5018 -0.1052
  333MPD2    C2 5049   4.690   2.731  11.366  0.2327 -0.1586  0.4368
  333MPD2    C3 5050   4.668   2.743  11.498 -0.8594  0.0281  0.1639
  333MPD2    C4 5051   4.685   2.865  11.565 -0.2321 -0.0648  0.8308
  333MPD2    C5 5052   0.007   2.965  11.498 -0.3231  0.1578  0.3473
  333MPD2     H 5053   4.664   2.647  11.303 -0.6225  0.1228  0.4085
  333MPD2    H1 5054   4.690   2.868  11.673 -0.4607 -1.6235  0.8789
  333MPD2    H2 5055   0.061   3.045  11.313  1.1578 -0.8259 -0.2821
  333MPD2    H3 5056   0.039   3.053  11.553  0.2973 -0.1198  0.4311
  333MPD2     N 5057   4.613   2.626  11.563 -1.2227  0.3349 -0.3608
  333MPD2    H5 5058   4.595   2.544  11.507 -3.5668  0.7095 -0.1530
  333MPD2    N1 5059   0.016   2.844  11.159 -0.2863  0.0715  0.6295
  333MPD2    H7 5060   0.055   2.932  11.125 -2.0416  0.3273 -0.7216
  334TMC3    C1 5061   4.726   2.794  10.928 -0.7113  0.4592 -0.0864
  334TMC3    C2 5062   0.020   2.698  10.842  0.3088 -0.0083 -0.9160
  334TMC3    C3 5063   0.071   2.730  10.721  0.5814  0.3116 -0.1410
  334TMC3    C4 5064   0.013   2.927  10.912 -0.4958  0.9986  0.2041
  334TMC3    C5 5065   0.076   2.961  10.799  0.2135  0.7756 -0.2842
  334TMC3    C6 5066   0.106   2.866  10.701 -0.3537  0.0600  0.6957
  334TMC3     C 5067   4.713   2.748  11.066 -0.4091 -0.4324  0.3810
  334TMC3     O 5068   4.659   2.640  11.082  0.2470 -0.0980 -0.4942
  334TMC3     H 5069   0.001   2.592  10.856 -2.9129  0.4953 -1.3741
  334TMC3    H1 5070   4.693   2.998  10.968  1.7366  3.0693 -0.0696
  334TMC3    H2 5071   0.160   2.886  10.609 -2.2235 -1.1602 -0.6691
  334TMC3    C7 5072   0.113   3.104  10.796 -0.2664 -0.6167 -0.7732
  334TMC3    C8 5073   0.169   2.643  10.670 -0.6093 -0.0267 -0.5661
  334TMC3    O1 5074   0.094   3.179  10.892 -0.0549  0.2182 -0.7921
  334TMC3    O2 5075   0.153   2.609  10.556  0.1315 -0.2715  0.4255
  335TMC3    C1 5076   4.635   4.364   0.103  0.1981 -0.1058 -0.8199
  335TMC3    C2 5077   4.528   4.329   0.030  0.7680  0.7350  0.5689
  335TMC3    C3 5078   4.470   4.418  17.698 -0.4500 -0.0846  1.1573
  335TMC3    C4 5079   4.691   4.480   0.083  0.3490 -0.8741  0.3744
  335TMC3    C5 5080   4.630   4.566  17.750 -0.0773  0.1967 -0.4383
  335TMC3    C6 5081   4.519   4.546  17.678 -0.0157 -0.0292 -0.7632
  335TMC3     C 5082   4.693   4.249   0.169  0.3149 -0.1121  0.5961
  335TMC3     O 5083   4.633   4.142   0.146 -0.2036 -0.0035  0.6774
  335TMC3     H 5084   4.477   4.237   0.057  0.7276  0.2424 -1.1965
  335TMC3    H1 5085   0.042   4.503   0.137 -0.4712  3.0239  0.1079
  335TMC3    H2 5086   4.487   4.606  17.594 -0.7337  1.9407  0.9121
  335TMC3    C7 5087   4.721   4.666  17.699 -0.3994 -0.3734 -0.1140
  335TMC3    C8 5088   4.404   4.363  17.577  0.0130 -0.2568 -0.0177
  335TMC3    O1 5089   0.097   4.671  17.740  0.6003  0.1976  0.2503
  335TMC3    O2 5090   4.344   4.445  17.502 -0.2536  0.2503 -0.1770
  336MPD2     C 5091   3.928   2.398  16.244 -0.3967  0.5340 -0.0002
  336MPD2    C1 5092   3.941   2.369  16.110  0.6558 -0.3271 -0.1928
  336MPD2    C2 5093   3.970   2.240  16.072  0.9577  0.3519 -0.5020
  336MPD2    C3 5094   4.011   2.140  16.160 -0.2281  0.6114 -0.4462
  336MPD2    C4 5095   4.011   2.176  16.294  0.1097 -0.5686 -1.1748
  336MPD2    C5 5096   3.974   2.305  16.331 -0.1915 -0.0984  0.1051
  336MPD2     H 5097   3.957   2.211  15.968  1.1112 -0.3712 -0.3196
  336MPD2    H1 5098   4.054   2.112  16.370 -2.0550  0.3074  0.7952
  336MPD2    H2 5099   3.901   2.496  16.281 -1.9281 -0.3625  1.3037
  336MPD2    H3 5100   3.976   2.326  16.437  0.2055 -1.3620  0.3445
  336MPD2     N 5101   4.063   2.015  16.119  0.3606  0.1524 -0.1080
  336MPD2    H5 5102   4.078   1.938  16.183  1.5701  0.5308  0.0630
  336MPD2    N1 5103   3.903   2.453  16.003  0.1227 -0.0587  0.8146
  336MPD2    H7 5104   3.900   2.416  15.908  0.2526 -0.7023  1.0579
  337TMC3    C1 5105   3.790   2.628  15.910  0.2659  0.4764 -0.1701
  337TMC3    C2 5106   3.694   2.546  15.848 -0.5031  0.1580  0.3002
  337TMC3    C3 5107   3.622   2.611  15.750  0.5631 -0.7752  0.6704
  337TMC3    C4 5108   3.783   2.768  15.902 -0.1754  0.6219 -0.2900
  337TMC3    C5 5109   3.681   2.823  15.827 -0.6953  1.0714 -0.3107
  337TMC3    C6 5110   3.613   2.748  15.735  0.6223 -0.3002  0.4494
  337TMC3     C 5111   3.860   2.580  16.022 -0.2983  0.2526  0.2120
  337TMC3     O 5112   3.864   2.643  16.125  0.3152 -0.1966  0.4491
  337TMC3     H 5113   3.695   2.437  15.855 -0.6581  0.1795  0.6950
  337TMC3    H1 5114   3.866   2.816  15.952 -0.4331  0.3222  0.4206
  337TMC3    H2 5115   3.529   2.779  15.674  0.2588 -0.4809  0.8522
  337TMC3    C7 5116   3.611   2.948  15.857 -0.3961 -0.0783  0.3684
  337TMC3    C8 5117   3.500   2.541  15.722 -0.4847  0.0262  0.1651
  337TMC3    O1 5118   3.519   2.972  15.788 -0.3207 -0.1312  0.0866
  337TMC3    O2 5119   3.457   2.469  15.814 -0.1005  0.6248 -0.7080
  338MPD2     C 5120   4.201   1.421   1.034 -0.0817  0.9452  0.3117
  338MPD2    C1 5121   4.170   1.349   0.915  0.0611  0.0814  0.5598
  338MPD2    C2 5122   4.040   1.353   0.879  0.1336 -0.0850  0.0503
  338MPD2    C3 5123   3.934   1.414   0.948  0.2693 -0.1402  0.3038
  338MPD2    C4 5124   3.966   1.483   1.063  0.7451 -0.2909 -0.2833
  338MPD2    C5 5125   4.098   1.479   1.105  0.3738  0.0516  0.3150
  338MPD2     H 5126   4.019   1.294   0.790 -2.5261  2.3584 -0.9713
  338MPD2    H1 5127   3.898   1.538   1.127 -0.5257 -0.2843 -1.6391
  338MPD2    H2 5128   4.298   1.428   1.081  0.8819 -0.5615 -1.4909
  338MPD2    H3 5129   4.134   1.533   1.193  1.4073 -0.6239  0.3014
  338MPD2     N 5130   3.804   1.411   0.889 -0.2479  0.0273 -0.7623
  338MPD2    H5 5131   3.792   1.370   0.797  0.3972  0.5100 -1.0609
  338MPD2    N1 5132   4.264   1.285   0.831 -0.0724  0.1562 -0.5423
  338MPD2    H7 5133   4.225   1.250   0.744  1.1092 -0.5694 -0.7750
  339TMC3    C1 5134   3.596   1.492   0.843  0.1501  0.1822  0.1567
  339TMC3    C2 5135   3.461   1.470   0.862 -0.2512 -1.0360 -0.0109
  339TMC3    C3 5136   3.375   1.504   0.762 -0.0826  0.5948 -0.4300
  339TMC3    C4 5137   3.640   1.552   0.730  0.5486 -0.6093  0.8261
  339TMC3    C5 5138   3.547   1.584   0.637 -0.1275  0.2615 -0.9647
  339TMC3    C6 5139   3.411   1.560   0.646 -0.1221  0.2386 -0.2064
  339TMC3     C 5140   3.690   1.467   0.942 -0.6571  0.3743 -0.3839
  339TMC3     O 5141   3.661   1.509   1.053  0.3497  0.3988  0.3206
  339TMC3     H 5142   3.428   1.436   0.959 -0.0503  0.4660  0.5827
  339TMC3    H1 5143   3.747   1.572   0.729  0.0983  1.7269  0.0737
  339TMC3    H2 5144   3.336   1.582   0.571 -1.2718 -3.3774 -0.0717
  339TMC3    C7 5145   3.593   1.646   0.511  0.3127 -0.6709 -0.2715
  339TMC3    C8 5146   3.233   1.485   0.792 -0.1774 -0.6729 -0.7592
  339TMC3    O1 5147   3.713   1.671   0.522  0.2726  0.0090 -0.2677
  339TMC3    O2 5148   3.144   1.540   0.727  0.0778 -0.3450  0.0065
  340MPD2     C 5149   4.244   3.962  10.561 -0.4339  0.4569 -0.3168
  340MPD2    C1 5150   4.237   3.830  10.531 -0.6452  0.2068 -0.2408
  340MPD2    C2 5151   4.248   3.740  10.636 -0.8105  0.0816  0.3210
  340MPD2    C3 5152   4.290   3.766  10.758  0.7698 -0.3882  0.1869
  340MPD2    C4 5153   4.299   3.902  10.788 -0.6219  0.2464 -0.3660
  340MPD2    C5 5154   4.277   3.997  10.690 -1.0031  0.3083  0.7629
  340MPD2     H 5155   4.223   3.638  10.609 -1.5259 -0.2970  2.4357
  340MPD2    H1 5156   4.320   3.936  10.889  1.9118  0.5239 -0.9905
  340MPD2    H2 5157   4.208   4.036  10.490  1.7922  1.3243 -0.5571
  340MPD2    H3 5158   4.270   4.102  10.716 -2.0357  0.8547 -1.7530
  340MPD2     N 5159   4.331   3.675  10.859  0.2937  0.1379  0.2360
  340MPD2    H5 5160   4.389   3.715  10.931  2.0384  0.6211 -1.4508
  340MPD2    N1 5161   4.209   3.791  10.397 -0.1366 -0.0274  0.2902
  340MPD2    H7 5162   4.204   3.864  10.326 -1.0607 -0.8951 -0.5329
  341TMC3    C1 5163   4.216   3.650  10.212 -0.7382  0.0724 -0.3289
  341TMC3    C2 5164   4.165   3.535  10.156  0.1836 -0.5370  0.0942
  341TMC3    C3 5165   4.179   3.518  10.022  0.2678 -0.1947  0.6173
  341TMC3    C4 5166   4.280   3.748  10.145 -0.1674  0.4594  0.0473
  341TMC3    C5 5167   4.283   3.723  10.006 -0.3606 -0.7897  0.0126
  341TMC3    C6 5168   4.242   3.613   9.948  0.0040  0.0695 -0.4650
  341TMC3     C 5169   4.198   3.663  10.355  0.4752 -0.0273 -0.9572
  341TMC3     O 5170   4.154   3.563  10.409 -0.2544  0.0387  0.2452
  341TMC3     H 5171   4.128   3.450  10.212 -1.5063 -1.1208 -1.9021
  341TMC3    H1 5172   4.342   3.821  10.195  1.6521 -1.7011  0.8669
  341TMC3    H2 5173   4.260   3.600   9.842  1.0571 -0.3871 -0.2200
  341TMC3    C7 5174   4.364   3.811   9.922 -0.2637 -0.0686 -0.4846
  341TMC3    C8 5175   4.161   3.386   9.970  0.4849 -0.5995 -0.2169
  341TMC3    O1 5176   4.388   3.771   9.809  0.5736 -0.4338  0.8351
  341TMC3    O2 5177   4.191   3.298  10.050  0.4124  0.1111 -0.0272
  342MPD2     C 5178   2.558   2.362   0.017 -1.0607  0.3824  0.2882
  342MPD2    C1 5179   2.648   2.403  17.677  1.0015  0.1607 -0.5722
  342MPD2    C2 5180   2.704   2.531  17.673  0.0536 -0.8354 -0.7544
  342MPD2    C3 5181   2.675   2.620   0.023  0.6960 -0.4143 -0.8182
  342MPD2    C4 5182   2.582   2.580   0.120  0.2694 -0.1489 -0.0759
  342MPD2    C5 5183   2.527   2.454   0.114 -0.0246 -0.1550 -0.1977
  342MPD2     H 5184   2.785   2.545  17.603 -0.6382 -0.2193 -1.4366
  342MPD2    H1 5185   2.550   2.649   0.198 -0.6076  0.3262 -0.8540
  342MPD2    H2 5186   2.514   2.264   0.029  2.2894 -1.1013  0.4840
  342MPD2    H3 5187   2.458   2.419   0.189  0.4016  0.8898  0.6778
  342MPD2     N 5188   2.746   2.735   0.047  0.1759 -0.0093 -0.1412
  342MPD2    H5 5189   2.730   2.779   0.137 -0.3947 -1.3994  0.4399
  342MPD2    N1 5190   2.681   2.315  17.569  1.1189  0.8107 -0.2091
  342MPD2    H7 5191   2.746   2.355  17.502  1.5414 -2.9407 -2.0434
  343TMC3    C1 5192   2.696   2.135  17.425 -0.5344  0.0018  0.5012
  343TMC3    C2 5193   2.775   2.215  17.340 -0.4320  0.7117 -0.3526
  343TMC3    C3 5194   2.769   2.187  17.206  0.2306 -0.1945 -0.4701
  343TMC3    C4 5195   2.611   2.031  17.380 -0.5765  0.3056  0.3786
  343TMC3    C5 5196   2.611   2.020  17.239 -0.0701 -0.4560  0.8225
  343TMC3    C6 5197   2.688   2.092  17.158 -0.0524 -0.2927  0.8362
  343TMC3     C 5198   2.643   2.181  17.556 -0.5736 -1.0246  0.2442
  343TMC3     O 5199   2.571   2.109  17.624 -0.1301 -0.5052  0.0866
  343TMC3     H 5200   2.853   2.275  17.385 -0.8751  0.2649  1.0181
  343TMC3    H1 5201   2.562   1.961  17.446  1.7092 -0.1285  1.6085
  343TMC3    H2 5202   2.679   2.065  17.054 -1.9402 -0.9020  1.1637
  343TMC3    C7 5203   2.570   1.892  17.177 -0.0291  0.1720 -0.0128
  343TMC3    C8 5204   2.873   2.239  17.124  0.4793 -0.6886  0.5973
  343TMC3    O1 5205   2.512   1.902  17.068 -0.3159 -0.4178  0.2783
  343TMC3    O2 5206   2.931   2.338  17.165 -0.1848  0.1040  0.2544
  344MPD2     C 5207   3.779   1.886  10.890  0.8564  0.2485 -0.1754
  344MPD2    C1 5208   3.659   1.927  10.831 -0.0875 -0.2906 -0.7005
  344MPD2    C2 5209   3.659   2.014  10.720  0.0243  0.0668  0.4586
  344MPD2    C3 5210   3.782   2.069  10.679 -0.4565 -0.2809  0.4188
  344MPD2    C4 5211   3.899   2.026  10.737  0.9558  0.2758 -0.4847
  344MPD2    C5 5212   3.900   1.942  10.846 -0.3006 -0.2433 -0.6016
  344MPD2     H 5213   3.564   2.037  10.674  0.9385  2.1095 -0.4208
  344MPD2    H1 5214   3.996   2.052  10.699  0.4455 -1.2789 -2.8399
  344MPD2    H2 5215   3.772   1.802  10.959 -1.9020  0.8956  0.3241
  344MPD2    H3 5216   3.989   1.886  10.871 -0.0683  0.2152 -0.4096
  344MPD2     N 5217   3.798   2.165  10.576 -0.1571  0.2600  1.2206
  344MPD2    H5 5218   3.891   2.199  10.552 -0.5059  0.5827  0.3504
  344MPD2    N1 5219   3.537   1.869  10.877  0.1802  0.2988  0.6036
  344MPD2    H7 5220   3.456   1.889  10.820 -1.6624 -1.3919  2.6267
  345TMC3    C1 5221   3.757   2.348  10.443  0.1811 -0.7082  0.0420
  345TMC3    C2 5222   3.877   2.395  10.480 -0.1376 -0.3963 -0.6420
  345TMC3    C3 5223   3.917   2.507  10.422  0.0084 -0.1533  0.5703
  345TMC3    C4 5224   3.675   2.409  10.348  0.0159 -0.3681  0.1434
  345TMC3    C5 5225   3.719   2.524  10.290  0.3762  0.1876  0.7818
  345TMC3    C6 5226   3.840   2.570  10.327 -0.3626  0.0271  0.5391
  345TMC3     C 5227   3.701   2.239  10.530  0.2855  0.2225 -0.5207
  345TMC3     O 5228   3.584   2.238  10.551 -0.3258  0.0633  0.1451
  345TMC3     H 5229   3.934   2.368  10.568 -2.0617 -0.0002  0.7314
  345TMC3    H1 5230   3.578   2.369  10.319 -0.3390  0.5928 -0.0201
  345TMC3    H2 5231   3.886   2.651  10.272  0.2557 -0.3524  0.4934
  345TMC3    C7 5232   3.638   2.614  10.212 -0.7590  0.4541  0.0675
  345TMC3    C8 5233   3.978   2.605  10.509  0.7196 -0.1634 -0.4987
  345TMC3    O1 5234   3.665   2.731  10.239  1.0120  0.1890 -0.1353
  345TMC3    O2 5235   4.061   2.571  10.587 -0.2931  0.6118 -0.2879
  346MPD2     C 5236   3.187   3.392  14.206  0.0900  0.0789 -0.2975
  346MPD2    C1 5237   3.324   3.420  14.223 -0.0657 -0.2845  0.6158
  346MPD2    C2 5238   3.375   3.423  14.353 -0.1221  0.9926 -0.4483
  346MPD2    C3 5239   3.289   3.424  14.461 -0.1297 -0.0506 -0.5915
  346MPD2    C4 5240   3.156   3.413  14.441 -0.6236 -0.5320 -0.0538
  346MPD2    C5 5241   3.109   3.388  14.315  0.0208  0.3885  0.1818
  346MPD2     H 5242   3.480   3.450  14.365  0.1685 -0.2660 -0.2032
  346MPD2    H1 5243   3.092   3.383  14.523  1.2503 -1.4800  1.0716
  346MPD2    H2 5244   3.143   3.385  14.107  0.1977  1.4139 -0.4325
  346MPD2    H3 5245   3.005   3.359  14.306  0.4128 -1.0275  0.1901
  346MPD2     N 5246   3.347   3.428  14.591 -0.0097  0.4056  0.3160
  346MPD2    H5 5247   3.447   3.411  14.586  0.0023  0.5053  0.2098
  346MPD2    N1 5248   3.402   3.456  14.109  0.2036 -0.3890  0.5098
  346MPD2    H7 5249   3.352   3.475  14.023  0.8355 -2.9483 -0.4272
  347TMC3    C1 5250   3.378   3.509  14.810  0.2401 -0.4814 -0.5050
  347TMC3    C2 5251   3.515   3.520  14.783  0.5510  0.0374 -0.6462
  347TMC3    C3 5252   3.590   3.602  14.863  0.8438 -0.2737  0.4010
  347TMC3    C4 5253   3.322   3.574  14.914  0.0936  0.3114 -0.2620
  347TMC3    C5 5254   3.400   3.657  14.991  0.2728 -0.4313  0.0620
  347TMC3    C6 5255   3.533   3.670  14.963  0.0059 -0.3989  0.2458
  347TMC3     C 5256   3.288   3.483  14.699 -0.8626  0.0942  0.1290
  347TMC3     O 5257   3.177   3.526  14.715  0.0197 -0.0075 -0.3010
  347TMC3     H 5258   3.570   3.458  14.713  1.4381 -0.4094  0.4535
  347TMC3    H1 5259   3.216   3.568  14.934  0.3156  3.2596  1.8371
  347TMC3    H2 5260   3.596   3.725  15.032  1.4544 -0.8387 -0.7003
  347TMC3    C7 5261   3.350   3.711  15.116 -0.6140 -0.1933 -0.2324
  347TMC3    C8 5262   3.718   3.644  14.819  0.5294 -0.3505  0.0216
  347TMC3    O1 5263   3.245   3.650  15.147 -0.3143  0.5497 -0.0034
  347TMC3    O2 5264   3.788   3.563  14.757  0.2162 -0.0843 -0.0127
  348MPD2     C 5265   2.856   3.449  11.793 -0.0453 -0.2189  0.1646
  348MPD2    C1 5266   2.753   3.368  11.743  0.2907  0.0329 -0.2573
  348MPD2    C2 5267   2.667   3.427  11.648  0.2797  0.1250  0.2936
  348MPD2    C3 5268   2.685   3.563  11.616  0.7454  0.1108  0.2662
  348MPD2    C4 5269   2.791   3.637  11.663 -0.7750 -0.0923  0.6666
  348MPD2    C5 5270   2.871   3.583  11.760 -0.4070  1.0929  0.2400
  348MPD2     H 5271   2.589   3.367  11.603 -0.0566  0.8527 -0.0832
  348MPD2    H1 5272   2.812   3.740  11.634 -1.1851 -0.1196  0.2844
  348MPD2    H2 5273   2.932   3.419  11.864  1.7887  0.6440 -1.4392
  348MPD2    H3 5274   2.961   3.631  11.797  0.2116  1.1506 -1.3420
  348MPD2     N 5275   2.595   3.608  11.523  0.2921  0.5283  0.4322
  348MPD2    H5 5276   2.524   3.541  11.495 -0.3091  0.5781  1.8429
  348MPD2    N1 5277   2.735   3.231  11.772  0.1332  0.2571 -0.1648
  348MPD2    H7 5278   2.676   3.181  11.707  0.8684  0.7852 -1.2501
  349TMC3    C1 5279   2.696   3.036  11.900 -0.0720 -0.5778 -0.4069
  349TMC3    C2 5280   2.735   2.957  12.004 -0.2805  0.1291 -0.8631
  349TMC3    C3 5281   2.681   2.829  12.008 -0.1306  0.2422 -0.0331
  349TMC3    C4 5282   2.622   2.991  11.794  0.1580  0.5613 -1.0194
  349TMC3    C5 5283   2.568   2.865  11.806  0.0118  0.1491  0.0372
  349TMC3    C6 5284   2.596   2.785  11.911  0.4580 -0.5254  0.5637
  349TMC3     C 5285   2.775   3.164  11.885 -0.2537 -0.4250 -0.0917
  349TMC3     O 5286   2.830   3.221  11.979 -0.6598  0.0981  0.3130
  349TMC3     H 5287   2.787   3.006  12.085 -1.2857 -0.4959  0.1621
  349TMC3    H1 5288   2.602   3.056  11.710  2.3683  2.1036 -0.3586
  349TMC3    H2 5289   2.552   2.688  11.934  0.8082 -1.8328 -4.2800
  349TMC3    C7 5290   2.496   2.808  11.696  0.6472 -0.5880 -0.1547
  349TMC3    C8 5291   2.723   2.744  12.120 -0.4391 -0.5184  0.1221
  349TMC3    O1 5292   2.449   2.884  11.610  0.0821  0.8032 -0.7591
  349TMC3    O2 5293   2.787   2.802  12.205 -0.3007 -0.4325  0.0654
  350MPD2     C 5294   0.612   0.531  10.395  0.5426  0.9004  0.4145
  350MPD2    C1 5295   0.643   0.407  10.358  0.2548 -0.2044  0.3515
  350MPD2    C2 5296   0.750   0.388  10.273  0.4535 -0.7167 -0.3977
  350MPD2    C3 5297   0.817   0.494  10.220  0.0470  0.2239 -0.5612
  350MPD2    C4 5298   0.775   0.620  10.251 -0.3097 -0.3009 -0.0728
  350MPD2    C5 5299   0.676   0.642  10.340 -0.1179  0.1254 -0.3714
  350MPD2     H 5300   0.780   0.290  10.238  0.3280 -0.8907 -0.0204
  350MPD2    H1 5301   0.816   0.709  10.205  0.5297 -0.4767  0.3382
  350MPD2    H2 5302   0.536   0.545  10.471  0.0334 -2.4819  0.5341
  350MPD2    H3 5303   0.631   0.740  10.354  0.5882  0.6505 -1.7132
  350MPD2     N 5304   0.946   0.464  10.157 -1.1900 -0.4349 -0.2226
  350MPD2    H5 5305   0.954   0.369  10.124 -1.1528 -0.7556  0.7093
  350MPD2    N1 5306   0.577   0.294  10.405 -0.0892  0.0401 -0.4963
  350MPD2    H7 5307   0.613   0.209  10.363  0.9089 -0.5029  1.4614
  351TMC3    C1 5308   0.419   0.149  10.496 -0.7198  0.1336 -0.7937
  351TMC3    C2 5309   0.491   0.053  10.439  0.6042 -0.2216  0.2799
  351TMC3    C3 5310   0.438   4.662  10.445 -1.2632  0.3442  0.3544
  351TMC3    C4 5311   0.300   0.131  10.554 -0.1624 -0.4933  0.0815
  351TMC3    C5 5312   0.247   0.007  10.555  0.3256  0.8227  0.6360
  351TMC3    C6 5313   0.316   4.645  10.496  0.2705 -0.1055  0.3285
  351TMC3     C 5314   0.461   0.291  10.483  0.3083  0.2290  0.3056
  351TMC3     O 5315   0.403   0.369  10.550 -0.5629  0.1489  0.4518
  351TMC3     H 5316   0.590   0.067  10.395  0.0401  3.4515  0.2082
  351TMC3    H1 5317   0.246   0.215  10.597  0.7470 -0.2816  0.8090
  351TMC3    H2 5318   0.274   4.551  10.462 -0.7831  1.5295 -2.9197
  351TMC3    C7 5319   0.106   4.736  10.561  0.8202  0.6158  0.3632
  351TMC3    C8 5320   0.502   4.564  10.357  0.0861  0.0308  0.4568
  351TMC3    O1 5321   0.060   4.636  10.515  0.0865 -0.6929  0.6239
  351TMC3    O2 5322   0.585   4.595  10.270 -0.0654  0.0132 -0.1289
  352MPD2     C 5323   4.559   3.391   0.981 -0.5509  1.1302  0.0210
  352MPD2    C1 5324   4.472   3.286   1.009 -0.3002 -0.0168 -0.2057
  352MPD2    C2 5325   4.510   3.154   1.009  0.5611  0.4269 -0.3182
  352MPD2    C3 5326   4.648   3.129   0.985 -1.1143  0.2240  0.2994
  352MPD2    C4 5327   4.729   3.238   0.960 -0.0080  0.6805  0.3248
  352MPD2    C5 5328   4.687   3.366   0.960 -0.8441 -0.1368 -0.3109
  352MPD2     H 5329   4.448   3.070   1.037  1.4681 -0.6796 -1.6441
  352MPD2    H1 5330   0.091   3.228   0.925  0.4283  0.2467  1.7210
  352MPD2    H2 5331   4.525   3.494   0.984  0.8894  1.6447 -1.3133
  352MPD2    H3 5332   0.017   3.449   0.959 -1.5151  0.4202 -0.4847
  352MPD2     N 5333   4.692   2.992   0.970 -0.3511 -0.7098 -0.4343
  352MPD2    H5 5334   4.628   2.922   1.006 -2.8408  1.4027 -0.7911
  352MPD2    N1 5335   4.333   3.319   1.029 -0.1256  0.2752 -0.3355
  352MPD2    H7 5336   4.310   3.417   1.019  0.3900  0.3999 -0.3048
  353TMC3    C1 5337   0.096   2.808   0.956  0.1524  0.0394  0.9619
  353TMC3    C2 5338   0.221   2.762   0.957  0.6568 -1.4796 -0.3062
  353TMC3    C3 5339   0.242   2.625   0.981 -0.7019 -0.4652 -0.5077
  353TMC3    C4 5340   4.725   2.726   0.987  0.1811  0.4031 -0.1062
  353TMC3    C5 5341   0.014   2.593   1.001  0.2844 -0.1937  0.9394
  353TMC3    C6 5342   0.141   2.542   0.994 -1.1811 -0.5823 -0.3718
  353TMC3     C 5343   0.077   2.950   0.945 -0.2945  0.0489  0.0510
  353TMC3     O 5344   0.180   3.013   0.927 -0.0240  0.4849 -0.2985
  353TMC3     H 5345   0.299   2.827   0.921  0.0037 -0.0995  0.7679
  353TMC3    H1 5346   4.627   2.764   0.962  0.1317 -0.2256 -0.9024
  353TMC3    H2 5347   0.166   2.443   1.031  0.4500  0.9892  2.6913
  353TMC3    C7 5348   4.644   2.496   0.981 -0.4838 -0.0595  0.2806
  353TMC3    C8 5349   0.378   2.575   0.958 -0.5593 -0.7186  0.3383
  353TMC3    O1 5350   4.674   2.383   0.939 -0.0059  0.5266 -0.5175
  353TMC3    O2 5351   0.472   2.651   0.984 -0.2639 -0.1093 -0.0722
  354TMC3    C1 5352   1.525   0.094  13.600  0.5662 -0.1340  0.6785
  354TMC3    C2 5353   1.546   0.220  13.634 -0.4913 -0.2859 -0.1490
  354TMC3    C3 5354   1.555   0.307  13.525 -0.2246  0.3893  0.3499
  354TMC3    C4 5355   1.512   0.049  13.473  0.1886  0.1009  1.0817
  354TMC3    C5 5356   1.532   0.141  13.373  0.1920  0.1444  0.2277
  354TMC3    C6 5357   1.561   0.269  13.393  0.0621  0.6745 -0.4250
  354TMC3     C 5358   1.513   4.733  13.702 -0.6308  0.6731  0.2881
  354TMC3     O 5359   1.430   4.648  13.688  0.0534  0.5945  0.0338
  354TMC3     H 5360   1.558   0.251  13.737  2.5796 -0.3745 -0.4803
  354TMC3    H1 5361   1.533   4.683  13.462  1.6974  0.3441  1.6066
  354TMC3    H2 5362   1.548   0.339  13.311  0.4891  0.6405 -0.5210
  354TMC3    C7 5363   1.584   0.081  13.251  0.2876 -0.3885 -0.2410
  354TMC3    C8 5364   1.595   0.440  13.561  0.5398 -0.3310  0.3685
  354TMC3    O1 5365   1.537   4.712  13.227 -0.0101  0.0581 -0.6149
  354TMC3    O2 5366   1.586   0.468  13.683 -0.4142  0.6397 -0.5387
  355MPD2     C 5367   1.611   0.737  12.052 -0.0260 -0.1623  0.5062
  355MPD2    C1 5368   1.669   0.731  11.927 -0.0468 -0.1088  0.5967
  355MPD2    C2 5369   1.789   0.801  11.898  0.1938  0.3437 -0.8567
  355MPD2    C3 5370   1.840   0.883  11.996  0.0692  0.8251 -0.1207
  355MPD2    C4 5371   1.775   0.886  12.122 -0.4174  0.4333 -0.3458
  355MPD2    C5 5372   1.667   0.814  12.146  0.2102  0.3634 -0.3344
  355MPD2     H 5373   1.846   0.774  11.811 -0.1278  0.4145 -1.0901
  355MPD2    H1 5374   1.819   0.939  12.206 -0.6233 -1.3527  0.9030
  355MPD2    H2 5375   1.523   0.678  12.077 -0.0266 -0.7048 -0.7697
  355MPD2    H3 5376   1.626   0.823  12.246 -1.6004 -1.9106 -0.8689
  355MPD2     N 5377   1.957   0.962  11.977 -0.2844  0.7625  0.2881
  355MPD2    H5 5378   1.987   1.019  12.055  0.1672 -0.1043  0.7546
  355MPD2    N1 5379   1.618   0.632  11.838  0.5675 -0.7405  0.5287
  355MPD2    H7 5380   1.557   0.564  11.883 -0.5210 -1.0551 -1.4133
  356TMC3    C1 5381   2.094   1.092  11.835 -0.0812 -0.1498  0.5018
  356TMC3    C2 5382   2.184   1.092  11.727 -0.1867  0.0900 -0.5002
  356TMC3    C3 5383   2.268   1.198  11.713  0.3695 -0.0928  0.9650
  356TMC3    C4 5384   2.091   1.205  11.919 -0.7027  0.2372  0.3443
  356TMC3    C5 5385   2.183   1.310  11.907  0.2750 -0.2905  0.5666
  356TMC3    C6 5386   2.272   1.305  11.806 -0.3249  0.1751  0.1097
  356TMC3     C 5387   2.015   0.971  11.853  0.3057 -0.1261  0.2467
  356TMC3     O 5388   2.005   0.901  11.750 -0.0124  0.9184  0.5220
  356TMC3     H 5389   2.178   1.012  11.655 -1.5764 -0.3104  0.0555
  356TMC3    H1 5390   2.006   1.214  11.986 -0.6558  0.0551  0.4266
  356TMC3    H2 5391   2.325   1.395  11.775  0.3327 -0.1680  0.2373
  356TMC3    C7 5392   2.147   1.441  11.964 -0.4836  0.5353 -0.5036
  356TMC3    C8 5393   2.355   1.208  11.591 -0.3237 -0.7663 -0.4269
  356TMC3    O1 5394   2.029   1.449  11.997  0.4142  0.9736 -0.6285
  356TMC3    O2 5395   2.316   1.140  11.499  0.0301 -0.1633  0.4409
  357MPD2     C 5396   1.062   0.556   0.504  0.2371  0.1098  0.3731
  357MPD2    C1 5397   1.128   0.479   0.602 -0.9891 -0.2472 -0.2796
  357MPD2    C2 5398   1.062   0.459   0.720  0.3274  0.7272 -0.0753
  357MPD2    C3 5399   0.948   0.526   0.753 -0.3476 -0.9575  0.0455
  357MPD2    C4 5400   0.894   0.615   0.662 -0.5763  0.1921  0.4541
  357MPD2    C5 5401   0.952   0.631   0.541 -0.4037 -0.2987 -0.1624
  357MPD2     H 5402   1.108   0.395   0.794  0.2826 -1.3172 -1.8071
  357MPD2    H1 5403   0.797   0.664   0.673  0.7962  3.3016 -1.3477
  357MPD2    H2 5404   1.095   0.560   0.401 -1.3664 -1.0525 -0.1674
  357MPD2    H3 5405   0.912   0.697   0.465 -0.6528  1.0826  1.1682
  357MPD2     N 5406   0.875   0.514   0.871  0.6661  0.1683  0.1173
  357MPD2    H5 5407   0.804   0.582   0.899  0.3562  0.6952 -1.9832
  357MPD2    N1 5408   1.230   0.397   0.563  0.9821  0.1563 -0.5546
  357MPD2    H7 5409   1.254   0.389   0.465 -0.4361 -1.7642 -0.7428
  358TMC3    C1 5410   1.381   0.228   0.564  0.5918  0.6560  0.0921
  358TMC3    C2 5411   1.325   0.164   0.463 -0.6649 -0.3466  0.0160
  358TMC3    C3 5412   1.378   0.047   0.425 -0.3186 -0.0160 -1.0513
  358TMC3    C4 5413   1.492   0.185   0.631  0.4833 -0.1760 -0.3266
  358TMC3    C5 5414   1.545   0.069   0.593  0.1445 -0.5326  0.3209
  358TMC3    C6 5415   1.481   4.733   0.495  0.7091 -0.7241  0.1518
  358TMC3     C 5416   1.302   0.319   0.642  0.1457  0.2437 -0.3126
  358TMC3     O 5417   1.307   0.311   0.766  0.9257  0.5484 -0.1768
  358TMC3     H 5418   1.248   0.206   0.398 -1.7277  0.7068  1.9265
  358TMC3    H1 5419   1.528   0.239   0.718  1.2685 -3.0005  1.0814
  358TMC3    H2 5420   1.531   4.653   0.442 -0.1883 -1.2610  0.1223
  358TMC3    C7 5421   1.636   4.725   0.674 -0.3528 -0.2742 -0.4259
  358TMC3    C8 5422   1.295   4.687   0.349  0.3969 -0.2360  0.3250
  358TMC3    O1 5423   1.668   4.618   0.625 -1.1142 -0.2783  0.5664
  358TMC3    O2 5424   1.223   0.002   0.266 -0.0892  0.1619 -0.0663
  359MPD2     C 5425   2.747   4.217  12.723 -0.6476  0.1704  0.0505
  359MPD2    C1 5426   2.693   4.108  12.653 -0.5919  0.2444  0.3325
  359MPD2    C2 5427   2.552   4.107  12.634  0.0152 -0.4141  0.1604
  359MPD2    C3 5428   2.468   4.204  12.690  0.6594 -0.0346  0.4836
  359MPD2    C4 5429   2.529   4.306  12.762 -0.3889 -0.1516 -0.5611
  359MPD2    C5 5430   2.664   4.309  12.783 -0.2594 -0.7700  0.5652
  359MPD2     H 5431   2.509   4.019  12.587  0.6028  0.4178 -1.9761
  359MPD2    H1 5432   2.475   4.378  12.822  1.6480  0.2193  0.8072
  359MPD2    H2 5433   2.855   4.227  12.725 -0.6299 -0.0221  0.0125
  359MPD2    H3 5434   2.701   4.402  12.824 -3.9469 -0.3026  2.8084
  359MPD2     N 5435   2.328   4.213  12.690 -0.3561  0.2255 -0.0221
  359MPD2    H5 5436   2.285   4.301  12.716 -2.0387 -0.6752  0.2525
  359MPD2    N1 5437   2.775   4.021  12.571 -0.4473 -0.0424 -0.5728
  359MPD2    H7 5438   2.725   3.958  12.509 -1.7034 -1.7223  2.1339
  360TMC3    C1 5439   2.960   3.913  12.462 -0.3929  0.2453 -0.1797
  360TMC3    C2 5440   3.089   3.915  12.411 -0.4002 -0.2327 -0.8449
  360TMC3    C3 5441   3.126   3.813  12.325  0.2321  0.0110 -0.4048
  360TMC3    C4 5442   2.870   3.810  12.427  1.1666 -0.3904  0.1589
  360TMC3    C5 5443   2.918   3.705  12.352  0.2198 -0.0445  0.2575
  360TMC3    C6 5444   3.043   3.704  12.296  0.1530 -0.6002  0.8218
  360TMC3     C 5445   2.912   4.026  12.548 -0.3210  0.0465  0.4075
  360TMC3     O 5446   2.994   4.094  12.609 -0.0860 -0.3086 -0.4350
  360TMC3     H 5447   3.129   4.015  12.405 -0.4192 -0.1133  0.8401
  360TMC3    H1 5448   2.774   3.805  12.477  0.6326  0.5056 -0.7601
  360TMC3    H2 5449   3.071   3.628  12.224  3.4481  1.4992 -0.0857
  360TMC3    C7 5450   2.825   3.609  12.290 -0.3597  0.3328  0.3439
  360TMC3    C8 5451   3.227   3.847  12.224  0.1999 -0.4278 -0.7014
  360TMC3    O1 5452   2.846   3.491  12.287  0.2831 -0.1129  0.2230
  360TMC3    O2 5453   3.260   3.962  12.217 -0.3118  0.2257 -0.0088
  361MPD2     C 5454   3.692   3.076  16.607 -0.5643  0.5870 -0.3793
  361MPD2    C1 5455   3.662   3.053  16.742 -0.3632 -0.1392 -0.9136
  361MPD2    C2 5456   3.755   2.999  16.828  0.5348 -0.4364  0.0714
  361MPD2    C3 5457   3.871   2.946  16.782 -0.4237  0.1204 -0.1391
  361MPD2    C4 5458   3.893   2.954  16.644 -0.7132 -0.3508  0.0812
  361MPD2    C5 5459   3.804   3.022  16.559  0.6140  0.3006 -0.0229
  361MPD2     H 5460   3.736   2.986  16.934  0.0847 -0.3623  0.0017
  361MPD2    H1 5461   3.996   2.953  16.607 -0.0196 -0.9158  2.0532
  361MPD2    H2 5462   3.636   3.136  16.536 -0.1601  0.6766 -0.6229
  361MPD2    H3 5463   3.834   3.040  16.457 -0.3734 -1.1194 -0.5519
  361MPD2     N 5464   3.972   2.881  16.863 -0.6706 -0.6081 -0.2484
  361MPD2    H5 5465   4.054   2.843  16.818 -2.2173  0.2150 -3.7804
  361MPD2    N1 5466   3.530   3.079  16.785  0.0099 -0.0495 -0.4593
  361MPD2    H7 5467   3.474   3.134  16.721  0.3846  0.1117 -0.6500
  362TMC3    C1 5468   3.331   3.088  16.909 -0.1545 -0.5201 -0.5448
  362TMC3    C2 5469   3.259   3.042  17.015  0.6909 -0.4059 -0.1711
  362TMC3    C3 5470   3.141   3.112  17.048  0.1230 -0.7704 -1.2307
  362TMC3    C4 5471   3.286   3.183  16.823 -0.3527 -0.0051 -0.1026
  362TMC3    C5 5472   3.160   3.231  16.847  0.0634  0.2573 -0.2172
  362TMC3    C6 5473   3.088   3.202  16.961 -0.1497  0.1224  0.1156
  362TMC3     C 5474   3.467   3.045  16.904 -0.1019 -0.4027  0.2451
  362TMC3     O 5475   3.518   2.987  16.996  0.0002 -0.6865 -0.2813
  362TMC3     H 5476   3.303   2.965  17.078 -0.4776 -0.7245  0.2642
  362TMC3    H1 5477   3.345   3.227  16.744 -0.5423  0.9317  0.2800
  362TMC3    H2 5478   2.993   3.249  16.984  0.0394  1.1802 -1.2791
  362TMC3    C7 5479   3.103   3.303  16.737 -0.4613 -0.4074  0.4994
  362TMC3    C8 5480   3.065   3.065  17.160 -0.1558 -0.4364  0.4144
  362TMC3    O1 5481   3.025   3.398  16.753  0.1971  0.4614  0.0357
  362TMC3    O2 5482   3.043   2.944  17.148 -0.0631  0.4883  0.2063
  363TMC3    C1 5483   1.190   0.197   9.694 -0.5824 -0.2048  0.5097
  363TMC3    C2 5484   1.189   0.062   9.734 -0.7687 -0.0575  0.9077
  363TMC3    C3 5485   1.065   0.004   9.740 -0.0306 -0.3346  0.4974
  363TMC3    C4 5486   1.077   0.270   9.668 -0.1841  0.4446  0.7914
  363TMC3    C5 5487   0.956   0.208   9.685 -0.7419  0.5563 -0.0363
  363TMC3    C6 5488   0.953   0.080   9.724 -0.7108  0.1055 -0.1109
  363TMC3     C 5489   1.317   0.264   9.688  0.4566  0.5573 -1.1799
  363TMC3     O 5490   1.332   0.370   9.621 -0.1335  0.1672  0.1465
  363TMC3     H 5491   1.280   0.004   9.741 -1.1101 -0.8506 -1.4284
  363TMC3    H1 5492   1.080   0.374   9.636 -0.6378  0.3298  0.3763
  363TMC3    H2 5493   0.857   0.032   9.740 -0.5846  0.0882  0.5713
  363TMC3    C7 5494   0.838   0.285   9.725 -0.2789  0.2638  0.4410
  363TMC3    C8 5495   1.048   4.633   9.833  0.7378  0.0101  0.6933
  363TMC3    O1 5496   0.729   0.225   9.703 -0.0140  0.1050  0.2456
  363TMC3    O2 5497   0.973   4.646   9.928  0.3566 -0.2304 -0.2563
  364MPD2     C 5498   0.809   4.286  11.086  0.2085 -0.4946 -0.2993
  364MPD2    C1 5499   0.918   4.258  10.998  0.0987  0.0568 -0.3830
  364MPD2    C2 5500   1.004   4.150  11.022  0.0345 -0.4325 -0.0046
  364MPD2    C3 5501   1.002   4.085  11.142 -0.3508  0.1847  0.3263
  364MPD2    C4 5502   0.905   4.119  11.231  0.5245  0.0103 -0.0598
  364MPD2    C5 5503   0.804   4.207  11.195 -0.0818  0.1293  0.2637
  364MPD2     H 5504   1.095   4.132  10.965  0.0416 -1.3291  0.2916
  364MPD2    H1 5505   0.896   4.065  11.324 -1.6491  1.8724  0.7826
  364MPD2    H2 5506   0.729   4.359  11.073 -0.1145 -0.9175 -0.6663
  364MPD2    H3 5507   0.728   4.228  11.269  0.3073  2.9836 -0.1372
  364MPD2     N 5508   1.097   3.988  11.175 -0.5298  0.2326 -0.0422
  364MPD2    H5 5509   1.095   3.956  11.271  1.1756  2.6071  0.7918
  364MPD2    N1 5510   0.931   4.337  10.884  1.0571  0.0705 -0.3199
  364MPD2    H7 5511   0.870   4.417  10.870  0.4164 -0.5108 -0.8710
  365TMC3    C1 5512   1.049   4.438  10.708 -0.4125  0.2323  0.1172
  365TMC3    C2 5513   1.123   4.409  10.598 -0.1506  0.1962 -0.0775
  365TMC3    C3 5514   1.188   4.517  10.545 -0.0920 -0.3140  0.1955
  365TMC3    C4 5515   1.046   4.560  10.778  0.2814 -0.8937  0.4976
  365TMC3    C5 5516   1.110   4.665  10.715 -1.0011  0.2400 -0.1838
  365TMC3    C6 5517   1.185   4.646  10.601 -0.6887  0.3181  0.1493
  365TMC3     C 5518   1.028   4.317  10.790 -0.1152 -0.4666 -0.4698
  365TMC3     O 5519   1.105   4.226  10.766 -0.0792 -0.5770  0.2334
  365TMC3     H 5520   1.121   4.311  10.553 -0.7268 -0.6105  1.6950
  365TMC3    H1 5521   0.987   4.568  10.869 -0.3842  1.3571 -0.1379
  365TMC3    H2 5522   1.220   4.730  10.541  1.8451 -0.6677  0.2322
  365TMC3    C7 5523   1.107   0.053  10.768  0.0778 -0.3805  0.5309
  365TMC3    C8 5524   1.278   4.499  10.432  0.1772 -0.7262  0.1573
  365TMC3    O1 5525   1.180   0.136  10.718 -0.1260  0.2690 -0.4216
  365TMC3    O2 5526   1.333   4.596  10.379  0.3686  0.4370 -0.0584
  366MPD2     C 5527   3.713   1.348  15.186  0.0760 -0.4835 -0.3470
  366MPD2    C1 5528   3.800   1.457  15.200  0.2760  0.0943 -0.1535
  366MPD2    C2 5529   3.940   1.444  15.191 -0.1818  0.5431  0.2073
  366MPD2    C3 5530   3.994   1.322  15.159  0.2365 -0.2344 -0.6253
  366MPD2    C4 5531   3.907   1.213  15.153 -0.1338 -0.0072 -0.5361
  366MPD2    C5 5532   3.773   1.226  15.168  0.0421 -0.1839  0.4450
  366MPD2     H 5533   4.000   1.531  15.214  0.7126  0.3600 -1.3976
  366MPD2    H1 5534   3.941   1.113  15.127  1.0091  0.4447 -0.7557
  366MPD2    H2 5535   3.605   1.363  15.184  0.1612  0.2457  0.8265
  366MPD2    H3 5536   3.718   1.135  15.150 -1.1516  0.2493  1.8495
  366MPD2     N 5537   4.136   1.303  15.143  0.2455  0.1599 -0.2463
  366MPD2    H5 5538   4.194   1.382  15.173  1.2433 -0.3576 -0.8083
  366MPD2    N1 5539   3.755   1.588  15.217 -0.2583 -0.2174  0.0008
  366MPD2    H7 5540   3.830   1.657  15.218 -1.9167  1.5703 -0.6758
  367TMC3    C1 5541   3.608   1.774  15.215  0.0440 -0.8070  0.4913
  367TMC3    C2 5542   3.686   1.845  15.303  0.1573  0.1164  0.6680
  367TMC3    C3 5543   3.658   1.976  15.324 -0.7292 -0.4140  0.2607
  367TMC3    C4 5544   3.516   1.833  15.131  0.7227  0.2539 -0.6121
  367TMC3    C5 5545   3.498   1.964  15.159  0.0966 -0.1908  0.1182
  367TMC3    C6 5546   3.557   2.035  15.250  0.4227  0.1042 -0.0615
  367TMC3     C 5547   3.621   1.631  15.204 -0.7910  0.5435 -0.9030
  367TMC3     O 5548   3.519   1.571  15.184 -0.7628 -0.1760 -0.2486
  367TMC3     H 5549   3.772   1.795  15.347  0.5321  0.8198  0.7327
  367TMC3    H1 5550   3.452   1.770  15.070  0.1573  2.1310 -1.9593
  367TMC3    H2 5551   3.531   2.139  15.263 -0.6867 -0.2501  0.5928
  367TMC3    C7 5552   3.416   2.034  15.073  0.5781  0.1860  0.0523
  367TMC3    C8 5553   3.773   2.051  15.381 -0.1498 -0.5549 -0.2041
  367TMC3    O1 5554   3.346   2.122  15.120  0.4696 -0.1340 -0.0230
  367TMC3    O2 5555   3.881   1.995  15.361  0.0628 -0.1229  0.2195
  368MPD2     C 5556   0.623   3.206  12.787  0.3023 -0.2367  0.3265
  368MPD2    C1 5557   0.626   3.327  12.848 -0.0080 -0.2465 -0.5834
  368MPD2    C2 5558   0.719   3.421  12.803 -0.3852 -0.1257  0.2559
  368MPD2    C3 5559   0.822   3.392  12.714  0.3457 -0.1579 -0.1506
  368MPD2    C4 5560   0.812   3.272  12.647  0.0767 -0.9320 -0.2088
  368MPD2    C5 5561   0.711   3.187  12.679 -0.1743  0.8038  0.3497
  368MPD2     H 5562   0.717   3.519  12.850 -0.0331  1.2429 -2.5944
  368MPD2    H1 5563   0.893   3.246  12.580  0.5077  1.8211 -0.7579
  368MPD2    H2 5564   0.554   3.127  12.816  0.4712 -0.9402 -1.2271
  368MPD2    H3 5565   0.703   3.094  12.623 -0.5848  0.2321  1.3567
  368MPD2     N 5566   0.935   3.473  12.692  0.2469 -0.4918 -1.1058
  368MPD2    H5 5567   1.003   3.445  12.622  0.1356 -0.0472 -1.3927
  368MPD2    N1 5568   0.526   3.356  12.943 -0.1910  0.2133 -0.7672
  368MPD2    H7 5569   0.467   3.275  12.959  0.5689  0.0777  1.3362
  369TMC3    C1 5570   0.383   3.496  13.072  0.8214  0.7288  0.0914
  369TMC3    C2 5571   0.368   3.623  13.118 -0.0200  0.1995  0.2147
  369TMC3    C3 5572   0.243   3.679  13.118  0.1117 -0.0047 -0.6455
  369TMC3    C4 5573   0.276   3.419  13.053 -0.3043  0.2268  0.1359
  369TMC3    C5 5574   0.158   3.475  13.062  0.2830 -0.0588 -0.0591
  369TMC3    C6 5575   0.136   3.608  13.086 -0.4367  0.5753 -0.1387
  369TMC3     C 5576   0.512   3.478  13.015 -0.2676  0.1035 -0.2295
  369TMC3     O 5577   0.592   3.573  13.023 -0.3635  0.5492 -0.3322
  369TMC3     H 5578   0.452   3.686  13.145  0.0442  0.2842 -0.1933
  369TMC3    H1 5579   0.287   3.315  13.023  0.0880  0.4907 -0.6492
  369TMC3    H2 5580   0.038   3.655  13.089  0.7589  2.9869  1.1918
  369TMC3    C7 5581   0.044   3.385  13.088  0.3770 -0.1239 -0.5920
  369TMC3    C8 5582   0.230   3.821  13.079 -0.4880 -0.5805  0.8653
  369TMC3    O1 5583   0.071   3.271  13.130  0.1567  0.1508  0.0189
  369TMC3    O2 5584   0.124   3.856  13.032  0.2158  0.3333 -0.0874
  370TMC3    C1 5585   4.710   4.000  16.362  0.1143  0.0808  0.8831
  370TMC3    C2 5586   4.636   3.975  16.470  0.1581 -0.4257 -0.4732
  370TMC3    C3 5587   4.544   3.872  16.461 -0.4670  0.3506 -0.6771
  370TMC3    C4 5588   4.685   3.943  16.240 -0.1014 -0.4439 -0.1138
  370TMC3    C5 5589   4.589   3.847  16.232  0.6204  0.0239 -0.7842
  370TMC3    C6 5590   4.513   3.810  16.344 -0.2214 -0.2411  0.3128
  370TMC3     C 5591   0.102   4.064  16.392  0.4296 -0.2523 -0.3384
  370TMC3     O 5592   0.132   4.083  16.506  0.4664 -0.2958 -0.1115
  370TMC3     H 5593   4.665   4.019  16.565 -1.7013 -1.5048  0.5839
  370TMC3    H1 5594   4.738   3.984  16.155 -1.3733 -0.9913 -1.1746
  370TMC3    H2 5595   4.424   3.752  16.321  0.3045 -0.4462 -1.1879
  370TMC3    C7 5596   4.563   3.777  16.109 -0.2446  0.2679  0.4086
  370TMC3    C8 5597   4.510   3.788  16.571  0.7445  0.0046  0.0277
  370TMC3    O1 5598   4.444   3.742  16.098  0.0394 -0.4213 -0.3380
  370TMC3    O2 5599   4.466   3.679  16.537 -0.9867  0.3215  0.8638
  371TMC3    C1 5600   1.104   2.338  15.364 -0.4648  0.1701 -0.7167
  371TMC3    C2 5601   0.997   2.377  15.437  0.5713  0.6138  0.2882
  371TMC3    C3 5602   0.949   2.504  15.421  0.0968  0.0805  0.4182
  371TMC3    C4 5603   1.173   2.427  15.286 -0.2964 -0.5441  0.3249
  371TMC3    C5 5604   1.125   2.552  15.270 -0.1662  0.4575 -0.3419
  371TMC3    C6 5605   1.010   2.593  15.335  0.5510 -0.1698  0.1488
  371TMC3     C 5606   1.161   2.199  15.376  0.1722  0.6171  0.4296
  371TMC3     O 5607   1.272   2.183  15.332 -0.0053  0.3101  0.0840
  371TMC3     H 5608   0.949   2.312  15.509  1.0438 -0.3638 -0.2891
  371TMC3    H1 5609   1.257   2.392  15.228 -0.3792  0.7961 -0.5904
  371TMC3    H2 5610   0.969   2.694  15.335  0.7782 -0.0862  2.8045
  371TMC3    C7 5611   1.195   2.661  15.209  0.9810 -0.7076 -0.9772
  371TMC3    C8 5612   0.847   2.559  15.514 -0.5389 -0.0539  0.5392
  371TMC3    O1 5613   1.153   2.774  15.224  0.5984  0.0386 -0.0834
  371TMC3    O2 5614   0.817   2.678  15.506 -0.5682 -0.6638  0.4727
  372MPD2     C 5615   0.873   3.514  13.320  0.0909 -0.1574  0.0516
  372MPD2    C1 5616   0.913   3.427  13.417 -0.3688  0.2490  0.0999
  372MPD2    C2 5617   0.822   3.370  13.510  0.0638 -0.0159  0.5557
  372MPD2    C3 5618   0.688   3.416  13.509  0.8462  0.0248 -0.1736
  372MPD2    C4 5619   0.650   3.514  13.420 -0.3922 -0.5855 -0.7476
  372MPD2    C5 5620   0.739   3.560  13.325 -0.1709 -0.5087 -0.6210
  372MPD2     H 5621   0.853   3.294  13.581 -1.6782 -0.6972  0.5884
  372MPD2    H1 5622   0.546   3.545  13.411 -0.5257 -0.2749  1.9914
  372MPD2    H2 5623   0.935   3.546  13.237  0.2675  1.5599  0.8464
  372MPD2    H3 5624   0.706   3.632  13.251  2.1545 -0.3353 -1.5001
  372MPD2     N 5625   0.603   3.345  13.594 -0.5376 -0.5812 -0.1737
  372MPD2    H5 5626   0.623   3.257  13.640  0.1587  0.2751  1.1728
  372MPD2    N1 5627   1.051   3.386  13.435  0.2408  0.0965  0.3086
  372MPD2    H7 5628   1.072   3.330  13.516  3.5323  0.0361 -0.5805
  373TMC3    C1 5629   0.415   3.281  13.692 -0.1758 -0.4871  0.2589
  373TMC3    C2 5630   0.303   3.324  13.758  0.1638  0.0365  0.0233
  373TMC3    C3 5631   0.216   3.243  13.825  0.6794  0.8132  0.1877
  373TMC3    C4 5632   0.443   3.147  13.682 -0.7502 -0.2485 -0.1948
  373TMC3    C5 5633   0.361   3.069  13.752 -0.2271  0.3657 -0.6342
  373TMC3    C6 5634   0.248   3.110  13.825 -0.1562 -0.0910  0.4421
  373TMC3     C 5635   0.469   3.384  13.608  0.0107 -0.2067 -0.2982
  373TMC3     O 5636   0.407   3.487  13.589 -0.0604 -0.2598 -0.7876
  373TMC3     H 5637   0.283   3.430  13.755  2.6686  0.5750  1.6316
  373TMC3    H1 5638   0.525   3.108  13.624 -0.5462 -0.3405  0.1545
  373TMC3    H2 5639   0.188   3.037  13.878 -3.0022  0.7277 -1.6589
  373TMC3    C7 5640   0.385   2.922  13.750 -0.3632  0.0967  0.3284
  373TMC3    C8 5641   0.186   3.295  13.958  0.0986 -0.1693  0.0651
  373TMC3    O1 5642   0.314   2.863  13.829  0.3561 -0.3265 -0.2632
  373TMC3    O2 5643   0.073   3.272  14.008 -1.0220 -0.6668  0.1493
  374TMC3    C1 5644   0.887   2.887  10.501  1.2300 -0.6300  0.3474
  374TMC3    C2 5645   0.988   2.945  10.422 -0.7742  0.0475 -0.3705
  374TMC3    C3 5646   0.990   2.908  10.287  0.5603 -0.3991 -0.0190
  374TMC3    C4 5647   0.786   2.825  10.449  0.0417  0.4731 -0.0567
  374TMC3    C5 5648   0.781   2.810  10.313 -0.4010  0.1899 -0.6112
  374TMC3    C6 5649   0.873   2.863  10.231  0.5345 -0.8491 -0.7116
  374TMC3     C 5650   0.884   2.918  10.643 -0.1441 -0.2060  0.3081
  374TMC3     O 5651   0.985   2.921  10.714  0.0587  0.1086 -0.1677
  374TMC3     H 5652   1.069   2.998  10.472 -1.9732  1.5870 -0.0607
  374TMC3    H1 5653   0.711   2.780  10.513  1.2285 -2.4880 -0.7133
  374TMC3    H2 5654   0.878   2.857  10.123  1.5056  1.8033 -0.8107
  374TMC3    C7 5655   0.644   2.777  10.256 -0.0713  0.1103  0.0567
  374TMC3    C8 5656   1.066   2.994  10.200  0.3956  0.6896  0.2662
  374TMC3    O1 5657   0.557   2.746  10.340  0.3344  0.5325  0.4478
  374TMC3    O2 5658   1.020   3.029  10.094 -0.4262 -0.0163  0.0915
  375MPD2     C 5659   0.847   0.250  16.720 -0.4480  0.2179  0.1603
  375MPD2    C1 5660   0.879   0.160  16.818  0.0965 -0.2343 -0.2921
  375MPD2    C2 5661   0.988   0.082  16.795  0.1305 -0.5667 -0.1953
  375MPD2    C3 5662   1.068   0.089  16.681  0.7758 -0.4411  0.2587
  375MPD2    C4 5663   1.030   0.184  16.591  0.7633  0.1318  0.0489
  375MPD2    C5 5664   0.917   0.255  16.605 -0.6447 -0.2952 -0.4969
  375MPD2     H 5665   1.007   0.006  16.870 -0.8496 -0.7906 -0.1812
  375MPD2    H1 5666   1.071   0.195  16.491  0.1699 -0.6775 -0.2783
  375MPD2    H2 5667   0.770   0.326  16.728 -2.2259 -1.6170  0.2396
  375MPD2    H3 5668   0.893   0.325  16.527  0.5759 -0.1238 -0.7182
  375MPD2     N 5669   1.193   0.034  16.656  0.2310  0.8172 -0.1891
  375MPD2    H5 5670   1.237   0.041  16.565  0.4012 -3.0491 -0.4018
  375MPD2    N1 5671   0.816   0.149  16.942  0.4054 -0.1244 -0.2188
  375MPD2    H7 5672   0.859   0.079  17.001 -0.1091 -0.3940 -0.1644
  376TMC3    C1 5673   1.355   4.610  16.681  0.4972  0.9664 -0.1628
  376TMC3    C2 5674   1.462   4.578  16.761 -0.0022 -0.3415 -0.2395
  376TMC3    C3 5675   1.581   4.532  16.703  0.6778  0.2758  0.1070
  376TMC3    C4 5676   1.369   4.600  16.546  0.6120 -0.2903  0.5187
  376TMC3    C5 5677   1.482   4.546  16.491  0.3934  0.1337 -0.9557
  376TMC3    C6 5678   1.592   4.519  16.564  0.3153  0.6948  0.4360
  376TMC3     C 5679   1.249   4.685  16.743  0.0764 -0.7940  0.5123
  376TMC3     O 5680   1.234   4.678  16.863  0.7170 -0.6215  0.1712
  376TMC3     H 5681   1.452   4.586  16.869 -1.9556  0.5075 -0.4664
  376TMC3    H1 5682   1.299   4.635  16.470  1.1244  2.2139  1.2041
  376TMC3    H2 5683   1.683   4.475  16.524  0.6808  0.6985  1.2453
  376TMC3    C7 5684   1.475   4.506  16.353  0.4048  0.0728  0.0114
  376TMC3    C8 5685   1.691   4.515  16.789 -0.8302  0.1601 -0.0822
  376TMC3    O1 5686   1.405   4.566  16.271  0.0006  0.2869 -0.6726
  376TMC3    O2 5687   1.793   4.560  16.737  0.0395 -0.4006  0.2608
  377MPD2     C 5688   4.268   3.718  12.943  0.2390  0.1918 -0.1765
  377MPD2    C1 5689   4.195   3.766  12.834 -0.2921 -0.0894  0.0241
  377MPD2    C2 5690   4.055   3.772  12.840  0.5913 -0.3354  0.3663
  377MPD2    C3 5691   3.995   3.723  12.959 -0.0062 -0.1050  0.4054
  377MPD2    C4 5692   4.078   3.702  13.063  0.0412  0.7388 -0.1686
  377MPD2    C5 5693   4.214   3.698  13.063  0.0794 -0.4498 -0.5601
  377MPD2     H 5694   3.986   3.802  12.761  0.6504  1.2111  0.9120
  377MPD2    H1 5695   4.035   3.667  13.156  0.8027  2.9296  0.9888
  377MPD2    H2 5696   4.376   3.707  12.941  0.3249  0.8446  1.3025
  377MPD2    H3 5697   4.271   3.659  13.147  3.0008  0.6356 -2.0419
  377MPD2     N 5698   3.857   3.726  12.989  0.3926 -0.6089 -0.4331
  377MPD2    H5 5699   3.830   3.693  13.082 -0.4757  1.8785  0.2002
  377MPD2    N1 5700   4.263   3.789  12.709  0.6400 -0.5383 -0.0292
  377MPD2    H7 5701   4.364   3.777  12.705  0.5792 -0.7884 -1.0441
  378TMC3    C1 5702   4.312   3.860  12.254  0.0698 -0.2154  0.3544
  378TMC3    C2 5703   4.239   3.872  12.366  0.1609  0.3330 -0.1146
  378TMC3    C3 5704   4.301   3.851  12.488  0.2524  0.2827  0.0355
  378TMC3    C4 5705   4.443   3.815  12.264 -0.5661 -0.7374 -0.5103
  378TMC3    C5 5706   4.491   3.791  12.392 -0.0764 -0.0627  0.4339
  378TMC3    C6 5707   4.429   3.816  12.509  0.6330  0.1689 -0.0818
  378TMC3     C 5708   4.229   3.830  12.142  0.1908 -0.0427 -0.3811
  378TMC3     O 5709   4.108   3.815  12.161 -0.7542  0.2618 -0.8015
  378TMC3     H 5710   4.142   3.920  12.367 -0.0167 -0.0268 -0.1790
  378TMC3    H1 5711   4.499   3.787  12.176  0.0899 -2.3976  0.4524
  378TMC3    H2 5712   4.477   3.808  12.606  2.3755  0.7850 -0.8968
  378TMC3    C7 5713   4.628   3.740  12.416 -0.9849  0.1936 -0.1219
  378TMC3    C8 5714   4.208   3.842  12.594 -0.3301 -0.1372 -0.4780
  378TMC3    O1 5715   4.657   3.717  12.533 -0.4730 -0.4872 -0.1497
  378TMC3    O2 5716   4.092   3.878  12.580 -0.1411  0.2313 -0.1214
  379MPD2     C 5717   4.387   2.092  16.379 -0.1265 -0.7655 -0.0328
  379MPD2    C1 5718   4.475   2.033  16.282  0.9200 -0.1100 -0.5649
  379MPD2    C2 5719   4.577   1.948  16.332  0.1326 -0.6832  0.0382
  379MPD2    C3 5720   4.577   1.904  16.468  0.2704  0.2415 -0.2526
  379MPD2    C4 5721   4.481   1.956  16.554  0.6410  0.2873 -0.3759
  379MPD2    C5 5722   4.387   2.044  16.511  0.8433 -0.1548  0.0951
  379MPD2     H 5723   4.647   1.899  16.265  2.7059  0.8544  1.6457
  379MPD2    H1 5724   4.488   1.929  16.659 -0.2696  2.5177  0.2436
  379MPD2    H2 5725   4.315   2.169  16.355  0.6257 -0.1052 -0.1678
  379MPD2    H3 5726   4.319   2.088  16.582  1.3252 -0.8730  1.0092
  379MPD2     N 5727   4.664   1.811  16.516  0.3471  0.0523  0.2430
  379MPD2    H5 5728   4.671   1.804  16.617 -0.2416  0.9136  0.3493
  379MPD2    N1 5729   4.457   2.067  16.142 -0.3599 -0.3628 -0.4472
  379MPD2    H7 5730   4.387   2.135  16.114  1.6761  1.6619 -0.5872
  380TMC3    C1 5731   4.516   2.091  15.914  0.0041  0.9280  0.2102
  380TMC3    C2 5732   4.568   2.025  15.802  0.2789 -0.0254  0.5287
  380TMC3    C3 5733   4.527   2.064  15.678  0.2388  0.0517 -0.3610
  380TMC3    C4 5734   4.411   2.177  15.897  0.7838  0.3342  0.0355
  380TMC3    C5 5735   4.370   2.208  15.773  0.0275 -0.9575  0.0791
  380TMC3    C6 5736   4.424   2.153  15.658  0.2973 -0.4417  0.4736
  380TMC3     C 5737   4.540   2.024  16.040  0.0229 -0.0929  0.1407
  380TMC3     O 5738   4.630   1.939  16.039 -0.1316  0.0704 -0.1472
  380TMC3     H 5739   4.642   1.946  15.801 -1.9910 -2.1489  0.1559
  380TMC3    H1 5740   4.370   2.229  15.982 -0.6596 -0.5535 -0.1224
  380TMC3    H2 5741   4.406   2.200  15.561  1.7109 -0.2543  0.2942
  380TMC3    C7 5742   4.252   2.297  15.766 -0.1063 -0.2114 -0.3329
  380TMC3    C8 5743   4.597   2.016  15.564 -0.5992 -0.3945 -0.8814
  380TMC3    O1 5744   4.249   2.390  15.846  0.2850  0.7875 -0.3598
  380TMC3    O2 5745   4.708   1.963  15.574 -0.2059 -0.1757 -0.7531
  381TMC3    C1 5746   4.378   3.365  16.241  0.4664 -1.1514  0.3702
  381TMC3    C2 5747   4.487   3.446  16.271  0.1046 -0.2771  0.3229
  381TMC3    C3 5748   4.567   3.409  16.371  0.2832 -0.2035  0.1667
  381TMC3    C4 5749   4.348   3.253  16.314 -0.2252  0.4617 -0.0656
  381TMC3    C5 5750   4.436   3.225  16.414  0.1782  0.0541  0.1589
  381TMC3    C6 5751   4.545   3.301  16.448  0.0710  0.4280  0.3758
  381TMC3     C 5752   4.324   3.361  16.103  0.4279  0.5211 -0.4239
  381TMC3     O 5753   4.271   3.258  16.068 -0.5258 -0.2169 -0.2870
  381TMC3     H 5754   4.518   3.520  16.198 -0.1730 -0.0124  0.4735
  381TMC3    H1 5755   4.271   3.182  16.287  1.2511 -1.0274 -0.3175
  381TMC3    H2 5756   4.616   3.264  16.521  0.7219  1.0371  0.0507
  381TMC3    C7 5757   4.400   3.128  16.514 -0.5344  0.1495 -0.5978
  381TMC3    C8 5758   4.696   3.476  16.367  0.4728  0.3083 -0.8201
  381TMC3    O1 5759   4.386   3.015  16.479  0.4202 -0.5621 -0.0662
  381TMC3    O2 5760   0.017   3.479  16.261  0.0677  0.3837  0.2327
  382MPD2     C 5761   3.786   0.631  17.046  0.6319  0.4154 -0.0762
  382MPD2    C1 5762   3.823   0.656  17.180  0.0263 -0.1608 -0.6324
  382MPD2    C2 5763   3.798   0.553  17.274 -0.7642  0.0117 -0.0946
  382MPD2    C3 5764   3.745   0.433  17.235  0.1925 -1.0807  0.4054
  382MPD2    C4 5765   3.705   0.414  17.101 -0.3546 -0.3878  0.5023
  382MPD2    C5 5766   3.720   0.513  17.009  0.1105 -0.2180  0.2525
  382MPD2     H 5767   3.827   0.569  17.377  2.1153 -0.3894 -0.8457
  382MPD2    H1 5768   3.672   0.318  17.065 -2.1147  0.5858 -0.4874
  382MPD2    H2 5769   3.811   0.706  16.972 -1.4992  1.7666  0.5583
  382MPD2    H3 5770   3.700   0.490  16.905 -0.4158 -0.8072  0.4884
  382MPD2     N 5771   3.721   0.327  17.328  0.3750 -0.2178 -0.6061
  382MPD2    H5 5772   3.684   0.242  17.288  2.2436 -0.5091 -1.7184
  382MPD2    N1 5773   3.888   0.772  17.233 -0.4094  0.3499 -0.0585
  382MPD2    H7 5774   3.916   0.759  17.330  0.0708  1.1288 -0.0923
  383TMC3    C1 5775   3.724   0.199  17.524  0.9019  0.3020 -0.4445
  383TMC3    C2 5776   3.624   0.117  17.479  0.0479  0.3932 -0.3108
  383TMC3    C3 5777   3.595   0.009  17.557 -0.8307  0.8149  0.4437
  383TMC3    C4 5778   3.816   0.156  17.615  0.4093  0.4894 -0.3148
  383TMC3    C5 5779   3.803   0.029  17.666  0.2988  0.4418  0.9920
  383TMC3    C6 5780   3.685   4.696  17.639 -0.3009  0.0172 -0.1269
  383TMC3     C 5781   3.755   0.323  17.461  0.2810  0.2151  0.2009
  383TMC3     O 5782   3.830   0.398  17.522  0.1407 -0.3706 -0.2750
  383TMC3     H 5783   3.559   0.148  17.398 -0.6022 -0.4410 -0.1126
  383TMC3    H1 5784   3.888   0.221  17.661 -0.2099  1.5414 -0.8266
  383TMC3    H2 5785   3.659   4.614  17.706  2.9835  0.4199  1.6693
  383TMC3    C7 5786   3.916   4.705  17.722 -0.1117 -0.5365 -0.4508
  383TMC3    C8 5787   3.493   4.658  17.496  0.3930  0.0922 -0.0906
  383TMC3    O1 5788   3.899   4.615   0.043  0.0659  0.1373  0.5256
  383TMC3    O2 5789   3.398   4.705  17.428 -0.8001 -0.2052  0.0914
  384MPD2     C 5790   0.677   1.838  12.354 -0.3255 -0.0279 -0.0129
  384MPD2    C1 5791   0.639   1.710  12.355  0.2589  0.5602 -0.4653
  384MPD2    C2 5792   0.655   1.624  12.250  0.1648  0.2023 -0.5163
  384MPD2    C3 5793   0.712   1.668  12.135  1.0189 -0.0329 -0.1258
  384MPD2    C4 5794   0.758   1.799  12.137  0.2441 -0.9778  0.6638
  384MPD2    C5 5795   0.740   1.885  12.241 -0.3219  0.4960 -0.3781
  384MPD2     H 5796   0.628   1.519  12.257  1.2742  0.1104  2.6735
  384MPD2    H1 5797   0.821   1.829  12.054  0.1722 -0.7996  0.6738
  384MPD2    H2 5798   0.661   1.902  12.440  0.3335  1.9268 -1.3387
  384MPD2    H3 5799   0.773   1.988  12.237 -1.4474  0.9131  1.2175
  384MPD2     N 5800   0.730   1.588  12.020  0.2785 -0.5066 -0.4925
  384MPD2    H5 5801   0.798   1.625  11.954 -1.8081 -0.4808 -2.6491
  384MPD2    N1 5802   0.594   1.651  12.476  0.5368 -0.3751 -0.3407
  384MPD2    H7 5803   0.556   1.557  12.478 -0.3721  0.0101  0.8220
  385TMC3    C1 5804   0.742   1.375  11.905  0.0763  0.8301 -0.1374
  385TMC3    C2 5805   0.650   1.285  11.861  0.5537  0.3509  0.7636
  385TMC3    C3 5806   0.684   1.154  11.878 -0.3857  0.8705  0.2578
  385TMC3    C4 5807   0.864   1.337  11.959 -0.2526  0.2871  0.2504
  385TMC3    C5 5808   0.881   1.204  11.997 -0.5618  0.5745 -0.2011
  385TMC3    C6 5809   0.795   1.110  11.945 -0.3995 -0.6371  0.1445
  385TMC3     C 5810   0.677   1.461  12.007  0.7129 -0.1792 -0.1588
  385TMC3     O 5811   0.574   1.414  12.053  0.8099  0.5537  0.0028
  385TMC3     H 5812   0.555   1.313  11.817  0.4976 -3.2642 -1.3833
  385TMC3    H1 5813   0.922   1.412  12.012 -0.1332 -0.7440  1.5807
  385TMC3    H2 5814   0.789   1.008  11.981 -1.8938 -0.0726  1.4639
  385TMC3    C7 5815   0.924   1.183  12.136  0.5471 -0.5446 -0.1322
  385TMC3    C8 5816   0.569   1.066  11.879 -0.3164 -0.5780  0.7589
  385TMC3    O1 5817   0.942   1.282  12.203  0.9391 -0.4132  0.6951
  385TMC3    O2 5818   0.456   1.110  11.893 -0.5410 -0.5856 -0.3160
  386TMC3    C1 5819   1.216   3.817  11.949  0.1890 -0.1825 -0.8554
  386TMC3    C2 5820   1.214   3.815  11.811  0.2529 -0.3254 -0.7579
  386TMC3    C3 5821   1.142   3.911  11.750 -0.5037  0.6340  0.1002
  386TMC3    C4 5822   1.151   3.920  12.018  0.1432  0.6041  0.6752
  386TMC3    C5 5823   1.086   4.017  11.950 -0.0870  0.3395  0.1090
  386TMC3    C6 5824   1.077   4.010  11.809 -0.1778  0.8974 -0.0923
  386TMC3     C 5825   1.257   3.705  12.020  0.1487 -0.4485 -0.2324
  386TMC3     O 5826   1.184   3.667  12.107 -0.2942  0.5614  0.5587
  386TMC3     H 5827   1.268   3.745  11.749  0.3284  0.4699 -1.5836
  386TMC3    H1 5828   1.136   3.918  12.125  1.4497  0.3023  0.8473
  386TMC3    H2 5829   1.015   4.084  11.758 -1.2983  1.0135  1.4180
  386TMC3    C7 5830   0.977   4.087  12.016 -0.1469 -0.1722 -0.1533
  386TMC3    C8 5831   1.122   3.904  11.606 -0.4443  0.5985 -0.5866
  386TMC3    O1 5832   0.944   4.042  12.122 -0.1993 -0.4000 -0.5279
  386TMC3    O2 5833   1.069   4.000  11.553  0.4866  0.0818 -0.2821
  387MPD2     C 5834   3.105   4.030   9.990 -0.1944 -0.3965  0.0833
  387MPD2    C1 5835   3.222   3.992  10.048  0.3619  0.9931 -0.1588
  387MPD2    C2 5836   3.252   3.853  10.034 -0.6460  0.4448  0.2091
  387MPD2    C3 5837   3.172   3.763   9.972  0.4083 -0.2831  0.5725
  387MPD2    C4 5838   3.055   3.804   9.916  0.1755  0.3421  0.1327
  387MPD2    C5 5839   3.020   3.935   9.924 -0.0697 -0.2919  0.0525
  387MPD2     H 5840   3.345   3.822  10.080  0.7878  1.0614 -2.2722
  387MPD2    H1 5841   2.980   3.738   9.874  2.6674 -1.2440 -1.8219
  387MPD2    H2 5842   3.078   4.135   9.989  1.1830 -0.0538 -1.0980
  387MPD2    H3 5843   2.926   3.973   9.888 -1.3343  0.6275  4.3858
  387MPD2     N 5844   3.214   3.626   9.971 -0.1881  0.1629 -0.0229
  387MPD2    H5 5845   3.308   3.608  10.004 -0.1769 -1.0652 -0.7359
  387MPD2    N1 5846   3.306   4.068  10.131  0.1103  0.2464  0.1095
  387MPD2    H7 5847   3.392   4.020  10.154  0.8045  0.0646 -2.7993
  388TMC3    C1 5848   3.367   4.224  10.289 -0.0544  0.6082  0.9050
  388TMC3    C2 5849   3.321   4.321  10.366  0.0792  0.2995 -0.6479
  388TMC3    C3 5850   3.377   4.338  10.491 -0.1649 -1.1003 -0.1468
  388TMC3    C4 5851   3.449   4.123  10.346  0.0644  0.1240 -0.2917
  388TMC3    C5 5852   3.476   4.132  10.478  0.7547 -0.0800  0.6651
  388TMC3    C6 5853   3.446   4.237  10.557 -0.6446 -0.1075  0.1149
  388TMC3     C 5854   3.285   4.198  10.175  1.0043 -0.3559  0.1935
  388TMC3     O 5855   3.194   4.274  10.149 -0.0089 -0.6050 -0.1670
  388TMC3     H 5856   3.253   4.398  10.332 -1.8708 -0.6357  1.1357
  388TMC3    H1 5857   3.488   4.042  10.285 -1.0515 -1.9136  1.7028
  388TMC3    H2 5858   3.504   4.251  10.648  0.9717 -1.2754 -0.7505
  388TMC3    C7 5859   3.521   4.016  10.547 -0.7333  0.6653  0.8275
  388TMC3    C8 5860   3.347   4.470  10.562  0.2505 -0.0559 -0.0245
  388TMC3    O1 5861   3.602   4.031  10.636 -0.3265 -0.1973 -0.0786
  388TMC3    O2 5862   3.346   4.579  10.502  0.3148 -0.2959 -0.6558
  389MPD2     C 5863   2.677   2.175  11.062  0.1603 -0.4797  0.5995
  389MPD2    C1 5864   2.584   2.084  11.032  0.0736 -0.1043 -0.0013
  389MPD2    C2 5865   2.552   1.993  11.128  0.6210  0.1541  0.5575
  389MPD2    C3 5866   2.595   2.006  11.262 -0.1173  0.2917  0.9176
  389MPD2    C4 5867   2.691   2.106  11.289  0.4214 -0.1443 -0.4103
  389MPD2    C5 5868   2.733   2.184  11.188 -0.4861  0.4992 -0.4319
  389MPD2     H 5869   2.485   1.911  11.105  0.1333  0.7446 -0.1493
  389MPD2    H1 5870   2.723   2.131  11.389 -2.9570 -2.4374  1.2459
  389MPD2    H2 5871   2.712   2.239  10.981 -0.7636 -0.8786 -0.1276
  389MPD2    H3 5872   2.810   2.256  11.211 -0.8894 -0.2956  3.3085
  389MPD2     N 5873   2.547   1.935  11.369 -0.4395  0.1069 -0.1936
  389MPD2    H5 5874   2.565   1.973  11.461  1.4717 -0.3178 -0.3932
  389MPD2    N1 5875   2.541   2.075  10.900  0.5932 -0.4430  0.6041
  389MPD2    H7 5876   2.563   2.145  10.830  1.9494  0.1782  1.6530
  390TMC3    C1 5877   2.394   1.801  11.479 -0.0234  0.3887  0.2742
  390TMC3    C2 5878   2.328   1.691  11.493 -0.0080 -0.4394 -0.3593
  390TMC3    C3 5879   2.230   1.679  11.587  0.9153  0.0501 -0.7305
  390TMC3    C4 5880   2.371   1.907  11.571  0.0566 -0.3971  0.0263
  390TMC3    C5 5881   2.275   1.894  11.668 -0.2650  0.5604  0.8002
  390TMC3    C6 5882   2.200   1.779  11.676  0.3692 -0.4423 -0.5682
  390TMC3     C 5883   2.464   1.825  11.357  0.0134  0.5662 -0.4358
  390TMC3     O 5884   2.463   1.733  11.276  0.4121  0.1275  0.2520
  390TMC3     H 5885   2.347   1.607  11.427 -0.7848 -1.5269  0.8056
  390TMC3    H1 5886   2.426   2.000  11.564 -3.2771  1.4598 -1.8781
  390TMC3    H2 5887   2.151   1.753  11.769 -0.7960  0.2427 -0.9930
  390TMC3    C7 5888   2.256   2.006  11.763 -0.9667  0.1712 -0.2267
  390TMC3    C8 5889   2.140   1.573  11.568 -0.0593  0.3183  0.5979
  390TMC3    O1 5890   2.335   2.098  11.764  0.2301 -0.0735  0.4407
  390TMC3    O2 5891   2.179   1.462  11.526  0.1614  0.0914  0.2562
  391MPD2     C 5892   2.265   3.209  11.161 -0.5929 -0.0466  0.4256
  391MPD2    C1 5893   2.240   3.331  11.102  1.1070 -0.0174  0.1322
  391MPD2    C2 5894   2.173   3.337  10.981 -0.2185  0.3785 -0.1317
  391MPD2    C3 5895   2.125   3.225  10.919  0.0411  0.5043  1.0599
  391MPD2    C4 5896   2.140   3.104  10.986  0.0307  0.5100 -0.0551
  391MPD2    C5 5897   2.213   3.090  11.103 -0.3691 -0.1137 -0.2172
  391MPD2     H 5898   2.153   3.432  10.932 -0.5645  1.0454  1.3072
  391MPD2    H1 5899   2.112   3.014  10.933 -3.7883  1.4040  0.4793
  391MPD2    H2 5900   2.314   3.204  11.258  1.0956  0.2136 -0.4252
  391MPD2    H3 5901   2.236   2.994  11.147 -0.3523 -0.0883 -0.1695
  391MPD2     N 5902   2.057   3.242  10.797  0.2315 -0.0481  0.6058
  391MPD2    H5 5903   2.058   3.335  10.756 -1.2836  0.1531  1.0164
  391MPD2    N1 5904   2.281   3.442  11.167 -0.0714 -0.0289 -0.5483
  391MPD2    H7 5905   2.318   3.423  11.260 -0.0296  0.9225 -0.3746
  392TMC3    C1 5906   1.947   3.205  10.591 -0.4742  0.4938 -0.3795
  392TMC3    C2 5907   1.816   3.177  10.557  0.0923 -0.6044 -0.0961
  392TMC3    C3 5908   1.765   3.266  10.460  0.6454  0.7515 -0.6205
  392TMC3    C4 5909   2.010   3.316  10.550 -1.0222 -0.0260 -0.6852
  392TMC3    C5 5910   1.953   3.408  10.463 -0.6573  0.2187 -0.3963
  392TMC3    C6 5911   1.827   3.376  10.407 -0.5481 -0.4913 -0.4425
  392TMC3     C 5912   1.995   3.142  10.719  0.5486 -0.1501  0.1483
  392TMC3     O 5913   1.952   3.031  10.743  0.0736  0.2864  0.0162
  392TMC3     H 5914   1.762   3.088  10.586 -1.0836  1.0981  2.9176
  392TMC3    H1 5915   2.115   3.336  10.566 -1.3946  0.8410  0.6593
  392TMC3    H2 5916   1.768   3.458  10.367 -0.5322 -0.2080  0.1212
  392TMC3    C7 5917   2.035   3.523  10.414  0.2967 -0.5762 -0.7138
  392TMC3    C8 5918   1.633   3.235  10.407  0.3501 -0.2859 -0.2990
  392TMC3    O1 5919   2.143   3.543  10.464 -0.0591 -0.3353 -0.0376
  392TMC3    O2 5920   1.559   3.194  10.494  0.0332 -0.1698  0.0796
  393TMC3    C1 5921   0.568   0.360  10.812  0.2103 -0.1616  0.3649
  393TMC3    C2 5922   0.460   0.304  10.876 -0.7054  0.2436  0.2430
  393TMC3    C3 5923   0.455   0.166  10.878  0.1205  1.0925  0.1364
  393TMC3    C4 5924   0.664   0.278  10.753 -0.4617  0.1840  0.2572
  393TMC3    C5 5925   0.653   0.142  10.753 -0.2055  0.4197 -0.3748
  393TMC3    C6 5926   0.546   0.083  10.816  0.4773  0.3587 -0.4738
  393TMC3     C 5927   0.599   0.503  10.838 -0.6199 -0.3328 -0.1017
  393TMC3     O 5928   0.517   0.554  10.910 -0.5783  0.1279  0.0499
  393TMC3     H 5929   0.391   0.376  10.918  0.2680  0.7704  0.9332
  393TMC3    H1 5930   0.745   0.324  10.698  1.3091 -0.7187  2.0742
  393TMC3    H2 5931   0.529   4.716  10.816  1.5323  0.1858  0.3491
  393TMC3    C7 5932   0.722   0.059  10.661  0.8383 -0.0625 -0.0079
  393TMC3    C8 5933   0.337   0.101  10.942  0.1938  1.0471  0.2055
  393TMC3    O1 5934   0.705   4.681  10.670  0.3745 -0.0448  0.5783
  393TMC3    O2 5935   0.313   4.721  10.920  0.3203  0.3558 -0.3756
  394TMC3    C1 5936   2.402   2.016  10.728 -0.1176  0.3250  0.2269
  394TMC3    C2 5937   2.273   1.996  10.690  0.2353  0.0852 -0.0487
  394TMC3    C3 5938   2.243   1.984  10.559  0.4312 -0.3876  0.1825
  394TMC3    C4 5939   2.500   2.041  10.632  0.3665 -0.2499  0.1348
  394TMC3    C5 5940   2.464   2.048  10.503  0.2290  0.2241  0.3216
  394TMC3    C6 5941   2.338   2.013  10.460  0.2764 -0.4021  0.0541
  394TMC3     C 5942   2.440   1.987  10.858 -0.4903 -0.3145  0.1581
  394TMC3     O 5943   2.366   1.911  10.922  0.3933  0.4483  0.0749
  394TMC3     H 5944   2.202   1.969  10.767  1.0956 -1.3033  0.2680
  394TMC3    H1 5945   2.606   2.048  10.652  0.8888 -2.1385 -1.9440
  394TMC3    H2 5946   2.317   2.002  10.355  0.4391  0.5245 -0.0760
  394TMC3    C7 5947   2.558   2.067  10.401 -0.0715 -0.4732 -0.1380
  394TMC3    C8 5948   2.101   1.989  10.534 -0.3134 -0.7671  0.8152
  394TMC3    O1 5949   2.531   2.142  10.312 -0.3682 -0.5789 -0.2316
  394TMC3    O2 5950   2.045   2.062  10.614 -0.1880 -0.3685 -0.4537
  395TMC3    C1 5951   2.206   4.157  14.951 -0.4553 -0.7499  0.6808
  395TMC3    C2 5952   2.131   4.138  14.836 -0.2935  0.4732  0.2178
  395TMC3    C3 5953   2.152   4.208  14.719  0.2750 -0.2844 -0.7975
  395TMC3    C4 5954   2.308   4.252  14.954  0.8083 -0.2790 -0.7150
  395TMC3    C5 5955   2.322   4.324  14.839  0.6239 -0.5966  0.3169
  395TMC3    C6 5956   2.248   4.304  14.724  0.1304 -0.0005 -0.2985
  395TMC3     C 5957   2.216   4.036  15.025  0.4172 -0.0702 -0.6470
  395TMC3     O 5958   2.205   3.927  14.972  0.4510  0.3194 -0.0733
  395TMC3     H 5959   2.052   4.064  14.840  2.7703 -2.9072 -2.0256
  395TMC3    H1 5960   2.372   4.251  15.041 -1.0940 -1.0907  0.6922
  395TMC3    H2 5961   2.268   4.359  14.633 -0.7823 -1.8347 -1.6056
  395TMC3    C7 5962   2.424   4.431  14.840  0.5428 -0.4004 -0.4570
  395TMC3    C8 5963   2.031   4.266  14.657 -0.0041 -0.1110  0.2397
  395TMC3    O1 5964   2.421   4.505  14.936 -0.2207  0.2137  0.4506
  395TMC3    O2 5965   2.019   4.380  14.621 -0.2714 -0.3839  0.0390
  396MPD2     C 5966   1.300   0.278  16.923 -0.4622  0.9761  0.2637
  396MPD2    C1 5967   1.393   0.285  17.021 -0.0345  0.2928  0.1044
  396MPD2    C2 5968   1.473   0.393  17.031  0.1913  0.0155 -0.4738
  396MPD2    C3 5969   1.463   0.486  16.932  0.0304  0.0374  0.3910
  396MPD2    C4 5970   1.373   0.483  16.828 -0.2746  0.3461  0.2323
  396MPD2    C5 5971   1.292   0.371  16.826 -0.2237 -0.1109 -0.8029
  396MPD2     H 5972   1.554   0.395  17.103  1.6711  0.0328 -2.1203
  396MPD2    H1 5973   1.351   0.563  16.758 -1.1487 -0.2843 -0.2239
  396MPD2    H2 5974   1.235   0.192  16.908  0.9954  0.1826 -1.4148
  396MPD2    H3 5975   1.220   0.373  16.745 -0.3406  3.1349 -0.6401
  396MPD2     N 5976   1.569   0.582  16.939 -1.2507  0.7720  0.3057
  396MPD2    H5 5977   1.632   0.577  17.018  1.4777  1.8561 -1.7828
  396MPD2    N1 5978   1.407   0.172  17.108 -0.3838 -0.5895  0.0974
  396MPD2    H7 5979   1.340   0.097  17.095  0.7685 -1.3350 -1.5201
  397TMC3    C1 5980   1.469   0.024  17.268 -0.7711 -0.3905  0.0551
  397TMC3    C2 5981   1.582   4.687  17.297  0.0643 -0.6429 -0.2211
  397TMC3    C3 5982   1.588   4.564  17.245  0.5382  0.4160  0.6802
  397TMC3    C4 5983   1.362   4.701  17.222 -0.2325  0.6715  0.3881
  397TMC3    C5 5984   1.357   4.566  17.202  0.0613 -0.3653 -0.0937
  397TMC3    C6 5985   1.469   4.499  17.213  0.1367  0.3809 -0.6495
  397TMC3     C 5986   1.491   0.148  17.212 -0.0508 -0.1605 -0.9083
  397TMC3     O 5987   1.590   0.217  17.252  0.6497 -0.0833 -0.2735
  397TMC3     H 5988   1.673   0.002  17.319 -0.2271  0.2770 -1.3014
  397TMC3    H1 5989   1.265   0.006  17.242  0.2780  2.0666 -0.3393
  397TMC3    H2 5990   1.472   4.395  17.181  0.7446  0.3451 -0.4786
  397TMC3    C7 5991   1.257   4.493  17.272  0.6052  0.3268 -0.6963
  397TMC3    C8 5992   1.685   4.474  17.295 -0.3575 -0.2902 -0.1567
  397TMC3    O1 5993   1.144   4.534  17.250  0.3892  0.2028 -0.2916
  397TMC3    O2 5994   1.640   4.381  17.359  0.1767  0.7055 -0.3194
  398MPD2     C 5995   0.386   2.043   0.459  0.3521 -0.1917 -0.2312
  398MPD2    C1 5996   0.479   1.948   0.436  0.3539 -0.3552  0.0683
  398MPD2    C2 5997   0.608   1.996   0.417 -0.8588 -0.2752 -0.5064
  398MPD2    C3 5998   0.631   2.131   0.427  0.5613  0.0385  0.0126
  398MPD2    C4 5999   0.529   2.223   0.452 -0.2455  0.0117 -0.6281
  398MPD2    C5 6000   0.410   2.174   0.467 -0.4366 -0.2834 -0.3685
  398MPD2     H 6001   0.690   1.936   0.381  0.8804  1.5010  0.5021
  398MPD2    H1 6002   0.549   2.329   0.462 -1.7825  0.3078 -0.6514
  398MPD2    H2 6003   0.287   2.019   0.495  0.4015 -1.2631 -0.7923
  398MPD2    H3 6004   0.325   2.237   0.490  0.9882  1.1009  1.1163
  398MPD2     N 6005   0.765   2.177   0.415  0.8380  0.8731  0.0995
  398MPD2    H5 6006   0.837   2.109   0.393 -1.3600 -1.5853  0.5826
  398MPD2    N1 6007   0.452   1.811   0.425 -0.7438 -0.2572  0.4689
  398MPD2    H7 6008   0.527   1.744   0.411  0.4327  0.8413  1.5909
  399TMC3    C1 6009   0.301   1.620   0.399  0.1961 -0.1707  0.1714
  399TMC3    C2 6010   0.401   1.534   0.437 -0.4677  0.4900  0.0978
  399TMC3    C3 6011   0.364   1.403   0.438  0.3796  0.3088 -0.1467
  399TMC3    C4 6012   0.182   1.576   0.348  0.0459  0.5443  0.8195
  399TMC3    C5 6013   0.151   1.444   0.346  0.1661  0.1091 -0.6168
  399TMC3    C6 6014   0.242   1.358   0.395  0.0881  0.4686  0.3529
  399TMC3     C 6015   0.324   1.766   0.407  0.4640  0.2981 -0.9172
  399TMC3     O 6016   0.226   1.830   0.385 -0.0322  0.0271  0.2431
  399TMC3     H 6017   0.500   1.566   0.466  0.4455  0.5648 -3.0658
  399TMC3    H1 6018   0.118   1.652   0.307  0.1390  0.1068 -0.1393
  399TMC3    H2 6019   0.215   1.253   0.394  0.3016  0.4378 -1.8509
  399TMC3    C7 6020   0.084   1.398   0.230 -0.0560 -0.0783  0.3295
  399TMC3    C8 6021   0.470   1.304   0.467 -0.4828  0.5740  0.0862
  399TMC3    O1 6022   0.032   1.284   0.238  0.6302  0.1897 -0.2847
  399TMC3    O2 6023   0.586   1.348   0.479  0.0141  0.4407  0.3877
  400TMC3    C1 6024   3.417   4.606  17.016  0.2922  0.5405 -0.2789
  400TMC3    C2 6025   3.309   4.573  16.932  0.4497 -0.1406  0.0841
  400TMC3    C3 6026   3.221   4.673  16.912  0.5942 -0.6705 -0.3371
  400TMC3    C4 6027   3.437   4.736  17.071 -0.0359  0.0757  0.4073
  400TMC3    C5 6028   3.350   0.089  17.031 -0.1893 -0.3086  0.4385
  400TMC3    C6 6029   3.238   0.060  16.964 -0.6540 -0.5782 -1.0607
  400TMC3     C 6030   3.502   4.499  17.057 -0.3304 -0.4168 -0.4183
  400TMC3     O 6031   3.455   4.387  17.032 -0.5191 -1.0000 -0.5064
  400TMC3     H 6032   3.293   4.475  16.889 -2.7038 -0.0389  1.0112
  400TMC3    H1 6033   3.519   0.019  17.138  1.1758 -1.5861 -0.4925
  400TMC3    H2 6034   3.161   0.135  16.955  0.9887  1.1339 -0.7649
  400TMC3    C7 6035   3.365   0.217  17.098 -0.2882  0.4073  0.2869
  400TMC3    C8 6036   3.098   4.652  16.844 -0.1489 -0.2622  0.2420
  400TMC3    O1 6037   3.423   0.224  17.209  0.6435  0.2100  0.2908
  400TMC3    O2 6038   3.010   4.733  16.865 -0.4040  0.3848  0.0495
  401MPD2     C 6039   2.158   3.567   1.352 -0.1162 -0.1453 -0.2590
  401MPD2    C1 6040   2.223   3.464   1.282 -0.3154 -0.0246  0.2362
  401MPD2    C2 6041   2.156   3.365   1.228 -0.1721  0.1094 -0.3746
  401MPD2    C3 6042   2.025   3.358   1.223 -0.1337  0.2278 -0.4914
  401MPD2    C4 6043   1.954   3.459   1.294 -0.1023 -0.3657  0.0421
  401MPD2    C5 6044   2.021   3.555   1.365  0.0697 -0.3207  0.6845
  401MPD2     H 6045   2.209   3.279   1.188 -1.4271  0.0153 -1.8301
  401MPD2    H1 6046   1.846   3.459   1.303 -0.1472  2.6922 -0.6811
  401MPD2    H2 6047   2.202   3.647   1.410  2.1294 -0.6961 -1.2236
  401MPD2    H3 6048   1.959   3.637   1.400  1.4529  2.1343 -2.5629
  401MPD2     N 6049   1.967   3.246   1.158  0.7084 -0.0123 -0.6279
  401MPD2    H5 6050   2.032   3.176   1.122  1.9553  0.2028  1.1822
  401MPD2    N1 6051   2.360   3.459   1.275  0.1545  0.3207 -0.6089
  401MPD2    H7 6052   2.407   3.379   1.232 -1.2103 -1.1032  0.5718
  402TMC3    C1 6053   1.803   3.097   1.087  0.8434  0.4730  0.2867
  402TMC3    C2 6054   1.860   2.994   1.159  0.2803 -0.6644 -0.7701
  402TMC3    C3 6055   1.836   2.863   1.122  0.5334 -0.0943  0.1671
  402TMC3    C4 6056   1.736   3.072   0.967 -0.8360 -0.0300 -0.1598
  402TMC3    C5 6057   1.725   2.941   0.934  0.0796 -0.5422 -0.1987
  402TMC3    C6 6058   1.769   2.833   1.010 -0.2750 -0.4023 -0.2805
  402TMC3     C 6059   1.832   3.233   1.136  0.6501  0.6780 -0.0281
  402TMC3     O 6060   1.738   3.312   1.154 -0.2748 -0.2366  0.0114
  402TMC3     H 6061   1.910   3.021   1.251 -1.7610  1.7754 -0.3812
  402TMC3    H1 6062   1.694   3.151   0.905  0.4818  0.7809 -0.0138
  402TMC3    H2 6063   1.742   2.730   0.990 -0.6859 -0.5292  0.9498
  402TMC3    C7 6064   1.695   2.914   0.796 -0.3175  0.4182 -0.1258
  402TMC3    C8 6065   1.897   2.755   1.193 -0.6837 -0.2565 -0.4437
  402TMC3    O1 6066   1.615   2.984   0.737 -0.3482 -0.3837 -0.1141
  402TMC3    O2 6067   1.940   2.665   1.122 -0.2022  0.7582 -0.2358
  403MPD2     C 6068   0.155   1.388  13.106 -0.1344  0.3843 -1.2368
  403MPD2    C1 6069   0.097   1.343  13.227 -0.2554  0.2867 -0.1954
  403MPD2    C2 6070   0.134   1.422  13.337  0.9788 -0.0148 -0.6849
  403MPD2    C3 6071   0.216   1.534  13.335 -0.0437  0.2861  0.1059
  403MPD2    C4 6072   0.262   1.577  13.215  0.2474 -0.1725  0.2028
  403MPD2    C5 6073   0.228   1.500  13.101  0.3142 -0.7348 -0.1558
  403MPD2     H 6074   0.105   1.394  13.438  0.8795  2.2556 -0.0952
  403MPD2    H1 6075   0.333   1.659  13.204  0.2194 -0.2808 -0.7079
  403MPD2    H2 6076   0.141   1.327  13.017  0.3966 -0.7345 -0.5501
  403MPD2    H3 6077   0.266   1.534  13.005 -0.9371 -0.6085 -0.6094
  403MPD2     N 6078   0.245   1.603  13.450 -0.1082  0.5013  0.0483
  403MPD2    H5 6079   0.214   1.563  13.539  0.4578  0.4026  0.2041
  403MPD2    N1 6080   0.030   1.223  13.235 -0.8398 -0.3588 -0.4926
  403MPD2    H7 6081   0.014   1.169  13.151  1.4105 -1.6518 -0.1033
  404TMC3    C1 6082   4.658   1.036  13.345  0.4009 -0.3330  0.1899
  404TMC3    C2 6083   4.616   0.988  13.465  0.0948  0.0018 -0.9471
  404TMC3    C3 6084   4.575   0.854  13.467  0.9719 -0.2675 -0.0713
  404TMC3    C4 6085   4.649   0.968  13.225  0.4577 -1.0903 -0.3066
  404TMC3    C5 6086   4.602   0.839  13.229  0.2842  0.4124  0.4094
  404TMC3    C6 6087   4.568   0.783  13.354 -0.1453  0.1169  0.5269
  404TMC3     C 6088   4.705   1.175  13.347 -1.3832 -0.3671  0.7168
  404TMC3     O 6089   4.686   1.223  13.457 -0.1601 -0.1825  0.0281
  404TMC3     H 6090   4.616   1.043  13.559 -2.3046  0.8376 -1.4314
  404TMC3    H1 6091   4.675   1.025  13.137  0.7190 -0.6078  0.0821
  404TMC3    H2 6092   4.553   0.675  13.353 -0.4847  0.1615  0.8753
  404TMC3    C7 6093   4.541   0.770  13.116 -0.2044  1.2050 -0.6865
  404TMC3    C8 6094   4.600   0.776  13.592  0.9800  0.1996  0.9541
  404TMC3    O1 6095   4.460   0.684  13.148 -0.3092  0.0113  0.2129
  404TMC3    O2 6096   4.640   0.663  13.568  0.0994  0.6827 -0.3905
  405MPD2     C 6097   0.753   2.545  14.897  0.6558 -0.4023 -0.2543
  405MPD2    C1 6098   0.785   2.672  14.866 -0.6737 -0.1906 -0.3474
  405MPD2    C2 6099   0.691   2.746  14.799  0.3473 -0.1841  0.4073
  405MPD2    C3 6100   0.571   2.691  14.751  0.5691 -0.3532 -0.4067
  405MPD2    C4 6101   0.544   2.566  14.782  0.2984 -0.0421  0.3971
  405MPD2    C5 6102   0.638   2.492  14.858  1.1177 -0.2134 -0.3502
  405MPD2     H 6103   0.718   2.850  14.785  1.5915 -0.8712 -2.3056
  405MPD2    H1 6104   0.457   2.505  14.758  1.1323 -1.0004 -0.1952
  405MPD2    H2 6105   0.824   2.470  14.930  0.4635  0.1258  1.3612
  405MPD2    H3 6106   0.625   2.385  14.871 -0.5302  0.1509  1.0378
  405MPD2     N 6107   0.488   2.779  14.681  0.2638 -0.0767 -0.2132
  405MPD2    H5 6108   0.531   2.869  14.661  0.7587 -0.2390  0.1247
  405MPD2    N1 6109   0.909   2.731  14.879  0.7221  0.7358  0.6818
  405MPD2    H7 6110   0.926   2.821  14.837  0.4826  0.8177  0.7612
  406TMC3    C1 6111   0.190   2.985  14.401 -0.4994 -0.4506  0.1837
  406TMC3    C2 6112   0.285   3.033  14.316 -0.3655  0.4310  0.2352
  406TMC3    C3 6113   0.416   3.006  14.348 -0.3080  0.3359  0.4400
  406TMC3    C4 6114   0.216   2.873  14.482 -0.0465  0.4265  0.3720
  406TMC3    C5 6115   0.352   2.845  14.501 -0.3224  0.2220  0.1531
  406TMC3    C6 6116   0.453   2.915  14.446 -0.8859 -0.4016  0.2088
  406TMC3     C 6117   0.052   3.001  14.369  0.2083 -0.2325 -0.4438
  406TMC3     O 6118   0.025   3.095  14.294 -0.0977 -0.1097  0.2750
  406TMC3     H 6119   0.264   3.107  14.239 -1.2029  1.2646  1.2560
  406TMC3    H1 6120   0.154   2.822  14.555 -0.2845  0.6309  0.3121
  406TMC3    H2 6121   0.553   2.873  14.452 -0.1087  1.3334 -0.7492
  406TMC3    C7 6122   0.377   2.741  14.609  0.3309 -0.3617 -0.3384
  406TMC3    C8 6123   0.518   3.083  14.287 -0.2209  0.2372  0.0013
  406TMC3    O1 6124   0.296   2.655  14.629  0.0582  0.2784  0.5247
  406TMC3    O2 6125   0.518   3.117  14.170 -0.3995 -0.3981  0.2332
  407MPD2     C 6126   2.658   3.067   9.391  0.6204 -0.7777  0.2223
  407MPD2    C1 6127   2.739   3.100   9.492 -0.3403  0.7951 -0.9656
  407MPD2    C2 6128   2.671   3.126   9.610 -0.3648 -0.4551  0.2726
  407MPD2    C3 6129   2.532   3.105   9.617  0.5900  0.1548  1.0627
  407MPD2    C4 6130   2.455   3.063   9.509 -0.2659  0.9305  0.5597
  407MPD2    C5 6131   2.531   3.038   9.397  0.7098 -0.5050 -0.0327
  407MPD2     H 6132   2.725   3.171   9.692  1.7886  0.1105 -1.4803
  407MPD2    H1 6133   2.347   3.053   9.508 -0.1466 -0.5837  1.8849
  407MPD2    H2 6134   2.699   3.051   9.292 -3.9330 -1.1281 -1.5852
  407MPD2    H3 6135   2.481   3.010   9.305  0.9328  1.0616 -0.6327
  407MPD2     N 6136   2.450   3.134   9.735 -0.4277  0.4955 -0.4646
  407MPD2    H5 6137   2.349   3.126   9.730 -0.5154  0.7197  1.0928
  407MPD2    N1 6138   2.874   3.142   9.475  0.2490 -0.5114 -0.5288
  407MPD2    H7 6139   2.912   3.201   9.549 -0.4915 -1.9813  1.0094
  408TMC3    C1 6140   3.078   3.166   9.376 -0.5732 -0.0116  0.3470
  408TMC3    C2 6141   3.181   3.088   9.337  0.2054  0.0130 -0.3867
  408TMC3    C3 6142   3.307   3.103   9.392 -0.1562 -0.2485 -0.2107
  408TMC3    C4 6143   3.100   3.271   9.459  0.1666  0.2549 -0.3782
  408TMC3    C5 6144   3.230   3.292   9.501  0.5364 -0.0222 -0.1206
  408TMC3    C6 6145   3.338   3.214   9.468 -0.4102  0.1190 -0.3110
  408TMC3     C 6146   2.944   3.111   9.363 -0.0214  0.3912  0.0646
  408TMC3     O 6147   2.920   3.029   9.273 -0.0103 -0.8764  0.2339
  408TMC3     H 6148   3.158   2.993   9.289 -0.0443 -0.0905 -0.0624
  408TMC3    H1 6149   3.017   3.339   9.477 -0.2655 -0.5907  0.8959
  408TMC3    H2 6150   3.441   3.240   9.489 -1.2800  0.6667  3.2428
  408TMC3    C7 6151   3.274   3.429   9.545  0.5460  0.0782 -0.2301
  408TMC3    C8 6152   3.386   2.981   9.410  0.1574 -0.3296  0.0956
  408TMC3    O1 6153   3.393   3.444   9.581  0.1579  0.5167  0.2741
  408TMC3    O2 6154   3.359   2.880   9.348  0.0547 -0.2390 -0.1675
  409MPD2     C 6155   2.337   3.785  17.190 -0.1023  0.5951 -0.4465
  409MPD2    C1 6156   2.424   3.836  17.279  0.0253  0.5138  0.0451
  409MPD2    C2 6157   2.519   3.923  17.239  0.7687  0.3906  0.3181
  409MPD2    C3 6158   2.530   3.955  17.106 -1.1989  0.0548  0.0758
  409MPD2    C4 6159   2.445   3.895  17.016  0.0846 -0.0885 -0.6371
  409MPD2    C5 6160   2.351   3.807  17.058 -0.5598 -0.2558  0.5560
  409MPD2     H 6161   2.594   3.965  17.305  1.0052 -0.9462  0.8993
  409MPD2    H1 6162   2.454   3.916  16.910  0.3649  0.2487 -0.5479
  409MPD2    H2 6163   2.280   3.696  17.215  0.3254  0.9446  1.7365
  409MPD2    H3 6164   2.288   3.763  16.982  2.5904 -1.5002 -1.3559
  409MPD2     N 6165   2.626   4.047  17.064  0.5539  0.3308 -0.2012
  409MPD2    H5 6166   2.619   4.092  16.973  1.1511  0.0719 -0.3767
  409MPD2    N1 6167   2.428   3.798  17.413  0.7502 -0.4048  0.0545
  409MPD2    H7 6168   2.495   3.848  17.471 -0.7548  0.7522  0.8005
  410TMC3    C1 6169   2.820   4.193  17.070  1.1830 -0.1642  0.2499
  410TMC3    C2 6170   2.935   4.221  17.132  0.7114 -0.0716  0.1006
  410TMC3    C3 6171   2.977   4.355  17.138 -0.7153 -0.0752 -0.1691
  410TMC3    C4 6172   2.743   4.300  17.025  0.3575 -0.1113 -0.1295
  410TMC3    C5 6173   2.785   4.423  17.027 -0.4990 -0.0503  0.5981
  410TMC3    C6 6174   2.902   4.454  17.092  0.3602  0.6982  0.3886
  410TMC3     C 6175   2.739   4.088  17.132 -0.9056 -0.3258 -0.7649
  410TMC3     O 6176   2.789   4.038  17.232  0.7311  0.2743  0.0091
  410TMC3     H 6177   2.992   4.139  17.174  2.6422  1.6743  0.8546
  410TMC3    H1 6178   2.651   4.277  16.972 -0.0774  1.9742 -0.3038
  410TMC3    H2 6179   2.940   4.555  17.097 -0.3537  1.0906 -2.5759
  410TMC3    C7 6180   2.684   4.526  17.003  0.2066 -0.4386  0.4425
  410TMC3    C8 6181   3.100   4.399  17.203  0.3766  0.2039  0.1997
  410TMC3    O1 6182   2.564   4.496  17.016 -0.3512 -0.3161  0.1857
  410TMC3    O2 6183   3.131   4.515  17.210 -0.0273  0.3399  0.4661
  411MPD2     C 6184   2.619   0.597  14.693  0.2050  0.6566  0.0233
  411MPD2    C1 6185   2.558   0.598  14.820 -0.6058 -0.0777  0.0812
  411MPD2    C2 6186   2.480   0.487  14.869  0.0702  0.2695 -1.1182
  411MPD2    C3 6187   2.465   0.384  14.780 -0.2712  0.1040  0.3544
  411MPD2    C4 6188   2.514   0.391  14.651 -1.4303  0.5300 -0.7700
  411MPD2    C5 6189   2.603   0.486  14.615  0.3898  1.1645 -1.0648
  411MPD2     H 6190   2.433   0.495  14.966 -0.7421  1.2370 -1.5930
  411MPD2    H1 6191   2.491   0.304  14.590 -2.1554  1.0652 -1.2626
  411MPD2    H2 6192   2.678   0.679  14.655 -1.5887  2.1622  0.5166
  411MPD2    H3 6193   2.645   0.475  14.516 -2.7472  0.0628 -2.2733
  411MPD2     N 6194   2.396   0.263  14.811  0.5791  0.2101  0.3729
  411MPD2    H5 6195   2.394   0.190  14.740 -3.5125  1.7636 -1.1275
  411MPD2    N1 6196   2.579   0.718  14.894 -0.1959 -0.6443 -0.3163
  411MPD2    H7 6197   2.612   0.801  14.846 -1.3003  0.4471  0.7958
  412TMC3    C1 6198   2.220   0.133  14.886 -0.3910 -0.4042 -0.6396
  412TMC3    C2 6199   2.086   0.164  14.880 -0.9285 -0.1596 -0.8124
  412TMC3    C3 6200   2.010   0.079  14.808 -0.7327  0.2714 -0.3786
  412TMC3    C4 6201   2.277   0.034  14.816 -0.4912  0.0506 -0.2737
  412TMC3    C5 6202   2.191   4.696  14.747  0.2118  0.3933 -0.8717
  412TMC3    C6 6203   2.058   4.710  14.743 -0.0345 -0.3518 -0.3250
  412TMC3     C 6204   2.300   0.253  14.906  0.8034  0.1340  0.9524
  412TMC3     O 6205   2.272   0.326  15.003  0.1751 -0.6577 -0.5183
  412TMC3     H 6206   2.055   0.262  14.914 -0.4100  1.2849 -4.4210
  412TMC3    H1 6207   2.384   0.016  14.818 -0.4814  0.3135  1.7735
  412TMC3    H2 6208   1.997   4.674  14.662  0.3552  0.5313 -1.0098
  412TMC3    C7 6209   2.240   4.706  14.605  0.5222  0.4382  0.3201
  412TMC3    C8 6210   1.887   0.136  14.751  1.0440 -0.7659 -0.4125
  412TMC3    O1 6211   2.318   0.062  14.583 -0.0620 -0.3769 -0.6345
  412TMC3    O2 6212   1.888   0.259  14.747  0.2279 -0.3281  0.0105
  413MPD2     C 6213   3.913   3.141  15.788  0.0079 -0.3864  0.3779
  413MPD2    C1 6214   3.880   3.089  15.665 -0.6399 -0.3802 -0.0410
  413MPD2    C2 6215   3.973   3.021  15.595  0.6716  0.4130 -0.4072
  413MPD2    C3 6216   4.101   3.006  15.644 -0.1022 -0.8796 -0.2195
  413MPD2    C4 6217   4.135   3.055  15.769  0.0671  0.1346 -0.0643
  413MPD2    C5 6218   4.043   3.128  15.841  0.3415  0.5272  0.6286
  413MPD2     H 6219   3.956   2.965  15.503  0.3528 -1.0403  0.5461
  413MPD2    H1 6220   4.232   3.040  15.816 -0.3666 -1.1765  0.4285
  413MPD2    H2 6221   3.851   3.201  15.854  1.4049 -0.9658  2.2385
  413MPD2    H3 6222   4.080   3.163  15.936  0.4851 -1.0132  1.1432
  413MPD2     N 6223   4.202   2.947  15.554 -0.6086  0.4012 -0.0674
  413MPD2    H5 6224   4.175   2.899  15.469  0.1788 -0.7041  0.3111
  413MPD2    N1 6225   3.753   3.122  15.611 -0.8731  0.1382 -0.0572
  413MPD2    H7 6226   3.705   3.201  15.652 -2.4127  0.7146 -2.9909
  414TMC3    C1 6227   4.408   2.914  15.455  0.3954  0.2069  0.0775
  414TMC3    C2 6228   4.521   2.846  15.477 -0.2138  0.4993  0.0263
  414TMC3    C3 6229   4.570   2.785  15.364  0.6133  0.3314 -0.0980
  414TMC3    C4 6230   4.347   2.941  15.337  0.8593 -0.4335  0.0357
  414TMC3    C5 6231   4.410   2.903  15.222 -0.0069  0.9114  0.0941
  414TMC3    C6 6232   4.515   2.806  15.242 -0.1846 -0.0345  0.2719
  414TMC3     C 6233   4.340   2.945  15.576  0.5403 -0.4316 -0.0106
  414TMC3     O 6234   4.403   2.962  15.678  0.6533 -0.0714 -0.1629
  414TMC3     H 6235   4.554   2.827  15.578 -0.3417  0.3273  0.0363
  414TMC3    H1 6236   4.256   2.999  15.332  1.3989  0.4342  0.4754
  414TMC3    H2 6237   4.550   2.739  15.165  0.9426  1.6250 -0.6580
  414TMC3    C7 6238   4.323   2.887  15.108  0.1351 -0.4635  0.0600
  414TMC3    C8 6239   4.701   2.723  15.365  0.3808 -0.6265 -0.5982
  414TMC3    O1 6240   4.208   2.902  15.138  0.1143 -0.5210 -0.6361
  414TMC3    O2 6241   4.724   2.632  15.281 -0.5329 -0.5076 -0.1772
  415TMC3    C1 6242   4.718   0.882  10.213 -0.3001 -0.5818 -0.4244
  415TMC3    C2 6243   0.061   0.938  10.123  0.1166 -0.4418 -0.1145
  415TMC3    C3 6244   0.084   0.863  10.009  0.3346  0.5895  0.2312
  415TMC3    C4 6245   4.649   0.773  10.192  0.1349  0.3135  0.0674
  415TMC3    C5 6246   4.666   0.703  10.079 -0.2837 -0.0225 -0.5823
  415TMC3    C6 6247   0.007   0.750   9.987  0.7857 -0.6291 -0.1363
  415TMC3     C 6248   4.704   0.938  10.340  0.3101  0.5338 -0.3489
  415TMC3     O 6249   4.589   0.930  10.388  0.1937  0.0888  0.0199
  415TMC3     H 6250   0.113   1.032  10.140 -0.9708  0.2272 -0.5276
  415TMC3    H1 6251   4.606   0.730  10.282  0.0160  0.2409 -0.0243
  415TMC3    H2 6252   0.025   0.695   9.895 -0.9972  0.7108 -1.2928
  415TMC3    C7 6253   4.587   0.582  10.054 -0.2520 -0.1665  0.1352
  415TMC3    C8 6254   0.180   0.899   9.912 -0.2262 -0.2295  0.0712
  415TMC3    O1 6255   4.615   0.512   9.957 -0.2834 -0.6497 -1.0703
  415TMC3    O2 6256   0.166   0.861   9.798  0.2410  0.2428  0.6903
  416MPD2     C 6257   2.240   0.058  11.876  0.3969 -0.6195  0.6008
  416MPD2    C1 6258   2.133   4.715  11.873  0.0733 -0.0281  0.2909
  416MPD2    C2 6259   2.153   4.578  11.827  0.8518  0.3440  0.1318
  416MPD2    C3 6260   2.278   4.533  11.792  0.5176  0.5426  0.9560
  416MPD2    C4 6261   2.388   4.613  11.807 -0.4632  0.5059 -0.2950
  416MPD2    C5 6262   2.365   0.006  11.841 -0.2242 -0.1156  0.1206
  416MPD2     H 6263   2.064   4.517  11.822  1.0195 -0.0893  2.4311
  416MPD2    H1 6264   2.490   4.599  11.774 -0.3081  2.7232 -0.7731
  416MPD2    H2 6265   2.231   0.163  11.903 -0.6588 -0.0414 -2.0311
  416MPD2    H3 6266   2.451   0.071  11.854  2.4151 -4.1257  2.6383
  416MPD2     N 6267   2.299   4.400  11.746  0.3849 -0.2670 -0.2024
  416MPD2    H5 6268   2.396   4.375  11.727  0.5191  1.4759 -1.8733
  416MPD2    N1 6269   2.009   0.015  11.924 -0.3113 -0.0738  0.0613
  416MPD2    H7 6270   1.997   0.113  11.948  0.2418 -0.2078  0.8757
  417TMC3    C1 6271   1.779   0.010  11.990 -0.1365 -0.0510 -0.9088
  417TMC3    C2 6272   1.790   0.129  12.058 -0.2764  0.0966  0.6464
  417TMC3    C3 6273   1.670   0.194  12.093 -0.3949 -0.3031  0.4344
  417TMC3    C4 6274   1.657   4.694  11.955  0.6370 -0.2652  0.7605
  417TMC3    C5 6275   1.545   0.015  11.995 -0.4093 -0.1448 -0.0324
  417TMC3    C6 6276   1.547   0.135  12.066  0.1848  0.2234 -0.1007
  417TMC3     C 6277   1.895   4.682  11.939 -0.0530 -0.0070  0.9534
  417TMC3     O 6278   1.882   4.559  11.931  0.2013  0.2990  0.1585
  417TMC3     H 6279   1.884   0.167  12.097  1.0442 -1.2680 -1.2329
  417TMC3    H1 6280   1.658   4.589  11.927 -1.5652  0.0402 -0.4778
  417TMC3    H2 6281   1.455   0.183  12.099 -0.8228 -1.6797 -0.1396
  417TMC3    C7 6282   1.434   4.723  11.912  0.2877  0.5423 -0.2344
  417TMC3    C8 6283   1.675   0.304  12.182 -0.2128 -0.3120  0.4205
  417TMC3    O1 6284   1.459   4.663  11.806 -0.5057  0.2651 -0.0873
  417TMC3    O2 6285   1.574   0.331  12.242  0.7149  0.3756  0.2930
  418TMC3    C1 6286   1.075   2.212   0.235 -0.0697 -0.2745 -0.2984
  418TMC3    C2 6287   0.988   2.305   0.279 -0.6120 -0.1593  0.4111
  418TMC3    C3 6288   0.950   2.309   0.413 -0.2459 -0.3066 -0.6074
  418TMC3    C4 6289   1.141   2.132   0.319 -0.2238  0.5140 -0.1709
  418TMC3    C5 6290   1.115   2.141   0.451  0.3170  0.4243  0.1579
  418TMC3    C6 6291   1.028   2.236   0.502 -0.8712 -0.6538 -0.7170
  418TMC3     C 6292   1.122   2.221   0.097  0.2615  0.2833  0.6256
  418TMC3     O 6293   1.099   2.323   0.036 -0.5306  0.2062 -0.1274
  418TMC3     H 6294   0.937   2.374   0.214  0.3178  0.4552  0.3462
  418TMC3    H1 6295   1.212   2.054   0.296 -1.8961 -1.0277 -0.0820
  418TMC3    H2 6296   0.998   2.257   0.604 -0.0854 -1.5838 -0.2997
  418TMC3    C7 6297   1.099   2.009   0.512  0.6288  0.1211 -0.7443
  418TMC3    C8 6298   0.807   2.302   0.441  0.4749 -0.3345  0.0205
  418TMC3    O1 6299   1.061   1.928   0.427 -0.1467  0.3004 -1.3535
  418TMC3    O2 6300   0.750   2.398   0.496 -0.2393 -0.7854 -0.6846
  419MPD2     C 6301   3.779   4.414  12.500  0.2167  0.2695  0.0348
  419MPD2    C1 6302   3.655   4.476  12.487 -0.0631  0.6343  0.7846
  419MPD2    C2 6303   3.607   4.536  12.599 -0.0834  0.0507  0.0647
  419MPD2    C3 6304   3.678   4.542  12.715 -0.3179 -0.2474 -0.3165
  419MPD2    C4 6305   3.801   4.482  12.726  0.2107  0.2317 -0.0313
  419MPD2    C5 6306   3.850   4.418  12.610  0.3362  0.4068  0.5121
  419MPD2     H 6307   3.517   4.593  12.584 -2.0691 -3.2772 -0.6459
  419MPD2    H1 6308   3.871   4.482  12.809  2.9382  1.4907 -2.3063
  419MPD2    H2 6309   3.823   4.355  12.421 -1.6511 -0.6619 -0.3026
  419MPD2    H3 6310   3.942   4.360  12.609  0.7731  1.1216 -0.7537
  419MPD2     N 6311   3.618   4.612  12.821 -0.5756 -0.1324 -0.3048
  419MPD2    H5 6312   3.532   4.656  12.791 -0.5271  1.0898  1.3112
  419MPD2    N1 6313   3.581   4.484  12.367 -0.6480  0.1990 -0.0702
  419MPD2    H7 6314   3.491   4.531  12.377 -1.9442 -2.2224 -0.2076
  420TMC3    C1 6315   3.584   4.703  13.033 -0.2663  0.1400 -0.1356
  420TMC3    C2 6316   3.472   0.023  12.973 -0.2219  0.2872 -0.3539
  420TMC3    C3 6317   3.412   0.111  13.054  0.0612  0.2434  0.2107
  420TMC3    C4 6318   3.633   4.728  13.154 -0.2051 -0.6335 -0.6250
  420TMC3    C5 6319   3.576   0.088  13.227 -1.0632 -0.0665 -0.4463
  420TMC3    C6 6320   3.466   0.152  13.180 -0.0476 -0.0524  0.0743
  420TMC3     C 6321   3.671   4.621  12.950 -0.9058 -0.4945  0.1344
  420TMC3     O 6322   3.773   4.574  12.999 -0.0027  0.0194 -0.3805
  420TMC3     H 6323   3.415   4.728  12.888 -0.0977 -1.6117  0.3428
  420TMC3    H1 6324   3.726   4.683  13.188  1.3188  2.2875 -0.9584
  420TMC3    H2 6325   3.418   0.226  13.243 -1.6881 -0.8210 -0.2904
  420TMC3    C7 6326   3.622   0.120  13.361  0.5474  0.0280  0.3597
  420TMC3    C8 6327   3.300   0.192  12.994 -0.1614  0.1027  0.3633
  420TMC3    O1 6328   3.689   0.037  13.422  0.5956  0.3395  0.5732
  420TMC3    O2 6329   3.230   0.130  12.917 -0.2708  0.3552 -0.0330
  421TMC3    C1 6330   0.348   1.772  13.590 -0.1058 -0.0585 -0.4185
  421TMC3    C2 6331   0.360   1.909  13.610  0.5130  0.0620  0.0867
  421TMC3    C3 6332   0.385   1.945  13.738  0.6303 -0.4597 -0.5454
  421TMC3    C4 6333   0.368   1.676  13.687  0.5009  0.6698  0.1015
  421TMC3    C5 6334   0.413   1.719  13.812  0.1537 -0.5885  0.3880
  421TMC3    C6 6335   0.419   1.855  13.839 -0.2229 -0.9525  0.1553
  421TMC3     C 6336   0.308   1.726  13.458  0.1176 -0.5945  0.4134
  421TMC3     O 6337   0.326   1.805  13.373  0.5335 -0.1469 -0.4339
  421TMC3     H 6338   0.339   1.987  13.539  0.5447  1.3566  1.5074
  421TMC3    H1 6339   0.368   1.570  13.664 -3.3526  1.2695 -2.7386
  421TMC3    H2 6340   0.443   1.889  13.939  0.7713 -1.2406  0.0137
  421TMC3    C7 6341   0.476   1.628  13.905  0.1555 -0.0004  0.0947
  421TMC3    C8 6342   0.432   2.081  13.755 -0.1983 -0.7074  0.3956
  421TMC3    O1 6343   0.541   1.682  13.995 -0.0045  0.5511  0.1387
  421TMC3    O2 6344   0.484   2.137  13.660  0.0852 -0.2159  0.2715
  422TMC3    C1 6345   2.869   3.072  12.506 -0.4760  0.2171 -0.1979
  422TMC3    C2 6346   2.853   3.178  12.600 -0.6185  0.2831  0.3958
  422TMC3    C3 6347   2.746   3.168  12.682 -0.2039  0.0073 -0.0767
  422TMC3    C4 6348   2.775   2.969  12.494 -0.4228 -0.1028 -0.2436
  422TMC3    C5 6349   2.668   2.971  12.574  0.8646 -0.7947  0.5516
  422TMC3    C6 6350   2.655   3.059  12.685 -0.5677  0.0175  0.4530
  422TMC3     C 6351   2.992   3.072  12.423 -0.0682  0.3521  0.0297
  422TMC3     O 6352   3.065   3.164  12.454 -0.1670  0.2181 -0.3555
  422TMC3     H 6353   2.916   3.266  12.598 -0.2830  0.0067 -1.4271
  422TMC3    H1 6354   2.779   2.899  12.412  1.1551 -0.7166  0.3497
  422TMC3    H2 6355   2.587   3.054  12.769  0.1969 -0.4299  1.0482
  422TMC3    C7 6356   2.589   2.846  12.574  0.2631  0.0630 -0.1465
  422TMC3    C8 6357   2.721   3.285  12.763 -0.9191 -0.4680 -0.3692
  422TMC3    O1 6358   2.627   2.743  12.520 -0.3181  0.0911  0.0640
  422TMC3    O2 6359   2.819   3.353  12.794 -0.2627  0.2817  0.6917
  423MPD2     C 6360   3.920   3.675   0.543  0.2033  0.1470  0.0740
  423MPD2    C1 6361   4.011   3.580   0.582  0.1895  0.3722 -0.0129
  423MPD2    C2 6362   4.116   3.543   0.499  0.1735  0.5758  0.4294
  423MPD2    C3 6363   4.135   3.607   0.379 -0.0017 -0.4687  0.5282
  423MPD2    C4 6364   4.051   3.717   0.340 -0.4599 -0.2634 -0.2107
  423MPD2    C5 6365   3.943   3.742   0.419  0.5655 -0.4451  0.2328
  423MPD2     H 6366   4.182   3.465   0.534 -0.8271  0.2345  1.5554
  423MPD2    H1 6367   4.066   3.774   0.249  1.2820 -0.0527  0.2047
  423MPD2    H2 6368   3.834   3.698   0.604 -0.3043  0.9658 -0.9391
  423MPD2    H3 6369   3.877   3.826   0.402 -1.1794 -2.1482 -1.3861
  423MPD2     N 6370   4.251   3.581   0.294 -0.4052  0.0445  0.1729
  423MPD2    H5 6371   4.253   3.635   0.207 -1.4970 -1.2326 -0.6393
  423MPD2    N1 6372   4.013   3.520   0.713 -0.0130 -0.1793  0.1987
  423MPD2    H7 6373   4.082   3.446   0.721  0.7311  0.1463 -3.1093
  424TMC3    C1 6374   3.958   3.461   0.929  0.1758 -0.4114 -0.5801
  424TMC3    C2 6375   4.084   3.408   0.945  0.4196 -0.1609 -0.7361
  424TMC3    C3 6376   4.099   3.313   1.045  0.0650  0.2592  1.1285
  424TMC3    C4 6377   3.856   3.433   1.012  0.1018  0.1934 -0.1380
  424TMC3    C5 6378   3.878   3.342   1.111  0.4403 -0.0849 -0.3153
  424TMC3    C6 6379   3.993   3.272   1.123  0.2773 -0.2386 -0.1577
  424TMC3     C 6380   3.923   3.543   0.818  0.0275  0.1361  0.8744
  424TMC3     O 6381   3.823   3.612   0.816 -0.3465 -0.1421  0.0457
  424TMC3     H 6382   4.171   3.444   0.891  2.1406 -1.1587  1.3573
  424TMC3    H1 6383   3.753   3.458   0.988 -0.0923  0.5145  1.0656
  424TMC3    H2 6384   4.006   3.191   1.193 -0.3068 -1.4784 -1.4948
  424TMC3    C7 6385   3.783   3.324   1.221 -1.2564  0.4840  0.0897
  424TMC3    C8 6386   4.221   3.244   1.068 -0.3443  0.2327  0.1079
  424TMC3    O1 6387   3.784   3.214   1.278 -0.1605  0.5717 -0.0814
  424TMC3    O2 6388   4.223   3.136   1.122  0.3588  0.0610 -0.2934
  425MPD2     C 6389   3.518   2.925  17.314  0.0860 -0.3211 -0.2898
  425MPD2    C1 6390   3.417   2.830  17.325 -0.1191  0.8072  0.3618
  425MPD2    C2 6391   3.300   2.873  17.385 -0.2693 -0.6520  0.0299
  425MPD2    C3 6392   3.288   2.995  17.453  0.4411 -0.0214  0.0530
  425MPD2    C4 6393   3.388   3.089  17.441  0.3090 -0.2787 -0.3493
  425MPD2    C5 6394   3.502   3.046  17.378 -0.3540 -0.0039  0.3894
  425MPD2     H 6395   3.222   2.798  17.387 -1.1773  0.3120  1.0404
  425MPD2    H1 6396   3.386   3.184  17.493  0.0259 -0.4006 -0.1381
  425MPD2    H2 6397   3.612   2.909  17.262 -0.2785 -1.1763 -0.6998
  425MPD2    H3 6398   3.585   3.116  17.381 -0.4305  0.0908  0.2837
  425MPD2     N 6399   3.174   3.015  17.531  0.6095  0.0907  0.5609
  425MPD2    H5 6400   3.120   2.930  17.543  0.1892  0.4107  0.9252
  425MPD2    N1 6401   3.437   2.701  17.264 -0.2657  0.2244 -0.3921
  425MPD2    H7 6402   3.516   2.699  17.201 -0.5950 -1.9522 -0.7198
  426TMC3    C1 6403   3.392   2.487  17.180 -0.3632  0.2513 -0.3441
  426TMC3    C2 6404   3.461   2.526  17.065  0.4899  0.7438 -1.1916
  426TMC3    C3 6405   3.506   2.428  16.982  0.3961  0.6957  0.1677
  426TMC3    C4 6406   3.345   2.356  17.203  0.4153 -0.1606  0.4509
  426TMC3    C5 6407   3.404   2.261  17.114 -0.3057  0.0965  0.4488
  426TMC3    C6 6408   3.490   2.297  17.014  0.6496 -0.6527 -0.5510
  426TMC3     C 6409   3.353   2.589  17.272  0.5325 -0.5307 -0.0296
  426TMC3     O 6410   3.264   2.569  17.350 -0.4551 -0.0322  0.2078
  426TMC3     H 6411   3.477   2.628  17.033 -0.3607  0.7427 -1.6198
  426TMC3    H1 6412   3.296   2.343  17.299 -0.5063  0.5254  0.0728
  426TMC3    H2 6413   3.537   2.220  16.955  0.1102 -2.1162  0.9278
  426TMC3    C7 6414   3.358   2.122  17.124 -0.4301 -0.1260 -0.4237
  426TMC3    C8 6415   3.553   2.447  16.851  0.9948  0.7591 -0.1443
  426TMC3    O1 6416   3.400   2.051  17.036  0.1565 -0.0076 -0.6038
  426TMC3    O2 6417   3.634   2.370  16.806 -0.6272  0.0200  0.5909
  427MPD2     C 6418   1.766   0.423  15.091  0.0139  0.1192 -0.1535
  427MPD2    C1 6419   1.718   0.397  15.216  0.3435  0.1441 -0.3125
  427MPD2    C2 6420   1.579   0.406  15.235 -1.1026 -0.4188 -0.1425
  427MPD2    C3 6421   1.492   0.453  15.137  0.2258  0.1640 -0.0110
  427MPD2    C4 6422   1.544   0.485  15.016 -0.2936  0.1391  0.2147
  427MPD2    C5 6423   1.679   0.466  14.995  0.3144  0.3571 -0.3232
  427MPD2     H 6424   1.543   0.373  15.332  1.5275 -0.5802  0.7829
  427MPD2    H1 6425   1.484   0.539  14.943 -0.7040 -1.3283 -0.5341
  427MPD2    H2 6426   1.870   0.423  15.062  0.3681  0.2406  1.0913
  427MPD2    H3 6427   1.720   0.489  14.898  3.6156  0.2707  1.0634
  427MPD2     N 6428   1.354   0.470  15.161  0.6648  0.4933  0.3370
  427MPD2    H5 6429   1.303   0.492  15.076  0.2191 -1.1090  0.1949
  427MPD2    N1 6430   1.797   0.353  15.330 -0.0737  0.7597 -0.2691
  427MPD2    H7 6431   1.758   0.360  15.423 -0.0196  0.2194 -0.2024
  428TMC3    C1 6432   1.984   0.292  15.443 -0.0919  0.2830 -0.3886
  428TMC3    C2 6433   1.914   0.201  15.517  0.7712 -0.0422  0.1009
  428TMC3    C3 6434   1.951   0.177  15.639  0.5113 -0.2486 -0.7046
  428TMC3    C4 6435   2.105   0.342  15.487 -0.3619  0.1142  0.2659
  428TMC3    C5 6436   2.145   0.309  15.617  0.0327  0.0462 -0.2763
  428TMC3    C6 6437   2.066   0.225  15.699 -0.0340  0.2640  0.4065
  428TMC3     C 6438   1.932   0.338  15.319  0.0692  0.6062  0.7476
  428TMC3     O 6439   2.009   0.340  15.222 -0.4034 -0.3462  0.8596
  428TMC3     H 6440   1.831   0.150  15.468  0.6732  1.8088 -1.6634
  428TMC3    H1 6441   2.154   0.419  15.428 -1.5597  0.4122 -0.3332
  428TMC3    H2 6442   2.092   0.195  15.800 -1.6827  1.3615  1.1551
  428TMC3    C7 6443   2.263   0.372  15.675  0.1013  0.4643 -0.2448
  428TMC3    C8 6444   1.885   0.065  15.706 -0.3041 -0.2865 -0.3067
  428TMC3    O1 6445   2.294   0.340  15.788 -0.2914  0.2322  0.0659
  428TMC3    O2 6446   1.847   4.711  15.640  0.1269  0.7803 -0.5569
  429MPD2     C 6447   2.898   0.333   0.119  0.7213  0.1211  0.1080
  429MPD2    C1 6448   3.016   0.288   0.060  0.0245  0.0258  0.3313
  429MPD2    C2 6449   3.111   0.375   0.001  0.1723  0.9162 -0.1316
  429MPD2    C3 6450   3.062   0.509  17.746  0.2320 -0.4546  0.2174
  429MPD2    C4 6451   2.934   0.543   0.024  0.1619 -0.1819 -0.7014
  429MPD2    C5 6452   2.858   0.455   0.093  0.0052 -0.2277 -0.0775
  429MPD2     H 6453   3.212   0.341  17.739 -0.2852 -0.0249 -0.8692
  429MPD2    H1 6454   2.893   0.643   0.017 -0.1202 -0.2513 -0.0742
  429MPD2    H2 6455   2.826   0.280   0.181 -0.3619  1.0039 -0.3982
  429MPD2    H3 6456   2.764   0.494   0.131  1.3651  3.0038 -0.0120
  429MPD2     N 6457   3.147   0.605  17.687  0.0364  0.1426 -0.0730
  429MPD2    H5 6458   3.244   0.577  17.688 -0.2581 -0.9127 -1.0018
  429MPD2    N1 6459   3.050   0.154   0.069 -0.4546  0.0274  0.4863
  429MPD2    H7 6460   3.137   0.127   0.023  0.1920  0.6219  1.3736
  430TMC3    C1 6461   3.227   0.812  17.587  0.0331  0.1615 -0.8809
  430TMC3    C2 6462   3.177   0.916  17.510  0.0703 -0.2282  0.1337
  430TMC3    C3 6463   3.261   0.967  17.412 -0.7106 -0.2397  0.2652
  430TMC3    C4 6464   3.351   0.754  17.566  0.3594  1.1158  0.5047
  430TMC3    C5 6465   3.423   0.804  17.459  0.2056  0.2214  0.5502
  430TMC3    C6 6466   3.387   0.920  17.395 -0.7509  0.2521 -0.0944
  430TMC3     C 6467   3.113   0.739  17.656  0.4371 -0.1766  0.9510
  430TMC3     O 6468   3.010   0.799  17.666 -0.4103  0.4380  0.5626
  430TMC3     H 6469   3.076   0.953  17.523 -1.3105 -3.9710  0.0098
  430TMC3    H1 6470   3.374   0.655  17.604  0.4183  2.1932  3.3165
  430TMC3    H2 6471   3.460   0.957  17.323 -1.1217  1.3008  0.0670
  430TMC3    C7 6472   3.451   0.697  17.360 -0.0408 -0.0509 -0.4649
  430TMC3    C8 6473   3.180   0.982  17.289  0.0773  0.0295  0.3419
  430TMC3    O1 6474   3.446   0.581  17.404 -0.0535 -0.3253 -0.0488
  430TMC3    O2 6475   3.065   0.941  17.290 -0.3477 -0.0933 -0.1314
  431MPD2     C 6476   3.510   0.333  12.665  0.7768 -0.0297  0.0800
  431MPD2    C1 6477   3.616   0.288  12.592 -0.2098  0.1887 -0.5258
  431MPD2    C2 6478   3.596   0.238  12.468  0.4555 -0.4392  0.0487
  431MPD2    C3 6479   3.464   0.221  12.422 -0.0078 -0.0899 -0.6272
  431MPD2    C4 6480   3.364   0.237  12.513  0.2780  0.6918 -0.2318
  431MPD2    C5 6481   3.385   0.312  12.621  0.7237  0.0170 -0.1992
  431MPD2     H 6482   3.687   0.227  12.410 -1.5069  0.1025 -3.0819
  431MPD2    H1 6483   3.260   0.210  12.498  0.3504 -0.3481  1.1234
  431MPD2    H2 6484   3.537   0.373  12.762  0.0458 -0.1589  0.3361
  431MPD2    H3 6485   3.301   0.341  12.683  0.2726  0.1010 -0.8508
  431MPD2     N 6486   3.434   0.157  12.301 -0.0935  0.3324 -0.0531
  431MPD2    H5 6487   3.342   0.115  12.294 -0.3847  0.5828  2.1637
  431MPD2    N1 6488   3.750   0.304  12.624  0.1929  0.2520  0.2187
  431MPD2    H7 6489   3.820   0.292  12.551  0.9034  3.0981  0.4397
  432TMC3    C1 6490   3.511   0.022  12.121 -0.8391 -0.5681  0.6752
  432TMC3    C2 6491   3.577   0.025  12.004  0.0638 -0.1076  0.4877
  432TMC3    C3 6492   3.616   4.646  11.955 -0.1398  0.0031  0.9222
  432TMC3    C4 6493   3.489   4.645  12.185  0.5687 -0.3434 -0.3646
  432TMC3    C5 6494   3.538   4.523  12.136 -0.6987  0.6959  0.2231
  432TMC3    C6 6495   3.599   4.528  12.016  0.0039 -0.0853  0.2615
  432TMC3     C 6496   3.532   0.138  12.207  0.4551 -0.1712  0.5179
  432TMC3     O 6497   3.636   0.195  12.176  0.6456  0.0322 -0.0068
  432TMC3     H 6498   3.605   0.121  11.962  2.0562 -1.1036 -0.4474
  432TMC3    H1 6499   3.437   4.646  12.281 -0.7387  0.2821 -1.0748
  432TMC3    H2 6500   3.649   4.441  11.975 -0.7763 -0.5454  0.3034
  432TMC3    C7 6501   3.618   4.460  12.235 -0.2237  0.2507  0.0060
  432TMC3    C8 6502   3.740   4.650  11.886 -0.2614 -0.2010 -0.1925
  432TMC3    O1 6503   3.724   4.417  12.192  0.0632  0.4657 -0.1144
  432TMC3    O2 6504   3.756   4.736  11.801  0.5230 -0.0736  0.1656
  433MPD2     C 6505   2.530   3.499  10.930  0.2333  0.1032 -0.0694
  433MPD2    C1 6506   2.554   3.367  10.959 -0.0280 -0.9041 -0.5551
  433MPD2    C2 6507   2.653   3.340  11.057  0.7066 -0.3234 -0.2058
  433MPD2    C3 6508   2.721   3.445  11.119  0.4608 -0.1571  0.4126
  433MPD2    C4 6509   2.688   3.578  11.090  0.2678  0.2134  0.2383
  433MPD2    C5 6510   2.589   3.601  10.996 -0.6230 -0.7204  0.3778
  433MPD2     H 6511   2.668   3.237  11.087 -0.6329 -0.7852 -1.0866
  433MPD2    H1 6512   2.734   3.669  11.128 -3.0274  1.9715 -0.0233
  433MPD2    H2 6513   2.465   3.526  10.848 -0.1229 -1.7188 -0.3755
  433MPD2    H3 6514   2.562   3.702  10.969 -0.5362 -1.4419 -2.3317
  433MPD2     N 6515   2.824   3.419  11.216  0.6977 -0.0923 -0.0387
  433MPD2    H5 6516   2.841   3.321  11.235  0.4116 -0.0324  0.5262
  433MPD2    N1 6517   2.492   3.273  10.873  0.0311 -0.0555  0.3410
  433MPD2    H7 6518   2.433   3.310  10.798  0.8604 -1.4125 -0.9804
  434TMC3    C1 6519   2.430   3.061  10.774  0.6962 -0.7314  0.4959
  434TMC3    C2 6520   2.492   2.936  10.758  0.7010 -0.7483 -0.1771
  434TMC3    C3 6521   2.524   2.888  10.635  0.7988  0.7583 -0.0367
  434TMC3    C4 6522   2.383   3.126  10.665 -0.4717 -0.0453 -0.5776
  434TMC3    C5 6523   2.427   3.079  10.544  0.7112  0.0254  0.1462
  434TMC3    C6 6524   2.501   2.964  10.535  0.1216 -0.2899 -0.6909
  434TMC3     C 6525   2.494   3.135  10.884 -0.2463  0.2228  0.8801
  434TMC3     O 6526   2.536   3.066  10.977  0.1295 -0.3222 -0.3937
  434TMC3     H 6527   2.539   2.880  10.838 -0.4812  0.9899  1.7149
  434TMC3    H1 6528   2.302   3.198  10.672 -0.1159 -0.0297  3.1207
  434TMC3    H2 6529   2.528   2.927  10.437  1.4952 -1.0658 -0.0265
  434TMC3    C7 6530   2.322   3.102  10.445  0.9569  0.6250 -0.0384
  434TMC3    C8 6531   2.630   2.784  10.628 -0.0275  0.1529  0.4862
  434TMC3    O1 6532   2.275   3.211  10.429 -0.0916  0.5594  0.0342
  434TMC3    O2 6533   2.623   2.694  10.710  0.2889 -0.0734 -0.1108
  435MPD2     C 6534   4.620   3.932  15.532  0.3760 -0.0038 -0.3264
  435MPD2    C1 6535   4.611   3.966  15.669  0.2298  0.5750  0.1745
  435MPD2    C2 6536   4.723   3.961  15.750 -0.2742 -0.4769 -0.9092
  435MPD2    C3 6537   0.101   3.923  15.691  0.3956  0.2275  0.0428
  435MPD2    C4 6538   0.109   3.880  15.560 -0.0086  0.3657  0.0409
  435MPD2    C5 6539   0.000   3.887  15.481  0.0318 -0.4692  0.2720
  435MPD2     H 6540   4.712   3.989  15.854  0.1671 -1.8158 -0.5060
  435MPD2    H1 6541   0.203   3.869  15.506  0.5833 -2.2851  1.6567
  435MPD2    H2 6542   4.541   3.939  15.458 -0.4066 -0.5520  0.4567
  435MPD2    H3 6543   0.003   3.856  15.377 -2.0534 -1.3309  0.4752
  435MPD2     N 6544   0.216   3.928  15.772  0.2580  0.1559 -0.1494
  435MPD2    H5 6545   0.201   3.952  15.870 -0.9610  2.9825 -1.0128
  435MPD2    N1 6546   4.495   4.010  15.734 -0.0036 -0.2260  0.3365
  435MPD2    H7 6547   4.501   4.019  15.835  0.7890 -3.9051  0.5924
  436TMC3    C1 6548   4.159   4.062  15.966 -0.5374 -0.0975  0.0804
  436TMC3    C2 6549   4.271   4.030  15.893 -0.7883  0.0003  0.1753
  436TMC3    C3 6550   4.276   4.084  15.770  0.9805  0.4941 -0.3104
  436TMC3    C4 6551   4.045   4.116  15.911 -0.9915  0.1464 -0.2177
  436TMC3    C5 6552   4.056   4.161  15.779  0.1635 -0.4865  0.3673
  436TMC3    C6 6553   4.170   4.154  15.712 -0.3846 -0.0605 -0.9724
  436TMC3     C 6554   4.164   4.038  16.108 -0.4918  0.6372  0.2094
  436TMC3     O 6555   4.233   3.949  16.147 -0.0275  0.4448  0.0363
  436TMC3     H 6556   4.352   3.967  15.927 -0.9711  1.1289  2.7249
  436TMC3    H1 6557   3.950   4.113  15.963 -1.6595  1.0909 -1.3826
  436TMC3    H2 6558   4.183   4.195  15.612 -0.8237  0.8932 -0.6420
  436TMC3    C7 6559   3.955   4.260  15.740 -0.1996  0.3544 -0.7383
  436TMC3    C8 6560   4.376   4.025  15.677  0.4823 -0.3164  0.4734
  436TMC3    O1 6561   3.839   4.238  15.772  0.7748  0.4322 -0.1312
  436TMC3    O2 6562   4.338   3.983  15.571 -0.3876  0.6269 -0.3955
  437TMC3    C1 6563   3.724   1.001  12.015 -0.2571 -0.6215 -0.5227
  437TMC3    C2 6564   3.687   0.927  11.904  0.5721 -0.0120  0.1754
  437TMC3    C3 6565   3.666   0.799  11.931 -0.3314 -0.4919  0.1015
  437TMC3    C4 6566   3.750   0.960  12.142  0.2576 -0.3618  0.1653
  437TMC3    C5 6567   3.731   0.826  12.154  0.1707 -0.3413 -0.9359
  437TMC3    C6 6568   3.692   0.747  12.051 -0.0264  0.5974 -0.6110
  437TMC3     C 6569   3.790   1.126  11.985 -0.2714  0.3829 -0.0339
  437TMC3     O 6570   3.837   1.142  11.872  0.0018 -0.2471 -0.2350
  437TMC3     H 6571   3.665   0.978  11.811 -1.0107 -1.5893 -0.3155
  437TMC3    H1 6572   3.774   1.032  12.220  0.6079 -1.0832  0.7324
  437TMC3    H2 6573   3.693   0.642  12.077  0.1665  0.7763  0.0957
  437TMC3    C7 6574   3.696   0.774  12.286 -0.1141  0.3317  0.1104
  437TMC3    C8 6575   3.581   0.721  11.845 -0.1441 -0.0436  0.0941
  437TMC3    O1 6576   3.637   0.668  12.297 -0.2725 -0.2087 -0.0509
  437TMC3    O2 6577   3.562   0.604  11.876 -0.1050 -0.1930  0.7021
  438MPD2     C 6578   1.010   2.280  16.859  0.2229  0.5006 -0.4451
  438MPD2    C1 6579   1.038   2.144  16.877 -0.4580 -0.3819  0.1233
  438MPD2    C2 6580   1.027   2.105  17.012 -0.1738  0.3532 -0.4644
  438MPD2    C3 6581   1.003   2.189  17.118  0.1366 -0.5481 -0.1771
  438MPD2    C4 6582   0.972   2.321  17.094  0.5432  0.2210  1.0152
  438MPD2    C5 6583   0.983   2.367  16.966  0.0661  0.0464  0.2102
  438MPD2     H 6584   1.024   1.999  17.034 -0.7223 -0.2095 -3.3214
  438MPD2    H1 6585   0.947   2.386  17.177  2.7659  0.8434  1.2005
  438MPD2    H2 6586   1.018   2.318  16.758  1.1925 -0.3668 -0.6935
  438MPD2    H3 6587   0.982   2.472  16.941 -0.5621  0.7863  3.2213
  438MPD2     N 6588   0.993   2.144  17.252 -0.2975  0.2385 -0.4462
  438MPD2    H5 6589   0.963   2.206  17.327 -1.7268 -0.2957 -0.5684
  438MPD2    N1 6590   1.085   2.052  16.776  0.0772 -0.0525 -0.3776
  438MPD2    H7 6591   1.106   1.958  16.808 -0.1127 -0.4796 -1.5127
  439TMC3    C1 6592   1.129   1.979  16.565 -0.2172 -0.8919 -0.4504
  439TMC3    C2 6593   1.082   1.951  16.437 -0.2672  0.0242 -0.7417
  439TMC3    C3 6594   1.114   1.830  16.379  0.1990  0.0573  0.1157
  439TMC3    C4 6595   1.229   1.892  16.622 -0.0704  0.2919 -0.5224
  439TMC3    C5 6596   1.273   1.786  16.551  0.2976 -0.1372  0.3333
  439TMC3    C6 6597   1.209   1.746  16.436 -0.5675 -0.1073 -0.8846
  439TMC3     C 6598   1.060   2.080  16.643  0.6930  0.4015 -0.6058
  439TMC3     O 6599   0.995   2.170  16.588  0.3446 -0.1522 -0.6134
  439TMC3     H 6600   1.015   2.010  16.376  0.0816 -0.9253 -2.0738
  439TMC3    H1 6601   1.278   1.915  16.716 -1.0533 -0.7849  0.2530
  439TMC3    H2 6602   1.255   1.676  16.367  1.8055 -0.5165  1.1370
  439TMC3    C7 6603   1.375   1.702  16.604  0.0324  0.1748  0.2366
  439TMC3    C8 6604   1.064   1.789  16.246 -0.1213 -0.3846 -0.0050
  439TMC3    O1 6605   1.466   1.749  16.671 -0.7797 -0.2517  0.3772
  439TMC3    O2 6606   1.052   1.668  16.241  0.1865 -0.1948  0.1486
  440MPD2     C 6607   4.624   2.388  14.815  0.9538 -0.2630  0.3172
  440MPD2    C1 6608   4.673   2.438  14.935  0.6704  0.3574  0.2110
  440MPD2    C2 6609   0.068   2.447  14.960 -0.1667 -0.4551  0.1997
  440MPD2    C3 6610   0.159   2.393  14.872  0.1903  0.0150 -0.1121
  440MPD2    C4 6611   0.111   2.344  14.749  0.7507 -0.4706  0.1471
  440MPD2    C5 6612   4.714   2.349  14.717  0.2828  0.7447  0.5088
  440MPD2     H 6613   0.091   2.483  15.060  1.5932 -1.0536  0.0010
  440MPD2    H1 6614   0.174   2.292  14.678 -0.4091 -0.8122 -0.6227
  440MPD2    H2 6615   4.524   2.402  14.776  0.5896 -0.3048  1.2528
  440MPD2    H3 6616   4.676   2.301  14.627  1.6440  0.8125 -0.1031
  440MPD2     N 6617   0.294   2.368  14.906 -0.1944 -0.5175 -0.1569
  440MPD2    H5 6618   0.343   2.304  14.844  1.8556  0.7717  0.1377
  440MPD2    N1 6619   4.583   2.472  15.041 -0.4022 -0.4767 -0.3034
  440MPD2    H7 6620   4.626   2.522  15.119  0.1096 -0.5261 -0.5583
  441TMC3    C1 6621   0.446   2.307  15.064  0.5191 -0.6478  0.3495
  441TMC3    C2 6622   0.497   2.369  15.172  0.0400 -0.1913  0.4250
  441TMC3    C3 6623   0.515   2.292  15.280 -0.4266 -0.2351  0.0658
  441TMC3    C4 6624   0.389   2.184  15.071 -0.1686 -0.0525  0.6713
  441TMC3    C5 6625   0.389   2.119  15.189 -0.4415 -0.0248  0.7294
  441TMC3    C6 6626   0.468   2.164  15.286 -0.8460  0.1332 -0.0276
  441TMC3     C 6627   0.355   2.404  15.015 -0.0574 -0.6179  0.8126
  441TMC3     O 6628   0.329   2.493  15.098 -0.3682 -0.0209 -0.1862
  441TMC3     H 6629   0.531   2.472  15.166  1.8912 -0.8244  0.1280
  441TMC3    H1 6630   0.337   2.140  14.987  1.3006 -1.2782  0.3917
  441TMC3    H2 6631   0.473   2.111  15.380 -1.5183  2.3270  1.2601
  441TMC3    C7 6632   0.258   2.067  15.229  0.5649 -0.2827 -0.2274
  441TMC3    C8 6633   0.499   2.363  15.405 -0.0748 -0.0263 -0.6726
  441TMC3    O1 6634   0.247   2.045  15.351 -0.0534  0.6316 -0.0700
  441TMC3    O2 6635   0.522   2.307  15.510 -0.5297 -0.3012 -0.0094
  442MPD2     C 6636   3.149   2.439  16.414 -1.0594  0.3485 -0.4333
  442MPD2    C1 6637   3.025   2.405  16.470  0.1305  0.5250  0.1863
  442MPD2    C2 6638   2.958   2.289  16.436  0.7740  0.5295  0.3878
  442MPD2    C3 6639   3.003   2.221  16.327  0.6300 -0.5995  0.1661
  442MPD2    C4 6640   3.123   2.254  16.266  0.3954 -0.2452 -0.4867
  442MPD2    C5 6641   3.192   2.362  16.305  0.2304 -0.2098 -0.3217
  442MPD2     H 6642   2.864   2.272  16.488  0.1735  0.7448 -0.6368
  442MPD2    H1 6643   3.153   2.190  16.184 -0.6620 -1.8589  0.3737
  442MPD2    H2 6644   3.212   2.519  16.450 -0.5624  0.7648 -2.2529
  442MPD2    H3 6645   3.288   2.383  16.261  1.1426 -0.6480  1.4887
  442MPD2     N 6646   2.952   2.089  16.295  0.1459  0.4212 -0.0393
  442MPD2    H5 6647   2.993   2.040  16.216  2.0715 -1.5112  2.1585
  442MPD2    N1 6648   2.964   2.483  16.566 -0.0248  0.1465  0.7380
  442MPD2    H7 6649   2.869   2.456  16.591 -0.7135  2.4392  0.5682
  443TMC3    C1 6650   2.919   2.655  16.722  0.0649 -0.3642 -0.3127
  443TMC3    C2 6651   2.913   2.793  16.742  0.6388  0.4001 -0.0665
  443TMC3    C3 6652   2.802   2.829  16.819 -0.1699  0.0079 -0.4083
  443TMC3    C4 6653   2.849   2.561  16.792  0.5434  0.2968 -0.7884
  443TMC3    C5 6654   2.759   2.610  16.886  0.1917 -0.9576 -0.4285
  443TMC3    C6 6655   2.737   2.744  16.904 -0.8840 -0.1586  0.4750
  443TMC3     C 6656   3.011   2.603  16.624 -0.2757 -0.1386 -0.3099
  443TMC3     O 6657   3.111   2.663  16.597  0.0584  0.5663  0.3034
  443TMC3     H 6658   2.958   2.871  16.681  0.1482 -0.1628 -1.1472
  443TMC3    H1 6659   2.873   2.455  16.786  0.5843  0.2810 -0.3955
  443TMC3    H2 6660   2.649   2.779  16.956 -1.3334  1.2341 -1.2257
  443TMC3    C7 6661   2.683   2.518  16.969  0.2871  0.2362  0.3189
  443TMC3    C8 6662   2.788   2.969  16.849  0.1847 -0.1161  0.0437
  443TMC3    O1 6663   2.677   2.405  16.918 -0.5103 -1.1576 -0.0961
  443TMC3    O2 6664   2.785   3.002  16.968  0.5084  0.0184  0.1581
  444MPD2     C 6665   3.069   2.305  16.915 -0.4811  0.6337 -0.5272
  444MPD2    C1 6666   2.989   2.200  16.907 -0.0154  0.4558  0.1380
  444MPD2    C2 6667   3.009   2.105  16.808 -0.0259 -0.1882  0.0265
  444MPD2    C3 6668   3.117   2.118  16.720  0.1263  0.0724  0.2917
  444MPD2    C4 6669   3.188   2.238  16.725  0.3113  0.3643  0.7025
  444MPD2    C5 6670   3.169   2.328  16.822  0.0124 -0.0660 -0.1628
  444MPD2     H 6671   2.940   2.022  16.803  1.2100 -1.2217  0.2382
  444MPD2    H1 6672   3.262   2.263  16.649  1.2844 -1.0587  1.1882
  444MPD2    H2 6673   3.066   2.375  16.999  1.8632  1.1963 -0.8972
  444MPD2    H3 6674   3.237   2.411  16.824 -0.0390 -0.0702  2.2560
  444MPD2     N 6675   3.126   2.019  16.623  0.3282  0.8589  0.0482
  444MPD2    H5 6676   3.057   1.944  16.620  1.5699 -0.3323  1.6853
  444MPD2    N1 6677   2.901   2.166  17.008  0.0823  0.0281  0.0682
  444MPD2    H7 6678   2.843   2.084  16.994 -3.0593  1.7669  2.7636
  445TMC3    C1 6679   3.245   1.869  16.484 -0.2574  0.5679  0.1624
  445TMC3    C2 6680   3.131   1.800  16.473 -0.2239 -0.2909 -0.0008
  445TMC3    C3 6681   3.150   1.678  16.403  0.1760 -0.3686 -0.1571
  445TMC3    C4 6682   3.368   1.814  16.467  0.6340  0.1368 -0.4457
  445TMC3    C5 6683   3.384   1.686  16.423 -0.2494  0.2220 -0.0526
  445TMC3    C6 6684   3.273   1.619  16.374  0.3361 -0.4764 -0.1627
  445TMC3     C 6685   3.239   1.999  16.547  0.7815 -0.2963  0.3662
  445TMC3     O 6686   3.341   2.064  16.562 -0.6920  0.2631 -0.0529
  445TMC3     H 6687   3.036   1.839  16.507  0.7150  1.0221  1.1332
  445TMC3    H1 6688   3.456   1.874  16.486  0.3909  0.6774 -1.0330
  445TMC3    H2 6689   3.277   1.521  16.327 -1.2127 -0.2623 -0.7454
  445TMC3    C7 6690   3.522   1.646  16.401 -0.3042 -0.0606  0.6518
  445TMC3    C8 6691   3.038   1.598  16.383  0.4456  1.0128 -0.1257
  445TMC3    O1 6692   3.607   1.729  16.407 -0.9653  0.0929  0.0259
  445TMC3    O2 6693   3.049   1.523  16.288  0.4380  0.5017 -0.0458
  446MPD2     C 6694   2.526   2.491  11.208  0.0166 -0.2345 -0.1000
  446MPD2    C1 6695   2.513   2.498  11.072 -0.1534 -0.5556 -0.1525
  446MPD2    C2 6696   2.579   2.598  10.999  0.4427  0.0417  0.2454
  446MPD2    C3 6697   2.669   2.683  11.068  0.2322  0.8190  0.4152
  446MPD2    C4 6698   2.672   2.680  11.199 -0.1453  0.4880  0.5472
  446MPD2    C5 6699   2.604   2.584  11.272  0.6780  0.6550 -0.0121
  446MPD2     H 6700   2.586   2.590  10.891  1.4030 -0.9040  0.3778
  446MPD2    H1 6701   2.726   2.754  11.258 -0.4993  1.4133 -0.2845
  446MPD2    H2 6702   2.484   2.408  11.263 -1.1366 -0.1447 -0.8481
  446MPD2    H3 6703   2.624   2.583  11.379 -1.6832 -2.6198  0.3789
  446MPD2     N 6704   2.755   2.769  10.990  0.2804 -1.0788  0.2717
  446MPD2    H5 6705   2.752   2.761  10.889 -1.5157 -0.4816  0.2761
  446MPD2    N1 6706   2.424   2.417  10.998 -0.1356 -0.1580  0.1630
  446MPD2    H7 6707   2.411   2.433  10.898 -2.0105  1.2814  0.6361
  447TMC3    C1 6708   2.927   2.932  10.959  0.1517  0.0630  0.2888
  447TMC3    C2 6709   2.843   3.012  10.883  0.6136  0.6931 -0.4352
  447TMC3    C3 6710   2.895   3.136  10.833 -0.2236 -0.5906  0.2060
  447TMC3    C4 6711   3.059   2.963  10.968  0.5329 -0.2252  0.5093
  447TMC3    C5 6712   3.110   3.070  10.898 -0.3907  0.0918 -0.2120
  447TMC3    C6 6713   3.031   3.165  10.831  0.2186  0.1045 -0.3982
  447TMC3     C 6714   2.869   2.830  11.038 -0.1770  0.2047 -0.1188
  447TMC3     O 6715   2.931   2.810  11.141 -0.3007  0.2792  0.2737
  447TMC3     H 6716   2.743   2.979  10.856  0.5003 -0.1438  1.0244
  447TMC3    H1 6717   3.125   2.901  11.027  0.5622 -0.8648 -0.1944
  447TMC3    H2 6718   3.068   3.251  10.777  0.6347  0.9441  1.2228
  447TMC3    C7 6719   3.251   3.098  10.900  0.1289 -0.1816  0.8258
  447TMC3    C8 6720   2.809   3.196  10.724  0.2633  0.2649  0.1236
  447TMC3    O1 6721   3.290   3.211  10.874  0.0259 -0.1148  0.4696
  447TMC3    O2 6722   2.738   3.112  10.664  0.0424  0.2093 -0.0535
  448TMC3    C1 6723   1.449   3.414  17.214 -0.7554 -0.6038 -0.3469
  448TMC3    C2 6724   1.427   3.314  17.127  0.0248  0.2186 -0.0653
  448TMC3    C3 6725   1.422   3.188  17.174 -0.2104  0.6185  0.2878
  448TMC3    C4 6726   1.446   3.390  17.349 -0.5677 -0.1437 -0.3860
  448TMC3    C5 6727   1.443   3.260  17.391 -0.3304 -0.6042  0.1114
  448TMC3    C6 6728   1.443   3.156  17.308 -0.1901 -0.4256 -0.1307
  448TMC3     C 6729   1.442   3.552  17.163 -0.3541 -0.5089 -0.5803
  448TMC3     O 6730   1.391   3.567  17.053  0.5754  0.4770 -0.1461
  448TMC3     H 6731   1.450   3.343  17.025 -0.3830  2.6405  0.5114
  448TMC3    H1 6732   1.430   3.468  17.423 -0.5524 -0.6657  0.1735
  448TMC3    H2 6733   1.439   3.055  17.348 -4.4981  0.4824  1.6863
  448TMC3    C7 6734   1.454   3.232  17.534  0.5250  0.3387  0.1669
  448TMC3    C8 6735   1.398   3.073  17.090  0.4377 -0.8372  0.0498
  448TMC3    O1 6736   1.397   3.133  17.565 -0.2175  0.2142 -0.1675
  448TMC3    O2 6737   1.436   2.963  17.136 -0.2573  0.2983 -0.0185
  449MPD2     C 6738   2.597   1.452  13.976  0.3927  0.1919  0.3068
  449MPD2    C1 6739   2.467   1.498  13.954  0.5231 -0.3458 -0.6785
  449MPD2    C2 6740   2.357   1.423  13.996 -0.7284 -0.0195 -0.8672
  449MPD2    C3 6741   2.362   1.299  14.050  0.2920 -0.0446 -0.5988
  449MPD2    C4 6742   2.492   1.253  14.078 -0.2422  0.3353 -0.9930
  449MPD2    C5 6743   2.604   1.324  14.031 -0.0881  0.5697 -0.0033
  449MPD2     H 6744   2.258   1.453  13.965  0.0947  2.8941 -0.6869
  449MPD2    H1 6745   2.500   1.159  14.131 -1.0311  0.6229 -0.3743
  449MPD2    H2 6746   2.687   1.512  13.969  1.2461 -1.1063  0.0462
  449MPD2    H3 6747   2.699   1.279  14.059 -0.7515  0.7943  2.6599
  449MPD2     N 6748   2.236   1.243  14.089 -0.3959 -0.2310  0.1078
  449MPD2    H5 6749   2.154   1.289  14.051 -0.4928  0.1442  0.7692
  449MPD2    N1 6750   2.439   1.627  13.906 -0.0012  0.2573 -0.3154
  449MPD2    H7 6751   2.345   1.650  13.877  1.1096  2.9130 -1.7499
  450TMC3    C1 6752   2.450   1.845  13.825  0.7966 -0.3620 -0.6910
  450TMC3    C2 6753   2.511   1.921  13.738 -0.3079 -0.1728  0.5715
  450TMC3    C3 6754   2.439   2.023  13.684 -0.3302 -0.0895 -0.0516
  450TMC3    C4 6755   2.320   1.855  13.856  0.2420  0.4558  0.0710
  450TMC3    C5 6756   2.256   1.959  13.798 -0.1108  0.3387  0.0900
  450TMC3    C6 6757   2.309   2.045  13.715  0.7628 -0.6828 -0.0934
  450TMC3     C 6758   2.528   1.731  13.878 -0.1275 -0.4048  0.2091
  450TMC3     O 6759   2.650   1.725  13.894  0.1001  0.4916  0.9043
  450TMC3     H 6760   2.619   1.916  13.728 -0.3860  0.9574 -0.9240
  450TMC3    H1 6761   2.275   1.809  13.944  1.8814  0.9610  1.1695
  450TMC3    H2 6762   2.250   2.122  13.668  0.2427  0.3388  2.2462
  450TMC3    C7 6763   2.116   1.958  13.812 -0.1598  0.3159 -0.2277
  450TMC3    C8 6764   2.499   2.114  13.594 -0.2556  0.0571 -0.0746
  450TMC3    O1 6765   2.048   2.061  13.793  0.2286  0.4533 -0.5540
  450TMC3    O2 6766   2.437   2.219  13.576 -0.6003  0.1564  0.6134
  451MPD2     C 6767   3.958   0.699   1.072  0.0298  0.0956  1.1530
  451MPD2    C1 6768   3.884   0.596   1.029 -0.1482 -0.2627  0.1012
  451MPD2    C2 6769   3.930   0.512   0.929 -0.6971 -0.7320 -0.4456
  451MPD2    C3 6770   4.050   0.540   0.866 -0.0815 -0.5749  0.1086
  451MPD2    C4 6771   4.125   0.649   0.903 -0.6537 -0.7631  0.1452
  451MPD2    C5 6772   4.079   0.717   1.008 -1.0430 -0.2525 -0.8583
  451MPD2     H 6773   3.879   0.425   0.889 -1.4720  0.3972 -1.8994
  451MPD2    H1 6774   4.224   0.675   0.867 -0.1561  0.3250  2.3389
  451MPD2    H2 6775   3.923   0.767   1.149 -0.5300  1.5861 -0.4103
  451MPD2    H3 6776   4.145   0.799   1.034 -1.0679  0.1752 -2.1559
  451MPD2     N 6777   4.109   0.459   0.768 -0.7252  0.1980  0.1707
  451MPD2    H5 6778   4.200   0.492   0.738 -0.3604 -0.4057  0.6114
  451MPD2    N1 6779   3.761   0.571   1.097  0.5939  0.4148 -0.5705
  451MPD2    H7 6780   3.734   0.650   1.155  0.6534 -0.0951  0.1525
  452TMC3    C1 6781   4.155   0.262   0.631  0.2634 -0.7502 -0.2872
  452TMC3    C2 6782   4.198   0.135   0.660  0.6637 -0.5215 -0.7341
  452TMC3    C3 6783   4.299   0.074   0.587 -0.1864 -0.0821 -0.3950
  452TMC3    C4 6784   4.223   0.331   0.534 -0.5463  0.5544 -0.0014
  452TMC3    C5 6785   4.316   0.269   0.452 -0.5339  0.4540  0.1095
  452TMC3    C6 6786   4.355   0.143   0.478 -0.8004  0.1179 -0.3032
  452TMC3     C 6787   4.070   0.331   0.726 -0.3229  0.2851  0.8161
  452TMC3     O 6788   3.985   0.258   0.775  0.0693 -0.1497  0.0516
  452TMC3     H 6789   4.147   0.082   0.739 -1.2374  0.5521 -1.2485
  452TMC3    H1 6790   4.200   0.436   0.523  2.6499  1.3269  0.7033
  452TMC3    H2 6791   4.401   0.079   0.404 -0.9649  1.4255 -1.5131
  452TMC3    C7 6792   4.401   0.346   0.362 -0.6748  1.0581 -0.4244
  452TMC3    C8 6793   4.315   4.669   0.594  0.3754 -0.9415  0.4846
  452TMC3    O1 6794   4.364   0.454   0.327  0.6013  0.3860 -0.1813
  452TMC3    O2 6795   4.221   4.611   0.652 -0.3098 -0.1222  0.2646
  453TMC3    C1 6796   0.499   1.963  11.934 -0.7653  0.3176 -0.5203
  453TMC3    C2 6797   0.417   1.899  12.026 -0.5027 -0.3537  0.6019
  453TMC3    C3 6798   0.393   1.768  12.001 -0.0614 -0.5117  0.0385
  453TMC3    C4 6799   0.551   1.905  11.825  0.0056  0.2652  0.1367
  453TMC3    C5 6800   0.523   1.772  11.810 -0.5900 -0.1972 -0.1138
  453TMC3    C6 6801   0.449   1.695  11.897 -0.3314 -0.0360 -0.3572
  453TMC3     C 6802   0.551   2.097  11.967 -0.1585 -0.6526  0.7876
  453TMC3     O 6803   0.618   2.154  11.886 -0.3680  0.1386 -0.2533
  453TMC3     H 6804   0.372   1.948  12.111 -0.3227  0.1143  0.4251
  453TMC3    H1 6805   0.612   1.964  11.756  3.0513 -1.2436  1.5223
  453TMC3    H2 6806   0.451   1.587  11.894 -1.8720 -0.0674 -0.7671
  453TMC3    C7 6807   0.586   1.704  11.704 -0.6224 -0.6540  0.6395
  453TMC3    C8 6808   0.316   1.692  12.098 -0.0792 -0.5319  0.2688
  453TMC3    O1 6809   0.683   1.756  11.648 -0.0747 -0.0325  0.0545
  453TMC3    O2 6810   0.283   1.740  12.208 -0.4962  0.4432 -0.5424
  454MPD2     C 6811   3.808   1.753  15.651  0.5357 -0.5514 -0.2489
  454MPD2    C1 6812   3.672   1.747  15.658  0.4978 -0.2360  0.2916
  454MPD2    C2 6813   3.603   1.855  15.704 -0.0171  0.1104 -0.3570
  454MPD2    C3 6814   3.667   1.969  15.741  0.2057  0.0495 -0.2385
  454MPD2    C4 6815   3.804   1.980  15.731 -0.2460  0.5770 -0.0546
  454MPD2    C5 6816   3.871   1.868  15.678 -0.2011 -0.3163 -0.3851
  454MPD2     H 6817   3.495   1.841  15.712  0.1721  0.1364  2.0380
  454MPD2    H1 6818   3.858   2.068  15.764 -0.0780  0.1791  0.7420
  454MPD2    H2 6819   3.862   1.662  15.627 -1.4135 -1.8854  0.3707
  454MPD2    H3 6820   3.979   1.865  15.673 -0.2100 -1.6796  0.1771
  454MPD2     N 6821   3.582   2.063  15.802 -0.0686 -0.7529 -0.2176
  454MPD2    H5 6822   3.483   2.043  15.807 -0.7613  1.7938 -3.2569
  454MPD2    N1 6823   3.602   1.636  15.618  0.0831 -0.1208  0.0890
  454MPD2    H7 6824   3.502   1.630  15.635  0.2898 -2.5615  0.3550
  455TMC3    C1 6825   3.527   2.207  15.977 -0.0832 -0.5036  0.9398
  455TMC3    C2 6826   3.587   2.268  16.087 -0.3316  0.1727 -0.0126
  455TMC3    C3 6827   3.548   2.219  16.207  0.6263  0.3498 -0.1835
  455TMC3    C4 6828   3.422   2.126  15.991 -0.4938  0.3176 -0.5035
  455TMC3    C5 6829   3.388   2.076  16.117 -0.4427 -0.5311  0.2310
  455TMC3    C6 6830   3.465   2.112  16.222  0.1746  0.0290 -0.1733
  455TMC3     C 6831   3.627   2.173  15.874 -0.3575 -0.1769  0.2410
  455TMC3     O 6832   3.740   2.210  15.890  0.1240 -0.1779  0.1095
  455TMC3     H 6833   3.667   2.341  16.084 -0.1335 -0.0908 -1.2106
  455TMC3    H1 6834   3.363   2.097  15.905  0.6612  2.2402 -1.9470
  455TMC3    H2 6835   3.443   2.075  16.322 -0.3858  0.0208 -0.2966
  455TMC3    C7 6836   3.352   1.944  16.107 -0.0751  1.1998 -0.3032
  455TMC3    C8 6837   3.566   2.294  16.328 -0.3106  0.5950  0.0268
  455TMC3    O1 6838   3.234   1.920  16.139 -0.2327 -0.1928 -0.2926
  455TMC3    O2 6839   3.574   2.228  16.429 -0.3079 -0.5313  0.4347
  456MPD2     C 6840   1.392   2.127  16.129 -0.2589 -0.2819  0.2275
  456MPD2    C1 6841   1.437   2.045  16.225 -0.5123 -0.2893 -0.1073
  456MPD2    C2 6842   1.436   2.084  16.359 -0.0912 -0.4184 -0.5101
  456MPD2    C3 6843   1.399   2.210  16.396 -0.2230 -0.0293 -0.4988
  456MPD2    C4 6844   1.342   2.295  16.295  0.0745  0.4544  0.1550
  456MPD2    C5 6845   1.334   2.250  16.165 -0.7272  0.3402  0.3376
  456MPD2     H 6846   1.455   2.004  16.430 -0.4341  1.2084  1.4063
  456MPD2    H1 6847   1.310   2.397  16.315 -0.7791  0.5452 -1.7399
  456MPD2    H2 6848   1.411   2.114  16.023 -0.2343 -1.1646  0.3457
  456MPD2    H3 6849   1.294   2.321  16.094 -1.0041 -2.7632 -2.6397
  456MPD2     N 6850   1.393   2.247  16.528  0.6194 -0.4076 -0.3145
  456MPD2    H5 6851   1.330   2.324  16.548  0.2780 -0.1222 -2.4190
  456MPD2    N1 6852   1.474   1.913  16.183 -0.0171  0.2223 -0.4605
  456MPD2    H7 6853   1.468   1.897  16.083  0.5448 -2.3644 -0.0794
  457TMC3    C1 6854   1.413   2.252  16.763  0.0264  0.0071 -0.2829
  457TMC3    C2 6855   1.387   2.387  16.770  0.5271 -0.2179  0.0932
  457TMC3    C3 6856   1.360   2.441  16.890  0.0318 -0.3275  0.3119
  457TMC3    C4 6857   1.424   2.173  16.876 -0.0137  0.0182  0.1113
  457TMC3    C5 6858   1.416   2.247  16.998  0.2765  0.0117 -0.2992
  457TMC3    C6 6859   1.369   2.376  17.010  0.1575 -0.8119  0.2766
  457TMC3     C 6860   1.445   2.185  16.638 -0.4974  0.0601  0.0921
  457TMC3     O 6861   1.495   2.074  16.646  0.3122 -0.0761 -1.0461
  457TMC3     H 6862   1.400   2.446  16.680 -0.4600  2.8139  1.9347
  457TMC3    H1 6863   1.475   2.077  16.875  0.1519  0.1037  0.5084
  457TMC3    H2 6864   1.345   2.433  17.099  2.5914 -0.8395  0.9314
  457TMC3    C7 6865   1.489   2.198  17.112  0.7598 -0.0086  0.7448
  457TMC3    C8 6866   1.332   2.586  16.913  0.3870 -0.5199  0.1778
  457TMC3    O1 6867   1.522   2.081  17.129  0.2788  0.2068 -0.1827
  457TMC3    O2 6868   1.348   2.639  17.022 -0.7978  1.0420  0.0640
  458MPD2     C 6869   3.791   0.749  12.791  0.1549 -0.3854  0.2993
  458MPD2    C1 6870   3.882   0.832  12.732  0.1672  0.4054 -0.7351
  458MPD2    C2 6871   3.881   0.850  12.591 -0.4144 -1.3614 -0.1570
  458MPD2    C3 6872   3.770   0.798  12.524  0.2755 -0.1938 -0.7819
  458MPD2    C4 6873   3.678   0.718  12.583 -0.3808 -0.4802 -0.1994
  458MPD2    C5 6874   3.690   0.694  12.717  0.6255 -0.3241  0.2102
  458MPD2     H 6875   3.949   0.922  12.546  0.1061 -0.4594  2.0858
  458MPD2    H1 6876   3.590   0.690  12.526  0.7072 -1.2771 -1.5174
  458MPD2    H2 6877   3.785   0.729  12.898 -0.8820  0.8598  0.4677
  458MPD2    H3 6878   3.606   0.652  12.770  1.7375 -2.6656  0.0971
  458MPD2     N 6879   3.772   0.836  12.386 -0.4478 -0.2727  0.2707
  458MPD2    H5 6880   3.837   0.911  12.363  1.1160 -0.4285  4.0710
  458MPD2    N1 6881   3.977   0.893  12.822  0.9130 -0.3425  1.0337
  458MPD2    H7 6882   3.980   0.866  12.919 -0.5065 -1.4801  0.7716
  459TMC3    C1 6883   4.193   0.989  12.887  0.3144 -0.0724  0.4532
  459TMC3    C2 6884   4.301   1.061  12.841  0.0812  0.2306 -0.2197
  459TMC3    C3 6885   4.380   1.126  12.940  0.1407 -0.0711  0.7014
  459TMC3    C4 6886   4.158   0.983  13.018 -0.0179 -0.5173  0.6804
  459TMC3    C5 6887   4.238   1.048  13.116 -0.0285 -0.4237 -0.2823
  459TMC3    C6 6888   4.353   1.105  13.078  0.1605 -0.3162 -0.4856
  459TMC3     C 6889   4.095   0.956  12.780  0.8969 -0.4774 -0.1709
  459TMC3     O 6890   4.130   0.982  12.669 -0.0997 -0.1460 -0.9274
  459TMC3     H 6891   4.323   1.064  12.735  0.4797  0.2277 -0.1399
  459TMC3    H1 6892   4.064   0.934  13.041  0.1285 -1.8530 -1.5058
  459TMC3    H2 6893   4.421   1.147  13.151 -1.2708  0.8407  0.2060
  459TMC3    C7 6894   4.222   1.008  13.251  0.0327 -0.2622 -0.0362
  459TMC3    C8 6895   4.492   1.207  12.904  0.5789 -0.4086 -0.3468
  459TMC3    O1 6896   4.133   0.925  13.267  0.4635  0.0039  0.3398
  459TMC3    O2 6897   4.584   1.226  12.988 -0.0619 -0.4955  0.5802
  460MPD2     C 6898   2.722   3.540  10.630  0.2714 -0.3459 -0.3843
  460MPD2    C1 6899   2.726   3.404  10.615  0.6983  0.3223 -0.1893
  460MPD2    C2 6900   2.669   3.343  10.507  0.2681 -0.2180  0.2907
  460MPD2    C3 6901   2.593   3.421  10.418 -0.1826  0.3033  0.3938
  460MPD2    C4 6902   2.583   3.556  10.447 -0.0621  0.3396 -0.0508
  460MPD2    C5 6903   2.650   3.615  10.543 -0.5076  0.6499  0.4905
  460MPD2     H 6904   2.660   3.235  10.500  2.7939 -0.3727 -0.4999
  460MPD2    H1 6905   2.528   3.626  10.385  2.7400  0.8169 -1.9822
  460MPD2    H2 6906   2.773   3.588  10.712 -2.7485  1.2465  0.5642
  460MPD2    H3 6907   2.647   3.723  10.556  0.2310  0.6553  0.5831
  460MPD2     N 6908   2.511   3.354  10.324 -0.2137 -0.1767  0.6085
  460MPD2    H5 6909   2.523   3.254  10.315  0.8086 -0.1462  1.6630
  460MPD2    N1 6910   2.806   3.333  10.716  0.3699 -0.6325 -0.3261
  460MPD2    H7 6911   2.859   3.387  10.785 -0.7170  3.3941 -2.6258
  461TMC3    C1 6912   2.355   3.325  10.152  0.0537  0.0706 -0.8870
  461TMC3    C2 6913   2.434   3.239  10.073 -0.3030  0.0285  0.1363
  461TMC3    C3 6914   2.395   3.210   9.945  0.2868 -0.7915  0.0595
  461TMC3    C4 6915   2.240   3.383  10.112 -0.0079  0.1621  0.2107
  461TMC3    C5 6916   2.197   3.342   9.985 -0.2328 -0.0803  0.1274
  461TMC3    C6 6917   2.270   3.256   9.903  0.0103 -0.5885  0.8189
  461TMC3     C 6918   2.427   3.421  10.232 -0.0231 -0.1604 -0.5637
  461TMC3     O 6919   2.411   3.536  10.204 -0.4443  0.3671  0.6243
  461TMC3     H 6920   2.526   3.203  10.118 -0.6210 -1.1248 -0.1399
  461TMC3    H1 6921   2.177   3.442  10.178  1.5630  3.3417 -1.1059
  461TMC3    H2 6922   2.236   3.220   9.806  0.3847 -0.6608  0.7150
  461TMC3    C7 6923   2.053   3.365   9.961  0.0357  0.4165  0.5038
  461TMC3    C8 6924   2.499   3.168   9.857  0.5657  0.7370 -0.3942
  461TMC3    O1 6925   2.006   3.465  10.008 -0.3767  0.1233 -0.1139
  461TMC3    O2 6926   2.609   3.158   9.905  0.2404 -0.3064  0.1625
  462TMC3    C1 6927   3.888   4.635   0.406 -0.5935 -0.4500 -0.3738
  462TMC3    C2 6928   3.969   4.538   0.367 -0.5518 -0.5353 -0.1577
  462TMC3    C3 6929   3.925   4.408   0.367  0.0785 -0.1676  0.3430
  462TMC3    C4 6930   3.751   4.605   0.416  0.8161 -0.2195  0.3646
  462TMC3    C5 6931   3.708   4.476   0.408  0.2346 -0.2408  0.0722
  462TMC3    C6 6932   3.799   4.371   0.394 -0.1787 -0.3475  0.6720
  462TMC3     C 6933   3.924   0.031   0.383  0.2952 -0.3472 -0.2149
  462TMC3     O 6934   4.039   0.056   0.406 -0.4408 -0.0908 -0.1708
  462TMC3     H 6935   4.071   4.567   0.345 -0.7109 -0.3328 -0.6274
  462TMC3    H1 6936   3.684   4.681   0.455 -0.3789 -0.6473 -0.8494
  462TMC3    H2 6937   3.763   4.274   0.426  0.7375 -0.6409  0.8095
  462TMC3    C7 6938   3.574   4.438   0.430 -0.0766  0.1965 -0.0451
  462TMC3    C8 6939   4.012   4.327   0.296  0.5357  0.6797  0.1935
  462TMC3    O1 6940   3.556   4.318   0.438  0.8003  0.4490  0.4152
  462TMC3    O2 6941   4.131   4.356   0.297 -0.5402 -0.0562 -0.2452
  463MPD2     C 6942   0.097   2.314   1.288  0.5795  0.4835  0.3144
  463MPD2    C1 6943   4.738   2.406   1.302  0.2007 -0.4759  0.5194
  463MPD2    C2 6944   0.024   2.536   1.317 -0.8374  0.2303 -0.1642
  463MPD2    C3 6945   0.154   2.586   1.325  0.2567 -0.4667  0.5390
  463MPD2    C4 6946   0.257   2.494   1.297 -0.5606 -0.6203  0.3353
  463MPD2    C5 6947   0.228   2.362   1.288 -0.1844  0.6944  0.2498
  463MPD2     H 6948   4.674   2.594   1.334 -0.6526  1.1217 -2.2098
  463MPD2    H1 6949   0.359   2.531   1.298 -0.3594 -1.1627 -0.0562
  463MPD2    H2 6950   0.078   2.208   1.295 -1.7724  0.9694  1.3205
  463MPD2    H3 6951   0.305   2.287   1.272 -2.5923 -1.0837 -3.1363
  463MPD2     N 6952   0.189   2.721   1.335  0.3299  0.0151  0.0213
  463MPD2    H5 6953   0.284   2.752   1.353  0.4697  0.1975 -1.0334
  463MPD2    N1 6954   4.601   2.370   1.308  0.2362 -0.2199 -0.1829
  463MPD2    H7 6955   4.543   2.439   1.356  1.0628 -0.0848  0.6110
  464TMC3    C1 6956   4.403   2.226   1.272  0.0625  0.0558  0.4394
  464TMC3    C2 6957   4.333   2.310   1.352 -0.0059 -0.4191 -0.0053
  464TMC3    C3 6958   4.201   2.279   1.381 -0.1701  0.2950 -0.4590
  464TMC3    C4 6959   4.359   2.107   1.231 -0.3904 -0.2455 -0.4432
  464TMC3    C5 6960   4.231   2.081   1.258 -0.1581  0.0120  0.6660
  464TMC3    C6 6961   4.150   2.164   1.334 -0.1523 -0.2632 -0.2166
  464TMC3     C 6962   4.550   2.246   1.268  0.7338 -0.2722 -0.2211
  464TMC3     O 6963   4.618   2.152   1.223 -0.0463  0.0902  0.1828
  464TMC3     H 6964   4.371   2.406   1.384  0.1760 -0.9405  1.3221
  464TMC3    H1 6965   4.413   2.043   1.163 -0.1409 -0.1791 -0.3072
  464TMC3    H2 6966   4.061   2.125   1.382 -1.7905 -0.1141 -3.1687
  464TMC3    C7 6967   4.161   1.996   1.165  0.1364  0.0336  0.1881
  464TMC3    C8 6968   4.099   2.374   1.421 -0.8815  0.5510 -0.0145
  464TMC3    O1 6969   4.232   1.927   1.091 -0.5027  0.1930  0.0032
  464TMC3    O2 6970   3.979   2.356   1.391  0.0552 -0.3900  0.0617
  465MPD2     C 6971   0.877   2.747  17.093  0.5700  0.3808 -0.2082
  465MPD2    C1 6972   0.778   2.653  17.077 -0.2952  0.1299  0.1428
  465MPD2    C2 6973   0.749   2.604  16.955 -0.0132 -1.0198  0.0023
  465MPD2    C3 6974   0.823   2.641  16.843  0.0005  0.1468 -0.1399
  465MPD2    C4 6975   0.920   2.732  16.859  0.4312  0.5444 -0.0736
  465MPD2    C5 6976   0.951   2.781  16.984 -0.1089 -0.2331  0.4307
  465MPD2     H 6977   0.677   2.525  16.939  1.4582 -2.2954 -0.2822
  465MPD2    H1 6978   0.975   2.782  16.780  0.0803  2.9676  1.1987
  465MPD2    H2 6979   0.905   2.791  17.188 -2.5801 -0.8813  1.3071
  465MPD2    H3 6980   1.027   2.858  16.995  2.7017 -2.9750  0.1584
  465MPD2     N 6981   0.789   2.578  16.719  0.0233 -0.2513 -0.1877
  465MPD2    H5 6982   0.713   2.511  16.718  0.1726 -0.4118 -0.4760
  465MPD2    N1 6983   0.708   2.609  17.190 -0.1072  0.0619 -0.2402
  465MPD2    H7 6984   0.655   2.524  17.172 -1.2048  0.1285  2.6309
  466TMC3    C1 6985   0.613   2.354  16.493 -0.4973 -0.5845 -0.2443
  466TMC3    C2 6986   0.566   2.423  16.389 -0.5254  0.6053 -0.3647
  466TMC3    C3 6987   0.633   2.533  16.344  0.6337 -0.1173 -0.5013
  466TMC3    C4 6988   0.722   2.401  16.561  0.4005 -0.8865 -1.1306
  466TMC3    C5 6989   0.797   2.504  16.509 -0.5302  0.3567  1.3948
  466TMC3    C6 6990   0.756   2.567  16.393 -0.0025  0.0759 -0.3356
  466TMC3     C 6991   0.538   2.262  16.575 -0.6565 -0.1444  0.1941
  466TMC3     O 6992   0.561   2.243  16.695 -0.1579  0.1590 -0.2191
  466TMC3     H 6993   0.469   2.394  16.352 -0.1906 -0.9965  0.0001
  466TMC3    H1 6994   0.765   2.342  16.641  0.1875 -0.0957 -0.4470
  466TMC3    H2 6995   0.809   2.660  16.375 -0.9518  0.8938  1.0226
  466TMC3    C7 6996   0.865   2.582  16.606 -0.5584 -0.1863 -0.4550
  466TMC3    C8 6997   0.554   2.646  16.303  0.0995  0.7598 -0.1458
  466TMC3    O1 6998   0.959   2.650  16.570  0.1082 -0.3443  0.5367
  466TMC3    O2 6999   0.584   2.722  16.214  0.6955 -0.0253  0.2300
  467TMC3    C1 7000   1.140   1.065  14.025  0.0052 -0.8492 -0.0011
  467TMC3    C2 7001   1.042   1.076  13.930  0.1223 -0.2492 -0.0671
  467TMC3    C3 7002   0.982   0.970  13.887  0.1301  0.3788 -0.0150
  467TMC3    C4 7003   1.143   0.948  14.100  0.2391 -0.2322  0.2221
  467TMC3    C5 7004   1.070   0.841  14.063 -0.2211 -0.8486 -0.2640
  467TMC3    C6 7005   1.002   0.846  13.943  0.3376  0.7639 -0.2112
  467TMC3     C 7006   1.266   1.131  13.998  0.5283 -0.5102  0.9763
  467TMC3     O 7007   1.354   1.111  14.080 -0.3430 -0.3709 -0.1415
  467TMC3     H 7008   1.043   1.165  13.870  3.2729  0.6488  1.3128
  467TMC3    H1 7009   1.214   0.948  14.182  0.0672  2.7484  0.3664
  467TMC3    H2 7010   0.966   0.755  13.899 -0.0337  2.2993 -3.0871
  467TMC3    C7 7011   1.067   0.715  14.136  0.4277 -0.2847 -0.6165
  467TMC3    C8 7012   1.007   0.973  13.744  0.2075 -0.6885 -0.4195
  467TMC3    O1 7013   1.172   0.679  14.182  0.7313  0.0866  0.2955
  467TMC3    O2 7014   0.968   1.076  13.689 -0.0045 -0.1478 -0.9968
  468MPD2     C 7015   0.414   3.487  10.612  0.2655  0.4667 -0.1154
  468MPD2    C1 7016   0.362   3.470  10.741  0.4742 -0.0386 -0.2676
  468MPD2    C2 7017   0.293   3.355  10.770 -0.4210  0.0544  0.2871
  468MPD2    C3 7018   0.281   3.256  10.673  0.5852 -0.1954 -0.4589
  468MPD2    C4 7019   0.342   3.268  10.545  0.7001  0.1926  0.1075
  468MPD2    C5 7020   0.410   3.390  10.522  0.9071  0.3750 -0.6206
  468MPD2     H 7021   0.257   3.341  10.871  2.6438 -0.3340  1.3431
  468MPD2    H1 7022   0.343   3.187  10.473 -0.4714  0.1643  0.1345
  468MPD2    H2 7023   0.470   3.576  10.586  0.4708  0.1614 -0.7073
  468MPD2    H3 7024   0.463   3.407  10.428  1.1220 -0.1763 -0.6016
  468MPD2     N 7025   0.205   3.137  10.692  0.5179 -0.3410  0.1018
  468MPD2    H5 7026   0.222   3.062  10.625  0.3375 -0.8500  0.6196
  468MPD2    N1 7027   0.372   3.570  10.840 -0.0579 -0.4513  0.5336
  468MPD2    H7 7028   0.328   3.547  10.928 -0.2060 -0.9966  0.3158
  469TMC3    C1 7029   0.441   3.764  10.951 -0.3091 -0.2167 -0.0962
  469TMC3    C2 7030   0.486   3.694  11.058  0.1522  0.2592  0.0939
  469TMC3    C3 7031   0.549   3.762  11.157  0.6224  0.0153 -0.4498
  469TMC3    C4 7032   0.443   3.898  10.950 -0.7960 -0.2700  0.3797
  469TMC3    C5 7033   0.498   3.965  11.056  0.2643 -0.2002  0.4489
  469TMC3    C6 7034   0.553   3.899  11.160 -0.3076 -0.3095  0.5814
  469TMC3     C 7035   0.418   3.700  10.823  1.0225 -0.3881 -0.1977
  469TMC3     O 7036   0.436   3.762  10.711 -0.2964 -1.4087 -0.2981
  469TMC3     H 7037   0.478   3.586  11.062 -0.4850  0.2946 -0.1632
  469TMC3    H1 7038   0.404   3.953  10.866  1.8103  0.8130 -0.1075
  469TMC3    H2 7039   0.582   3.944  11.255 -2.1466 -1.5794  1.7316
  469TMC3    C7 7040   0.484   4.109  11.054 -0.4985 -0.4721 -0.4192
  469TMC3    C8 7041   0.665   3.682  11.211  0.2585  0.1795  0.8092
  469TMC3    O1 7042   0.476   4.167  10.948 -0.1605  0.6307  0.1962
  469TMC3    O2 7043   0.673   3.563  11.182 -0.0259  0.1432 -0.5465
  470TMC3    C1 7044   1.817   4.665  17.647  0.3174 -0.3387 -0.6492
  470TMC3    C2 7045   1.924   0.008  17.678  0.0765  0.1892 -0.0722
  470TMC3    C3 7046   2.030   4.688  17.739  1.2994  0.0617  0.2086
  470TMC3    C4 7047   1.823   4.526  17.663  0.2153  0.3010 -0.5032
  470TMC3    C5 7048   1.934   4.471  17.717 -0.2363  0.1204 -0.4103
  470TMC3    C6 7049   2.040   4.549   0.000 -0.0559 -0.1748  0.2874
  470TMC3     C 7050   1.692   4.721  17.605 -0.4632 -0.2953  0.0245
  470TMC3     O 7051   1.699   0.105  17.597 -0.0262  0.2568 -0.1352
  470TMC3     H 7052   1.920   0.112  17.649  2.8308  0.6987  1.4281
  470TMC3    H1 7053   1.748   4.463  17.617  2.3195  0.5156 -4.1981
  470TMC3    H2 7054   2.132   4.501   0.031  1.4798  2.0377 -0.8247
  470TMC3    C7 7055   1.945   4.329  17.728 -0.5811  0.7190  0.9050
  470TMC3    C8 7056   2.105   0.034   0.074 -0.0870  0.4314  0.6054
  470TMC3    O1 7057   1.866   4.263  17.661  0.1791 -0.0127  0.3303
  470TMC3    O2 7058   2.191   4.711   0.137 -0.2481 -0.1846 -0.1486
  471MPD2     C 7059   3.147   1.018  16.785  0.0598  0.4860  0.5033
  471MPD2    C1 7060   3.077   0.944  16.870 -0.3275  0.0615 -0.4034
  471MPD2    C2 7061   3.104   0.948  17.002 -0.1822  0.1484  0.3196
  471MPD2    C3 7062   3.208   1.035  17.052 -0.4450  0.3370  0.9234
  471MPD2    C4 7063   3.288   1.105  16.963  0.7165 -0.5418  0.0532
  471MPD2    C5 7064   3.252   1.094  16.832 -0.2227  0.4376 -0.0813
  471MPD2     H 7065   3.055   0.867  17.054  0.4917 -0.4518  0.0296
  471MPD2    H1 7066   3.382   1.149  16.992  0.5350 -0.8278  1.0705
  471MPD2    H2 7067   3.137   1.014  16.677  0.4059 -1.2665  0.5216
  471MPD2    H3 7068   3.315   1.140  16.757 -1.4334  0.7010 -0.9257
  471MPD2     N 7069   3.246   1.042  17.185 -0.1827  0.1974  0.1095
  471MPD2    H5 7070   3.327   1.097  17.211  1.0000 -1.1602 -0.7148
  471MPD2    N1 7071   2.981   0.853  16.824 -0.2711  0.0818  0.1144
  471MPD2    H7 7072   2.940   0.787  16.889 -1.1650  0.3780 -0.1475
  472TMC3    C1 7073   2.804   0.764  16.705 -0.1889  0.3828 -1.2516
  472TMC3    C2 7074   2.692   0.795  16.628 -0.3946 -0.3081  0.2913
  472TMC3    C3 7075   2.580   0.708  16.624  0.4193  0.4582  0.0490
  472TMC3    C4 7076   2.816   0.633  16.751  0.7558 -0.0975 -0.3845
  472TMC3    C5 7077   2.710   0.541  16.726  0.8746  0.3535  0.8278
  472TMC3    C6 7078   2.586   0.582  16.674  0.3437 -0.4043  0.1966
  472TMC3     C 7079   2.914   0.855  16.706  0.6682  0.1096 -0.4198
  472TMC3     O 7080   2.919   0.937  16.618 -0.3412 -0.6067 -0.5849
  472TMC3     H 7081   2.680   0.896  16.590 -1.4025 -0.1890  0.9227
  472TMC3    H1 7082   2.910   0.608  16.800 -1.1398 -3.8710  1.3378
  472TMC3    H2 7083   2.522   0.496  16.655  0.7233 -0.3190 -1.5000
  472TMC3    C7 7084   2.716   0.410  16.789  0.1940 -0.0235 -0.1937
  472TMC3    C8 7085   2.469   0.752  16.542 -0.0146  0.4071 -0.2906
  472TMC3    O1 7086   2.827   0.359  16.782  0.1414 -0.6118 -0.4413
  472TMC3    O2 7087   2.482   0.866  16.496  0.5067 -0.0900  0.3288
  473MPD2     C 7088   2.284   2.891  14.016 -0.0893  0.4302 -0.4858
  473MPD2    C1 7089   2.301   2.991  13.920  0.2463 -0.0102  0.2219
  473MPD2    C2 7090   2.348   3.115  13.961  0.0603 -0.8940  0.8067
  473MPD2    C3 7091   2.388   3.136  14.091 -0.1174  0.6699  0.2589
  473MPD2    C4 7092   2.370   3.030  14.187  0.2543  0.1558  0.3718
  473MPD2    C5 7093   2.325   2.904  14.144 -0.6565  0.3948  0.3538
  473MPD2     H 7094   2.371   3.177  13.875  3.2990  1.2675  3.2247
  473MPD2    H1 7095   2.401   3.035  14.291  1.1924 -1.9348  0.1936
  473MPD2    H2 7096   2.233   2.800  13.985  1.8272 -0.2863 -1.5410
  473MPD2    H3 7097   2.316   2.832  14.224  0.5665 -0.3056 -0.1482
  473MPD2     N 7098   2.416   3.261  14.145  0.0527  0.4674  0.4452
  473MPD2    H5 7099   2.441   3.262  14.243  3.0604 -2.3126 -0.2775
  473MPD2    N1 7100   2.276   2.975  13.784  0.0039  0.3132 -0.2201
  473MPD2    H7 7101   2.304   3.055  13.728 -1.9622 -0.2754 -2.0146
  474TMC3    C1 7102   2.419   3.499  14.141 -0.2629  0.2159 -0.3718
  474TMC3    C2 7103   2.372   3.614  14.082  0.0889 -1.0344 -0.5998
  474TMC3    C3 7104   2.425   3.737  14.118  0.1106 -0.2529  0.0699
  474TMC3    C4 7105   2.512   3.506  14.248  0.6386  0.1912  0.2118
  474TMC3    C5 7106   2.551   3.638  14.291 -0.4104 -0.2832  0.3795
  474TMC3    C6 7107   2.503   3.750  14.227  0.3775 -0.3873 -0.0153
  474TMC3     C 7108   2.376   3.375  14.076  0.3437  0.2270 -0.2031
  474TMC3     O 7109   2.294   3.384  13.986 -0.1253  0.4513  0.3760
  474TMC3     H 7110   2.298   3.612  14.002 -1.4357 -3.4962  0.8716
  474TMC3    H1 7111   2.564   3.417  14.282 -1.6087 -1.3403 -0.3533
  474TMC3    H2 7112   2.542   3.846  14.261  0.9360 -0.7857  0.4629
  474TMC3    C7 7113   2.597   3.657  14.433  0.6924  0.3647  0.4920
  474TMC3    C8 7114   2.363   3.853  14.052 -0.9061 -0.0678  0.7346
  474TMC3    O1 7115   2.683   3.740  14.457 -0.2671  0.0883  0.0526
  474TMC3    O2 7116   2.256   3.829  14.000  0.3985 -0.3594  0.1679
  475MPD2     C 7117   1.040   4.700  10.271  0.3393 -0.7870  0.4964
  475MPD2    C1 7118   1.063   0.090  10.311 -0.3980  0.3446  0.4312
  475MPD2    C2 7119   0.984   0.137  10.416  0.2570 -0.3246  0.5940
  475MPD2    C3 7120   0.878   0.070  10.470  0.3411 -0.2118 -0.3472
  475MPD2    C4 7121   0.853   4.687  10.420  0.5415  0.3874 -0.1134
  475MPD2    C5 7122   0.934   4.635  10.325 -0.2948  0.6469 -0.2715
  475MPD2     H 7123   1.007   0.230  10.467 -0.0387  0.4887 -0.7649
  475MPD2    H1 7124   0.760   4.640  10.449  0.2454 -0.4310 -2.3917
  475MPD2    H2 7125   1.095   4.642  10.197 -1.0607 -0.3460 -0.8960
  475MPD2    H3 7126   0.910   4.534  10.296  0.0783  0.9004 -1.4355
  475MPD2     N 7127   0.805   0.128  10.575  1.1173  0.0148  0.2269
  475MPD2    H5 7128   0.829   0.223  10.599  2.0071 -0.5831  1.7281
  475MPD2    N1 7129   1.170   0.178  10.277 -0.0791 -0.0945 -0.4688
  475MPD2    H7 7130   1.186   0.261  10.333  1.0336 -0.0891 -0.8012
  476TMC3    C1 7131   1.286   0.285  10.117 -0.2326  0.0837 -0.0481
  476TMC3    C2 7132   1.175   0.358  10.083  0.0168 -0.2042 -0.0186
  476TMC3    C3 7133   1.173   0.494  10.104 -1.2014 -0.1267 -0.5335
  476TMC3    C4 7134   1.388   0.347  10.193 -0.5580  0.1118  0.3137
  476TMC3    C5 7135   1.382   0.484  10.214  0.1156  0.0878  0.0544
  476TMC3    C6 7136   1.277   0.564  10.169  0.6341 -0.2846 -0.4595
  476TMC3     C 7137   1.248   0.154  10.162  0.2272 -0.3622  0.0140
  476TMC3     O 7138   1.241   0.071  10.071  0.7808  0.1194 -0.6882
  476TMC3     H 7139   1.099   0.301  10.032  0.3499 -1.0696  0.4539
  476TMC3    H1 7140   1.468   0.281  10.225 -0.1060  1.2950  1.6555
  476TMC3    H2 7141   1.264   0.669  10.195  1.2566  0.1576 -1.9591
  476TMC3    C7 7142   1.504   0.542  10.275  0.5424  0.1803  0.1996
  476TMC3    C8 7143   1.041   0.555  10.137 -0.3398 -0.7730  0.5600
  476TMC3    O1 7144   1.583   0.458  10.312 -0.0990  0.4217 -0.0328
  476TMC3    O2 7145   1.043   0.673  10.171  0.0206 -0.2194 -0.0478
  477MPD2     C 7146   3.629   2.720  11.369  0.5280  0.0054  0.2927
  477MPD2    C1 7147   3.520   2.653  11.426 -0.3700  0.3200  0.5588
  477MPD2    C2 7148   3.484   2.658  11.560 -0.5525 -0.7146  0.6592
  477MPD2    C3 7149   3.574   2.724  11.642 -0.4597 -0.0026  0.0092
  477MPD2    C4 7150   3.688   2.787  11.588  0.2634  0.5018 -0.7407
  477MPD2    C5 7151   3.716   2.786  11.451  0.8478  0.4348  0.1520
  477MPD2     H 7152   3.393   2.614  11.596  0.0540 -1.4069  1.3349
  477MPD2    H1 7153   3.764   2.837  11.647 -1.0669  0.4309  1.0390
  477MPD2    H2 7154   3.654   2.724  11.264  2.2555  0.8372  0.7327
  477MPD2    H3 7155   3.802   2.834  11.406  0.9261  1.8721  1.8412
  477MPD2     N 7156   3.555   2.735  11.785 -0.0275 -0.1297 -0.0907
  477MPD2    H5 7157   3.634   2.771  11.838  0.4633  1.9225 -2.2354
  477MPD2    N1 7158   3.444   2.585  11.327 -0.0012 -0.0952  0.0176
  477MPD2    H7 7159   3.480   2.588  11.233  0.1658 -0.2984  0.0746
  478TMC3    C1 7160   3.272   2.439  11.241  0.6921  0.0072  0.1849
  478TMC3    C2 7161   3.151   2.405  11.295 -0.4860 -0.1441 -0.0157
  478TMC3    C3 7162   3.038   2.470  11.245  0.3894  0.1357 -0.6019
  478TMC3    C4 7163   3.278   2.512  11.126 -0.5268 -0.6763 -0.0119
  478TMC3    C5 7164   3.167   2.548  11.063  0.5920  0.4894  0.3312
  478TMC3    C6 7165   3.044   2.533  11.123  0.2265 -0.7914 -0.2174
  478TMC3     C 7166   3.349   2.496  11.352 -0.0775 -0.2151  0.1590
  478TMC3     O 7167   3.322   2.458  11.464 -0.0071  0.1431  0.5828
  478TMC3     H 7168   3.149   2.338  11.381 -2.8310 -0.3317 -0.2051
  478TMC3    H1 7169   3.368   2.541  11.074 -0.1493 -1.8843 -0.0275
  478TMC3    H2 7170   2.954   2.555  11.067 -0.3028 -1.4780  0.3517
  478TMC3    C7 7171   3.165   2.630  10.941 -0.0071 -0.5334 -0.3676
  478TMC3    C8 7172   2.952   2.513  11.351 -0.3783  0.0982  0.2848
  478TMC3    O1 7173   3.262   2.695  10.916 -0.3506  0.3072  0.5215
  478TMC3    O2 7174   2.916   2.428  11.431 -0.1896 -0.2892 -0.0633
  479MPD2     C 7175   2.455   0.659  15.536 -0.6817 -0.3873  0.5736
  479MPD2    C1 7176   2.400   0.573  15.632 -0.1611 -0.5142  0.5103
  479MPD2    C2 7177   2.440   0.598  15.758  0.2081 -0.0339 -0.4042
  479MPD2    C3 7178   2.503   0.715  15.794 -0.0964 -0.0657 -0.0038
  479MPD2    C4 7179   2.559   0.798  15.700 -1.0136  0.6414 -0.1186
  479MPD2    C5 7180   2.538   0.764  15.570 -0.7520  1.2076 -0.3147
  479MPD2     H 7181   2.412   0.531  15.838 -2.4124  0.7830 -0.6612
  479MPD2    H1 7182   2.618   0.884  15.727 -0.8365  0.1518  1.0329
  479MPD2    H2 7183   2.445   0.639  15.430  1.3605  1.6446  0.0130
  479MPD2    H3 7184   2.577   0.821  15.487  0.7069  0.9617  0.1947
  479MPD2     N 7185   2.528   0.759  15.923 -0.7102  0.1702  0.0162
  479MPD2    H5 7186   2.612   0.815  15.925 -0.0648 -0.7299 -1.5177
  479MPD2    N1 7187   2.326   0.458  15.593  0.1196 -0.8097  0.2029
  479MPD2    H7 7188   2.318   0.438  15.494 -0.0456  4.0928 -0.7702
  480TMC3    C1 7189   2.211   0.500  16.177  1.1330 -0.2482 -0.0362
  480TMC3    C2 7190   2.102   0.552  16.113  0.4485 -0.2685  0.2981
  480TMC3    C3 7191   2.117   0.652  16.017 -0.7204 -0.3433 -0.8207
  480TMC3    C4 7192   2.336   0.539  16.145 -0.1325  0.3830 -0.0438
  480TMC3    C5 7193   2.352   0.630  16.046 -0.5843 -0.6275 -0.3297
  480TMC3    C6 7194   2.244   0.685  15.981 -0.0060 -0.1486 -0.6440
  480TMC3     C 7195   2.199   0.399  16.276 -0.2680 -0.4446  0.3579
  480TMC3     O 7196   2.307   0.370  16.324 -0.1516  0.0610  0.2103
  480TMC3     H 7197   2.001   0.522  16.136  1.2640 -1.5252  2.2977
  480TMC3    H1 7198   2.418   0.497  16.201 -0.4598 -0.3626 -0.1217
  480TMC3    H2 7199   2.267   0.766  15.912 -1.8559  0.9008 -0.0422
  480TMC3    C7 7200   2.484   0.693  16.037 -0.5010  0.0671  0.6120
  480TMC3    C8 7201   2.023   0.651  15.902 -0.1678  0.3194 -0.1645
  480TMC3    O1 7202   2.543   0.686  16.145  0.5228  0.3855 -0.1746
  480TMC3    O2 7203   1.907   0.613  15.930 -0.2334 -0.3328 -0.3519
  481MPD2     C 7204   3.986   0.267  14.651  0.9820  0.0339  0.1555
  481MPD2    C1 7205   3.972   0.136  14.605 -1.2221  0.1785 -0.7060
  481MPD2    C2 7206   4.002   0.030  14.695 -0.2783  0.2985 -0.0151
  481MPD2    C3 7207   4.023   0.056  14.828 -0.2804  0.0686 -0.2606
  481MPD2    C4 7208   4.015   0.189  14.869 -0.1973 -0.9113 -0.2904
  481MPD2    C5 7209   3.999   0.291  14.779  0.1773 -0.0714  0.3032
  481MPD2     H 7210   3.989   4.667  14.662 -1.9255  0.2585  0.7494
  481MPD2    H1 7211   4.023   0.215  14.974 -3.3604  0.9570 -0.5166
  481MPD2    H2 7212   3.989   0.350  14.581 -0.3145 -0.7053 -0.7904
  481MPD2    H3 7213   4.009   0.395  14.809  1.2897 -0.5661  1.6492
  481MPD2     N 7214   4.037   4.696  14.930  0.3551  0.0882  0.5275
  481MPD2    H5 7215   4.019   4.733  15.023 -0.7920  2.0151 -0.4533
  481MPD2    N1 7216   3.935   0.115  14.472 -0.4760  0.8638 -0.2534
  481MPD2    H7 7217   3.914   0.196  14.414  0.3140 -0.6589 -2.6994
  482TMC3    C1 7218   3.790   0.004  14.312 -0.4201 -0.0271  0.3459
  482TMC3    C2 7219   3.691   4.655  14.307  0.2773  0.1250  1.3526
  482TMC3    C3 7220   3.616   4.645  14.197  0.5503 -0.4494  0.0259
  482TMC3    C4 7221   3.811   0.093  14.213 -0.6413  0.2820  0.3240
  482TMC3    C5 7222   3.724   0.084  14.104 -0.7964 -0.8198  0.0286
  482TMC3    C6 7223   3.625   4.728  14.089 -0.3530  1.0958  0.5070
  482TMC3     C 7224   3.887   4.731  14.425  1.0717 -0.1605  0.3357
  482TMC3     O 7225   3.891   4.617  14.477  0.8053 -1.0125 -0.0405
  482TMC3     H 7226   3.673   4.590  14.392 -2.0909  0.3416  1.0080
  482TMC3    H1 7227   3.882   0.175  14.213  2.5121 -2.4743  1.4868
  482TMC3    H2 7228   3.556   4.735  14.006  0.2035 -0.8712 -0.1435
  482TMC3    C7 7229   3.703   0.200  14.017  0.1333  0.2565 -0.4853
  482TMC3    C8 7230   3.563   4.517  14.171  0.8727 -0.1233 -0.0905
  482TMC3    O1 7231   3.761   0.303  14.049  0.1886  0.5640 -0.3531
  482TMC3    O2 7232   3.596   4.427  14.251  0.5673 -0.7210  0.0105
  483TMC3    C1 7233   2.586   3.504   1.319  0.3499  0.2472 -0.9196
  483TMC3    C2 7234   2.676   3.599   1.362 -0.0105  0.7041 -0.3761
  483TMC3    C3 7235   2.801   3.577   1.352  0.2977 -0.1717  0.8904
  483TMC3    C4 7236   2.618   3.378   1.287 -0.2236  0.3920  0.1628
  483TMC3    C5 7237   2.750   3.353   1.290 -0.6187  0.0249 -0.5018
  483TMC3    C6 7238   2.846   3.446   1.319 -0.4616 -0.8724  0.1483
  483TMC3     C 7239   2.449   3.541   1.341 -0.1785 -0.3233 -0.5750
  483TMC3     O 7240   2.431   3.638   1.414  0.7985 -0.3143 -0.2203
  483TMC3     H 7241   2.652   3.703   1.382 -1.5497  0.4437 -0.8203
  483TMC3    H1 7242   2.553   3.300   1.250  1.9036 -0.1882 -2.3654
  483TMC3    H2 7243   2.951   3.421   1.319 -0.1492  0.4703  0.8386
  483TMC3    C7 7244   2.798   3.213   1.269 -0.3464  0.0578  0.1428
  483TMC3    C8 7245   2.872   3.686   1.298 -0.4894 -0.0624 -0.9986
  483TMC3    O1 7246   2.711   3.131   1.287  0.0559  0.0620  0.2368
  483TMC3    O2 7247   2.801   3.765   1.235 -0.0265 -0.5255 -0.0238
  484MPD2     C 7248   4.515   1.426  12.604  0.1926 -0.1965  0.2582
  484MPD2    C1 7249   4.565   1.356  12.714  0.0269 -0.6703 -0.1892
  484MPD2    C2 7250   4.700   1.354  12.740 -0.0547 -0.4575  0.3971
  484MPD2    C3 7251   0.042   1.440  12.660  0.8220 -0.2197  0.4186
  484MPD2    C4 7252   4.725   1.518  12.561  0.1408  0.1021 -0.0869
  484MPD2    C5 7253   4.593   1.507  12.527  1.1457 -0.2976  0.5636
  484MPD2     H 7254   0.003   1.302  12.825 -0.3971 -2.2053 -0.4834
  484MPD2    H1 7255   0.052   1.575  12.498 -1.4772 -0.0900 -1.9868
  484MPD2    H2 7256   4.408   1.420  12.586  0.7380  1.1491 -3.3575
  484MPD2    H3 7257   4.546   1.568  12.450 -1.0603 -1.3620  1.0553
  484MPD2     N 7258   0.179   1.457  12.677 -0.7386  0.0045  0.1211
  484MPD2    H5 7259   0.217   1.535  12.624  0.8446 -1.3066 -0.6380
  484MPD2    N1 7260   4.466   1.275  12.788  0.2662 -0.8246 -0.9336
  484MPD2    H7 7261   4.376   1.257  12.744  0.4004  2.1462 -2.4183
  485TMC3    C1 7262   0.407   1.432  12.737 -0.9028 -0.0454  0.6519
  485TMC3    C2 7263   0.504   1.338  12.723 -0.2952  0.3859 -0.2243
  485TMC3    C3 7264   0.629   1.378  12.682  0.3149  0.1345 -0.0850
  485TMC3    C4 7265   0.435   1.560  12.714 -0.7767 -0.9062 -0.8592
  485TMC3    C5 7266   0.569   1.599  12.695 -0.3933  0.3340  0.6350
  485TMC3    C6 7267   0.662   1.507  12.681  0.1262 -0.2720  0.1885
  485TMC3     C 7268   0.268   1.380  12.751  0.0447  0.1420 -0.0480
  485TMC3     O 7269   0.256   1.270  12.807 -0.1883 -0.1069 -0.8313
  485TMC3     H 7270   0.479   1.233  12.736 -0.4593  0.5384  0.7035
  485TMC3    H1 7271   0.356   1.634  12.712  0.5612  0.5016 -1.4845
  485TMC3    H2 7272   0.760   1.543  12.651  0.5282 -2.3363 -0.9755
  485TMC3    C7 7273   0.599   1.709  12.598  0.8304 -0.1504 -0.5077
  485TMC3    C8 7274   0.707   1.294  12.586  0.0041  0.0052 -0.3464
  485TMC3    O1 7275   0.640   1.814  12.643  0.1510 -0.2321 -0.5471
  485TMC3    O2 7276   0.781   1.362  12.516 -0.0158 -0.3021 -0.1972
  486MPD2     C 7277   2.657   0.708  13.082 -0.4251  0.0339  0.3237
  486MPD2    C1 7278   2.532   0.666  13.046  0.2569 -0.7816  0.5098
  486MPD2    C2 7279   2.421   0.748  13.076 -0.1208 -0.1805 -0.0283
  486MPD2    C3 7280   2.438   0.874  13.135 -0.0301 -0.6255  0.0352
  486MPD2    C4 7281   2.565   0.917  13.162  0.0173  0.3065 -0.0249
  486MPD2    C5 7282   2.673   0.830  13.140  0.4196 -0.0034 -0.5566
  486MPD2     H 7283   2.320   0.713  13.061 -0.2246  0.2896 -0.4147
  486MPD2    H1 7284   2.592   1.014  13.202  1.4847  1.0887 -2.9645
  486MPD2    H2 7285   2.745   0.648  13.058  0.6494  1.9667 -0.5189
  486MPD2    H3 7286   2.772   0.872  13.156  0.9554 -1.4787 -0.0854
  486MPD2     N 7287   2.319   0.948  13.167 -0.2619  0.7226  0.6586
  486MPD2    H5 7288   2.236   0.901  13.132  0.8567  0.5091 -1.7352
  486MPD2    N1 7289   2.519   0.529  12.998  0.4227 -1.0344 -0.1785
  486MPD2    H7 7290   2.601   0.471  13.002  0.2607 -1.4760 -3.2522
  487TMC3    C1 7291   2.396   0.338  12.955  0.5177  0.3298  0.6349
  487TMC3    C2 7292   2.331   0.261  12.856  0.5633 -0.9308 -0.0312
  487TMC3    C3 7293   2.286   0.142  12.902  0.2494  0.5044  0.0431
  487TMC3    C4 7294   2.387   0.304  13.090  0.4566 -0.4222 -0.0172
  487TMC3    C5 7295   2.342   0.176  13.127 -0.2351 -0.4418  0.1010
  487TMC3    C6 7296   2.309   0.090  13.027  0.0672  0.3410  0.1999
  487TMC3     C 7297   2.405   0.480  12.938  0.3698 -0.4812 -0.4475
  487TMC3     O 7298   2.313   0.544  12.882 -0.1017 -0.2780  0.4565
  487TMC3     H 7299   2.327   0.297  12.754  1.3422 -0.7347  0.0029
  487TMC3    H1 7300   2.412   0.373  13.169 -0.7139 -1.4307  1.2253
  487TMC3    H2 7301   2.255   0.001  13.056 -0.6294  2.0685  4.2476
  487TMC3    C7 7302   2.274   0.169  13.257 -0.6975 -0.2555  0.1812
  487TMC3    C8 7303   2.166   0.102  12.839  0.1016 -0.9758  0.3328
  487TMC3    O1 7304   2.328   0.244  13.337 -0.2058  0.6367 -0.8100
  487TMC3    O2 7305   2.168   4.732  12.787  0.0138 -0.7975  0.1721
  488MPD2     C 7306   2.159   2.061  16.308 -0.5255 -0.5030  0.8996
  488MPD2    C1 7307   2.207   2.159  16.398 -0.1705 -0.1840  0.8232
  488MPD2    C2 7308   2.204   2.135  16.533 -0.0070  0.3172  0.5887
  488MPD2    C3 7309   2.135   2.031  16.580  0.2356  0.3160 -0.1774
  488MPD2    C4 7310   2.079   1.935  16.502  0.2604 -0.8398 -0.1712
  488MPD2    C5 7311   2.089   1.957  16.365  0.1715  0.3687 -0.2063
  488MPD2     H 7312   2.248   2.206  16.601  3.4631 -1.1113 -0.2009
  488MPD2    H1 7313   2.030   1.842  16.530 -0.2086 -0.6462 -0.3469
  488MPD2    H2 7314   2.174   2.068  16.201  1.0978  1.1134  1.2373
  488MPD2    H3 7315   2.051   1.888  16.290 -0.4484 -0.4193  0.8323
  488MPD2     N 7316   2.131   2.008  16.719  0.4192 -0.0953  0.4800
  488MPD2    H5 7317   2.190   2.071  16.771 -1.0281  0.2462  1.7145
  488MPD2    N1 7318   2.285   2.269  16.358  0.0954  0.1378 -0.0772
  488MPD2    H7 7319   2.317   2.324  16.437 -2.2848 -1.1200  1.7660
  489TMC3    C1 7320   2.088   1.939  16.936 -0.2244  0.4157  0.7154
  489TMC3    C2 7321   2.133   2.065  16.967 -0.5835  0.0730 -0.4413
  489TMC3    C3 7322   2.199   2.068  17.082  0.3697  0.1319 -0.3482
  489TMC3    C4 7323   2.085   1.832  17.020 -0.4800 -0.5988  0.4859
  489TMC3    C5 7324   2.132   1.854  17.144 -0.0947  0.1344  0.1032
  489TMC3    C6 7325   2.191   1.972  17.181 -0.5891  0.6234 -0.7018
  489TMC3     C 7326   2.066   1.911  16.799 -0.3058 -0.6245  0.1405
  489TMC3     O 7327   2.003   1.813  16.777 -0.6613 -0.3836 -0.5364
  489TMC3     H 7328   2.108   2.156  16.914  0.0182  0.7313  0.4221
  489TMC3    H1 7329   2.071   1.733  16.980 -0.9788 -0.6639  0.8238
  489TMC3    H2 7330   2.252   1.970  17.270 -1.0530 -1.0396 -0.4229
  489TMC3    C7 7331   2.159   1.732  17.225  0.5734  0.0937 -0.2179
  489TMC3    C8 7332   2.304   2.168  17.074  0.0587  0.4303  0.1889
  489TMC3    O1 7333   2.250   1.744  17.307 -0.6812  0.1341 -0.4965
  489TMC3    O2 7334   2.340   2.218  16.965  0.4714 -0.4657 -0.1534
  490MPD2     C 7335   2.830   1.219  16.994  0.4170  0.0386  0.2712
  490MPD2    C1 7336   2.874   1.179  17.122  0.0952  0.3433  0.2681
  490MPD2    C2 7337   2.970   1.253  17.196  0.1697  0.8841  0.1772
  490MPD2    C3 7338   3.014   1.372  17.137 -0.0215 -0.7637 -0.5998
  490MPD2    C4 7339   2.973   1.404  17.016 -0.1697 -0.0342 -0.7131
  490MPD2    C5 7340   2.877   1.342  16.943 -0.1971  0.4861  0.3763
  490MPD2     H 7341   3.005   1.218  17.292  0.8245 -1.2601 -0.8310
  490MPD2    H1 7342   3.006   1.500  16.977  1.0684  0.2676  1.0730
  490MPD2    H2 7343   2.756   1.171  16.931  3.4105 -0.8303 -2.5580
  490MPD2    H3 7344   2.847   1.381  16.846  1.1993 -1.9078 -1.0328
  490MPD2     N 7345   3.128   1.442  17.190  0.5899 -0.0837 -0.3621
  490MPD2    H5 7346   3.177   1.495  17.119 -0.1275  0.0921 -0.7246
  490MPD2    N1 7347   2.843   1.053  17.175  0.4294 -0.1396  0.1665
  490MPD2    H7 7348   2.901   1.018  17.250 -1.6881  0.6198  2.1407
  491TMC3    C1 7349   2.769   0.840  17.184  0.0669 -0.2852  0.8962
  491TMC3    C2 7350   2.767   0.826  17.318 -0.0822 -0.5477  0.5299
  491TMC3    C3 7351   2.756   0.702  17.369  0.1246 -0.6085 -0.1927
  491TMC3    C4 7352   2.749   0.735  17.093  0.1970 -0.4981 -0.2767
  491TMC3    C5 7353   2.716   0.614  17.147  0.3230  0.1332 -0.0730
  491TMC3    C6 7354   2.731   0.595  17.283  0.4722 -0.7783 -0.1669
  491TMC3     C 7355   2.756   0.968  17.117 -0.4654 -0.3007 -0.5995
  491TMC3     O 7356   2.688   0.978  17.017 -0.0115 -0.1038 -0.3368
  491TMC3     H 7357   2.804   0.908  17.379  2.2576 -1.6185  0.5584
  491TMC3    H1 7358   2.741   0.752  16.986 -0.3300  1.6569  0.1104
  491TMC3    H2 7359   2.723   0.496  17.326 -1.3721 -0.9122 -0.8122
  491TMC3    C7 7360   2.590   0.578  17.087  0.1673 -0.8789  0.1504
  491TMC3    C8 7361   2.689   0.692  17.500  0.1198 -0.0062 -0.0903
  491TMC3    O1 7362   2.547   0.644  16.992  0.0633  0.0231  0.0095
  491TMC3    O2 7363   2.688   0.797  17.567 -0.4996 -0.1853 -0.1232
  492MPD2     C 7364   3.401   1.745  11.601 -0.5065  0.7335 -0.4869
  492MPD2    C1 7365   3.291   1.700  11.538 -0.0148  0.1940  0.9211
  492MPD2    C2 7366   3.190   1.636  11.609 -0.3000 -0.2836 -0.2135
  492MPD2    C3 7367   3.195   1.642  11.745 -0.6183 -0.5367  0.0276
  492MPD2    C4 7368   3.306   1.694  11.811  0.7122  0.5039 -0.0859
  492MPD2    C5 7369   3.406   1.748  11.738 -0.4244 -0.1042  0.8193
  492MPD2     H 7370   3.101   1.601  11.559 -0.1082 -0.8128 -0.1829
  492MPD2    H1 7371   3.315   1.711  11.917  1.3493 -0.5178  0.0266
  492MPD2    H2 7372   3.475   1.795  11.540  1.9821  0.9736  2.7385
  492MPD2    H3 7373   3.492   1.794  11.784  0.2230 -0.4863 -0.0014
  492MPD2     N 7374   3.084   1.597  11.831  0.0542 -0.8509  0.2804
  492MPD2    H5 7375   3.090   1.608  11.931 -1.4238  1.0163  0.1633
  492MPD2    N1 7376   3.292   1.712  11.397 -0.2517  0.5035  0.3036
  492MPD2    H7 7377   3.377   1.748  11.355 -1.4114 -1.0511 -3.3929
  493TMC3    C1 7378   3.227   1.693  11.172 -0.0735  0.3117 -1.0237
  493TMC3    C2 7379   3.349   1.755  11.148 -0.1398 -0.4799  0.0531
  493TMC3    C3 7380   3.390   1.748  11.022  0.5981 -0.7770 -0.3797
  493TMC3    C4 7381   3.146   1.640  11.080 -0.5603  0.8049 -0.3527
  493TMC3    C5 7382   3.191   1.645  10.948  0.1144 -0.0268  0.1892
  493TMC3    C6 7383   3.318   1.697  10.918  0.1353  0.2509  0.4871
  493TMC3     C 7384   3.195   1.661  11.311 -0.4214  0.7933 -0.3165
  493TMC3     O 7385   3.083   1.611  11.333 -0.5024  0.6450 -0.5409
  493TMC3     H 7386   3.416   1.789  11.226 -0.9807  1.7728 -0.1924
  493TMC3    H1 7387   3.053   1.588  11.099  0.3480 -1.3506 -1.8221
  493TMC3    H2 7388   3.364   1.676  10.823  1.4310  2.3308  0.6567
  493TMC3    C7 7389   3.108   1.589  10.843  0.4975 -0.8826 -0.1182
  493TMC3    C8 7390   3.524   1.798  10.994 -1.3470 -0.5298 -0.8862
  493TMC3    O1 7391   2.994   1.557  10.871 -0.0494  0.1266  0.5793
  493TMC3    O2 7392   3.597   1.800  11.092 -0.1326 -0.0397 -0.2990
  494TMC3    C1 7393   3.584   2.984   0.508  0.5986  0.2877  0.0746
  494TMC3    C2 7394   3.541   2.864   0.455  0.4734  0.0239 -0.1974
  494TMC3    C3 7395   3.598   2.826   0.337 -0.5951  0.4798  0.5998
  494TMC3    C4 7396   3.681   3.066   0.449 -0.4622 -0.2448 -0.6287
  494TMC3    C5 7397   3.734   3.024   0.333 -0.5223  0.0257 -0.5797
  494TMC3    C6 7398   3.694   2.904   0.281  0.0973  0.0043 -0.4202
  494TMC3     C 7399   3.527   3.022   0.639  0.2123  1.0704 -0.1497
  494TMC3     O 7400   3.495   2.933   0.718  0.4546  0.5461  0.2876
  494TMC3     H 7401   3.462   2.803   0.497  1.3101 -0.1074  1.1695
  494TMC3    H1 7402   3.718   3.155   0.499  2.5160 -0.2869 -2.7224
  494TMC3    H2 7403   3.747   2.867   0.194  1.0607 -0.0463  0.1928
  494TMC3    C7 7404   3.826   3.110   0.271  0.6585  0.6275  0.1765
  494TMC3    C8 7405   3.640   2.687   0.357  0.2304  0.3848  0.0105
  494TMC3    O1 7406   3.918   3.068   0.199 -0.0055 -0.0567 -0.6757
  494TMC3    O2 7407   3.628   2.641   0.469 -0.7809  0.1083  0.7228
  495TMC3    C1 7408   2.498   0.842  15.065  0.3229 -0.2451 -0.5238
  495TMC3    C2 7409   2.438   0.895  14.951  0.2079 -0.2671 -0.6806
  495TMC3    C3 7410   2.304   0.889  14.946  0.0561  0.5298  0.9081
  495TMC3    C4 7411   2.433   0.818  15.184 -0.4638 -0.0791 -0.5167
  495TMC3    C5 7412   2.298   0.813  15.165  0.1526  0.5260 -0.0983
  495TMC3    C6 7413   2.227   0.844  15.050  0.1703  0.4308  0.2303
  495TMC3     C 7414   2.565   0.722  15.031  0.4344 -0.2224  0.5751
  495TMC3     O 7415   2.554   0.634  15.115 -0.4913  0.4235 -0.2674
  495TMC3     H 7416   2.490   0.938  14.866 -2.3276  0.9447 -1.6240
  495TMC3    H1 7417   2.482   0.799  15.278  2.1158 -3.5831 -2.5832
  495TMC3    H2 7418   2.119   0.854  15.053  0.4069  2.5177  1.7011
  495TMC3    C7 7419   2.232   0.810  15.291  0.6603 -0.9518  0.1635
  495TMC3    C8 7420   2.237   0.896  14.819  0.0268  0.4566 -0.1705
  495TMC3    O1 7421   2.289   0.862  15.383 -0.4198 -0.0156  0.4048
  495TMC3    O2 7422   2.124   0.927  14.828  0.2458  0.3421  0.0769
  496MPD2     C 7423   3.949   0.940  15.441  0.4044  0.2124  0.8448
  496MPD2    C1 7424   3.985   0.810  15.459 -0.0843 -0.5484 -0.3937
  496MPD2    C2 7425   3.893   0.725  15.516  0.7724 -0.5851 -0.0269
  496MPD2    C3 7426   3.767   0.769  15.552 -0.3586  0.3985 -0.1558
  496MPD2    C4 7427   3.729   0.902  15.528 -0.0163  0.3406  0.0940
  496MPD2    C5 7428   3.820   0.988  15.473 -0.2981 -0.0054 -0.2316
  496MPD2     H 7429   3.926   0.623  15.537  1.1894  0.2007  3.1206
  496MPD2    H1 7430   3.630   0.939  15.549  0.2361  0.1370  1.5896
  496MPD2    H2 7431   4.024   1.001  15.391  0.4132 -1.5720 -1.3226
  496MPD2    H3 7432   3.792   1.091  15.456 -0.5565  0.0287  0.4175
  496MPD2     N 7433   3.668   0.692  15.623 -0.4594 -0.1902  0.2934
  496MPD2    H5 7434   3.594   0.755  15.651 -0.5002 -0.4030  0.6602
  496MPD2    N1 7435   4.114   0.774  15.412  0.0226 -0.1641 -0.2958
  496MPD2    H7 7436   4.180   0.846  15.381 -2.1788  1.8027 -0.4529
  497TMC3    C1 7437   3.575   0.522  15.766 -0.7019 -0.3251  0.2357
  497TMC3    C2 7438   3.440   0.529  15.729 -0.3706  0.0444  0.2187
  497TMC3    C3 7439   3.349   0.449  15.787  0.5930 -0.4001 -0.0205
  497TMC3    C4 7440   3.614   0.438  15.863 -0.1334  0.5528 -0.1482
  497TMC3    C5 7441   3.516   0.351  15.916 -0.3062  0.2674 -0.2432
  497TMC3    C6 7442   3.388   0.360  15.883  0.8789 -0.2974 -0.6825
  497TMC3     C 7443   3.684   0.563  15.675  0.2347  0.5631 -0.2521
  497TMC3     O 7444   3.783   0.491  15.666 -0.2084 -0.0424  0.1042
  497TMC3     H 7445   3.406   0.592  15.648 -1.1937 -1.0274 -0.2693
  497TMC3    H1 7446   3.718   0.434  15.893 -0.1677 -0.6218 -0.1646
  497TMC3    H2 7447   3.321   0.289  15.932  2.8720 -2.1786 -0.6613
  497TMC3    C7 7448   3.558   0.227  15.978 -0.1800 -0.6733 -0.2981
  497TMC3    C8 7449   3.212   0.479  15.766 -0.0157  0.2688  0.2247
  497TMC3    O1 7450   3.478   0.135  15.970  0.5586 -0.4098  0.5290
  497TMC3    O2 7451   3.191   0.600  15.754  0.8256 -0.2631  0.3787
  498MPD2     C 7452   0.658   1.094   9.849 -0.7348  0.4549 -0.2239
  498MPD2    C1 7453   0.611   1.119   9.978 -0.7692 -0.2031 -1.3771
  498MPD2    C2 7454   0.491   1.071  10.010 -0.7180  0.7941  0.3941
  498MPD2    C3 7455   0.409   1.004   9.920 -0.4911 -0.0763 -0.5369
  498MPD2    C4 7456   0.445   0.987   9.791  0.7362  0.6483  0.2383
  498MPD2    C5 7457   0.574   1.040   9.756  0.6489 -0.1485  0.0295
  498MPD2     H 7458   0.457   1.101  10.109  2.2972 -0.4961  1.8079
  498MPD2    H1 7459   0.383   0.937   9.717  0.2317  0.9558  0.4601
  498MPD2    H2 7460   0.750   1.134   9.807  0.6364 -1.6446  0.8259
  498MPD2    H3 7461   0.608   1.036   9.653  0.2014 -0.2855 -0.1146
  498MPD2     N 7462   0.280   0.969   9.970  0.1681  0.3565 -0.6338
  498MPD2    H5 7463   0.272   0.970  10.071 -0.2118  0.1336 -0.6624
  498MPD2    N1 7464   0.684   1.212  10.066  0.0980 -0.1986 -0.2430
  498MPD2    H7 7465   0.628   1.248  10.142  0.9182  0.0646  0.2417
  499TMC3    C1 7466   0.835   1.372  10.134 -0.8100  0.8819 -0.0417
  499TMC3    C2 7467   0.949   1.432  10.093 -0.1410  0.6812  0.6602
  499TMC3    C3 7468   0.962   1.565  10.082  0.5809 -0.4052  0.0716
  499TMC3    C4 7469   0.729   1.461  10.159 -0.2049 -0.0864 -0.0291
  499TMC3    C5 7470   0.739   1.597  10.148  0.6590 -1.0525  0.1202
  499TMC3    C6 7471   0.860   1.651  10.112  0.1994 -0.0740 -0.5119
  499TMC3     C 7472   0.814   1.244  10.062  0.3273 -0.1568 -0.2537
  499TMC3     O 7473   0.899   1.193   9.991 -0.0280  0.0774 -0.5405
  499TMC3     H 7474   1.028   1.376  10.044 -0.6572 -0.6452  1.3636
  499TMC3    H1 7475   0.630   1.421  10.174 -0.7033  1.7417  1.5305
  499TMC3    H2 7476   0.873   1.758  10.113  1.2575 -0.1968 -2.0350
  499TMC3    C7 7477   0.620   1.681  10.147 -0.0715 -0.6165  0.1623
  499TMC3    C8 7478   1.096   1.612  10.084  0.1873  0.2256 -0.1342
  499TMC3    O1 7479   0.627   1.776  10.073  0.3439  0.6325 -0.1027
  499TMC3    O2 7480   1.183   1.527  10.101 -0.4062  0.2304  0.4552
  500MPD2     C 7481   1.629   2.467  10.565  0.1369  0.1874  0.2999
  500MPD2    C1 7482   1.652   2.441  10.431 -0.0885  0.4299  0.2222
  500MPD2    C2 7483   1.553   2.401  10.349 -0.0769 -0.3391 -0.6951
  500MPD2    C3 7484   1.422   2.393  10.388  0.7538 -0.1162  0.2767
  500MPD2    C4 7485   1.390   2.429  10.514 -0.0265  0.0159 -0.3423
  500MPD2    C5 7486   1.497   2.454  10.604  0.5630 -0.0890  0.1713
  500MPD2     H 7487   1.576   2.369  10.248  2.4317 -2.6040  0.6099
  500MPD2    H1 7488   1.288   2.417  10.550  0.8873  1.5064  2.7953
  500MPD2    H2 7489   1.698   2.502  10.641  1.2341  3.2027 -2.0936
  500MPD2    H3 7490   1.461   2.477  10.703  0.3906 -2.1751  0.5985
  500MPD2     N 7491   1.326   2.332  10.308  0.0345  0.1882  0.2919
  500MPD2    H5 7492   1.231   2.318  10.343  0.2154 -1.7284 -0.0075
  500MPD2    N1 7493   1.784   2.437  10.380  0.2584 -0.0801  0.6836
  500MPD2    H7 7494   1.792   2.427  10.280 -1.3391 -0.8994  0.6358
  501TMC3    C1 7495   2.011   2.417  10.359  0.5760  0.7362 -0.4186
  501TMC3    C2 7496   2.006   2.452  10.219  0.3017 -0.0970 -0.8944
  501TMC3    C3 7497   2.124   2.453  10.152 -0.2728  0.6978  0.9370
  501TMC3    C4 7498   2.130   2.396  10.417 -0.0988  0.5621  0.3742
  501TMC3    C5 7499   2.238   2.385  10.337 -0.1713 -0.2398 -0.7937
  501TMC3    C6 7500   2.244   2.395  10.199  0.7863  0.0025 -0.0729
  501TMC3     C 7501   1.901   2.443  10.451 -0.3845 -0.4231 -0.6054
  501TMC3     O 7502   1.918   2.420  10.571 -0.1667 -0.1426  0.1528
  501TMC3     H 7503   1.934   2.517  10.171 -0.5946  0.3087  1.0186
  501TMC3    H1 7504   2.150   2.388  10.523  0.0080  2.6498  0.5036
  501TMC3    H2 7505   2.335   2.399  10.139 -1.2825  0.1744 -3.1961
  501TMC3    C7 7506   2.365   2.413  10.407 -0.0298  0.0169  0.1244
  501TMC3    C8 7507   2.169   2.585  10.102  0.1222 -0.1855 -0.0210
  501TMC3    O1 7508   2.384   2.372  10.525  0.2073  0.7064 -0.4429
  501TMC3    O2 7509   2.292   2.601  10.117  0.0952  0.2275 -0.5271
  502TMC3    C1 7510   1.821   1.376  14.978 -0.1118 -0.7293  0.0080
  502TMC3    C2 7511   1.782   1.498  14.934  0.7146 -0.6317  0.4556
  502TMC3    C3 7512   1.645   1.536  14.944  0.3222  0.1039  0.2816
  502TMC3    C4 7513   1.725   1.283  15.013  0.8839 -0.6420 -0.1268
  502TMC3    C5 7514   1.592   1.310  15.009  0.6809 -0.3083  0.0351
  502TMC3    C6 7515   1.551   1.443  14.982  0.2334  0.3811 -1.0242
  502TMC3     C 7516   1.922   1.389  15.084  0.0574 -0.7806 -0.2734
  502TMC3     O 7517   2.021   1.460  15.072  0.0025  0.9242  0.2318
  502TMC3     H 7518   1.863   1.570  14.931  0.4359 -0.4237 -2.7371
  502TMC3    H1 7519   1.757   1.181  15.033  1.2006 -0.3410  0.9074
  502TMC3    H2 7520   1.445   1.465  14.984  0.2456  0.1992  1.4515
  502TMC3    C7 7521   1.525   1.240  15.118  0.6197 -0.3957  0.2388
  502TMC3    C8 7522   1.615   1.680  14.948 -0.0378  0.7215  1.2700
  502TMC3    O1 7523   1.602   1.225  15.213  0.4166  0.1861  0.0035
  502TMC3    O2 7524   1.710   1.751  14.977  0.0263 -0.2981  0.2375
  503MPD2     C 7525   4.237   2.167  16.897  0.4926 -0.8950  0.1467
  503MPD2    C1 7526   4.274   2.227  17.013 -0.0137 -0.0117 -0.3302
  503MPD2    C2 7527   4.311   2.152  17.122  0.1295  0.1795 -0.0595
  503MPD2    C3 7528   4.300   2.010  17.129  0.2134  0.4253 -0.2356
  503MPD2    C4 7529   4.263   1.952  17.008  0.6466 -0.2213 -0.1561
  503MPD2    C5 7530   4.226   2.031  16.901 -0.8467 -0.3432 -0.4247
  503MPD2     H 7531   4.359   2.201  17.206 -0.2454  1.4426 -0.5831
  503MPD2    H1 7532   4.253   1.845  16.993  1.6973 -0.2615 -0.5805
  503MPD2    H2 7533   4.203   2.220  16.809  0.1568 -0.7212  0.3786
  503MPD2    H3 7534   4.204   1.983  16.806  1.8113 -1.5719 -0.4207
  503MPD2     N 7535   4.347   1.937  17.237 -0.1194  0.1577 -0.6393
  503MPD2    H5 7536   4.374   1.988  17.321 -0.3140  0.2598 -0.6377
  503MPD2    N1 7537   4.262   2.363  17.031 -0.3689 -0.1161  0.1481
  503MPD2    H7 7538   4.295   2.395  17.122  1.3113  0.4077 -0.6360
  504TMC3    C1 7539   4.400   1.743  17.367  0.0253 -1.0495 -0.2923
  504TMC3    C2 7540   4.360   1.620  17.406 -0.8523 -1.6177  0.4567
  504TMC3    C3 7541   4.440   1.554  17.499 -0.4858  0.1851  0.3361
  504TMC3    C4 7542   4.515   1.804  17.414 -0.6585 -0.4471  0.4825
  504TMC3    C5 7543   4.603   1.728  17.493  0.3789  0.1299  0.3050
  504TMC3    C6 7544   4.563   1.604  17.535  0.3805  0.4060 -0.2320
  504TMC3     C 7545   4.342   1.800  17.247  0.0251 -0.2617  0.0569
  504TMC3     O 7546   4.283   1.718  17.183  0.1326  1.1192  0.2642
  504TMC3     H 7547   4.262   1.580  17.384 -1.3921 -0.2264  0.2905
  504TMC3    H1 7548   4.559   1.893  17.370  2.5233 -0.4917  3.5950
  504TMC3    H2 7549   4.631   1.545  17.596  1.0449 -0.3484 -1.7059
  504TMC3    C7 7550   4.736   1.749  17.452 -0.4699 -0.0023  0.2415
  504TMC3    C8 7551   4.411   1.421  17.543 -0.5042  0.3248 -0.6939
  504TMC3    O1 7552   0.070   1.805  17.530 -0.5428 -0.0346  0.1293
  504TMC3    O2 7553   4.346   1.353  17.459 -0.0314 -0.2890 -0.2558
  505MPD2     C 7554   3.900   0.876  10.493 -0.4559 -0.2727  0.1519
  505MPD2    C1 7555   3.918   0.785  10.600 -0.0724 -0.9456 -0.1626
  505MPD2    C2 7556   3.995   0.827  10.713  0.4915 -0.6188  0.1169
  505MPD2    C3 7557   4.049   0.954  10.729 -0.4075  0.6062  0.4910
  505MPD2    C4 7558   4.021   1.041  10.626  0.3194 -0.2645  0.6631
  505MPD2    C5 7559   3.949   1.004  10.510 -0.2076  0.7477 -0.1962
  505MPD2     H 7560   4.013   0.766  10.801 -1.3835 -0.6954  0.4399
  505MPD2    H1 7561   4.060   1.142  10.628  1.0511 -0.5204 -0.8469
  505MPD2    H2 7562   3.846   0.849  10.403  0.1852  0.9493 -0.5925
  505MPD2    H3 7563   3.930   1.076  10.431 -1.0403  1.3239  0.5332
  505MPD2     N 7564   4.118   1.002  10.840 -0.5612  0.1285  0.1466
  505MPD2    H5 7565   4.152   1.098  10.832 -0.7491  0.3145  1.5155
  505MPD2    N1 7566   3.857   0.651  10.585  0.1785 -0.5319  0.1378
  505MPD2    H7 7567   3.798   0.638  10.503 -1.7730 -2.9055  1.9060
  506TMC3    C1 7568   3.851   0.418  10.641  0.1185  0.4751  0.8161
  506TMC3    C2 7569   3.914   0.383  10.523 -0.5394 -0.1506 -0.2322
  506TMC3    C3 7570   3.962   0.252  10.516  0.8441 -0.5144 -0.2211
  506TMC3    C4 7571   3.849   0.337  10.746 -0.0956  0.3385  0.6951
  506TMC3    C5 7572   3.907   0.215  10.744 -0.4989  0.1076  0.8538
  506TMC3    C6 7573   3.964   0.175  10.628 -0.1883 -0.2578 -0.0740
  506TMC3     C 7574   3.874   0.553  10.682 -0.2343 -0.1664  0.0413
  506TMC3     O 7575   3.936   0.563  10.789  0.6131  0.5020 -0.3766
  506TMC3     H 7576   3.923   0.451  10.439  0.6134  2.1791  1.7428
  506TMC3    H1 7577   3.782   0.366  10.826  0.5516  0.5720  1.1586
  506TMC3    H2 7578   4.011   0.078  10.616 -0.9462 -0.5645 -0.5790
  506TMC3    C7 7579   4.008   0.194  10.848 -0.4720  0.9777 -0.6312
  506TMC3    C8 7580   4.073   0.218  10.425  0.0435  0.0551  0.2257
  506TMC3    O1 7581   4.071   0.089  10.834  0.3791  0.3558  0.7493
  506TMC3    O2 7582   4.064   0.105  10.392 -0.1739 -0.1811 -0.0590
  507TMC3    C1 7583   1.286   2.752  14.688  0.3829  0.3173 -0.2707
  507TMC3    C2 7584   1.245   2.884  14.656  0.3010 -0.2281 -0.2586
  507TMC3    C3 7585   1.155   2.944  14.736  0.7594 -0.0405 -0.1154
  507TMC3    C4 7586   1.227   2.674  14.784 -0.5982  0.6031  1.0352
  507TMC3    C5 7587   1.136   2.742  14.862 -0.2973 -0.5442 -0.5993
  507TMC3    C6 7588   1.118   2.881  14.858 -0.2578 -0.2860  0.2178
  507TMC3     C 7589   1.344   2.680  14.568  0.5637 -0.5208 -0.0064
  507TMC3     O 7590   1.403   2.750  14.483  0.6906  0.3487 -0.3811
  507TMC3     H 7591   1.306   2.945  14.591 -2.2342 -1.2423 -3.5868
  507TMC3    H1 7592   1.246   2.568  14.790 -0.1070  0.6584  0.4323
  507TMC3    H2 7593   1.045   2.928  14.923  0.9212  0.6012  0.8908
  507TMC3    C7 7594   1.022   2.661  14.910 -0.2201  0.1366  0.1098
  507TMC3    C8 7595   1.043   3.003  14.663  0.4881  0.6862  0.3605
  507TMC3    O1 7596   1.042   2.541  14.934 -0.4987 -0.4003 -0.4855
  507TMC3    O2 7597   0.940   2.959  14.706  0.2317 -0.3537  0.1261
  508MPD2     C 7598   1.568   4.171  16.219  0.8075  0.9741 -0.4424
  508MPD2    C1 7599   1.545   4.308  16.216  0.2080  0.2958 -0.9283
  508MPD2    C2 7600   1.542   4.370  16.088 -0.0199 -0.1628  0.4850
  508MPD2    C3 7601   1.570   4.295  15.972 -0.0630  0.3623  0.2785
  508MPD2    C4 7602   1.582   4.158  15.979 -0.3173  0.5830 -0.0988
  508MPD2    C5 7603   1.578   4.102  16.104  0.1067  0.1111 -0.6622
  508MPD2     H 7604   1.529   4.477  16.079 -2.3269 -0.7176 -2.9486
  508MPD2    H1 7605   1.583   4.095  15.891 -1.1610  1.4268 -0.6990
  508MPD2    H2 7606   1.562   4.110  16.308 -0.7136 -0.0688 -1.2567
  508MPD2    H3 7607   1.598   3.996  16.107 -1.2457 -0.1293 -0.0574
  508MPD2     N 7608   1.566   4.357  15.849 -0.2452  0.7618  0.1624
  508MPD2    H5 7609   1.545   4.457  15.854 -2.1329  0.3796 -0.2056
  508MPD2    N1 7610   1.529   4.382  16.341  0.9487  0.5919  0.3796
  508MPD2    H7 7611   1.547   4.336  16.430 -1.9290  0.1137  0.7111
  509TMC3    C1 7612   1.346   4.495  15.560  0.3437 -0.2653 -0.7814
  509TMC3    C2 7613   1.382   4.620  15.606 -0.3326  0.1221  0.6000
  509TMC3    C3 7614   1.507   4.637  15.668  0.6725  0.3802  0.3239
  509TMC3    C4 7615   1.437   4.391  15.569 -0.4640 -0.7060 -0.2265
  509TMC3    C5 7616   1.550   4.409  15.645  0.2275  0.1444  0.5605
  509TMC3    C6 7617   1.594   4.532  15.691 -0.3363 -0.6528  0.7445
  509TMC3     C 7618   1.243   4.490  15.451 -0.0836 -0.3027  0.3204
  509TMC3     O 7619   1.260   4.409  15.359  0.4164  0.0323  0.8329
  509TMC3     H 7620   1.308   4.698  15.617  1.4025  1.8645 -0.1180
  509TMC3    H1 7621   1.426   4.306  15.502  1.0358 -2.4074  1.7152
  509TMC3    H2 7622   1.675   4.551  15.761 -0.9182  2.5591  0.5373
  509TMC3    C7 7623   1.584   4.304  15.722 -1.0841 -0.1679 -0.2721
  509TMC3    C8 7624   1.496   4.707  15.798 -0.3334  0.3996  0.6991
  509TMC3    O1 7625   1.597   4.189  15.679  0.1158  0.1175  0.3394
  509TMC3    O2 7626   1.497   4.629  15.892  0.2681 -0.2317  0.2216
  510MPD2     C 7627   3.782   1.161  14.687  0.3686 -0.4846 -0.4010
  510MPD2    C1 7628   3.809   1.054  14.759  0.9593 -0.3948  0.2211
  510MPD2    C2 7629   3.932   0.996  14.738 -0.4835 -0.0884 -0.8072
  510MPD2    C3 7630   4.020   1.031  14.633 -0.5607 -0.1551 -0.4698
  510MPD2    C4 7631   3.985   1.150  14.560 -0.3443  0.5749 -0.2317
  510MPD2    C5 7632   3.862   1.207  14.585 -0.1266 -0.4755 -0.6403
  510MPD2     H 7633   3.953   0.913  14.805 -0.9649  1.0068  0.7089
  510MPD2    H1 7634   4.042   1.183  14.474  0.9634  1.9279  1.1386
  510MPD2    H2 7635   3.683   1.201  14.674  0.2069 -0.8874 -0.4132
  510MPD2    H3 7636   3.818   1.286  14.526 -0.5608  0.4456  0.9141
  510MPD2     N 7637   4.139   0.961  14.619 -0.0031  0.7165 -0.1213
  510MPD2    H5 7638   4.153   0.889  14.689 -2.4928 -0.5704 -0.9472
  510MPD2    N1 7639   3.717   0.998  14.850 -0.4505 -0.4660 -1.2614
  510MPD2    H7 7640   3.622   1.035  14.853 -0.2834 -0.2650  1.5641
  511TMC3    C1 7641   3.624   0.851  15.004  0.7655 -0.4494  0.2326
  511TMC3    C2 7642   3.598   0.847  15.134  0.4614  0.7312 -0.1190
  511TMC3    C3 7643   3.478   0.786  15.169 -0.2681 -0.6635  0.1175
  511TMC3    C4 7644   3.555   0.784  14.907  0.2408  0.7260  0.2638
  511TMC3    C5 7645   3.455   0.707  14.948  0.1516 -0.5355  0.6440
  511TMC3    C6 7646   3.413   0.707  15.078  0.0528 -0.0792 -0.3181
  511TMC3     C 7647   3.744   0.909  14.957 -0.1008  0.1887 -0.0897
  511TMC3     O 7648   3.848   0.872  15.006  0.9744  0.6909  0.9747
  511TMC3     H 7649   3.669   0.890  15.203 -1.0470  1.3163  1.0475
  511TMC3    H1 7650   3.604   0.762  14.812  0.1568 -0.6051  0.5250
  511TMC3    H2 7651   3.316   0.668  15.107  0.3425 -0.7644 -0.2888
  511TMC3    C7 7652   3.423   0.606  14.864 -0.2800  0.7965  0.0933
  511TMC3    C8 7653   3.413   0.826  15.296  0.8435  0.1026  0.4761
  511TMC3    O1 7654   3.451   0.621  14.746 -0.1870  0.3822  0.3399
  511TMC3    O2 7655   3.454   0.922  15.355  0.3577 -0.5124  0.5146
  512TMC3    C1 7656   2.581   0.407  13.501  0.5764 -0.1293 -0.0974
  512TMC3    C2 7657   2.644   0.386  13.621  0.8303 -0.4038  0.3120
  512TMC3    C3 7658   2.736   0.288  13.624 -0.4463 -0.4107  0.6724
  512TMC3    C4 7659   2.604   0.323  13.392 -0.2290 -0.3765 -0.5769
  512TMC3    C5 7660   2.678   0.214  13.408  0.1563  0.3071 -0.1495
  512TMC3    C6 7661   2.753   0.197  13.526  0.2838 -0.3433 -0.3925
  512TMC3     C 7662   2.499   0.527  13.489 -0.5279 -0.3066  0.1906
  512TMC3     O 7663   2.520   0.606  13.579  0.6593 -0.1453  0.1623
  512TMC3     H 7664   2.596   0.437  13.703  1.0326  1.4119 -0.6985
  512TMC3    H1 7665   2.558   0.347  13.297 -3.5939 -0.8208  0.9222
  512TMC3    H2 7666   2.831   0.123  13.534  0.1300 -0.3321  1.2620
  512TMC3    C7 7667   2.679   0.121  13.300 -0.6328 -0.2695 -0.0802
  512TMC3    C8 7668   2.839   0.306  13.726 -0.0769  0.5894 -0.1918
  512TMC3    O1 7669   2.655   0.173  13.194  0.0345  0.2131 -0.3094
  512TMC3    O2 7670   2.909   0.211  13.758  0.2885  0.1137 -0.1415
  513MPD2     C 7671   4.205   4.591  13.793  0.3730 -0.3578  0.1269
  513MPD2    C1 7672   4.295   4.560  13.690  0.7256  0.7453  0.2090
  513MPD2    C2 7673   4.397   4.649  13.657  0.5097 -0.4502  0.0090
  513MPD2    C3 7674   4.412   0.021  13.731 -0.2907 -0.1871  0.2083
  513MPD2    C4 7675   4.325   0.047  13.831  0.5412  0.3274 -0.1597
  513MPD2    C5 7676   4.222   4.706  13.864 -0.2983  0.0979  0.4951
  513MPD2     H 7677   4.457   4.615  13.574 -1.4507  0.5891 -1.8427
  513MPD2    H1 7678   4.329   0.140  13.886  1.0475 -0.0948  0.5294
  513MPD2    H2 7679   4.124   4.523  13.817  0.1847 -0.2533 -0.2118
  513MPD2    H3 7680   4.150   4.732  13.941  0.6759 -1.6631  2.0102
  513MPD2     N 7681   4.522   0.103  13.694  0.4295 -0.3145 -0.0149
  513MPD2    H5 7682   4.565   0.076  13.606  1.9002 -1.0226  0.9266
  513MPD2    N1 7683   4.296   4.449  13.605 -0.8351 -0.2250 -0.8428
  513MPD2    H7 7684   4.362   4.455  13.529  1.6362  0.1767  1.3449
  514TMC3    C1 7685   4.250   4.259  13.500 -0.3553  0.1497 -0.0438
  514TMC3    C2 7686   4.180   4.304  13.390 -0.5987 -0.4697 -0.0329
  514TMC3    C3 7687   4.234   4.310  13.267  0.4084 -0.0823 -0.3588
  514TMC3    C4 7688   4.382   4.220  13.489 -0.5993  0.5761 -0.2504
  514TMC3    C5 7689   4.446   4.242  13.363 -0.2089  0.3929  0.1235
  514TMC3    C6 7690   4.370   4.270  13.252 -0.3869  0.4104  0.1080
  514TMC3     C 7691   4.218   4.344  13.611 -0.2086  0.3967  0.3302
  514TMC3     O 7692   4.106   4.341  13.667  0.2797 -0.2784 -0.3376
  514TMC3     H 7693   4.080   4.342  13.410  0.4607  1.3635  1.7831
  514TMC3    H1 7694   4.443   4.195  13.575 -0.5792  1.6976  0.0626
  514TMC3    H2 7695   4.426   4.289  13.161  3.5633 -1.7925  2.0902
  514TMC3    C7 7696   4.564   4.321  13.383 -0.1102  0.3197 -0.9617
  514TMC3    C8 7697   4.176   4.423  13.188 -0.3893 -0.3355 -0.2094
  514TMC3    O1 7698   4.560   4.389  13.485 -0.0456  0.6335 -0.3734
  514TMC3    O2 7699   4.093   4.495  13.237  0.5438 -0.5006  0.4895
  515MPD2     C 7700   2.992   1.703  14.774 -0.7254 -0.4567  0.5961
  515MPD2    C1 7701   2.889   1.769  14.709 -0.1481 -0.4894  0.1313
  515MPD2    C2 7702   2.857   1.897  14.759 -0.1865  0.0623 -0.7734
  515MPD2    C3 7703   2.922   1.941  14.872  0.0143  0.3062  0.4674
  515MPD2    C4 7704   3.022   1.878  14.938  0.6069 -0.0589 -0.2044
  515MPD2    C5 7705   3.059   1.754  14.885 -0.3021  0.0439  0.8575
  515MPD2     H 7706   2.775   1.953  14.715  0.3436 -1.1523 -3.2708
  515MPD2    H1 7707   3.071   1.926  15.022 -0.0697  0.7879 -0.2969
  515MPD2    H2 7708   3.021   1.604  14.742  1.9056 -0.8654  4.2066
  515MPD2    H3 7709   3.127   1.678  14.922 -1.9338 -1.1657  1.3729
  515MPD2     N 7710   2.887   2.068  14.924 -0.1007 -0.8765 -0.0661
  515MPD2    H5 7711   2.935   2.099  15.007  0.2463 -2.1750  0.2200
  515MPD2    N1 7712   2.816   1.711  14.597 -0.1959  0.1840  0.1089
  515MPD2    H7 7713   2.735   1.771  14.580  1.3905  2.3171  0.0287
  516TMC3    C1 7714   2.734   1.561  14.432  0.1297 -0.4944  0.0784
  516TMC3    C2 7715   2.647   1.656  14.379  0.3993 -0.4300  0.0141
  516TMC3    C3 7716   2.539   1.614  14.317 -0.2356 -0.1614  0.2597
  516TMC3    C4 7717   2.702   1.432  14.434 -0.2027  0.2476 -0.4793
  516TMC3    C5 7718   2.584   1.392  14.390 -0.6165 -0.2601 -0.6741
  516TMC3    C6 7719   2.499   1.481  14.328 -0.4584 -0.1995  0.0090
  516TMC3     C 7720   2.832   1.592  14.531  0.6026  0.4166 -0.0530
  516TMC3     O 7721   2.914   1.504  14.560 -0.2190  0.3985 -0.0584
  516TMC3     H 7722   2.673   1.761  14.378  0.1274 -0.3532  2.2654
  516TMC3    H1 7723   2.771   1.360  14.476 -1.2375 -0.4813 -0.0232
  516TMC3    H2 7724   2.397   1.451  14.303 -0.5591 -0.4316  0.7093
  516TMC3    C7 7725   2.533   1.303  14.486  0.0143  0.0661  0.4054
  516TMC3    C8 7726   2.438   1.700  14.257 -0.2534 -0.0616 -0.4568
  516TMC3    O1 7727   2.616   1.249  14.561 -0.1786 -0.2648 -0.6860
  516TMC3    O2 7728   2.326   1.658  14.252 -0.0426 -0.0767 -0.2949
  517MPD2     C 7729   2.624   3.461   0.239 -0.0526 -0.3369  1.1017
  517MPD2    C1 7730   2.763   3.457   0.234  1.0101  0.4868  0.3780
  517MPD2    C2 7731   2.833   3.568   0.275  0.4192 -0.1593  0.0174
  517MPD2    C3 7732   2.780   3.690   0.319 -0.4554 -0.2574 -0.2710
  517MPD2    C4 7733   2.646   3.690   0.324  0.0716 -0.1901 -0.4996
  517MPD2    C5 7734   2.572   3.576   0.296  0.0771  0.7820 -0.1344
  517MPD2     H 7735   2.940   3.549   0.272  0.1202 -1.7977 -0.2796
  517MPD2    H1 7736   2.593   3.780   0.354  0.9055  0.2188 -0.2587
  517MPD2    H2 7737   2.554   3.383   0.209 -1.5492  1.5146 -0.2198
  517MPD2    H3 7738   2.465   3.589   0.299  0.0743  0.7903 -0.2706
  517MPD2     N 7739   2.849   3.802   0.364 -0.2190  0.7423 -0.2618
  517MPD2    H5 7740   2.802   3.867   0.426  2.2901 -0.2675  2.7114
  517MPD2    N1 7741   2.828   3.349   0.168 -0.3733 -0.6868  0.2281
  517MPD2    H7 7742   2.930   3.350   0.163 -0.4340  0.8450 -0.7785
  518TMC3    C1 7743   2.842   3.134   0.063  1.0479 -0.4461  0.1506
  518TMC3    C2 7744   2.812   3.001   0.076 -0.2728  0.8336 -0.0639
  518TMC3    C3 7745   2.905   2.915   0.032 -1.0188  0.7780 -0.4130
  518TMC3    C4 7746   2.963   3.175   0.014  0.1356 -0.6475  0.4467
  518TMC3    C5 7747   3.056   3.084  17.728  0.5629 -0.3187  0.3024
  518TMC3    C6 7748   3.023   2.952  17.733  0.1191  0.0146  0.2616
  518TMC3     C 7749   2.764   3.234   0.128 -0.7418  0.1816  0.7991
  518TMC3     O 7750   2.647   3.194   0.144  0.0374  0.0197  0.4286
  518TMC3     H 7751   2.714   2.969   0.108 -0.5014 -0.6383 -2.2336
  518TMC3    H1 7752   2.991   3.279   0.008  2.1245 -1.3839 -2.8207
  518TMC3    H2 7753   3.098   2.877  17.709 -0.2111 -0.3415  0.3254
  518TMC3    C7 7754   3.146   3.121  17.620  0.4297 -0.1711 -0.5737
  518TMC3    C8 7755   2.860   2.784  17.743  0.1264  0.0548  0.1920
  518TMC3    O1 7756   3.163   3.241  17.609 -0.0684 -0.4426 -0.1354
  518TMC3    O2 7757   2.923   2.733  17.649  0.4614  0.1465 -0.2635
  519MPD2     C 7758   4.119   2.034  14.454 -0.0125 -0.4710 -0.1538
  519MPD2    C1 7759   4.094   2.074  14.319  0.5113 -0.0646  0.1986
  519MPD2    C2 7760   4.163   2.003  14.220  0.1599 -0.4639  0.3018
  519MPD2    C3 7761   4.271   1.924  14.258  0.5941  0.2158  0.7926
  519MPD2    C4 7762   4.299   1.897  14.390  0.0311 -0.6052  0.2978
  519MPD2    C5 7763   4.219   1.949  14.493  0.1331 -0.0989 -0.0817
  519MPD2     H 7764   4.129   2.032  14.121  0.1499  0.0821  0.4655
  519MPD2    H1 7765   4.370   1.817  14.403  0.8725 -0.4904 -3.6604
  519MPD2    H2 7766   4.061   2.072  14.537  0.2773 -2.5666  1.0125
  519MPD2    H3 7767   4.237   1.928  14.597  0.6447 -2.0234 -0.5725
  519MPD2     N 7768   4.318   1.832  14.161 -0.6069 -0.6952  0.0457
  519MPD2    H5 7769   4.375   1.756  14.196 -0.0793 -0.1619  0.3543
  519MPD2    N1 7770   3.982   2.160  14.287  0.4843 -0.2864 -0.5569
  519MPD2    H7 7771   3.932   2.197  14.368 -0.2257  0.4970 -1.3531
  520TMC3    C1 7772   4.383   1.757  13.941  0.3461  0.1802  0.5913
  520TMC3    C2 7773   4.364   1.756  13.805  0.3282  0.2552  0.1665
  520TMC3    C3 7774   4.378   1.633  13.742 -0.1999 -0.2419  0.0062
  520TMC3    C4 7775   4.420   1.636  14.000  0.3415  0.2253  0.3240
  520TMC3    C5 7776   4.461   1.529  13.928 -0.3758 -0.4516  1.0830
  520TMC3    C6 7777   4.435   1.526  13.793 -0.1123 -0.1015  0.1723
  520TMC3     C 7778   4.312   1.857  14.025 -0.1322 -0.6646  0.1499
  520TMC3     O 7779   4.260   1.952  13.961  0.7205 -0.2549 -0.0448
  520TMC3     H 7780   4.331   1.845  13.752 -0.1459 -0.9316 -1.5482
  520TMC3    H1 7781   4.443   1.641  14.106  0.6182 -0.5796  0.3021
  520TMC3    H2 7782   4.442   1.439  13.729  0.9312  0.6066 -0.6845
  520TMC3    C7 7783   4.549   1.435  13.982  0.0145  0.3519  0.2226
  520TMC3    C8 7784   4.316   1.616  13.615 -0.3190  0.2133  0.7179
  520TMC3    O1 7785   4.554   1.431  14.104  0.1030  0.5173  0.2660
  520TMC3    O2 7786   4.354   1.524  13.541 -0.2860  0.4953  0.4980
  521MPD2     C 7787   4.627   0.232  17.512  0.5113  0.1384  0.1633
  521MPD2    C1 7788   4.710   0.129  17.559  0.1731  0.6545  0.5485
  521MPD2    C2 7789   0.098   0.122  17.505  0.7764  0.1084 -0.4785
  521MPD2    C3 7790   0.142   0.207  17.409 -0.4738  0.3051  0.2098
  521MPD2    C4 7791   0.071   0.320  17.380 -0.1998 -0.5743  0.4095
  521MPD2    C5 7792   4.686   0.327  17.434  0.1597  0.4249  0.5590
  521MPD2     H 7793   0.153   0.030  17.523  0.5621  0.0455 -0.1510
  521MPD2    H1 7794   0.108   0.397  17.314  0.1233 -1.4544 -0.4314
  521MPD2    H2 7795   4.523   0.227  17.542  0.7273  1.4405  1.1319
  521MPD2    H3 7796   4.623   0.409  17.402 -0.5979  0.2365  1.5756
  521MPD2     N 7797   0.267   0.177  17.360 -0.1824 -0.2034 -0.3507
  521MPD2    H5 7798   0.320   0.108  17.413  2.0581  2.1380  0.4618
  521MPD2    N1 7799   4.651   0.026  17.633  0.1640  0.4352  0.1041
  521MPD2    H7 7800   4.550   0.029  17.647  0.1959  0.1871  0.3912
  522TMC3    C1 7801   0.474   0.187  17.256 -0.2025  0.0637  0.2496
  522TMC3    C2 7802   0.570   0.252  17.188 -0.2636 -0.5719  0.1608
  522TMC3    C3 7803   0.662   0.175  17.120  0.3131 -0.3720 -0.2030
  522TMC3    C4 7804   0.464   0.052  17.259  0.6680  0.6128 -0.0606
  522TMC3    C5 7805   0.566   4.722  17.195  0.1207  0.4580 -0.4415
  522TMC3    C6 7806   0.668   0.040  17.134  0.0002  0.4718  0.6302
  522TMC3     C 7807   0.345   0.254  17.275 -0.2805  0.0828 -0.8372
  522TMC3     O 7808   0.322   0.357  17.218  0.3447 -0.5372 -0.1558
  522TMC3     H 7809   0.572   0.360  17.195  0.2531 -0.4691 -1.4712
  522TMC3    H1 7810   0.379   4.734  17.293  0.8525 -1.1368 -2.5125
  522TMC3    H2 7811   0.731   4.717  17.073  0.1755  0.4877  0.7933
  522TMC3    C7 7812   0.534   4.588  17.134  0.5523  0.8369 -0.6978
  522TMC3    C8 7813   0.716   0.223  16.997  0.5979 -0.0436 -0.6886
  522TMC3    O1 7814   0.607   4.494  17.158 -0.2087  0.2711  0.9130
  522TMC3    O2 7815   0.672   0.333  16.960 -0.2103 -0.2483  0.0468
  523MPD2     C 7816   1.825   3.137   9.774  0.0324  0.0444  0.1642
  523MPD2    C1 7817   1.862   3.259   9.828  0.9315 -0.7029  0.5084
  523MPD2    C2 7818   1.770   3.364   9.838 -0.0407  0.1830  0.3968
  523MPD2    C3 7819   1.649   3.342   9.776 -0.1979  0.1195 -0.1984
  523MPD2    C4 7820   1.619   3.228   9.709 -0.0987  0.2921  0.0789
  523MPD2    C5 7821   1.698   3.118   9.716 -0.6354  0.0738  0.1561
  523MPD2     H 7822   1.799   3.459   9.883  1.1206  0.9825 -2.0702
  523MPD2    H1 7823   1.519   3.209   9.671 -0.4991  1.6591  0.4526
  523MPD2    H2 7824   1.894   3.055   9.785 -1.4521 -1.2638 -0.2809
  523MPD2    H3 7825   1.659   3.028   9.669  2.8846 -1.1320 -0.4637
  523MPD2     N 7826   1.555   3.444   9.755 -1.1997  0.5987  0.6562
  523MPD2    H5 7827   1.473   3.419   9.700 -0.5328  2.1255 -1.0607
  523MPD2    N1 7828   1.995   3.268   9.878 -0.3846  0.0477  0.5189
  523MPD2    H7 7829   2.059   3.191   9.860  0.4879  0.7338  0.6493
  524TMC3    C1 7830   1.454   3.659   9.773 -0.2159  0.2288 -0.3702
  524TMC3    C2 7831   1.459   3.673   9.641 -0.2123  0.6607 -0.6801
  524TMC3    C3 7832   1.387   3.771   9.576  0.2095  0.3233  0.1497
  524TMC3    C4 7833   1.399   3.754   9.849  0.6011 -0.7078  0.3656
  524TMC3    C5 7834   1.320   3.844   9.785  0.2919 -0.6414 -0.4917
  524TMC3    C6 7835   1.320   3.859   9.644 -0.1500 -0.7023 -0.4155
  524TMC3     C 7836   1.543   3.559   9.833 -0.7116  0.5361 -0.3429
  524TMC3     O 7837   1.616   3.598   9.927  0.0897  0.0139 -0.3564
  524TMC3     H 7838   1.496   3.587   9.586 -0.2586  0.5383 -0.5214
  524TMC3    H1 7839   1.401   3.741   9.957  0.1012 -2.2314  0.1956
  524TMC3    H2 7840   1.270   3.941   9.593  0.7297  0.7644  1.0347
  524TMC3    C7 7841   1.253   3.938   9.873  0.0480 -0.7110  0.2232
  524TMC3    C8 7842   1.410   3.801   9.436 -0.2513  0.9353 -0.0979
  524TMC3    O1 7843   1.210   3.887   9.973 -0.4959  0.4387 -0.4860
  524TMC3    O2 7844   1.339   3.888   9.380  0.1306 -0.0998  0.0549
  525MPD2     C 7845   0.593   1.248  14.591 -0.6655  0.0591  0.2981
  525MPD2    C1 7846   0.708   1.248  14.663  0.2409  0.0290 -0.1036
  525MPD2    C2 7847   0.810   1.340  14.632  0.2285  0.1834  0.5431
  525MPD2    C3 7848   0.792   1.436  14.533 -0.1593  0.4026  0.2674
  525MPD2    C4 7849   0.667   1.435  14.469 -0.8342 -0.4855  0.0252
  525MPD2    C5 7850   0.573   1.339  14.494  0.4718 -0.1918  0.5962
  525MPD2     H 7851   0.905   1.327  14.681  0.4110  1.1247  0.4504
  525MPD2    H1 7852   0.641   1.511  14.397  0.0418  0.1200  0.3473
  525MPD2    H2 7853   0.515   1.181  14.623 -1.0084  0.5698  0.5347
  525MPD2    H3 7854   0.479   1.342  14.440 -0.2616 -2.4392  1.7603
  525MPD2     N 7855   0.870   1.553  14.517  0.4197  0.3631 -0.5949
  525MPD2    H5 7856   0.825   1.626  14.462 -2.6969 -0.7981  0.3917
  525MPD2    N1 7857   0.727   1.163  14.779 -0.0631  0.1494  0.5250
  525MPD2    H7 7858   0.816   1.166  14.828 -0.7632  0.3940  1.7785
  526TMC3    C1 7859   0.680   0.991  14.939 -0.5865 -0.0838 -0.2443
  526TMC3    C2 7860   0.607   1.018  15.050 -0.0331 -0.1051  0.7947
  526TMC3    C3 7861   0.673   1.026  15.170 -0.0164  0.3800 -0.5566
  526TMC3    C4 7862   0.820   0.979  14.938  0.4953 -0.5130  0.4308
  526TMC3    C5 7863   0.884   0.992  15.057  0.4558 -0.0211  0.2207
  526TMC3    C6 7864   0.811   1.027  15.172  0.7070 -0.4688  0.4381
  526TMC3     C 7865   0.629   1.074  14.833 -0.3570 -0.4489 -0.6513
  526TMC3     O 7866   0.511   1.062  14.795  0.0974 -0.1097 -0.1853
  526TMC3     H 7867   0.499   1.024  15.044 -0.2515 -2.4843  2.2257
  526TMC3    H1 7868   0.878   0.946  14.852 -0.0951 -0.8635  0.1619
  526TMC3    H2 7869   0.863   1.031  15.267  1.1787 -1.2636  0.2159
  526TMC3    C7 7870   1.023   0.953  15.071  0.0190 -0.8353  0.7527
  526TMC3    C8 7871   0.612   1.087  15.283  0.2949 -0.6137  0.3860
  526TMC3    O1 7872   1.066   0.933  15.184  0.3326  0.0771 -0.0291
  526TMC3    O2 7873   0.685   1.087  15.378 -0.4156 -0.5695  0.4763
  527MPD2     C 7874   3.453   3.501   1.564 -0.5542 -0.3069 -0.2548
  527MPD2    C1 7875   3.494   3.605   1.487  0.5808 -0.0001 -0.0387
  527MPD2    C2 7876   3.588   3.586   1.388 -0.4560 -0.6506  0.1298
  527MPD2    C3 7877   3.625   3.452   1.361 -0.2430  0.3297 -0.1617
  527MPD2    C4 7878   3.585   3.347   1.440 -0.4186  0.4575 -0.2758
  527MPD2    C5 7879   3.497   3.374   1.539  0.2591 -0.5131 -0.0869
  527MPD2     H 7880   3.622   3.666   1.323 -1.0058 -0.9735 -0.5540
  527MPD2    H1 7881   3.612   3.244   1.417 -0.3858  0.3279  0.3390
  527MPD2    H2 7882   3.390   3.515   1.651  0.9329  0.6887  0.6605
  527MPD2    H3 7883   3.458   3.298   1.605 -1.2487  0.2888 -0.0429
  527MPD2     N 7884   3.718   3.438   1.259  0.2896 -0.1022 -0.3394
  527MPD2    H5 7885   3.748   3.524   1.214 -0.6144  0.4198  0.0626
  527MPD2    N1 7886   3.455   3.739   1.507  0.3476 -0.3728 -0.3913
  527MPD2    H7 7887   3.496   3.814   1.453 -0.2840  1.5642  1.8058
  528TMC3    C1 7888   3.318   3.923   1.539  0.4529 -0.1885  0.0055
  528TMC3    C2 7889   3.400   3.974   1.446  0.2969  0.1159 -0.0425
  528TMC3    C3 7890   3.344   4.045   1.343  0.8489  0.2224  0.4355
  528TMC3    C4 7891   3.185   3.946   1.533 -0.7004 -0.2530 -0.7053
  528TMC3    C5 7892   3.124   4.006   1.419 -0.2011  0.2844 -0.0408
  528TMC3    C6 7893   3.205   4.066   1.331 -0.1053 -0.0374 -0.0168
  528TMC3     C 7894   3.343   3.782   1.572  0.2102  0.2611  0.0864
  528TMC3     O 7895   3.253   3.718   1.627 -1.0183 -0.0691 -0.6296
  528TMC3     H 7896   3.507   3.984   1.460  0.3610  0.3703 -0.7202
  528TMC3    H1 7897   3.130   3.896   1.612  0.3682  0.8850  0.7674
  528TMC3    H2 7898   3.153   4.116   1.250 -1.0280 -0.3289  0.4048
  528TMC3    C7 7899   2.985   4.029   1.414 -0.3101  0.4006  0.2807
  528TMC3    C8 7900   3.431   4.097   1.241 -0.0346  0.3468 -0.0536
  528TMC3    O1 7901   2.934   4.060   1.306 -0.2221 -0.1265 -0.2666
  528TMC3    O2 7902   3.546   4.065   1.250 -0.2837 -0.2995 -0.4788
  529MPD2     C 7903   1.434   2.708   1.161 -0.0928  0.4320 -0.3533
  529MPD2    C1 7904   1.421   2.637   1.045 -0.4427  1.1780 -0.3970
  529MPD2    C2 7905   1.357   2.697   0.940  0.1191  0.1163  0.0759
  529MPD2    C3 7906   1.339   2.832   0.940  0.3421  0.2460  0.6722
  529MPD2    C4 7907   1.361   2.909   1.054 -0.2909 -0.2243  0.1447
  529MPD2    C5 7908   1.400   2.841   1.168 -0.2425 -0.2440 -1.1055
  529MPD2     H 7909   1.362   2.651   0.842 -1.1803 -2.4175  1.2035
  529MPD2    H1 7910   1.340   3.015   1.057  1.0071  0.0261  0.4236
  529MPD2    H2 7911   1.479   2.665   1.251  1.1785  2.2635 -0.1127
  529MPD2    H3 7912   1.420   2.898   1.259 -0.7190 -0.8756 -0.6101
  529MPD2     N 7913   1.292   2.898   0.823 -0.2683 -0.1823  0.3723
  529MPD2    H5 7914   1.295   2.999   0.829 -0.5201 -0.2160  1.0895
  529MPD2    N1 7915   1.468   2.504   1.037 -0.3622 -0.1285 -0.2247
  529MPD2    H7 7916   1.447   2.458   0.949 -3.4777 -3.1663  2.1122
  530TMC3    C1 7917   1.570   2.293   1.078 -0.0649 -0.5543 -0.4936
  530TMC3    C2 7918   1.672   2.231   1.137 -0.8989 -0.4100  0.0916
  530TMC3    C3 7919   1.734   2.124   1.080  0.0208  0.9206  0.4285
  530TMC3    C4 7920   1.521   2.239   0.963 -0.2820 -0.2593  0.3376
  530TMC3    C5 7921   1.577   2.125   0.915 -0.0536  0.4022  0.3341
  530TMC3    C6 7922   1.687   2.069   0.963 -0.8573 -0.3283  0.0572
  530TMC3     C 7923   1.542   2.429   1.123 -0.1094 -0.1275  0.0848
  530TMC3     O 7924   1.590   2.455   1.229 -0.2072 -0.6217  0.5599
  530TMC3     H 7925   1.719   2.264   1.229  0.2794  1.0953 -1.0771
  530TMC3    H1 7926   1.441   2.290   0.911 -1.4246 -0.3043  2.0457
  530TMC3    H2 7927   1.730   1.983   0.912  0.4233  0.3992 -0.0863
  530TMC3    C7 7928   1.489   2.046   0.825 -0.9086  0.6984 -0.2973
  530TMC3    C8 7929   1.830   2.036   1.145  0.4259 -0.0146 -0.5238
  530TMC3    O1 7930   1.431   2.104   0.737  0.1976 -0.1897 -0.4371
  530TMC3    O2 7931   1.915   1.981   1.077 -0.1839 -0.2296 -0.3154
  531MPD2     C 7932   0.222   4.588  13.232  0.1976  0.8864  0.1530
  531MPD2    C1 7933   0.115   4.624  13.304 -0.2482  1.2304  0.0839
  531MPD2    C2 7934   0.017   4.531  13.322  0.5772  1.0019  0.0893
  531MPD2    C3 7935   0.013   4.408  13.256 -0.3087  0.1604 -0.4127
  531MPD2    C4 7936   0.107   4.391  13.157  0.1061  1.0539 -0.3856
  531MPD2    C5 7937   0.220   4.472  13.159 -0.3858 -0.3983 -0.0717
  531MPD2     H 7938   4.676   4.543  13.394 -0.4148 -0.9733 -0.6879
  531MPD2    H1 7939   0.114   4.301  13.097 -0.2095  0.2483  0.8083
  531MPD2    H2 7940   0.309   4.652  13.222 -0.6390  2.0522  0.4072
  531MPD2    H3 7941   0.301   4.435  13.097 -0.3444  0.2779 -0.4227
  531MPD2     N 7942   4.650   4.313  13.278 -0.3033 -0.1577  0.1095
  531MPD2    H5 7943   4.648   4.233  13.215 -1.7341 -0.7400  0.8937
  531MPD2    N1 7944   0.109   0.014  13.356 -0.1083  0.2050  0.1309
  531MPD2    H7 7945   0.196   0.066  13.347  1.0866 -1.5744  1.5582
  532TMC3    C1 7946   0.012   0.203  13.461  0.4188  0.3212  0.1470
  532TMC3    C2 7947   4.639   0.239  13.523  0.0094 -0.5700 -0.2468
  532TMC3    C3 7948   4.645   0.294  13.651 -0.3258  0.3207 -0.8566
  532TMC3    C4 7949   0.131   0.237  13.519  0.5577 -0.1141  0.1824
  532TMC3    C5 7950   0.132   0.296  13.642  0.5190  0.0997 -0.4568
  532TMC3    C6 7951   0.026   0.316  13.720 -0.3519 -0.4205  0.0849
  532TMC3     C 7952   4.736   0.065  13.413 -0.7834  0.0356  0.0750
  532TMC3     O 7953   4.635   0.006  13.456 -0.0049  0.0482  0.0095
  532TMC3     H 7954   4.539   0.230  13.482  0.7749 -1.0828 -1.9707
  532TMC3    H1 7955   0.219   0.216  13.459 -0.8649  0.1581 -2.0127
  532TMC3    H2 7956   0.031   0.347  13.824 -3.9144 -3.1000  1.0704
  532TMC3    C7 7957   0.262   0.354  13.683  0.1654 -0.5046 -0.1876
  532TMC3    C8 7958   4.553   0.229  13.749  0.1014 -0.5644  0.6532
  532TMC3    O1 7959   0.260   0.442  13.763 -0.3691 -0.7362 -0.2969
  532TMC3    O2 7960   4.546   0.261  13.869  0.4791  0.4083  0.4473
  533TMC3    C1 7961   1.020   1.729  14.565  0.8729  0.3510 -0.1393
  533TMC3    C2 7962   1.147   1.762  14.605  0.0948  0.1998  0.5024
  533TMC3    C3 7963   1.176   1.892  14.646 -0.1005  0.0085 -0.0449
  533TMC3    C4 7964   0.918   1.820  14.570 -0.4839  0.4034 -0.3774
  533TMC3    C5 7965   0.948   1.946  14.622 -0.7156  0.3158 -0.6564
  533TMC3    C6 7966   1.074   1.981  14.660  0.1498 -0.1102  0.0857
  533TMC3     C 7967   0.980   1.587  14.580  0.3487  0.1805 -0.1651
  533TMC3     O 7968   1.056   1.513  14.643  0.4060 -0.6867  0.4423
  533TMC3     H 7969   1.224   1.688  14.587  0.1768 -0.0631  1.9123
  533TMC3    H1 7970   0.814   1.797  14.552 -0.4975 -0.4981  0.8472
  533TMC3    H2 7971   1.097   2.085  14.677 -1.9050  0.6720 -2.0786
  533TMC3    C7 7972   0.842   1.986  14.712 -0.7482  0.4882  0.4811
  533TMC3    C8 7973   1.308   1.957  14.667  0.3260 -0.5216  0.1090
  533TMC3    O1 7974   0.733   1.927  14.717 -0.2748  0.0001 -0.1471
  533TMC3    O2 7975   1.325   2.077  14.671  0.2272 -0.1636 -0.5242
  534MPD2     C 7976   3.968   1.857   0.975  0.1729 -0.3829 -0.3337
  534MPD2    C1 7977   3.943   1.971   1.054  0.3579  0.1188  0.0946
  534MPD2    C2 7978   3.831   2.046   1.029 -0.3714 -0.6654 -0.0226
  534MPD2    C3 7979   3.749   2.012   0.922 -0.4599 -0.0525  0.4513
  534MPD2    C4 7980   3.777   1.906   0.839 -0.0371 -0.8414 -0.8012
  534MPD2    C5 7981   3.886   1.823   0.869  0.2669 -0.4874  0.2893
  534MPD2     H 7982   3.812   2.129   1.097 -3.3320 -1.1858 -0.2439
  534MPD2    H1 7983   3.702   1.866   0.772 -0.2111 -2.6664  0.4903
  534MPD2    H2 7984   4.050   1.788   0.989  0.4621 -0.0839 -0.5234
  534MPD2    H3 7985   3.894   1.724   0.824 -1.3066 -0.4953  0.0188
  534MPD2     N 7986   3.628   2.082   0.894 -0.6415  0.8821 -0.0265
  534MPD2    H5 7987   3.585   2.065   0.804 -2.1373 -1.7059  1.1693
  534MPD2    N1 7988   4.025   2.020   1.159  0.4256 -0.1097  0.0181
  534MPD2    H7 7989   3.998   2.102   1.213 -1.4565 -0.7056 -0.0260
  535TMC3    C1 7990   3.413   2.181   0.948  1.4824  0.1961 -0.1056
  535TMC3    C2 7991   3.317   2.179   1.046 -0.9132 -0.2589  0.1637
  535TMC3    C3 7992   3.191   2.212   1.013  0.1068 -0.8305  0.2281
  535TMC3    C4 7993   3.378   2.207   0.818  0.2134  0.6913  0.2593
  535TMC3    C5 7994   3.249   2.247   0.788  0.4909 -0.2556 -0.5684
  535TMC3    C6 7995   3.152   2.245   0.885 -0.5823  0.2062 -0.1573
  535TMC3     C 7996   3.552   2.155   0.985  0.9423  0.4736 -0.3631
  535TMC3     O 7997   3.586   2.168   1.104 -0.1358 -0.9880 -0.7809
  535TMC3     H 7998   3.345   2.144   1.145 -1.2185  1.5480  0.8869
  535TMC3    H1 7999   3.454   2.236   0.747 -2.0889  1.8183 -1.7455
  535TMC3    H2 8000   3.049   2.262   0.854 -0.5533 -0.9103 -0.9002
  535TMC3    C7 8001   3.254   2.351   0.690  1.1936 -0.8343  0.5794
  535TMC3    C8 8002   3.078   2.193   1.105 -0.6231  0.6690 -0.0920
  535TMC3    O1 8003   3.338   2.340   0.599  0.0600  0.4022  0.0436
  535TMC3    O2 8004   2.967   2.181   1.053 -0.0337 -0.4750  0.1088
  536MPD2     C 8005   2.140   1.188  16.467 -0.1833  0.0613  0.3002
  536MPD2    C1 8006   2.015   1.129  16.475 -0.7158 -0.8746 -0.2528
  536MPD2    C2 8007   1.925   1.160  16.371  0.0701 -0.2939  0.0175
  536MPD2    C3 8008   1.960   1.244  16.264 -0.6278 -0.0034 -0.1901
  536MPD2    C4 8009   2.086   1.294  16.258  0.7351 -0.6715  0.6715
  536MPD2    C5 8010   2.172   1.269  16.357 -0.4277  0.1661 -0.4581
  536MPD2     H 8011   1.825   1.118  16.374 -0.1873  0.2708 -0.5205
  536MPD2    H1 8012   2.113   1.358  16.176  1.6067 -0.3955  1.1757
  536MPD2    H2 8013   2.219   1.179  16.541  0.5688 -0.4143 -0.5632
  536MPD2    H3 8014   2.271   1.313  16.350 -0.1129 -0.3312  0.8319
  536MPD2     N 8015   1.874   1.270  16.154 -0.0788  0.3889 -0.1191
  536MPD2    H5 8016   1.921   1.310  16.073 -0.0155 -2.0972 -1.3006
  536MPD2    N1 8017   1.984   1.040  16.583  0.5283 -0.1956 -0.1645
  536MPD2    H7 8018   2.058   1.029  16.653  0.6074  0.2318 -0.1797
  537TMC3    C1 8019   1.850   0.891  16.717 -0.1406 -0.0497  0.2209
  537TMC3    C2 8020   1.962   0.831  16.759  0.1668 -0.1295 -0.4442
  537TMC3    C3 8021   1.949   0.735  16.863  0.0176 -0.1495  0.4958
  537TMC3    C4 8022   1.730   0.849  16.766 -0.3121  0.3946 -0.4892
  537TMC3    C5 8023   1.717   0.750  16.858  0.4422  0.0157 -0.3907
  537TMC3    C6 8024   1.828   0.694  16.916 -0.4321 -0.4259 -0.0720
  537TMC3     C 8025   1.855   0.986  16.612 -0.3725  0.1727  0.6073
  537TMC3     O 8026   1.745   1.002  16.567 -0.1682 -0.6162  0.2943
  537TMC3     H 8027   2.062   0.857  16.726  0.2627 -0.0369 -0.0820
  537TMC3    H1 8028   1.639   0.884  16.719 -0.2871 -0.8151 -1.4239
  537TMC3    H2 8029   1.815   0.608  16.981  1.8708 -0.6975  0.0266
  537TMC3    C7 8030   1.588   0.686  16.847 -0.3738  0.0429 -0.3120
  537TMC3    C8 8031   2.076   0.689  16.925 -0.2275  0.8109  0.8655
  537TMC3    O1 8032   1.509   0.727  16.766  0.2658 -0.0878  0.6244
  537TMC3    O2 8033   2.177   0.698  16.856 -0.2872  0.4115 -0.1571
  538TMC3    C1 8034   3.264   3.440  11.070 -0.7157  0.0841 -0.8980
  538TMC3    C2 8035   3.368   3.516  11.121  0.2908 -0.3115  0.6898
  538TMC3    C3 8036   3.338   3.645  11.138 -0.4139  0.7763  0.4342
  538TMC3    C4 8037   3.145   3.488  11.023 -0.4382 -0.0091 -0.1276
  538TMC3    C5 8038   3.132   3.621  11.029 -0.2522  1.0884 -0.3769
  538TMC3    C6 8039   3.219   3.701  11.100 -0.0881 -0.7114  0.2386
  538TMC3     C 8040   3.247   3.308  11.142 -0.1761 -0.4021  0.3907
  538TMC3     O 8041   3.128   3.280  11.166  0.6039  0.1058 -0.0329
  538TMC3     H 8042   3.465   3.479  11.152  0.1916 -1.8042 -0.7676
  538TMC3    H1 8043   3.065   3.426  10.984  0.4559  0.3871 -2.5306
  538TMC3    H2 8044   3.208   3.809  11.111 -1.7694 -1.1620  2.9631
  538TMC3    C7 8045   3.023   3.680  10.952  0.3539 -0.4510 -0.3319
  538TMC3    C8 8046   3.450   3.729  11.173  0.1405 -0.6791 -0.3747
  538TMC3    O1 8047   2.989   3.636  10.840 -0.3248 -0.1834  0.2664
  538TMC3    O2 8048   3.432   3.794  11.274  0.2840 -0.4379  0.2431
  539MPD2     C 8049   2.924   2.676  11.596 -0.1637  0.0038 -0.5122
  539MPD2    C1 8050   2.924   2.729  11.467  0.6139 -0.0777  0.0355
  539MPD2    C2 8051   2.931   2.871  11.459 -0.2083  0.4087 -0.0465
  539MPD2    C3 8052   2.945   2.952  11.572  0.4325  0.4346 -0.7304
  539MPD2    C4 8053   2.946   2.894  11.692  0.1475  0.1213  0.5414
  539MPD2    C5 8054   2.934   2.763  11.706  0.5440 -0.1853  0.3997
  539MPD2     H 8055   2.937   2.917  11.361 -1.8041 -2.4964 -1.5077
  539MPD2    H1 8056   2.971   2.954  11.779 -0.3239  1.4661 -0.2472
  539MPD2    H2 8057   2.915   2.570  11.615  0.2379 -0.3018 -2.0335
  539MPD2    H3 8058   2.944   2.728  11.808  0.7286 -2.3563 -0.3615
  539MPD2     N 8059   2.962   3.085  11.538  1.0776 -0.1121  0.1229
  539MPD2    H5 8060   2.946   3.111  11.442 -0.5849  2.7765  1.1863
  539MPD2    N1 8061   2.933   2.647  11.356 -0.0296  0.1805 -0.1736
  539MPD2    H7 8062   2.948   2.686  11.264  1.0400  0.2618  0.0287
  540TMC3    C1 8063   3.040   3.295  11.556  0.3059 -0.1546 -0.2800
  540TMC3    C2 8064   2.942   3.336  11.459 -0.0042  0.0574  0.6008
  540TMC3    C3 8065   2.979   3.454  11.392  0.3776 -0.1609 -0.2739
  540TMC3    C4 8066   3.157   3.357  11.584  0.1142  0.4463  0.5146
  540TMC3    C5 8067   3.186   3.467  11.514  0.9174 -0.4801 -0.2687
  540TMC3    C6 8068   3.098   3.521  11.425  0.8033 -0.3462  0.0337
  540TMC3     C 8069   3.019   3.174  11.622  0.6948 -0.1835  0.7097
  540TMC3     O 8070   3.069   3.162  11.731  0.5347  0.1491 -0.2147
  540TMC3     H 8071   2.851   3.282  11.435  0.3703 -0.7493  0.9939
  540TMC3    H1 8072   3.228   3.315  11.654  0.1268 -0.0369  0.2061
  540TMC3    H2 8073   3.127   3.601  11.357 -0.0189  0.6106  0.8143
  540TMC3    C7 8074   3.272   3.564  11.573  0.0046 -0.9605  0.3703
  540TMC3    C8 8075   2.902   3.504  11.281 -0.4192 -0.3267 -0.4149
  540TMC3    O1 8076   3.330   3.628  11.487  0.2003  0.4801 -0.4529
  540TMC3    O2 8077   2.908   3.627  11.267  0.2581 -0.0958  0.1190
  541MPD2     C 8078   1.642   0.736  13.547  0.1590  0.1703  0.2161
  541MPD2    C1 8079   1.658   0.648  13.440 -1.0313 -0.0403 -0.0010
  541MPD2    C2 8080   1.681   0.702  13.312  0.2612 -0.4078  0.4176
  541MPD2    C3 8081   1.672   0.835  13.289  0.1876 -0.5585  0.4792
  541MPD2    C4 8082   1.649   0.927  13.393 -0.4239  0.0238 -0.1088
  541MPD2    C5 8083   1.647   0.872  13.518  0.4383 -0.9970  0.4213
  541MPD2     H 8084   1.692   0.630  13.231 -0.1888  0.7819 -0.6937
  541MPD2    H1 8085   1.643   1.035  13.390  1.4178  0.1748  1.2859
  541MPD2    H2 8086   1.636   0.699  13.649 -2.7030  1.2210  0.4294
  541MPD2    H3 8087   1.632   0.941  13.600 -2.2179 -0.0637 -0.8318
  541MPD2     N 8088   1.655   0.880  13.154  0.5121  0.1653  0.0204
  541MPD2    H5 8089   1.606   0.967  13.144  0.7787  0.3669  0.4613
  541MPD2    N1 8090   1.632   0.508  13.446 -0.3984 -0.2999 -0.5674
  541MPD2    H7 8091   1.633   0.455  13.360  1.0438 -1.8143  0.3853
  542TMC3    C1 8092   1.626   0.833  12.928  0.1530  0.2073 -0.1993
  542TMC3    C2 8093   1.678   0.764  12.825  0.0162  0.7050  0.2758
  542TMC3    C3 8094   1.591   0.710  12.727 -0.0002 -0.7045 -0.7939
  542TMC3    C4 8095   1.495   0.862  12.932 -0.1990 -0.0897 -0.2015
  542TMC3    C5 8096   1.411   0.807  12.832  0.3371 -0.2971 -0.5170
  542TMC3    C6 8097   1.454   0.718  12.737  0.5164  0.1048  0.0640
  542TMC3     C 8098   1.694   0.800  13.044  0.0026 -0.4784  0.0976
  542TMC3     O 8099   1.788   0.722  13.051  0.4188 -0.1967 -0.5629
  542TMC3     H 8100   1.785   0.749  12.817 -0.0439  0.2812  0.2336
  542TMC3    H1 8101   1.458   0.928  13.009 -0.4540 -1.4853  0.8773
  542TMC3    H2 8102   1.397   0.689  12.650  2.3244  1.0756 -1.4319
  542TMC3    C7 8103   1.304   0.890  12.776  1.0226 -0.9641 -0.0924
  542TMC3    C8 8104   1.641   0.626  12.617  0.1426  0.7327  0.1424
  542TMC3    O1 8105   1.230   0.850  12.686 -0.0472  0.1769 -0.1994
  542TMC3    O2 8106   1.568   0.534  12.587 -0.5359 -0.3178 -0.1261
  543TMC3    C1 8107   0.962   1.983  17.427 -1.1067  0.2876  0.1305
  543TMC3    C2 8108   0.989   1.857  17.475  0.0377  0.7716  0.5148
  543TMC3    C3 8109   0.980   1.828  17.606  0.1046  0.6574  0.1542
  543TMC3    C4 8110   0.897   2.075  17.508  0.6881  0.1326  0.2197
  543TMC3    C5 8111   0.878   2.032  17.639 -0.1108  0.2284 -0.1249
  543TMC3    C6 8112   0.922   1.914  17.689  0.5229  0.3823 -0.4596
  543TMC3     C 8113   1.015   2.012  17.291 -0.2327  0.5294  0.4758
  543TMC3     O 8114   1.064   1.917  17.232  0.6125  0.2797 -0.2789
  543TMC3     H 8115   1.046   1.788  17.414 -1.1171  0.3021 -0.0459
  543TMC3    H1 8116   0.851   2.164  17.466  1.7244  0.8504  0.5884
  543TMC3    H2 8117   0.902   1.893   0.037  4.2202  2.2107  0.5941
  543TMC3    C7 8118   0.809   2.122  17.726 -0.1988 -0.2629  0.2287
  543TMC3    C8 8119   0.960   1.685  17.635  0.0867  0.4146 -0.1219
  543TMC3    O1 8120   0.762   2.078   0.073  0.4318 -0.5537  0.3097
  543TMC3    O2 8121   0.983   1.620  17.535  0.5899  1.0066  0.2894
  544MPD2     C 8122   0.787   1.257   0.110 -0.1969  0.1035 -0.5791
  544MPD2    C1 8123   0.810   1.287  17.736  1.0548 -0.6348  0.2926
  544MPD2    C2 8124   0.856   1.410  17.699  0.6611  0.3745 -0.5763
  544MPD2    C3 8125   0.860   1.517   0.032 -0.1266 -0.1890 -0.3880
  544MPD2    C4 8126   0.818   1.490   0.159 -0.1158  0.5536  0.1693
  544MPD2    C5 8127   0.795   1.361   0.198 -0.3875 -0.0131 -0.5288
  544MPD2     H 8128   0.879   1.427  17.594 -0.6901  0.7350 -0.8180
  544MPD2    H1 8129   0.847   1.559   0.237  0.4433  2.4696 -1.7267
  544MPD2    H2 8130   0.769   1.157   0.149  0.4683  0.3326  0.3046
  544MPD2    H3 8131   0.769   1.332   0.300  0.4055  1.0513 -0.0281
  544MPD2     N 8132   0.917   1.646   0.000  0.4457  0.7905  0.4564
  544MPD2    H5 8133   0.906   1.722   0.067 -1.2220  1.8261 -0.9695
  544MPD2    N1 8134   0.815   1.177  17.650  0.1870 -0.1235 -0.1895
  544MPD2    H7 8135   0.803   1.083  17.685 -1.8199  1.5256  3.5511
  545TMC3    C1 8136   0.848   1.034  17.464  0.6024  0.1046 -1.0281
  545TMC3    C2 8137   0.905   1.025  17.337  0.5609  0.1130 -0.4072
  545TMC3    C3 8138   0.908   0.901  17.271  0.1909  0.1416  0.5619
  545TMC3    C4 8139   0.789   0.925  17.517 -0.7152 -0.0021 -0.1788
  545TMC3    C5 8140   0.788   0.807  17.446 -0.4331  0.5257 -0.1825
  545TMC3    C6 8141   0.853   0.793  17.325 -0.4516  0.2551 -0.2557
  545TMC3     C 8142   0.849   1.175  17.515 -0.1155  0.8761 -1.0694
  545TMC3     O 8143   0.860   1.271  17.444  0.4775 -0.2598  0.0507
  545TMC3     H 8144   0.957   1.114  17.302  1.3671 -1.1300 -2.3150
  545TMC3    H1 8145   0.738   0.936  17.612 -0.8580 -0.7258 -0.1673
  545TMC3    H2 8146   0.835   0.700  17.273  1.8446 -0.3933  0.0954
  545TMC3    C7 8147   0.667   0.720  17.459  0.1493  0.4252  0.3384
  545TMC3    C8 8148   0.976   0.885  17.155  0.1203 -0.2091 -0.1466
  545TMC3    O1 8149   0.568   0.784  17.501 -0.5478  0.0881  0.6059
  545TMC3    O2 8150   1.013   0.771  17.128 -0.0886 -0.3540 -0.0762
  546MPD2     C 8151   2.574   1.385  17.147  0.0304  0.2551  0.2785
  546MPD2    C1 8152   2.489   1.474  17.089  0.2551  1.2482  0.8326
  546MPD2    C2 8153   2.500   1.609  17.114 -0.2684 -0.2253  0.5188
  546MPD2    C3 8154   2.601   1.654  17.205 -0.6365  0.4199 -0.9040
  546MPD2    C4 8155   2.687   1.563  17.261 -0.1687  0.4183 -0.9097
  546MPD2    C5 8156   2.680   1.429  17.229  0.5884  0.3852 -0.2304
  546MPD2     H 8157   2.433   1.681  17.070 -0.9507 -1.1812 -0.0191
  546MPD2    H1 8158   2.767   1.596  17.326  2.1156 -0.5514 -3.1999
  546MPD2    H2 8159   2.570   1.278  17.130 -0.2209  0.0892  1.3632
  546MPD2    H3 8160   2.756   1.363  17.268  1.8241  0.8438 -1.8722
  546MPD2     N 8161   2.609   1.787  17.250  0.5827 -0.0988  0.5606
  546MPD2    H5 8162   2.675   1.800  17.326  0.0247  1.5573  0.7659
  546MPD2    N1 8163   2.391   1.416  17.010 -0.6757 -0.2970 -0.0621
  546MPD2    H7 8164   2.395   1.315  16.996  1.9228 -0.0754 -0.9278
  547TMC3    C1 8165   2.171   1.393  16.950 -0.6812  0.5770 -0.2344
  547TMC3    C2 8166   2.061   1.437  16.887  0.3245 -0.5899 -0.3008
  547TMC3    C3 8167   1.954   1.353  16.864  0.1235 -0.1227 -0.1420
  547TMC3    C4 8168   2.174   1.267  16.996  0.3471  0.1817 -0.0596
  547TMC3    C5 8169   2.059   1.187  16.979  0.7433  0.3380 -0.8622
  547TMC3    C6 8170   1.949   1.223  16.915  0.2836 -0.2478  0.0366
  547TMC3     C 8171   2.282   1.487  16.980  0.3024  0.4488 -0.3709
  547TMC3     O 8172   2.274   1.601  16.939  0.3807  0.1441 -0.0734
  547TMC3     H 8173   2.064   1.541  16.859 -1.6121 -0.2688  0.6291
  547TMC3    H1 8174   2.264   1.223  17.038 -0.7300 -1.4814  0.4854
  547TMC3    H2 8175   1.857   1.166  16.909  0.4908 -0.7267  1.5591
  547TMC3    C7 8176   2.059   1.055  17.045  0.0385  0.3065 -0.8507
  547TMC3    C8 8177   1.846   1.400  16.777 -0.1454  0.2369  0.2565
  547TMC3    O1 8178   1.951   0.994  17.051 -0.4862 -0.2687  0.1220
  547TMC3    O2 8179   1.856   1.514  16.737  0.3831 -0.2779  0.0910
  548MPD2     C 8180   2.532   2.036  13.070 -0.0223 -0.6101  0.2757
  548MPD2    C1 8181   2.448   2.042  12.958  0.3892  0.3096  0.3626
  548MPD2    C2 8182   2.498   2.023  12.834  0.3492 -0.2892 -0.0241
  548MPD2    C3 8183   2.629   1.998  12.819 -0.1887  0.4095  0.3513
  548MPD2    C4 8184   2.715   2.005  12.927  0.2755  0.7025  0.0184
  548MPD2    C5 8185   2.665   2.016  13.054 -0.4643  0.8357 -0.3134
  548MPD2     H 8186   2.439   2.051  12.747 -0.9619  1.9959  1.5924
  548MPD2    H1 8187   2.822   1.991  12.920 -0.3634 -3.6410 -1.1227
  548MPD2    H2 8188   2.504   2.055  13.173 -1.2328 -0.3984 -0.0854
  548MPD2    H3 8189   2.728   2.005  13.142 -0.8384  1.9847  0.0900
  548MPD2     N 8190   2.672   1.975  12.685  0.2048  0.4085  0.0677
  548MPD2    H5 8191   2.598   1.978  12.616  0.1107  0.1334  0.1554
  548MPD2    N1 8192   2.306   2.055  12.987  0.3998  0.1600 -0.4218
  548MPD2    H7 8193   2.269   2.076  13.079  0.0328  0.1795 -0.5741
  549TMC3    C1 8194   2.077   2.072  12.932 -0.0493  0.5250  0.0265
  549TMC3    C2 8195   1.988   2.101  12.831  0.2033 -0.1070 -0.3387
  549TMC3    C3 8196   1.855   2.137  12.867  1.1136 -0.0470  0.6971
  549TMC3    C4 8197   2.035   2.036  13.055 -0.0287 -0.1504 -0.4780
  549TMC3    C5 8198   1.899   2.044  13.078  0.9062  0.5552  0.2067
  549TMC3    C6 8199   1.804   2.104  12.987  0.0259  0.2592  0.3658
  549TMC3     C 8200   2.212   2.047  12.887 -0.2861  0.2605  0.9232
  549TMC3     O 8201   2.221   2.010  12.774 -0.0688 -0.6582 -0.3678
  549TMC3     H 8202   2.025   2.124  12.732  2.5045  1.7468  0.9588
  549TMC3    H1 8203   2.106   2.009  13.133 -0.4764 -1.2036 -0.4403
  549TMC3    H2 8204   1.701   2.110  13.018  0.5994 -1.1565  2.5728
  549TMC3    C7 8205   1.846   1.991  13.202 -0.7067 -0.4032  0.6371
  549TMC3    C8 8206   1.773   2.216  12.777 -0.0946 -0.3286  0.1889
  549TMC3    O1 8207   1.751   2.053  13.255 -0.0553 -0.6315  0.0779
  549TMC3    O2 8208   1.651   2.209  12.782 -0.0190 -0.4732  1.0179
  550TMC3    C1 8209   0.954   4.611  12.440  0.4470 -0.3791 -0.0482
  550TMC3    C2 8210   0.888   4.584  12.559  0.7561  0.1587 -0.1302
  550TMC3    C3 8211   0.752   4.582  12.563 -0.1763  0.8843 -0.6552
  550TMC3    C4 8212   0.889   4.671  12.337  0.8902 -0.3160 -0.6988
  550TMC3    C5 8213   0.752   4.669  12.345  0.4728 -0.0159 -0.5551
  550TMC3    C6 8214   0.678   4.616  12.454 -0.1485  0.1286  0.0322
  550TMC3     C 8215   1.098   4.585  12.427 -0.1272 -0.1506 -0.7996
  550TMC3     O 8216   1.167   4.546  12.522  0.5612  0.0742  0.1298
  550TMC3     H 8217   0.941   4.561  12.650  1.0071  1.8720  0.1549
  550TMC3    H1 8218   0.942   4.734  12.266  2.5666 -0.2192  0.6395
  550TMC3    H2 8219   0.576   4.644  12.475  0.0176  0.1775  0.7928
  550TMC3    C7 8220   0.683   0.028  12.271  0.4340  0.1120 -0.0124
  550TMC3    C8 8221   0.688   4.627  12.685  0.5698 -0.5063  0.0229
  550TMC3    O1 8222   0.753   0.125  12.243  0.6522  0.2824  0.6152
  550TMC3    O2 8223   0.744   4.708  12.753  0.0571 -0.7217  0.6282
  551TMC3    C1 8224   3.004   2.853  13.424  0.4561  0.0938  0.6940
  551TMC3    C2 8225   3.097   2.804  13.337 -0.1784 -0.3174 -0.3358
  551TMC3    C3 8226   3.224   2.844  13.361 -0.8342 -0.2499 -0.4886
  551TMC3    C4 8227   3.030   2.939  13.534 -0.0688  0.3468  0.0600
  551TMC3    C5 8228   3.160   2.980  13.548  0.0730 -0.1745 -0.1483
  551TMC3    C6 8229   3.258   2.929  13.462 -0.4049  0.6563 -0.4028
  551TMC3     C 8230   2.870   2.845  13.372 -0.0717  0.5496 -0.6019
  551TMC3     O 8231   2.811   2.735  13.358  0.3894  0.2640 -0.2014
  551TMC3     H 8232   3.075   2.742  13.251  2.1468 -0.5308 -0.7685
  551TMC3    H1 8233   2.951   2.974  13.599 -2.0960 -2.3293 -0.9784
  551TMC3    H2 8234   3.361   2.961  13.470  0.7806 -2.5027 -3.0765
  551TMC3    C7 8235   3.205   3.020  13.681 -0.2139 -0.1670 -0.4285
  551TMC3    C8 8236   3.303   2.862  13.235  0.4612 -1.3148 -0.1772
  551TMC3    O1 8237   3.121   3.026  13.771 -0.2713  0.6790 -0.4728
  551TMC3    O2 8238   3.301   2.776  13.143 -0.3605  0.0533  0.4399
  552MPD2     C 8239   0.348   0.238  14.073  0.1951 -0.6496  0.0292
  552MPD2    C1 8240   0.318   0.132  14.160 -0.0581  0.2277 -0.5653
  552MPD2    C2 8241   0.419   0.090  14.251 -0.2871 -0.1460  1.0226
  552MPD2    C3 8242   0.546   0.134  14.233  0.0335  0.1937 -0.2550
  552MPD2    C4 8243   0.569   0.236  14.145  0.5334 -0.1715 -0.1558
  552MPD2    C5 8244   0.472   0.292  14.066  0.2250 -0.5602 -0.1761
  552MPD2     H 8245   0.401   0.009  14.320 -0.6616  0.2513  1.3923
  552MPD2    H1 8246   0.666   0.286  14.149  0.5388 -0.1833 -0.1423
  552MPD2    H2 8247   0.272   0.287  14.014  0.9334 -0.4766 -0.7837
  552MPD2    H3 8248   0.495   0.378  14.005 -2.0275 -0.2610 -0.6307
  552MPD2     N 8249   0.657   0.105  14.320 -0.4388  0.4118 -0.1820
  552MPD2    H5 8250   0.747   0.140  14.289  0.1306 -0.5074  0.4340
  552MPD2    N1 8251   0.203   0.056  14.151  0.2400  0.1572  0.5185
  552MPD2    H7 8252   0.204   4.705  14.195 -1.0694 -0.4314 -0.6406
  553TMC3    C1 8253   0.057   4.660  14.030  0.3977  0.0759  0.4599
  553TMC3    C2 8254   0.050   4.644  13.896  0.6669  0.3844  0.9560
  553TMC3    C3 8255   0.095   4.528  13.839 -0.3095  0.3671 -0.7003
  553TMC3    C4 8256   0.101   4.561  14.113  0.4271  0.2332  0.2131
  553TMC3    C5 8257   0.149   4.445  14.057  0.5561  0.1015 -0.5139
  553TMC3    C6 8258   0.134   4.428  13.925  0.0557  0.3113  0.0674
  553TMC3     C 8259   0.115   0.056  14.052  0.5622 -0.8487  0.2848
  553TMC3     O 8260   0.094   0.145  13.973  0.2611  0.0521  0.0431
  553TMC3     H 8261   0.013   4.722  13.831 -0.0960  0.7352  1.8020
  553TMC3    H1 8262   0.106   4.567  14.221  0.1435 -1.7891  0.3414
  553TMC3    H2 8263   0.186   4.345  13.878 -1.0594  0.8621 -2.1295
  553TMC3    C7 8264   0.294   4.439  14.090  0.3404 -0.1409  0.2922
  553TMC3    C8 8265   0.164   4.540  13.711  0.3349 -0.5334 -0.3874
  553TMC3    O1 8266   0.323   4.408  14.204  0.0266 -0.3945 -0.2809
  553TMC3    O2 8267   0.243   4.632  13.698 -0.1297 -0.8003  0.0457
  554TMC3    C1 8268   2.463   3.745  11.382  0.7935 -0.5963  0.6298
  554TMC3    C2 8269   2.421   3.640  11.305 -0.2144 -0.1874 -0.3029
  554TMC3    C3 8270   2.329   3.672  11.207  0.2369  0.2098  0.2148
  554TMC3    C4 8271   2.419   3.873  11.367 -0.8096  0.0276 -0.5390
  554TMC3    C5 8272   2.328   3.901  11.266 -0.4097  0.5813  0.0388
  554TMC3    C6 8273   2.281   3.797  11.181 -0.0169 -0.2754  0.7255
  554TMC3     C 8274   2.574   3.738  11.481 -0.4207 -0.1111  0.6555
  554TMC3     O 8275   2.637   3.837  11.506  0.1753 -0.0895 -0.4343
  554TMC3     H 8276   2.449   3.536  11.323  2.3686  0.8890  1.9672
  554TMC3    H1 8277   2.460   3.953  11.428  1.4376  0.3151 -2.4347
  554TMC3    H2 8278   2.195   3.826  11.122 -1.8760 -3.8501  1.6573
  554TMC3    C7 8279   2.324   4.042  11.232 -0.3444 -0.0657  0.6195
  554TMC3    C8 8280   2.266   3.572  11.126  0.4586  0.2321  0.4792
  554TMC3    O1 8281   2.319   4.117  11.329 -0.2043 -0.4107  0.0118
  554TMC3    O2 8282   2.207   3.626  11.027 -0.1528 -0.5827 -0.4927
  555TMC3    C1 8283   1.430   3.467  15.108 -0.0383 -0.3165 -0.1528
  555TMC3    C2 8284   1.384   3.524  15.223  0.0018  0.0892  0.0783
  555TMC3    C3 8285   1.399   3.443  15.335 -0.6147 -0.4354  0.4801
  555TMC3    C4 8286   1.484   3.343  15.092  0.1778 -0.2640 -0.3375
  555TMC3    C5 8287   1.483   3.256  15.205 -0.8159 -0.0742 -0.1264
  555TMC3    C6 8288   1.452   3.311  15.325  0.4862  0.4383 -0.3424
  555TMC3     C 8289   1.438   3.545  14.988  0.2757  0.5618 -0.2109
  555TMC3     O 8290   1.524   3.518  14.908 -0.9681 -0.2060  0.6390
  555TMC3     H 8291   1.330   3.617  15.236  1.2743  0.8325  0.0359
  555TMC3    H1 8292   1.496   3.301  14.993  1.1661  0.1060 -0.3714
  555TMC3    H2 8293   1.460   3.248  15.413  1.2240  1.4963  0.3463
  555TMC3    C7 8294   1.456   3.118  15.192  0.5015  0.3012 -0.6031
  555TMC3    C8 8295   1.375   3.502  15.465  0.6309 -0.5368 -0.5719
  555TMC3    O1 8296   1.402   3.062  15.288  0.0427 -0.1493 -0.0072
  555TMC3    O2 8297   1.315   3.610  15.469  0.2109 -0.1370  0.2707
  556MPD2     C 8298   3.676   4.715  10.753 -0.2800 -0.2279  0.3239
  556MPD2    C1 8299   3.761   4.642  10.830  0.0679  0.1552 -0.0524
  556MPD2    C2 8300   3.828   4.539  10.777  1.1496 -0.4357  0.6144
  556MPD2    C3 8301   3.804   4.488  10.649  1.1094 -0.3220  0.6068
  556MPD2    C4 8302   3.705   4.545  10.580  0.3750 -0.0587  0.1724
  556MPD2    C5 8303   3.649   4.663  10.628  0.5592  0.0006 -0.0981
  556MPD2     H 8304   3.907   4.503  10.842  1.0755 -2.2364 -0.2908
  556MPD2    H1 8305   3.686   4.516  10.477 -1.4140  0.3581  0.3724
  556MPD2    H2 8306   3.612   0.057  10.783  1.7339  1.4442  0.0597
  556MPD2    H3 8307   3.569   4.709  10.572 -0.9148 -1.6397  0.6378
  556MPD2     N 8308   3.864   4.368  10.603 -0.8712 -0.2072  0.6320
  556MPD2    H5 8309   3.929   4.329  10.670 -1.4827 -2.0950  0.1333
  556MPD2    N1 8310   3.783   4.667  10.967 -0.3551 -0.2336 -0.1145
  556MPD2    H7 8311   3.832   4.596  11.020 -2.2089 -0.9294  0.6424
  557TMC3    C1 8312   3.860   4.151  10.500 -0.7144 -0.8471  0.0474
  557TMC3    C2 8313   3.855   4.082  10.379 -0.2064 -0.4641  0.0815
  557TMC3    C3 8314   3.879   3.947  10.379 -0.3420 -0.0454  0.7439
  557TMC3    C4 8315   3.905   4.094  10.620 -0.4920  0.7454 -0.4914
  557TMC3    C5 8316   3.930   3.957  10.612 -0.9404  0.5710  0.5359
  557TMC3    C6 8317   3.907   3.886  10.502  0.1305  0.2391  0.2498
  557TMC3     C 8318   3.842   4.295  10.487 -0.5643  0.3468 -1.0147
  557TMC3     O 8319   3.791   4.347  10.385  0.5171 -0.3253 -0.2827
  557TMC3     H 8320   3.825   4.130  10.286 -0.2721  0.6218  0.6548
  557TMC3    H1 8321   3.912   4.155  10.710 -3.2090 -0.7138  0.6940
  557TMC3    H2 8322   3.956   3.789  10.501 -0.1305  0.0766  2.2018
  557TMC3    C7 8323   3.916   3.890  10.742 -0.3481 -0.3549  0.2160
  557TMC3    C8 8324   3.854   3.870  10.262 -0.0784 -0.1218 -0.4676
  557TMC3    O1 8325   3.895   3.773  10.717 -0.4658  0.3300 -0.3073
  557TMC3    O2 8326   3.825   3.936  10.160  0.2419  0.4767  0.3391
  558TMC3    C1 8327   1.207   2.238  10.136 -0.3151 -0.3667 -0.1339
  558TMC3    C2 8328   1.136   2.162  10.225  0.1079 -0.5473  0.2845
  558TMC3    C3 8329   1.021   2.102  10.191  0.3414  0.5494 -0.0037
  558TMC3    C4 8330   1.162   2.245  10.004  0.0050 -0.5463 -0.1172
  558TMC3    C5 8331   1.038   2.187   9.974  0.1184  0.0153  0.6731
  558TMC3    C6 8332   0.964   2.113  10.068  0.2795  0.1816  0.5673
  558TMC3     C 8333   1.329   2.302  10.174 -0.3744  0.3297 -0.0754
  558TMC3     O 8334   1.411   2.336  10.086 -0.3228 -0.2298  0.5474
  558TMC3     H 8335   1.162   2.149  10.330  0.2845  1.2221  0.4605
  558TMC3    H1 8336   1.220   2.290   9.924  2.7127  0.7859  2.5663
  558TMC3    H2 8337   0.872   2.061  10.043  0.4897  0.6127 -1.1634
  558TMC3    C7 8338   0.968   2.256   9.873 -0.2786  0.1330 -0.4099
  558TMC3    C8 8339   0.977   1.984  10.263  0.3661 -0.0735  0.3289
  558TMC3    O1 8340   1.029   2.343   9.810  0.1493 -0.4631  0.0403
  558TMC3    O2 8341   0.862   1.949  10.239  0.0037 -0.0837 -0.2687
  559MPD2     C 8342   1.556   2.800  10.935  1.0624  0.0102  0.0484
  559MPD2    C1 8343   1.514   2.671  10.948 -0.2756 -0.1381 -0.2240
  559MPD2    C2 8344   1.602   2.561  10.940 -0.0775 -0.0686  0.3082
  559MPD2    C3 8345   1.740   2.587  10.913 -0.3271 -0.0739 -0.9043
  559MPD2    C4 8346   1.779   2.722  10.898 -0.3958 -0.0543 -0.6192
  559MPD2    C5 8347   1.689   2.827  10.910 -0.6348  0.6358  0.1550
  559MPD2     H 8348   1.566   2.460  10.949 -0.8357  0.0920 -1.0315
  559MPD2    H1 8349   1.884   2.748  10.896 -0.4809  0.1349 -4.0655
  559MPD2    H2 8350   1.484   2.878  10.956 -0.0949 -1.0019 -0.1795
  559MPD2    H3 8351   1.716   2.929  10.886  0.5000  0.1063 -0.8671
  559MPD2     N 8352   1.831   2.477  10.901  0.2177 -0.3928  0.1624
  559MPD2    H5 8353   1.794   2.386  10.925 -0.3329 -0.7988 -2.1712
  559MPD2    N1 8354   1.379   2.654  10.981  0.1511  0.1425  0.1810
  559MPD2    H7 8355   1.318   2.731  11.006 -1.5554 -2.2707  3.3746
  560TMC3    C1 8356   2.039   2.363  10.886 -0.0062  0.2859  0.2987
  560TMC3    C2 8357   1.971   2.245  10.909 -0.5474 -0.5863 -0.6415
  560TMC3    C3 8358   2.040   2.141  10.965 -0.3074  0.7985 -0.4957
  560TMC3    C4 8359   2.168   2.382  10.916 -0.5308  0.7931  0.4337
  560TMC3    C5 8360   2.237   2.276  10.968  0.0381 -0.2531 -0.0190
  560TMC3    C6 8361   2.169   2.157  10.994 -0.8232 -0.0865 -0.1275
  560TMC3     C 8362   1.963   2.492  10.877 -0.8132 -0.3413  0.1315
  560TMC3     O 8363   2.024   2.592  10.839  0.5938 -0.9416  0.0770
  560TMC3     H 8364   1.870   2.229  10.874 -0.3468 -3.9261  0.3375
  560TMC3    H1 8365   2.214   2.477  10.891  0.0017  0.0251 -1.5285
  560TMC3    H2 8366   2.230   2.075  11.030  2.4610  2.5208  0.2575
  560TMC3    C7 8367   2.347   2.316  11.057  0.4228  1.0190  0.1646
  560TMC3    C8 8368   1.971   2.012  10.975 -0.2070  0.5121 -0.0091
  560TMC3    O1 8369   2.353   2.262  11.166  0.0731 -0.0462 -0.3328
  560TMC3    O2 8370   1.865   1.991  10.916 -0.4190 -0.5646 -0.0092
  561TMC3    C1 8371   4.618   2.260  11.757 -0.8484  0.6837  0.6586
  561TMC3    C2 8372   4.512   2.249  11.847  0.6734  0.5143  0.5928
  561TMC3    C3 8373   4.429   2.350  11.880  0.0685  0.1652  0.7637
  561TMC3    C4 8374   4.640   2.380  11.694 -0.1201 -0.2650 -0.1074
  561TMC3    C5 8375   4.569   2.490  11.745 -0.3984 -0.7214  0.5880
  561TMC3    C6 8376   4.466   2.476  11.838  0.5820  0.2430  0.2763
  561TMC3     C 8377   4.674   2.135  11.709 -0.4417 -0.1503  0.7973
  561TMC3     O 8378   4.606   2.040  11.743  0.3233 -0.1607 -0.2847
  561TMC3     H 8379   4.488   2.154  11.892  3.9303  0.0118  1.2619
  561TMC3    H1 8380   4.714   2.387  11.616 -0.9583  0.4875 -0.8322
  561TMC3    H2 8381   4.410   2.565  11.863  0.7657 -0.0794  1.8451
  561TMC3    C7 8382   4.586   2.624  11.698 -0.6395 -0.5538  0.1724
  561TMC3    C8 8383   4.357   2.335  12.007  0.2650  0.6270  0.0064
  561TMC3    O1 8384   4.544   2.714  11.768 -0.1821 -0.5978 -0.9455
  561TMC3    O2 8385   4.380   2.237  12.078  0.0105  0.5440  0.3176
  562TMC3    C1 8386   0.911   3.665  16.296  0.4340  1.2538 -0.1745
  562TMC3    C2 8387   0.920   3.801  16.279 -0.7401  0.0522 -0.2397
  562TMC3    C3 8388   0.953   3.842  16.158  0.3002 -0.5148 -0.4337
  562TMC3    C4 8389   0.951   3.577  16.195  0.9381 -0.5506  0.1001
  562TMC3    C5 8390   1.012   3.627  16.085  0.0424  0.4131  0.6644
  562TMC3    C6 8391   1.001   3.759  16.059  0.1333 -0.0160  0.1961
  562TMC3     C 8392   0.895   3.625  16.433 -0.8555  0.0192  0.4282
  562TMC3     O 8393   0.884   3.717  16.517  0.1759  0.2141  0.1644
  562TMC3     H 8394   0.892   3.868  16.359  0.5037 -0.0613  0.2816
  562TMC3    H1 8395   0.920   3.474  16.206 -0.2120  0.0606  2.4678
  562TMC3    H2 8396   1.046   3.808  15.973  0.4694 -2.9644 -1.3291
  562TMC3    C7 8397   1.044   3.545  15.972 -0.7279  0.2304 -0.3358
  562TMC3    C8 8398   0.887   3.963  16.123  0.2124 -0.2194  0.6246
  562TMC3    O1 8399   1.045   3.603  15.862  0.5739 -0.0148 -0.0853
  562TMC3    O2 8400   0.864   4.047  16.206  0.3253  0.7411  0.2437
  563MPD2     C 8401   2.981   4.600  15.897  0.0486  0.5613  0.4932
  563MPD2    C1 8402   3.029   4.713  15.959 -0.2925  0.0955  0.2450
  563MPD2    C2 8403   3.161   4.714  16.007  0.3360  0.5490 -0.3655
  563MPD2    C3 8404   3.238   4.604  15.982 -0.3570 -0.4338 -0.5536
  563MPD2    C4 8405   3.192   4.494  15.912  0.4410 -0.4474 -0.4399
  563MPD2    C5 8406   3.060   4.491  15.880 -0.3916  0.2729  0.4711
  563MPD2     H 8407   3.192   0.050  16.077  0.5510 -0.5554  0.7291
  563MPD2    H1 8408   3.239   4.397  15.917 -1.0860 -1.1004  1.3884
  563MPD2    H2 8409   2.881   4.586  15.857 -1.0818 -0.2861  3.6374
  563MPD2    H3 8410   3.032   4.397  15.836  2.1960 -0.6418  0.7638
  563MPD2     N 8411   3.367   4.612  16.042 -0.2517 -0.6371  0.6256
  563MPD2    H5 8412   3.389   4.708  16.067 -0.6508 -0.6184  0.9135
  563MPD2    N1 8413   2.931   0.073  15.982  0.0131 -0.5153 -0.2225
  563MPD2    H7 8414   2.841   0.041  15.950  0.5079 -0.3734 -1.7437
  564TMC3    C1 8415   2.818   0.216  16.097 -0.4273 -0.6903  0.0524
  564TMC3    C2 8416   2.715   0.136  16.059 -0.0803  0.0893 -0.3624
  564TMC3    C3 8417   2.643   0.072  16.156  0.1942 -0.1390 -0.1851
  564TMC3    C4 8418   2.847   0.252  16.229  0.2707  0.1812  0.9509
  564TMC3    C5 8419   2.795   0.167  16.322  0.1295 -0.3257 -0.8601
  564TMC3    C6 8420   2.684   0.095  16.285 -0.4067  0.6331  0.5870
  564TMC3     C 8421   2.944   0.196  16.037 -0.2377  0.1073  0.1362
  564TMC3     O 8422   3.045   0.257  16.063  0.7686 -0.1332  0.2749
  564TMC3     H 8423   2.698   0.136  15.952 -0.9267 -0.7366 -0.2349
  564TMC3    H1 8424   2.925   0.318  16.264  2.9324 -1.6741 -1.4830
  564TMC3    H2 8425   2.627   0.052  16.366  1.6779  2.0189  2.7621
  564TMC3    C7 8426   2.907   0.095  16.389  0.3880 -0.1331  0.8306
  564TMC3    C8 8427   2.599   4.678  16.132 -0.2966 -0.2515 -0.4336
  564TMC3    O1 8428   3.003   0.155  16.437  0.3295  0.5030 -0.1936
  564TMC3    O2 8429   2.602   4.608  16.232 -0.8135 -0.2948  0.1419
  565TMC3    C1 8430   3.411   1.384  10.372  0.3174  0.4254  0.3688
  565TMC3    C2 8431   3.429   1.354  10.505  1.1927  0.5126  0.3936
  565TMC3    C3 8432   3.330   1.286  10.568  0.8579 -0.1466  0.9665
  565TMC3    C4 8433   3.296   1.350  10.300  0.3771  0.6616 -0.5289
  565TMC3    C5 8434   3.201   1.281  10.369 -0.3595 -0.2173  0.0017
  565TMC3    C6 8435   3.207   1.260  10.504  0.3121  0.3508 -0.3213
  565TMC3     C 8436   3.516   1.445  10.294  0.0278 -0.1044  0.2942
  565TMC3     O 8437   3.486   1.487  10.185  0.2943  0.4274 -0.0991
  565TMC3     H 8438   3.522   1.387  10.548  1.3647 -0.7442  0.9955
  565TMC3    H1 8439   3.290   1.361  10.192 -2.0086 -0.1673 -0.4722
  565TMC3    H2 8440   3.146   1.181  10.547 -1.1721  2.5107  1.6042
  565TMC3    C7 8441   3.100   1.228  10.292  0.2267 -0.0425 -0.9831
  565TMC3    C8 8442   3.347   1.245  10.704 -0.1911  0.3383 -0.0215
  565TMC3    O1 8443   3.100   1.254  10.174 -0.0014  0.2335  0.0790
  565TMC3    O2 8444   3.457   1.235  10.753  0.6912 -0.0550  0.1805
  566MPD2     C 8445   0.373   3.432  14.415  0.3906 -0.0520 -0.4722
  566MPD2    C1 8446   0.473   3.444  14.323  0.1431 -0.2896 -0.7241
  566MPD2    C2 8447   0.442   3.421  14.197 -0.6398  0.2082  0.1480
  566MPD2    C3 8448   0.313   3.378  14.162 -0.6418  0.0190  0.1049
  566MPD2    C4 8449   0.212   3.363  14.249 -0.6088  0.1545  0.5410
  566MPD2    C5 8450   0.246   3.389  14.379  0.4065  0.0070 -0.7147
  566MPD2     H 8451   0.522   3.429  14.124  2.1533  0.6397  3.2257
  566MPD2    H1 8452   0.113   3.349  14.208  0.4099 -2.5101 -0.9468
  566MPD2    H2 8453   0.393   3.459  14.518 -1.8965 -2.6218  0.6540
  566MPD2    H3 8454   0.178   3.374  14.462  0.2742 -2.2288 -1.2161
  566MPD2     N 8455   0.299   3.352  14.020 -0.4403 -0.2100  0.1073
  566MPD2    H5 8456   0.391   3.346  13.977 -0.4105  0.7733  0.0202
  566MPD2    N1 8457   0.597   3.478  14.379 -0.2741 -0.1338  0.2026
  566MPD2    H7 8458   0.609   3.499  14.477  0.5601 -2.2726  0.5621
  567TMC3    C1 8459   0.837   3.539  14.383 -0.1349 -0.0626  0.5053
  567TMC3    C2 8460   0.935   3.585  14.307 -0.6738  0.0737  0.4871
  567TMC3    C3 8461   1.060   3.590  14.361  0.0579 -0.2975 -0.1328
  567TMC3    C4 8462   0.863   3.480  14.504  0.3692  0.6326 -0.2146
  567TMC3    C5 8463   0.991   3.481  14.556 -0.6710 -0.0380  0.6619
  567TMC3    C6 8464   1.093   3.547  14.487 -0.2320  0.5457 -0.0130
  567TMC3     C 8465   0.716   3.488  14.307  0.3825 -0.4903 -0.0386
  567TMC3     O 8466   0.737   3.478  14.188 -0.0752  0.0071  0.0904
  567TMC3     H 8467   0.917   3.627  14.209 -3.4108 -0.5278  0.7413
  567TMC3    H1 8468   0.779   3.427  14.548 -0.0528  0.2816 -1.4452
  567TMC3    H2 8469   1.191   3.557  14.532  0.6548  0.7820 -1.9865
  567TMC3    C7 8470   1.028   3.405  14.669  0.0915 -0.1546 -0.0219
  567TMC3    C8 8471   1.157   3.565  14.246  0.6765 -0.3934 -0.0872
  567TMC3    O1 8472   1.147   3.389  14.687 -0.0696  0.2926  0.4189
  567TMC3    O2 8473   1.151   3.629  14.138  0.5914  0.4284  0.0602
  568MPD2     C 8474   3.123   3.207  16.391  0.4203  0.5746  0.2182
  568MPD2    C1 8475   3.116   3.285  16.493  0.4343 -0.5151 -0.3181
  568MPD2    C2 8476   3.086   3.418  16.475 -0.0227 -0.0335 -0.1644
  568MPD2    C3 8477   3.062   3.463  16.342  0.4525 -0.0522 -0.1720
  568MPD2    C4 8478   3.056   3.376  16.239  0.4487  0.3511 -0.1926
  568MPD2    C5 8479   3.090   3.245  16.268 -0.0368  0.3205  0.6969
  568MPD2     H 8480   3.087   3.486  16.559 -3.7156 -3.1965  2.4009
  568MPD2    H1 8481   3.039   3.408  16.137 -0.2031 -0.6759 -0.4125
  568MPD2    H2 8482   3.147   3.102  16.405 -1.2159 -0.0028 -1.1757
  568MPD2    H3 8483   3.086   3.175  16.186  0.3950  1.2670 -0.1220
  568MPD2     N 8484   3.045   3.606  16.329 -0.0263 -0.0160  0.1757
  568MPD2    H5 8485   3.041   3.650  16.420  0.0418  0.0904  0.1278
  568MPD2    N1 8486   3.132   3.235  16.623  0.3127  0.9214 -0.5162
  568MPD2    H7 8487   3.161   3.139  16.640  0.8583  1.4240  1.4175
  569TMC3    C1 8488   2.988   3.833  16.235 -0.4224 -0.3706 -0.9368
  569TMC3    C2 8489   3.001   3.900  16.357  0.4361  0.4346  0.6097
  569TMC3    C3 8490   2.968   4.032  16.359  0.7092 -0.9457 -0.3595
  569TMC3    C4 8491   2.959   3.900  16.120  0.0218  0.4685 -0.5952
  569TMC3    C5 8492   2.923   4.030  16.132 -0.2131 -0.4264  0.6783
  569TMC3    C6 8493   2.918   4.095  16.248  0.3498  0.2785 -0.1057
  569TMC3     C 8494   3.009   3.689  16.220 -0.4402  0.2913  0.4722
  569TMC3     O 8495   3.005   3.646  16.106  0.0698  0.2423  0.6411
  569TMC3     H 8496   3.027   3.843  16.445 -0.0053  1.0657  1.1421
  569TMC3    H1 8497   2.967   3.846  16.026  1.0920 -3.3489  1.7055
  569TMC3    H2 8498   2.910   4.202  16.257 -1.4452  0.2636 -1.7421
  569TMC3    C7 8499   2.857   4.094  16.022  0.7991  0.1028  0.0039
  569TMC3    C8 8500   2.983   4.117  16.477 -0.4450  0.4039  0.0172
  569TMC3    O1 8501   2.870   4.032  15.918 -0.2911  0.2641  0.1906
  569TMC3    O2 8502   3.062   4.079  16.563  0.3265  0.0406 -0.2656
  570TMC3    C1 8503   2.371   2.439  16.209  0.6431  0.2060  0.1538
  570TMC3    C2 8504   2.400   2.478  16.082  0.2933 -0.2253 -0.4639
  570TMC3    C3 8505   2.493   2.581  16.070  0.0179  0.5680  0.4099
  570TMC3    C4 8506   2.417   2.498  16.324  0.0687 -0.4851 -0.0625
  570TMC3    C5 8507   2.501   2.595  16.299  0.3000 -0.2709  0.2290
  570TMC3    C6 8508   2.548   2.634  16.180 -0.1022  0.2924  0.2811
  570TMC3     C 8509   2.298   2.312  16.226 -0.7052  0.2402 -0.2271
  570TMC3     O 8510   2.259   2.253  16.125  0.1696 -0.3185 -0.5745
  570TMC3     H 8511   2.344   2.443  15.996  1.8784 -0.6865 -1.3123
  570TMC3    H1 8512   2.384   2.481  16.425  1.1147 -0.6674  0.2515
  570TMC3    H2 8513   2.636   2.696  16.184 -0.1135  0.3504 -0.2855
  570TMC3    C7 8514   2.526   2.688  16.411 -0.1869  0.1859  0.2325
  570TMC3    C8 8515   2.545   2.629  15.942 -0.1141  0.1756  0.1076
  570TMC3    O1 8516   2.509   2.653  16.529  0.3988  0.3270 -0.4628
  570TMC3    O2 8517   2.596   2.742  15.952 -0.5955 -0.3236  0.2266
  571MPD2     C 8518   0.277   4.206  17.697 -0.3584  0.1933  1.0523
  571MPD2    C1 8519   0.380   4.159   0.031 -0.2780 -0.3110 -0.2031
  571MPD2    C2 8520   0.454   4.256   0.098 -0.5564  0.3063  0.2391
  571MPD2    C3 8521   0.415   4.391   0.100  0.9203 -0.0460  0.6105
  571MPD2    C4 8522   0.310   4.427   0.020  0.1161  0.2940 -0.5565
  571MPD2    C5 8523   0.244   4.340  17.694 -0.2092 -0.7449  0.4695
  571MPD2     H 8524   0.541   4.226   0.155 -0.7489 -0.4441  0.1417
  571MPD2    H1 8525   0.283   4.532   0.014  1.2339  0.6042  0.0548
  571MPD2    H2 8526   0.216   4.144  17.633  0.8362  0.4331 -0.3005
  571MPD2    H3 8527   0.162   4.368  17.629  0.4225 -0.1032 -0.0597
  571MPD2     N 8528   0.481   4.490   0.176  0.0068 -0.4842  0.1913
  571MPD2    H5 8529   0.446   4.584   0.164  2.2120  0.4033  0.7719
  571MPD2    N1 8530   0.401   4.022   0.032 -0.1086  0.1900  0.1258
  571MPD2    H7 8531   0.340   3.970  17.727  1.4646 -0.6055 -0.7381
  572TMC3    C1 8532   0.648   4.582   0.321 -0.1162 -0.2222 -0.4153
  572TMC3    C2 8533   0.754   4.564   0.404  0.2923 -0.4037  0.2441
  572TMC3    C3 8534   0.825   4.673   0.441  0.0186  0.2836 -0.4635
  572TMC3    C4 8535   0.610   4.706   0.280 -0.0208 -0.1196 -0.2113
  572TMC3    C5 8536   0.670   0.076   0.338 -0.1305 -0.5327 -0.0649
  572TMC3    C6 8537   0.789   0.063   0.408 -0.2043  0.0858 -1.0687
  572TMC3     C 8538   0.579   4.464   0.266 -0.3657  0.0071  0.1109
  572TMC3     O 8539   0.615   4.354   0.309  0.0239 -0.6653  0.4733
  572TMC3     H 8540   0.795   4.465   0.420 -0.0112 -0.4052  0.9818
  572TMC3    H1 8541   0.522   4.725   0.221  0.4381  0.2390 -0.7776
  572TMC3    H2 8542   0.842   0.153   0.437  0.5705 -1.2825  1.7578
  572TMC3    C7 8543   0.653   0.198   0.260  0.5999  0.5891 -0.3398
  572TMC3    C8 8544   0.929   4.652   0.543  1.1033  0.1569 -0.2415
  572TMC3    O1 8545   0.533   0.215   0.227 -0.1636 -0.3401 -0.0923
  572TMC3    O2 8546   0.992   0.014   0.560 -0.3033  0.6200  1.2979
  573MPD2     C 8547   1.212   4.334   0.418 -0.2856 -0.6506  0.4146
  573MPD2    C1 8548   1.213   4.457   0.352 -0.2759  0.2591 -0.0098
  573MPD2    C2 8549   1.116   4.481   0.251 -0.8135 -0.5605 -0.2807
  573MPD2    C3 8550   1.033   4.379   0.210 -0.6493 -0.3613  0.4348
  573MPD2    C4 8551   1.022   4.264   0.284 -0.5476  0.4342  0.2198
  573MPD2    C5 8552   1.117   4.240   0.378 -0.0411  0.2172  0.1707
  573MPD2     H 8553   1.117   4.570   0.191  0.6066 -0.2203  0.2388
  573MPD2    H1 8554   0.951   4.186   0.262 -0.6705  1.1039 -1.7503
  573MPD2    H2 8555   1.275   4.318   0.504  1.1453 -0.9360 -0.6802
  573MPD2    H3 8556   1.104   4.149   0.435  2.0978 -0.2646 -0.1141
  573MPD2     N 8557   0.943   4.397   0.103 -0.1987  0.4989  0.1109
  573MPD2    H5 8558   0.886   4.315   0.087  3.8333 -2.9673  3.4668
  573MPD2    N1 8559   1.292   4.561   0.401 -0.7663 -0.2372 -0.1639
  573MPD2    H7 8560   1.361   4.537   0.472 -0.3261  1.4315 -0.0154
  574TMC3    C1 8561   0.802   4.512  17.700 -0.2989  0.6547 -0.0583
  574TMC3    C2 8562   0.735   4.631  17.676 -0.5936  0.0234 -0.5707
  574TMC3    C3 8563   0.643   4.643  17.577  0.2095 -0.6621  1.0799
  574TMC3    C4 8564   0.772   4.397  17.627 -0.4119  0.2601  1.1659
  574TMC3    C5 8565   0.664   4.408  17.542  1.1070  0.3930  0.3201
  574TMC3    C6 8566   0.599   4.528  17.521  0.4910 -0.6066 -0.3025
  574TMC3     C 8567   0.913   4.516   0.041  0.0501 -0.1484  0.7715
  574TMC3     O 8568   0.954   4.627   0.074  0.2494 -0.0651 -0.2412
  574TMC3     H 8569   0.774   4.713  17.735  0.5626 -1.1044  0.2401
  574TMC3    H1 8570   0.828   4.305  17.639  0.5245  0.8391  1.2327
  574TMC3    H2 8571   0.536   4.548  17.435  0.0386  0.4998  0.2875
  574TMC3    C7 8572   0.630   4.296  17.458 -0.1208  0.2555 -0.3925
  574TMC3    C8 8573   0.556   0.021  17.584 -0.3027  0.3191 -0.5369
  574TMC3    O1 8574   0.715   4.209  17.438 -0.0440  0.0916  0.2832
  574TMC3    O2 8575   0.433   0.008  17.566  0.3366 -0.7265  0.1136
  575TMC3    C1 8576   3.669   0.789  11.401  0.9828 -0.4405  0.2159
  575TMC3    C2 8577   3.646   0.658  11.373  0.5140  0.6483 -0.3024
  575TMC3    C3 8578   3.564   0.626  11.270 -0.0518  0.4706  0.1312
  575TMC3    C4 8579   3.591   0.888  11.337  0.5975  1.1905  0.1663
  575TMC3    C5 8580   3.498   0.850  11.242  0.0444  0.9602  0.4792
  575TMC3    C6 8581   3.487   0.720  11.212  0.2180  0.4880  0.0196
  575TMC3     C 8582   3.746   0.834  11.518  0.4199 -0.5241  0.3054
  575TMC3     O 8583   3.714   0.942  11.566  0.3683  0.0972 -0.1765
  575TMC3     H 8584   3.701   0.572  11.411 -2.3955 -0.3356  1.6942
  575TMC3    H1 8585   3.599   0.994  11.358 -1.1365  1.4753 -0.5530
  575TMC3    H2 8586   3.419   0.700  11.130  0.6760  0.7905 -0.4310
  575TMC3    C7 8587   3.459   0.945  11.141 -0.6809  0.5021  0.0214
  575TMC3    C8 8588   3.508   0.493  11.279 -0.1775  0.6186 -0.6528
  575TMC3    O1 8589   3.438   0.903  11.029  0.2741 -0.3515  0.5167
  575TMC3    O2 8590   3.557   0.422  11.367 -0.2813  0.1903  0.1517
  576MPD2     C 8591   3.062   2.689  12.524 -0.0258  0.3546  0.2875
  576MPD2    C1 8592   3.177   2.769  12.511  0.1088 -0.3665 -0.0646
  576MPD2    C2 8593   3.204   2.869  12.603  0.3602  0.3578  0.6426
  576MPD2    C3 8594   3.112   2.899  12.702 -1.0907 -0.3998  0.2147
  576MPD2    C4 8595   2.989   2.822  12.705  0.4577  0.3671  0.3183
  576MPD2    C5 8596   2.970   2.713  12.614  0.1280 -0.8543  0.0716
  576MPD2     H 8597   3.302   2.915  12.611 -0.3359  2.0421 -0.5905
  576MPD2    H1 8598   2.912   2.842  12.780  1.5231  0.6039  1.3491
  576MPD2    H2 8599   3.041   2.601  12.465 -0.7523  0.7950 -0.1051
  576MPD2    H3 8600   2.888   2.642  12.625 -0.6407  0.4087  2.7448
  576MPD2     N 8601   3.134   3.006  12.788 -0.9930 -0.6305 -0.3436
  576MPD2    H5 8602   3.218   3.058  12.767 -0.7411 -1.5999 -1.7648
  576MPD2    N1 8603   3.274   2.748  12.406 -0.3034  0.6624  0.4143
  576MPD2    H7 8604   3.355   2.807  12.414 -0.3092  0.9101 -1.4907
  577TMC3    C1 8605   3.379   2.658  12.207  0.3747 -0.5658 -0.6260
  577TMC3    C2 8606   3.501   2.678  12.266 -0.1406 -0.0838 -0.3148
  577TMC3    C3 8607   3.610   2.686  12.182 -0.5991 -0.0050 -0.4388
  577TMC3    C4 8608   3.357   2.648  12.073  0.1093  0.1091 -0.1551
  577TMC3    C5 8609   3.471   2.649  11.998  0.1285 -0.5027 -0.5215
  577TMC3    C6 8610   3.597   2.662  12.048 -0.0260 -0.1899  0.1610
  577TMC3     C 8611   3.259   2.671  12.291 -0.5907 -0.2191  0.2587
  577TMC3     O 8612   3.160   2.608  12.261 -0.1204 -0.8120  0.2100
  577TMC3     H 8613   3.507   2.691  12.373  1.4737 -3.4617 -0.0051
  577TMC3    H1 8614   3.258   2.642  12.029 -0.4196  0.2416  1.0085
  577TMC3    H2 8615   3.682   2.658  11.981 -1.3617  2.9002 -1.6893
  577TMC3    C7 8616   3.454   2.672  11.857 -0.7779 -0.4619 -0.4704
  577TMC3    C8 8617   3.738   2.663  12.250  0.1928  0.0461 -0.0590
  577TMC3    O1 8618   3.361   2.606  11.810  0.0659 -0.2954  0.0103
  577TMC3    O2 8619   3.741   2.682  12.369 -0.4615 -0.0645 -0.2534
  578MPD2     C 8620   1.902   2.707   1.554 -0.6471  0.1952 -0.5558
  578MPD2    C1 8621   1.930   2.681   1.424 -0.7172  0.0411  0.4707
  578MPD2    C2 8622   1.977   2.557   1.392 -0.2170 -0.7359  0.0379
  578MPD2    C3 8623   2.013   2.465   1.489 -0.7988  0.4889  0.9373
  578MPD2    C4 8624   1.996   2.499   1.616  0.0954 -0.3782 -0.3492
  578MPD2    C5 8625   1.941   2.617   1.644  0.1402 -0.9169  0.0214
  578MPD2     H 8626   1.997   2.537   1.287 -0.7612 -0.7068 -0.0710
  578MPD2    H1 8627   2.030   2.447   1.705  1.1525 -0.0803 -0.5714
  578MPD2    H2 8628   1.845   2.792   1.590  1.0388  0.1167  2.3216
  578MPD2    H3 8629   1.911   2.647   1.744  0.1543 -0.8885  0.0170
  578MPD2     N 8630   2.077   2.346   1.445 -1.0467 -0.3072 -0.3544
  578MPD2    H5 8631   2.095   2.339   1.345  1.6037  0.1121  0.0944
  578MPD2    N1 8632   1.892   2.775   1.329 -0.2754  0.5141  0.0090
  578MPD2    H7 8633   1.853   2.864   1.357 -0.5014  0.0919  1.0269
  579TMC3    C1 8634   2.217   2.160   1.465  0.1822  0.1053 -0.1742
  579TMC3    C2 8635   2.332   2.139   1.534  0.0516  0.0270 -0.0716
  579TMC3    C3 8636   2.441   2.075   1.468 -0.0211 -0.0749 -0.2298
  579TMC3    C4 8637   2.201   2.127   1.334 -0.9419  0.0105  0.4062
  579TMC3    C5 8638   2.303   2.053   1.276 -0.1940  0.1144 -0.1449
  579TMC3    C6 8639   2.428   2.030   1.335 -0.6261 -0.1615 -0.3366
  579TMC3     C 8640   2.121   2.249   1.536  0.5218 -1.0206  0.5558
  579TMC3     O 8641   2.108   2.248   1.656  0.5201  0.5931  0.3318
  579TMC3     H 8642   2.335   2.182   1.634 -1.6564 -0.0917  0.0258
  579TMC3    H1 8643   2.106   2.145   1.284 -0.4007  4.1773  0.8450
  579TMC3    H2 8644   2.510   1.984   1.281  1.6747  2.0911  1.2568
  579TMC3    C7 8645   2.311   2.025   1.130 -0.0622 -0.3972  0.4523
  579TMC3    C8 8646   2.576   2.117   1.523  0.0791  0.4319  0.1863
  579TMC3    O1 8647   2.389   1.938   1.096 -0.0072  0.5565 -0.3673
  579TMC3    O2 8648   2.571   2.170   1.634 -0.2431 -0.2237 -0.0582
  580TMC3    C1 8649   1.566   1.864  12.428 -0.6894 -0.5580 -0.1148
  580TMC3    C2 8650   1.667   1.939  12.378  0.4550 -0.1352  0.1866
  580TMC3    C3 8651   1.783   1.926  12.448 -0.3449 -0.4522  0.0442
  580TMC3    C4 8652   1.586   1.792  12.547 -0.4805 -0.0089  0.0361
  580TMC3    C5 8653   1.703   1.806  12.621 -0.8626 -0.1363 -0.3731
  580TMC3    C6 8654   1.801   1.878  12.578  0.6709  0.6993  0.1610
  580TMC3     C 8655   1.432   1.910  12.402 -0.9370 -0.1262  0.4645
  580TMC3     O 8656   1.368   1.927  12.505 -0.3262  0.0040  0.4345
  580TMC3     H 8657   1.670   2.009  12.295  1.2792 -1.0556 -0.5719
  580TMC3    H1 8658   1.495   1.763  12.598  1.1164 -2.8390  1.3171
  580TMC3    H2 8659   1.901   1.861  12.615  0.6415  1.4471  0.5887
  580TMC3    C7 8660   1.724   1.708  12.722 -0.4537  0.7064 -0.1747
  580TMC3    C8 8661   1.896   2.003  12.393  0.0098  0.8588 -0.2154
  580TMC3    O1 8662   1.806   1.736  12.805  0.1119  0.7388 -0.0409
  580TMC3    O2 8663   1.984   2.020  12.479  0.1160 -0.4187 -0.0991
  581MPD2     C 8664   4.373   1.369  14.484  0.2531 -0.3411  0.4956
  581MPD2    C1 8665   4.345   1.442  14.590 -0.3353  0.1571  0.2921
  581MPD2    C2 8666   4.251   1.548  14.580 -0.0323  0.0068 -0.0050
  581MPD2    C3 8667   4.173   1.566  14.463 -0.3466  1.2055  0.3296
  581MPD2    C4 8668   4.223   1.508  14.351 -0.1161  0.9931 -0.2760
  581MPD2    C5 8669   4.313   1.405  14.363 -0.1844  0.3320  0.1957
  581MPD2     H 8670   4.215   1.607  14.664  0.2885  1.4016 -0.8456
  581MPD2    H1 8671   4.175   1.526  14.255 -1.6225  0.5542  0.4048
  581MPD2    H2 8672   4.445   1.289  14.488 -0.0569 -0.5659  1.5170
  581MPD2    H3 8673   4.339   1.347  14.275  0.9179  0.3047  0.5421
  581MPD2     N 8674   4.054   1.647  14.466 -0.4964 -0.3836  0.2068
  581MPD2    H5 8675   4.029   1.690  14.555  0.3514 -0.5132  0.5033
  581MPD2    N1 8676   4.421   1.419  14.708 -0.5199  0.4077 -0.0958
  581MPD2    H7 8677   4.479   1.336  14.701 -0.8004  0.2539 -0.6041
  582TMC3    C1 8678   4.428   1.387  14.942  0.0888 -0.2536 -0.0268
  582TMC3    C2 8679   4.477   1.445  15.058  0.0481  0.6319  0.2970
  582TMC3    C3 8680   4.473   1.381  15.179  0.1106  0.1945  0.0327
  582TMC3    C4 8681   4.367   1.270  14.950 -0.1106 -0.4449  0.3414
  582TMC3    C5 8682   4.341   1.212  15.076 -0.6935  0.5343  0.4469
  582TMC3    C6 8683   4.403   1.263  15.188 -0.1406 -0.8795 -0.0592
  582TMC3     C 8684   4.397   1.474  14.831  0.4160 -0.1228 -0.6112
  582TMC3     O 8685   4.337   1.578  14.855  0.0089  0.3393 -0.4635
  582TMC3     H 8686   4.532   1.538  15.061  2.8245 -0.9488 -1.3781
  582TMC3    H1 8687   4.317   1.226  14.864 -1.9423 -1.3415  1.8825
  582TMC3    H2 8688   4.395   1.219  15.287 -3.1269  1.1473  0.6040
  582TMC3    C7 8689   4.195   1.192  15.085 -0.4143  0.3620 -0.4895
  582TMC3    C8 8690   4.496   1.445  15.306 -0.2120 -0.0748 -0.6129
  582TMC3    O1 8691   4.144   1.115  15.007  0.7888  0.3724 -0.0273
  582TMC3    O2 8692   4.473   1.565  15.326  0.0173 -0.0724 -0.2972
  583MPD2     C 8693   4.378   2.981  16.774  0.5564  0.0593  0.4427
  583MPD2    C1 8694   4.352   3.117  16.753 -0.4496  0.3684  0.2360
  583MPD2    C2 8695   4.322   3.191  16.864  0.4977 -0.1949  0.2137
  583MPD2    C3 8696   4.323   3.146  16.990  0.3693 -0.1563  0.4114
  583MPD2    C4 8697   4.361   3.015  17.005 -0.1044 -0.6199 -0.2177
  583MPD2    C5 8698   4.382   2.931  16.899 -0.4601 -0.2901  0.1922
  583MPD2     H 8699   4.297   3.296  16.848  2.1748 -0.0407 -1.3688
  583MPD2    H1 8700   4.377   2.961  17.098  0.2120  1.2416  0.8212
  583MPD2    H2 8701   4.420   2.921  16.694  1.5976  1.7491 -0.2850
  583MPD2    H3 8702   4.404   2.828  16.921  1.5856 -0.1581 -1.2877
  583MPD2     N 8703   4.287   3.233  17.092  0.2800  0.1692  0.0897
  583MPD2    H5 8704   4.259   3.323  17.054 -1.9137 -0.2372  0.7635
  583MPD2    N1 8705   4.366   3.184  16.631  0.4203  0.1921  0.4871
  583MPD2    H7 8706   4.351   3.285  16.637 -0.7627  0.0410  0.1471
  584TMC3    C1 8707   4.225   3.314  17.310  0.2758 -0.7293  0.1823
  584TMC3    C2 8708   4.267   3.443  17.277 -0.0091  0.3911  0.3876
  584TMC3    C3 8709   4.276   3.546  17.367  0.0092  0.3879  0.1485
  584TMC3    C4 8710   4.200   3.285  17.439  0.6448 -0.6638 -0.3248
  584TMC3    C5 8711   4.202   3.390  17.532 -0.1700  0.4857 -0.4050
  584TMC3    C6 8712   4.251   3.516  17.496 -0.5855  0.3998 -0.2260
  584TMC3     C 8713   4.268   3.196  17.223  0.2217  0.8813  0.2926
  584TMC3     O 8714   4.263   3.086  17.277  0.0128  0.0125  0.5955
  584TMC3     H 8715   4.276   3.471  17.173  0.4392  0.3035  0.4038
  584TMC3    H1 8716   4.157   3.192  17.472  0.6834 -0.5340  0.0915
  584TMC3    H2 8717   4.270   3.583  17.579 -1.7087 -0.8009  1.0158
  584TMC3    C7 8718   4.135   3.359  17.654  0.4872 -0.0253 -0.5944
  584TMC3    C8 8719   4.274   3.684  17.322 -0.1481 -0.4464 -0.2354
  584TMC3    O1 8720   4.163   3.250  17.703 -0.6690  0.2475  0.3246
  584TMC3    O2 8721   4.249   3.700  17.201  0.0490  0.2475 -0.0080
  585MPD2     C 8722   3.215   2.090   0.146 -0.1205  0.5773  0.7506
  585MPD2    C1 8723   3.279   2.136   0.035 -0.0593 -0.8409  0.5204
  585MPD2    C2 8724   3.309   2.060  17.688  0.0194  0.1231  0.2012
  585MPD2    C3 8725   3.283   1.920  17.697  0.7180 -0.0285 -0.1377
  585MPD2    C4 8726   3.199   1.877   0.035  0.0516 -0.6559  0.5453
  585MPD2    C5 8727   3.180   1.957   0.141 -0.2015  0.4261  0.6902
  585MPD2     H 8728   3.360   2.102  17.603  0.0051 -5.1044 -2.3959
  585MPD2    H1 8729   3.172   1.773   0.048  1.2863 -1.1744 -1.1462
  585MPD2    H2 8730   3.171   2.152   0.223 -2.5585  1.5491 -1.4559
  585MPD2    H3 8731   3.118   1.926   0.224 -1.1328 -0.7185 -0.4396
  585MPD2     N 8732   3.313   1.831  17.589  0.3960 -0.2409  0.2638
  585MPD2    H5 8733   3.265   1.741  17.590 -0.8811  0.4524  1.2837
  585MPD2    N1 8734   3.303   2.272   0.025  0.2289 -0.1646 -0.5652
  585MPD2    H7 8735   3.298   2.320   0.115  1.9747  0.7977 -0.9768
  586TMC3    C1 8736   3.385   1.735  17.394  0.3213  0.5073 -0.0757
  586TMC3    C2 8737   3.483   1.734  17.299 -0.7208  0.3891 -0.5034
  586TMC3    C3 8738   3.479   1.626  17.209  0.3528  0.8961  1.4987
  586TMC3    C4 8739   3.274   1.655  17.399  0.0623  0.2562  0.4857
  586TMC3    C5 8740   3.279   1.546  17.321  0.1899  0.1630 -0.9151
  586TMC3    C6 8741   3.382   1.531  17.228  0.6625  0.2643 -0.5862
  586TMC3     C 8742   3.394   1.850  17.477 -0.7355 -0.2228  0.7561
  586TMC3     O 8743   3.469   1.940  17.445  0.2099 -0.1826  0.5605
  586TMC3     H 8744   3.564   1.807  17.304 -1.2161  0.8929  0.1158
  586TMC3    H1 8745   3.186   1.652  17.464 -1.2631  0.2919 -1.3070
  586TMC3    H2 8746   3.390   1.448  17.159 -1.3046  1.3268 -2.0745
  586TMC3    C7 8747   3.176   1.444  17.317 -1.0818 -0.2983 -0.0324
  586TMC3    C8 8748   3.607   1.566  17.205  0.5019  0.0415 -0.4960
  586TMC3    O1 8749   3.128   1.401  17.420 -0.1210  0.0975 -0.0016
  586TMC3    O2 8750   3.619   1.452  17.243  0.4783 -0.3208 -1.2198
  587TMC3    C1 8751   0.529   0.722  16.197 -0.0916  0.2322 -0.0171
  587TMC3    C2 8752   0.585   0.844  16.242 -0.0223  0.5429  0.1474
  587TMC3    C3 8753   0.714   0.860  16.205  0.4179  0.4903  0.8907
  587TMC3    C4 8754   0.609   0.623  16.147  0.7263 -0.0806 -0.0781
  587TMC3    C5 8755   0.738   0.652  16.111 -0.7572 -0.2639  0.0022
  587TMC3    C6 8756   0.796   0.766  16.142 -0.0497 -0.0127  0.2006
  587TMC3     C 8757   0.390   0.700  16.239 -0.3520  0.3311  0.4445
  587TMC3     O 8758   0.340   0.795  16.300  0.1076  0.4664 -1.1141
  587TMC3     H 8759   0.523   0.916  16.295  0.4224 -0.0370  1.4726
  587TMC3    H1 8760   0.569   0.537  16.095  1.3152 -2.3097  3.1647
  587TMC3    H2 8761   0.904   0.774  16.140 -0.0840  0.3068 -0.4858
  587TMC3    C7 8762   0.815   0.556  16.034 -0.5313 -1.2231 -0.1265
  587TMC3    C8 8763   0.781   0.968  16.287 -0.2073 -0.1074  0.2695
  587TMC3    O1 8764   0.772   0.440  16.031  0.2393  0.0463  0.0775
  587TMC3    O2 8765   0.882   0.946  16.357 -0.2426 -0.3629 -0.7147
  588TMC3    C1 8766   3.205   3.398   9.974  0.7718 -0.5195  0.7470
  588TMC3    C2 8767   3.232   3.299   9.875  0.2509 -0.6919 -0.0415
  588TMC3    C3 8768   3.332   3.211   9.921  0.0570 -0.3038 -0.1243
  588TMC3    C4 8769   3.260   3.416  10.097  0.0616  0.5750 -0.0127
  588TMC3    C5 8770   3.360   3.325  10.130  0.0332 -0.0855  0.0010
  588TMC3    C6 8771   3.400   3.231  10.039 -0.0745  0.1489  0.4169
  588TMC3     C 8772   3.138   3.521   9.933 -0.0561  0.2057 -0.3322
  588TMC3     O 8773   3.020   3.515   9.904 -0.0603  0.2044 -0.1614
  588TMC3     H 8774   3.191   3.309   9.775 -1.7204  0.0014  0.8351
  588TMC3    H1 8775   3.219   3.481  10.173  1.3281 -0.2464  1.3607
  588TMC3    H2 8776   3.501   3.193  10.049 -0.3885 -1.1229 -1.2620
  588TMC3    C7 8777   3.466   3.360  10.228  0.5660 -0.1902 -0.5344
  588TMC3    C8 8778   3.320   3.069   9.883 -0.2512  0.0081 -0.5862
  588TMC3    O1 8779   3.544   3.273  10.265  0.3110  0.3395  0.3488
  588TMC3    O2 8780   3.256   3.048   9.784  0.2651  0.5778 -0.2988
  589TMC3    C1 8781   2.518   0.262   0.854  0.3265  0.3914  0.3695
  589TMC3    C2 8782   2.623   0.178   0.872  0.0354  0.3877  0.4654
  589TMC3    C3 8783   2.655   0.098   0.766 -0.0430 -0.0220 -0.1630
  589TMC3    C4 8784   2.445   0.273   0.735 -0.1546  0.4492 -0.2925
  589TMC3    C5 8785   2.484   0.190   0.637 -0.5234  0.1322 -0.8374
  589TMC3    C6 8786   2.582   0.098   0.650 -0.5873  0.0401  0.7117
  589TMC3     C 8787   2.476   0.350   0.958 -0.4178 -0.4014  0.2456
  589TMC3     O 8788   2.382   0.423   0.931  0.0612 -0.2449  0.2865
  589TMC3     H 8789   2.671   0.161   0.968  1.4113 -2.7000 -0.7550
  589TMC3    H1 8790   2.358   0.336   0.722 -0.3541 -0.1111 -1.7027
  589TMC3    H2 8791   2.593   0.016   0.580  0.8812  0.2007  0.7514
  589TMC3    C7 8792   2.405   0.187   0.506  0.2858  0.4823 -1.0363
  589TMC3    C8 8793   2.764   0.003   0.783  0.0939  0.3084  0.5113
  589TMC3    O1 8794   2.425   0.091   0.434 -0.2046 -1.0758  0.2621
  589TMC3    O2 8795   2.773   4.640   0.720 -0.4068  0.3741  0.3777
  590MPD2     C 8796   1.757   4.217  16.977 -1.0379 -0.2962 -0.4504
  590MPD2    C1 8797   1.780   4.344  16.936  0.8765  0.0764  0.0711
  590MPD2    C2 8798   1.907   4.399  16.947  0.4778 -0.7567 -0.9828
  590MPD2    C3 8799   2.018   4.326  16.981 -0.4658  0.3797  0.4646
  590MPD2    C4 8800   1.993   4.195  17.001  0.1470  0.4747 -0.1403
  590MPD2    C5 8801   1.866   4.146  17.018 -0.8051 -0.2163 -0.2219
  590MPD2     H 8802   1.931   4.504  16.939  2.7859 -1.0537  1.8377
  590MPD2    H1 8803   2.073   4.128  17.032 -0.5290  0.3651  1.3483
  590MPD2    H2 8804   1.656   4.181  16.989 -0.1785 -2.5428  0.1846
  590MPD2    H3 8805   1.850   4.042  17.046 -1.1761  0.2523  1.3045
  590MPD2     N 8806   2.149   4.381  16.956 -0.2618  0.1895  0.0261
  590MPD2    H5 8807   2.149   4.481  16.939 -2.4626  0.5313  2.0924
  590MPD2    N1 8808   1.671   4.420  16.887  0.2732  0.3874 -0.0675
  590MPD2    H7 8809   1.582   4.371  16.880 -0.4685  1.4079  2.3085
  591TMC3    C1 8810   2.346   4.386  16.839  0.6682  0.4773 -0.6120
  591TMC3    C2 8811   2.365   4.335  16.715  0.6631  0.0442  0.8748
  591TMC3    C3 8812   2.371   4.431  16.618 -0.5760 -0.2335  0.8607
  591TMC3    C4 8813   2.326   4.517  16.861  0.4868  0.1430  0.0594
  591TMC3    C5 8814   2.323   4.607  16.756  0.0451 -0.4715 -0.1049
  591TMC3    C6 8815   2.360   4.562  16.635  0.0445  0.5302 -0.6733
  591TMC3     C 8816   2.261   4.305  16.918  1.1515  0.0467  0.4316
  591TMC3     O 8817   2.279   4.188  16.922 -0.1564  0.4258 -0.6170
  591TMC3     H 8818   2.382   4.229  16.701  0.0153 -0.0447  0.7501
  591TMC3    H1 8819   2.323   4.558  16.962 -0.5451 -0.9152  0.4704
  591TMC3    H2 8820   2.380   4.637  16.559  2.3740 -0.4089 -0.9904
  591TMC3    C7 8821   2.210   4.690  16.759 -0.0369  0.6349 -0.2669
  591TMC3    C8 8822   2.362   4.379  16.478 -0.3225 -0.4541 -0.1844
  591TMC3    O1 8823   2.121   4.664  16.840 -0.2165 -0.4301  0.4619
  591TMC3    O2 8824   2.375   4.257  16.467 -0.6701 -0.2280  0.6136
  592MPD2     C 8825   2.697   1.481  11.311  0.2250  0.3701  0.1218
  592MPD2    C1 8826   2.696   1.521  11.438  0.9800  0.1946 -1.0036
  592MPD2    C2 8827   2.612   1.462  11.534 -0.0923  0.1362 -0.4454
  592MPD2    C3 8828   2.529   1.356  11.497 -0.4855  0.0128  0.5953
  592MPD2    C4 8829   2.524   1.327  11.363  0.1799  0.7048 -0.1227
  592MPD2    C5 8830   2.611   1.383  11.279  1.2127  0.1148 -0.0368
  592MPD2     H 8831   2.615   1.496  11.636 -0.8348  0.5197 -0.5548
  592MPD2    H1 8832   2.467   1.245  11.322  2.0760 -0.4363 -0.4478
  592MPD2    H2 8833   2.759   1.518  11.230 -1.4087 -0.8362 -1.6745
  592MPD2    H3 8834   2.604   1.350  11.176  1.6293  0.4867 -0.1802
  592MPD2     N 8835   2.458   1.296  11.601 -0.2550 -0.1226 -0.1073
  592MPD2    H5 8836   2.486   1.319  11.695  1.7064 -0.9147 -0.5078
  592MPD2    N1 8837   2.785   1.631  11.475  0.2252 -0.4456  0.4111
  592MPD2    H7 8838   2.863   1.650  11.413  1.0386 -0.2190  1.4830
  593TMC3    C1 8839   2.867   1.812  11.594  0.1150 -0.2085  0.6702
  593TMC3    C2 8840   2.909   1.855  11.717 -0.6725 -0.9115  0.0724
  593TMC3    C3 8841   3.014   1.940  11.733  0.2305  0.0536 -1.2567
  593TMC3    C4 8842   2.937   1.850  11.482  0.1793 -0.1825  0.1471
  593TMC3    C5 8843   3.030   1.950  11.494  0.3573 -1.0288 -0.5362
  593TMC3    C6 8844   3.069   1.995  11.619 -0.3734 -0.3451 -0.5025
  593TMC3     C 8845   2.763   1.709  11.589  0.2600 -0.4438 -0.4726
  593TMC3     O 8846   2.690   1.698  11.683  0.0608 -0.6331  0.0577
  593TMC3     H 8847   2.857   1.821  11.805 -0.0157 -0.5097  0.6120
  593TMC3    H1 8848   2.898   1.838  11.382 -3.0722 -0.5912  1.4294
  593TMC3    H2 8849   3.143   2.075  11.617  1.2140 -1.8024 -0.6866
  593TMC3    C7 8850   3.086   2.010  11.381  0.2053 -0.5213 -0.5897
  593TMC3    C8 8851   3.013   2.009  11.856 -0.1518 -0.1013 -0.5934
  593TMC3    O1 8852   3.027   1.998  11.274 -0.4945  0.0982  0.6861
  593TMC3    O2 8853   2.909   2.007  11.913 -0.2172  0.1688  0.4051
  594MPD2     C 8854   1.263   0.128  14.106  0.4645  0.1283 -0.4708
  594MPD2    C1 8855   1.241   0.165  14.239 -0.0539  0.0174 -0.6170
  594MPD2    C2 8856   1.302   0.282  14.289 -0.1893 -0.1352 -0.6671
  594MPD2    C3 8857   1.401   0.354  14.214  0.6398 -0.0967  0.0889
  594MPD2    C4 8858   1.439   0.299  14.092  0.7600  0.0351 -0.4402
  594MPD2    C5 8859   1.365   0.192  14.044  1.1033 -0.2444  0.0755
  594MPD2     H 8860   1.271   0.324  14.384 -1.6906 -1.8263 -0.3953
  594MPD2    H1 8861   1.532   0.333  14.048  0.4433 -0.5441 -1.5675
  594MPD2    H2 8862   1.207   0.041  14.073  0.7340  0.2473 -1.2424
  594MPD2    H3 8863   1.391   0.152  13.947 -1.5775 -2.2676  0.1900
  594MPD2     N 8864   1.464   0.470  14.270  0.0424 -0.3617  0.6371
  594MPD2    H5 8865   1.429   0.506  14.358  0.8621  0.3204  0.6804
  594MPD2    N1 8866   1.144   0.093  14.311  0.6269  0.4157  0.1132
  594MPD2    H7 8867   1.085   0.026  14.263 -0.3235  0.5388  1.1255
  595TMC3    C1 8868   1.725   0.824  14.392 -0.3815 -0.5739 -0.0000
  595TMC3    C2 8869   1.699   0.727  14.303  0.8983 -0.4079 -0.2086
  595TMC3    C3 8870   1.574   0.679  14.280  0.2824  0.3163 -0.0643
  595TMC3    C4 8871   1.625   0.861  14.469  0.4360  0.5575  0.3240
  595TMC3    C5 8872   1.489   0.827  14.438  0.2093  0.0062  0.1125
  595TMC3    C6 8873   1.466   0.745  14.332 -0.6844  0.9074  0.1025
  595TMC3     C 8874   1.860   0.852  14.439 -0.2641  0.3748 -0.1148
  595TMC3     O 8875   1.860   0.919  14.543 -0.0811 -0.0464 -0.4814
  595TMC3     H 8876   1.770   0.685  14.234 -0.4339  0.9465 -2.4041
  595TMC3    H1 8877   1.632   0.937  14.546 -1.8166 -0.6811  1.7478
  595TMC3    H2 8878   1.362   0.715  14.318  0.4616 -2.1183 -2.0170
  595TMC3    C7 8879   1.398   0.829  14.544 -0.4210  0.0112 -0.8298
  595TMC3    C8 8880   1.566   0.547  14.211 -0.0306 -1.0748 -0.4236
  595TMC3    O1 8881   1.277   0.848  14.524 -0.6544  0.1961  0.0723
  595TMC3    O2 8882   1.648   0.519  14.121  0.0211  0.4525 -0.5969
  596MPD2     C 8883   0.607   2.976  16.732 -0.1568 -0.0171  0.4408
  596MPD2    C1 8884   0.523   3.075  16.696  0.1735  0.4357  0.0852
  596MPD2    C2 8885   0.495   3.097  16.563  0.3708  1.0778  0.2767
  596MPD2    C3 8886   0.560   3.025  16.464 -0.0516 -0.5003 -0.7669
  596MPD2    C4 8887   0.659   2.941  16.505 -0.3357 -0.2599  0.1069
  596MPD2    C5 8888   0.679   2.915  16.641 -0.1062 -0.3809  0.3521
  596MPD2     H 8889   0.418   3.170  16.542 -1.2047 -0.9679 -1.0868
  596MPD2    H1 8890   0.721   2.885  16.436 -0.2946 -1.7308  1.3370
  596MPD2    H2 8891   0.627   2.959  16.837 -0.1380  0.5205  0.5239
  596MPD2    H3 8892   0.756   2.848  16.677 -0.4460 -0.9878 -0.0493
  596MPD2     N 8893   0.527   3.019  16.324  0.3218  0.0818 -0.1404
  596MPD2    H5 8894   0.587   2.954  16.275  1.4089  1.4124 -0.5770
  596MPD2    N1 8895   0.465   3.143  16.805 -0.3876 -0.6146 -0.3028
  596MPD2    H7 8896   0.502   3.125  16.898  1.6480 -1.2541 -1.2542
  597TMC3    C1 8897   0.375   3.327  16.898  0.1607 -0.2138  0.0292
  597TMC3    C2 8898   0.503   3.366  16.938  0.0221 -0.0465 -0.4960
  597TMC3    C3 8899   0.513   3.458  17.038 -0.6141 -1.0315  0.7006
  597TMC3    C4 8900   0.267   3.393  16.943 -0.5607  0.5367  0.5148
  597TMC3    C5 8901   0.274   3.484  17.038 -0.5269  0.6263  0.6370
  597TMC3    C6 8902   0.398   3.519  17.086 -0.5446  0.0745  0.3818
  597TMC3     C 8903   0.355   3.231  16.793 -0.2506 -0.7036  0.0653
  597TMC3     O 8904   0.280   3.255  16.699  0.3049 -0.0782 -0.7383
  597TMC3     H 8905   0.597   3.320  16.911  0.3201  0.6415 -0.6306
  597TMC3    H1 8906   0.170   3.357  16.912  0.4205 -0.2629 -1.6528
  597TMC3    H2 8907   0.416   3.580  17.174 -1.0298 -1.0082  1.2470
  597TMC3    C7 8908   0.160   3.497  17.122 -0.3479  0.1890  0.0767
  597TMC3    C8 8909   0.646   3.495  17.076 -0.1204 -0.9173  0.6395
  597TMC3    O1 8910   0.071   3.418  17.139  0.5936  0.0368 -0.7045
  597TMC3    O2 8911   0.733   3.413  17.077  0.1569 -0.2193  0.2279
  598TMC3    C1 8912   3.077   4.497  15.193 -0.2827  0.0703  0.2943
  598TMC3    C2 8913   2.974   4.415  15.174  0.6190 -0.7774 -0.1775
  598TMC3    C3 8914   2.901   4.427  15.059 -0.8488  0.0684  0.0499
  598TMC3    C4 8915   3.108   4.602  15.110  0.0077 -0.2439  0.2453
  598TMC3    C5 8916   3.032   4.613  14.995 -0.5241  0.5306 -0.2640
  598TMC3    C6 8917   2.928   4.527  14.965 -0.4769  0.6571 -0.0024
  598TMC3     C 8918   3.166   4.466  15.303 -0.2486 -0.1826  0.1149
  598TMC3     O 8919   3.153   4.351  15.338  0.3677 -0.5895  0.2869
  598TMC3     H 8920   2.952   4.336  15.245  0.4409 -0.5355  0.0347
  598TMC3    H1 8921   3.197   4.660  15.131  0.5437 -1.3483  0.9739
  598TMC3    H2 8922   2.866   4.544  14.879 -0.1841  0.6263 -0.2186
  598TMC3    C7 8923   3.094   4.689  14.889 -0.1091 -1.0218 -0.4422
  598TMC3    C8 8924   2.816   4.319  15.033  0.4156 -0.1147  0.1907
  598TMC3    O1 8925   3.066   4.656  14.776  0.5811 -0.1166 -0.1061
  598TMC3    O2 8926   2.779   4.248  15.128  0.2162 -0.2522  0.5368
  599MPD2     C 8927   2.901   1.622  15.486 -0.7000 -0.0337  0.4002
  599MPD2    C1 8928   2.990   1.591  15.580  0.7614  0.4699 -0.1619
  599MPD2    C2 8929   2.979   1.638  15.707 -0.0187  0.3512 -0.4725
  599MPD2    C3 8930   2.872   1.717  15.737 -0.4287  0.5217 -0.3631
  599MPD2    C4 8931   2.779   1.752  15.642 -0.4927 -0.7447 -0.3820
  599MPD2    C5 8932   2.791   1.696  15.518 -0.1470  0.7266 -0.0982
  599MPD2     H 8933   3.047   1.603  15.784 -1.4034  1.6209  1.3120
  599MPD2    H1 8934   2.705   1.823  15.676 -0.0512 -0.9869  1.0665
  599MPD2    H2 8935   2.899   1.585  15.384  0.0613 -1.6425  0.9604
  599MPD2    H3 8936   2.716   1.716  15.443  0.8438  0.8860 -1.0455
  599MPD2     N 8937   2.848   1.752  15.875  1.0268 -0.3866  0.2960
  599MPD2    H5 8938   2.761   1.801  15.891  0.3859 -0.7284 -2.0263
  599MPD2    N1 8939   3.099   1.520  15.535 -0.8743  0.1808  0.4170
  599MPD2    H7 8940   3.090   1.464  15.451  0.0598  0.0942  0.3699
  600TMC3    C1 8941   2.837   1.772  16.099  0.3021  0.3550 -0.4237
  600TMC3    C2 8942   2.701   1.743  16.103 -1.1766  1.4146  0.0920
  600TMC3    C3 8943   2.628   1.799  16.207  0.1298 -0.3629 -0.4329
  600TMC3    C4 8944   2.900   1.851  16.195 -0.0166  0.4211 -0.8079
  600TMC3    C5 8945   2.822   1.892  16.298  0.3963  0.2445 -0.7986
  600TMC3    C6 8946   2.685   1.877  16.301  0.4004  0.5936  0.2726
  600TMC3     C 8947   2.918   1.720  15.987 -0.3849 -0.4268  0.9734
  600TMC3     O 8948   3.028   1.666  16.005 -0.3538  0.0011  0.4657
  600TMC3     H 8949   2.657   1.680  16.027  1.2257  0.1883 -0.2815
  600TMC3    H1 8950   3.008   1.847  16.209 -0.0676 -0.1526 -0.5887
  600TMC3    H2 8951   2.615   1.920  16.371 -0.8082 -2.0341  0.6684
  600TMC3    C7 8952   2.854   2.018  16.361 -0.0901 -0.0398 -0.4366
  600TMC3    C8 8953   2.500   1.738  16.235  0.5647  0.1991  0.1227
  600TMC3    O1 8954   2.786   2.047  16.459  0.1940 -0.4833 -0.3535
  600TMC3    O2 8955   2.436   1.709  16.136 -0.6317 -0.1410  0.1428
  601MPD2     C 8956   0.820   0.654   0.101 -0.1350 -0.6907 -0.5050
  601MPD2    C1 8957   0.696   0.617   0.129  0.3740  0.0700 -0.7070
  601MPD2    C2 8958   0.679   0.486   0.165  0.2068  0.6773  0.2320
  601MPD2    C3 8959   0.787   0.397   0.186 -0.2608 -1.3966 -0.2599
  601MPD2    C4 8960   0.914   0.446   0.157 -0.2809 -0.0558  0.1146
  601MPD2    C5 8961   0.927   0.572   0.111 -0.4473 -0.7082 -0.0848
  601MPD2     H 8962   0.574   0.459   0.176  0.5545 -1.1736 -0.8550
  601MPD2    H1 8963   1.005   0.391   0.176 -0.3303 -0.5152 -0.9652
  601MPD2    H2 8964   0.844   0.753   0.062  1.1108  0.6005  3.5232
  601MPD2    H3 8965   1.024   0.613   0.084  0.5650 -4.4892 -2.2082
  601MPD2     N 8966   0.770   0.264   0.233 -0.3746 -0.6764  0.0684
  601MPD2    H5 8967   0.856   0.211   0.238  1.2907  1.7803 -2.6948
  601MPD2    N1 8968   0.586   0.700   0.112 -0.0930  0.5842 -0.1741
  601MPD2    H7 8969   0.497   0.660   0.140 -0.5055  0.6300 -1.4271
  602TMC3    C1 8970   0.457   0.891   0.058 -0.8843 -0.1664 -0.3484
  602TMC3    C2 8971   0.454   1.025   0.031 -0.2181 -0.0921 -0.1104
  602TMC3    C3 8972   0.388   1.062  17.676  0.1298  0.2276 -0.5502
  602TMC3    C4 8973   0.365   0.801   0.007 -0.4122 -0.7254  0.1152
  602TMC3    C5 8974   0.286   0.857  17.665 -0.2861 -0.1572  0.1403
  602TMC3    C6 8975   0.303   0.977  17.613  1.0354  0.0851 -0.6077
  602TMC3     C 8976   0.593   0.835   0.078  0.7977  0.2330  0.0304
  602TMC3     O 8977   0.686   0.911   0.065  0.2686 -0.6415  0.1197
  602TMC3     H 8978   0.525   1.091   0.079 -2.1770  1.9713 -0.0122
  602TMC3    H1 8979   0.368   0.694   0.026  1.2539 -0.6809  0.1203
  602TMC3    H2 8980   0.221   1.016  17.553  0.7882  1.5515  0.6620
  602TMC3    C7 8981   0.204   0.780  17.581 -0.3360  0.0323 -0.0414
  602TMC3    C8 8982   0.434   1.183  17.611  0.1193 -0.4184  0.6163
  602TMC3    O1 8983   0.116   0.714  17.639  0.5493 -0.1246  0.5396
  602TMC3    O2 8984   0.485   1.268  17.682  0.6420 -0.2373 -0.0655
  603TMC3    C1 8985   2.665   1.020  11.434  0.7821  0.5773 -0.7104
  603TMC3    C2 8986   2.737   1.070  11.536  0.2986 -0.3064 -1.4839
  603TMC3    C3 8987   2.866   1.100  11.500 -0.6304 -0.0891 -0.2290
  603TMC3    C4 8988   2.714   1.006  11.306 -0.3007 -0.0607  0.8160
  603TMC3    C5 8989   2.849   1.026  11.281 -0.0555  0.7093 -0.0311
  603TMC3    C6 8990   2.929   1.078  11.379 -0.6082 -0.2019  0.4541
  603TMC3     C 8991   2.557   0.933  11.464  0.7714 -0.0325  0.4877
  603TMC3     O 8992   2.493   0.886  11.372 -0.0759 -0.3354  0.6931
  603TMC3     H 8993   2.699   1.086  11.636 -0.0348  1.1455 -1.8549
  603TMC3    H1 8994   2.645   0.962  11.235  0.9912 -2.1614  0.8494
  603TMC3    H2 8995   3.036   1.084  11.359 -0.8865  5.0296  0.5618
  603TMC3    C7 8996   2.910   0.977  11.156  0.6806  0.2209  0.3366
  603TMC3    C8 8997   2.950   1.076  11.618 -0.1478  0.0053 -0.4255
  603TMC3    O1 8998   3.033   0.966  11.155  0.4750 -0.2321  0.2667
  603TMC3    O2 8999   2.910   1.007  11.710  0.1537 -0.5999 -0.5753
  604MPD2     C 9000   4.106   4.168  16.598 -0.5546 -0.8798 -0.1130
  604MPD2    C1 9001   4.007   4.228  16.523 -0.1325 -0.4814 -0.2505
  604MPD2    C2 9002   3.996   4.200  16.387 -0.5491  0.2740  0.8799
  604MPD2    C3 9003   4.085   4.116  16.325 -0.1110  0.4317  0.4528
  604MPD2    C4 9004   4.187   4.071  16.404 -0.0398  0.0761  0.3841
  604MPD2    C5 9005   4.198   4.099  16.538 -0.2401 -0.5461 -0.2570
  604MPD2     H 9006   3.915   4.248  16.332 -0.5369  0.8461  1.3522
  604MPD2    H1 9007   4.263   4.005  16.362 -0.8114 -0.6400  0.1243
  604MPD2    H2 9008   4.122   4.190  16.703  0.1344 -0.7606 -0.2481
  604MPD2    H3 9009   4.284   4.054  16.586  0.4685  0.6796 -0.3736
  604MPD2     N 9010   4.074   4.108  16.185  0.0712  0.8810  0.4563
  604MPD2    H5 9011   4.005   4.169  16.143  0.2700  0.7686 -0.0256
  604MPD2    N1 9012   3.920   4.317  16.588  0.3315 -0.6516  0.2092
  604MPD2    H7 9013   3.942   4.331  16.687  1.8449 -1.9174  0.0551
  605TMC3    C1 9014   3.709   4.451  16.629  0.1351  0.2509  0.7790
  605TMC3    C2 9015   3.778   4.529  16.725 -0.0417 -0.2634  0.3188
  605TMC3    C3 9016   3.707   4.641  16.762 -0.3354  0.2090 -0.2093
  605TMC3    C4 9017   3.582   4.479  16.591 -0.3157 -0.2165 -1.0535
  605TMC3    C5 9018   3.511   4.589  16.643 -0.9321  1.0852 -0.2437
  605TMC3    C6 9019   3.577   4.677  16.728 -0.4763 -0.6689 -0.8121
  605TMC3     C 9020   3.784   4.349  16.555  1.0035 -0.5482 -0.7425
  605TMC3     O 9021   3.728   4.319  16.448 -0.0677  0.3063 -0.0931
  605TMC3     H 9022   3.885   4.524  16.735 -0.4927  0.1670  5.4618
  605TMC3    H1 9023   3.534   4.397  16.539  1.8133 -2.1599  0.0534
  605TMC3    H2 9024   3.540   0.038  16.737  2.0410 -0.0630  2.6047
  605TMC3    C7 9025   3.384   4.627  16.590  0.7597 -0.2970  0.2017
  605TMC3    C8 9026   3.779   0.004  16.823 -0.4536 -0.2508 -0.5635
  605TMC3    O1 9027   3.329   4.732  16.619 -0.0511  0.3141 -0.9577
  605TMC3    O2 9028   3.733   0.060  16.922  0.0861 -0.8912  1.0097
  606TMC3    C1 9029   0.455   3.322  17.432 -0.2943 -0.6952 -0.0858
  606TMC3    C2 9030   0.531   3.281  17.538  0.5533 -0.6741 -0.1067
  606TMC3    C3 9031   0.524   3.147  17.566 -0.7398  0.0708 -0.4054
  606TMC3    C4 9032   0.365   3.241  17.368 -0.3279  0.2632  0.1681
  606TMC3    C5 9033   0.364   3.110  17.401  0.1594 -0.0554 -0.3370
  606TMC3    C6 9034   0.437   3.059  17.502  0.2173  0.0426  0.0176
  606TMC3     C 9035   0.404   3.458  17.432 -1.2006  0.0716 -0.6973
  606TMC3     O 9036   0.288   3.477  17.403  0.6073  0.0205  0.0721
  606TMC3     H 9037   0.560   3.353  17.615 -1.4059 -1.6339  1.5361
  606TMC3    H1 9038   0.304   3.285  17.290 -2.4505 -0.7006  1.2856
  606TMC3    H2 9039   0.446   2.953  17.521 -0.6400  0.2103  1.2929
  606TMC3    C7 9040   0.326   3.020  17.299  0.3494 -0.3152  0.2755
  606TMC3    C8 9041   0.585   3.096  17.691 -0.6867  0.1631 -0.0770
  606TMC3    O1 9042   0.309   3.071  17.191 -0.0215  0.1409  0.6782
  606TMC3    O2 9043   0.686   3.158  17.721 -0.1928 -0.2592 -0.7923
  607MPD2     C 9044   2.406   1.059  12.019  0.0826  0.3525  0.2428
  607MPD2    C1 9045   2.460   1.149  12.111  0.4182  0.6370 -0.5714
  607MPD2    C2 9046   2.433   1.120  12.240 -0.2371 -0.2509 -0.3467
  607MPD2    C3 9047   2.358   1.015  12.283 -0.4101 -0.1374 -0.0003
  607MPD2    C4 9048   2.314   0.923  12.197 -0.5586  0.8956  0.4712
  607MPD2    C5 9049   2.333   0.949  12.065 -0.4195  0.8666  0.5833
  607MPD2     H 9050   2.467   1.188  12.317 -0.3993  0.3867 -0.8452
  607MPD2    H1 9051   2.263   0.834  12.231  0.1845 -0.1333 -1.1389
  607MPD2    H2 9052   2.417   1.084  11.914  0.7166  0.9907  0.4588
  607MPD2    H3 9053   2.297   0.879  11.990 -0.4923 -0.2026  1.6269
  607MPD2     N 9054   2.351   0.997  12.424  0.2356  0.1066  0.4538
  607MPD2    H5 9055   2.397   1.072  12.476 -1.4707  1.2260  0.3448
  607MPD2    N1 9056   2.531   1.267  12.077 -0.5464 -0.2025  0.1387
  607MPD2    H7 9057   2.553   1.330  12.153 -1.0855  2.0748 -1.6151
  608TMC3    C1 9058   2.683   1.403  11.973 -0.8174 -0.8313 -0.7069
  608TMC3    C2 9059   2.705   1.455  12.095  0.1732  0.5038  0.1997
  608TMC3    C3 9060   2.820   1.536  12.119 -0.6957  0.2049 -0.8006
  608TMC3    C4 9061   2.788   1.409  11.886 -0.2118  0.2073 -0.2190
  608TMC3    C5 9062   2.893   1.494  11.906 -0.0923  0.6322  0.4595
  608TMC3    C6 9063   2.908   1.559  12.025  0.0580  0.7255 -0.0154
  608TMC3     C 9064   2.583   1.295  11.956 -0.3211 -0.1149 -0.4617
  608TMC3     O 9065   2.586   1.231  11.852 -0.4994  0.9139  0.3644
  608TMC3     H 9066   2.630   1.458  12.174  0.1387 -2.1271  0.2743
  608TMC3    H1 9067   2.782   1.352  11.794  1.1732  0.4826 -0.4741
  608TMC3    H2 9068   2.991   1.627  12.044 -0.5969  1.0118  1.8080
  608TMC3    C7 9069   2.981   1.519  11.796 -0.7230 -0.5385  0.4092
  608TMC3    C8 9070   2.882   1.530  12.251  0.2001 -0.1635  0.7980
  608TMC3    O1 9071   2.960   1.458  11.694  0.1356  0.4611  0.0648
  608TMC3    O2 9072   3.003   1.533  12.261  0.0249 -0.0252  0.4123
  609TMC3    C1 9073   0.709   4.206   9.283  0.2575 -0.3427 -0.1082
  609TMC3    C2 9074   0.682   4.320   9.210  0.4428  0.2237  0.1901
  609TMC3    C3 9075   0.765   4.359   9.108  0.6427  0.0034  0.0747
  609TMC3    C4 9076   0.818   4.120   9.252 -0.5515  0.2044 -0.8308
  609TMC3    C5 9077   0.895   4.160   9.142  0.1034  0.2136 -0.4796
  609TMC3    C6 9078   0.873   4.281   9.069 -1.1529  0.4056 -0.7040
  609TMC3     C 9079   0.628   4.183   9.404 -0.2692 -0.0328 -0.4013
  609TMC3     O 9080   0.559   4.270   9.449 -0.5658  0.1928 -0.2113
  609TMC3     H 9081   0.609   4.391   9.247  0.3879 -0.0016  0.5187
  609TMC3    H1 9082   0.854   4.046   9.322  0.8678  2.7066  1.1233
  609TMC3    H2 9083   0.927   4.306   8.979  0.3875 -1.0463 -0.1848
  609TMC3    C7 9084   0.981   4.052   9.090  0.2021  0.0950  0.1832
  609TMC3    C8 9085   0.730   4.474   9.035 -0.4323 -0.2030  0.8452
  609TMC3    O1 9086   0.955   3.951   9.154 -0.6191  0.0993  0.2159
  609TMC3    O2 9087   0.619   4.526   9.052 -0.5843 -0.2467  0.7031
  610TMC3    C1 9088   3.555   1.122  12.753 -0.6933  0.4720  0.2569
  610TMC3    C2 9089   3.490   1.165  12.645  0.1856  0.6488  0.1466
  610TMC3    C3 9090   3.389   1.080  12.600  0.4192  0.2223  0.0269
  610TMC3    C4 9091   3.524   1.016  12.827  0.2734  0.1360  0.5524
  610TMC3    C5 9092   3.409   0.950  12.795 -0.1077  0.3328 -1.0251
  610TMC3    C6 9093   3.340   0.984  12.680  0.0988 -0.3479  0.4816
  610TMC3     C 9094   3.675   1.193  12.786 -0.4839 -0.5284  0.2932
  610TMC3     O 9095   3.735   1.253  12.699 -0.0177 -0.0837  0.3363
  610TMC3     H 9096   3.526   1.252  12.591 -0.1992 -0.6490 -2.2019
  610TMC3    H1 9097   3.586   0.980  12.909  1.4904  0.1285 -0.3778
  610TMC3    H2 9098   3.257   0.926  12.642 -0.7207  1.4941 -0.5268
  610TMC3    C7 9099   3.370   0.841  12.883 -0.4307  0.2456 -0.1308
  610TMC3    C8 9100   3.300   1.132  12.497  0.1597 -0.0692  0.2394
  610TMC3    O1 9101   3.453   0.799  12.961 -0.1246  0.2132 -0.7951
  610TMC3    O2 9102   3.343   1.223  12.431 -1.0333 -0.2254 -0.1571
  611MPD2     C 9103   1.905   0.160  10.871 -0.1453 -0.3916  0.3208
  611MPD2    C1 9104   1.927   0.133  10.735 -1.3677 -0.3650  0.0271
  611MPD2    C2 9105   2.032   0.196  10.669  0.5525 -0.0345  0.0612
  611MPD2    C3 9106   2.101   0.301  10.733  0.5114  0.2749 -0.3559
  611MPD2    C4 9107   2.073   0.334  10.860 -0.0387 -0.1065 -0.1926
  611MPD2    C5 9108   1.973   0.269  10.925  0.3012 -0.2176 -0.1256
  611MPD2     H 9109   2.061   0.158  10.572  3.1646 -2.0215  1.6225
  611MPD2    H1 9110   2.133   0.404  10.917 -1.0003  1.4581 -1.1064
  611MPD2    H2 9111   1.833   0.105  10.930  1.4082 -0.7228  1.8849
  611MPD2    H3 9112   1.960   0.290  11.031  1.5389  1.7257 -0.3620
  611MPD2     N 9113   2.199   0.380  10.670 -0.0006  0.0377  0.5678
  611MPD2    H5 9114   2.235   0.457  10.726 -2.8426  0.5510  1.6931
  611MPD2    N1 9115   1.847   0.044  10.666 -1.1603  0.4850 -0.1099
  611MPD2    H7 9116   1.798   4.720  10.728  0.2342  1.1638  1.6590
  612TMC3    C1 9117   2.340   0.464  10.512  0.2599 -0.1548  0.6503
  612TMC3    C2 9118   2.405   0.527  10.614  0.5653 -1.3910  0.1049
  612TMC3    C3 9119   2.507   0.610  10.579 -0.0666  0.4030 -0.1425
  612TMC3    C4 9120   2.381   0.478  10.382  0.2039  0.3011  0.2042
  612TMC3    C5 9121   2.486   0.566  10.352 -0.1429 -0.0780 -0.5373
  612TMC3    C6 9122   2.552   0.628  10.451  0.3093  0.1551  0.7547
  612TMC3     C 9123   2.233   0.375  10.539  0.0710  0.0599 -0.1790
  612TMC3     O 9124   2.194   0.297  10.450  0.1798 -0.6994 -0.2096
  612TMC3     H 9125   2.376   0.529  10.718  2.8392  0.3727  0.7092
  612TMC3    H1 9126   2.318   0.432  10.307  0.1924 -0.2374  0.5469
  612TMC3    H2 9127   2.633   0.695  10.428  0.0414  0.4418  0.6478
  612TMC3    C7 9128   2.496   0.612  10.214  0.8399 -0.2321 -0.4164
  612TMC3    C8 9129   2.588   0.668  10.679 -0.2076  0.2259 -0.0108
  612TMC3    O1 9130   2.391   0.616  10.145 -0.1305  0.0145 -0.7510
  612TMC3    O2 9131   2.525   0.661  10.782  0.1267 -0.0387 -0.8336
  613MPD2     C 9132   1.673   2.806  16.747  0.2826 -0.6481  0.3327
  613MPD2    C1 9133   1.611   2.894  16.664  0.4823 -0.3971 -0.3262
  613MPD2    C2 9134   1.536   2.846  16.556 -0.4190 -0.3213  0.2671
  613MPD2    C3 9135   1.535   2.713  16.519  0.1746 -1.3209  0.7339
  613MPD2    C4 9136   1.604   2.622  16.601 -0.2660 -0.1849  0.1010
  613MPD2    C5 9137   1.674   2.665  16.710  0.0503  0.6045 -0.6716
  613MPD2     H 9138   1.481   2.915  16.494  2.1495  0.2511 -1.3642
  613MPD2    H1 9139   1.604   2.515  16.585  0.1505 -0.3652  1.2478
  613MPD2    H2 9140   1.736   2.842  16.828  1.2254  0.6556 -0.9839
  613MPD2    H3 9141   1.723   2.596  16.778 -1.1086 -0.4176 -0.8932
  613MPD2     N 9142   1.480   2.667  16.395 -0.5097 -0.3070 -0.3296
  613MPD2    H5 9143   1.483   2.568  16.374  1.4054 -0.2897 -0.1297
  613MPD2    N1 9144   1.618   3.027  16.704 -0.6146  0.2931 -0.0966
  613MPD2    H7 9145   1.645   3.037  16.802 -1.5955  0.3436  0.1700
  614TMC3    C1 9146   1.623   3.117  16.471  0.9123 -0.2542 -0.4532
  614TMC3    C2 9147   1.723   3.032  16.422 -0.4848  0.3243  0.1477
  614TMC3    C3 9148   1.763   3.039  16.294  0.6894  0.1346 -0.1976
  614TMC3    C4 9149   1.566   3.209  16.383 -0.1449  0.4887 -0.5562
  614TMC3    C5 9150   1.607   3.212  16.249 -0.4327 -0.5855  0.1266
  614TMC3    C6 9151   1.705   3.129  16.201 -0.4238 -0.4417 -0.7299
  614TMC3     C 9152   1.614   3.139  16.620 -0.2941 -0.0955  0.7633
  614TMC3     O 9153   1.617   3.256  16.654  0.0025  0.1770  0.2023
  614TMC3     H 9154   1.776   2.966  16.489  1.2279  0.5632 -0.9748
  614TMC3    H1 9155   1.491   3.283  16.410  0.2241  0.8001 -0.3894
  614TMC3    H2 9156   1.720   3.139  16.094  2.6878 -1.1107 -0.3766
  614TMC3    C7 9157   1.558   3.326  16.168 -0.3511  0.3246 -0.1816
  614TMC3    C8 9158   1.808   2.912  16.229  0.1958  0.0201 -0.1331
  614TMC3    O1 9159   1.534   3.426  16.233  0.3389  0.8536 -0.0094
  614TMC3    O2 9160   1.792   2.799  16.277 -0.1693 -0.1161  0.1574
  615MPD2     C 9161   1.015   4.224  15.501  0.1117 -0.1364  0.6679
  615MPD2    C1 9162   0.941   4.308  15.578  0.0361 -0.4757 -0.0646
  615MPD2    C2 9163   0.838   4.376  15.518 -0.1915 -0.0994 -0.5619
  615MPD2    C3 9164   0.806   4.361  15.385 -0.1914  0.4558 -0.0200
  615MPD2    C4 9165   0.892   4.286  15.309  0.3330 -0.3578  0.0634
  615MPD2    C5 9166   0.988   4.213  15.368 -0.0042 -0.0008  0.3339
  615MPD2     H 9167   0.781   4.441  15.584  0.2951  1.9751 -2.1961
  615MPD2    H1 9168   0.873   4.275  15.203  1.3971 -3.6704  0.2245
  615MPD2    H2 9169   1.095   4.161  15.536 -0.2197 -1.2058 -0.5125
  615MPD2    H3 9170   1.051   4.148  15.309 -0.0139  3.4888 -3.4370
  615MPD2     N 9171   0.704   4.435  15.318 -0.1270 -0.1642 -0.2019
  615MPD2    H5 9172   0.702   4.457  15.219  0.5828  1.1025  0.0787
  615MPD2    N1 9173   0.976   4.342  15.707  0.1743  0.3073  0.2054
  615MPD2    H7 9174   0.923   4.414  15.754 -1.2341 -1.5465  1.4694
  616TMC3    C1 9175   1.088   4.350  15.911  0.3052 -0.4705 -0.0707
  616TMC3    C2 9176   1.082   4.488  15.920  0.5042  0.7148  0.6561
  616TMC3    C3 9177   1.128   4.539  16.041 -0.4721 -0.2079 -0.2471
  616TMC3    C4 9178   1.140   4.269  16.003  0.9068 -0.4215  0.4844
  616TMC3    C5 9179   1.183   4.325  16.119  0.9005 -0.3111  0.2290
  616TMC3    C6 9180   1.168   4.459  16.148 -0.0827  0.1960 -0.3730
  616TMC3     C 9181   1.071   4.283  15.783  0.0225  0.0346 -0.5632
  616TMC3     O 9182   1.152   4.191  15.759 -0.5723 -0.7965 -0.0609
  616TMC3     H 9183   1.068   4.544  15.828 -1.2567  0.5290  0.8039
  616TMC3    H1 9184   1.159   4.164  15.983  1.0206 -0.6956  1.9947
  616TMC3    H2 9185   1.193   4.490  16.249 -2.4097 -1.4421  0.7239
  616TMC3    C7 9186   1.171   4.234  16.231 -0.2879 -0.0672  0.4127
  616TMC3    C8 9187   1.120   4.680  16.060 -0.6360  0.8697  0.7305
  616TMC3    O1 9188   1.124   4.281  16.334 -0.5243 -0.1885 -0.2470
  616TMC3    O2 9189   1.054   4.736  15.972  0.5334  0.3113 -0.6204
  617MPD2     C 9190   3.883   2.818  13.816  0.5442  0.1149 -0.5341
  617MPD2    C1 9191   3.894   2.750  13.940  0.4248  0.1247  0.1348
  617MPD2    C2 9192   3.774   2.715  14.008 -0.4009  0.0355 -0.4877
  617MPD2    C3 9193   3.656   2.758  13.953  0.0296  0.4151 -0.4026
  617MPD2    C4 9194   3.648   2.822  13.836 -0.3299 -0.0063 -0.0031
  617MPD2    C5 9195   3.765   2.848  13.764 -0.1481 -0.5495 -0.6741
  617MPD2     H 9196   3.783   2.682  14.111  1.5970  0.7330 -0.4291
  617MPD2    H1 9197   3.552   2.856  13.800 -0.0517  1.3924  0.5615
  617MPD2    H2 9198   3.971   2.852  13.763  1.0890 -0.2383  0.1536
  617MPD2    H3 9199   3.765   2.910  13.675 -1.8470 -2.1435 -1.7838
  617MPD2     N 9200   3.534   2.734  14.011 -0.5828  0.1530 -0.5902
  617MPD2    H5 9201   3.457   2.771  13.957  0.5354 -0.4951 -2.6154
  617MPD2    N1 9202   4.021   2.733  13.990 -0.1032 -0.6583  0.3304
  617MPD2    H7 9203   4.103   2.777  13.949  1.1890 -1.8760  1.6208
  618TMC3    C1 9204   4.191   2.642  14.111  0.4908  0.1339 -0.4001
  618TMC3    C2 9205   4.248   2.535  14.167 -0.2561  0.5388 -0.7163
  618TMC3    C3 9206   4.385   2.518  14.166  0.4735  0.0902 -0.0150
  618TMC3    C4 9207   4.272   2.736  14.045  0.0243  1.1968 -0.3405
  618TMC3    C5 9208   4.403   2.702  14.031 -0.0217  0.0574 -0.6151
  618TMC3    C6 9209   4.463   2.595  14.085 -0.4541  0.8435 -0.0354
  618TMC3     C 9210   4.049   2.656  14.098  0.0195 -0.1533  0.1295
  618TMC3     O 9211   3.977   2.582  14.162 -0.6293  0.6282 -0.2525
  618TMC3     H 9212   4.191   2.461  14.221  1.0978  1.3876  1.9076
  618TMC3    H1 9213   4.242   2.830  13.999 -2.8652  0.4240 -0.0240
  618TMC3    H2 9214   4.570   2.580  14.084 -0.7396 -1.0043 -1.9394
  618TMC3    C7 9215   4.431   2.708  13.891 -0.5257 -0.4061 -0.0769
  618TMC3    C8 9216   4.441   2.382  14.189 -0.1753 -0.2168  0.1350
  618TMC3    O1 9217   4.333   2.713  13.823  0.0116  0.5490 -0.7984
  618TMC3    O2 9218   4.395   2.316  14.285  0.4108  0.4097 -0.5865
  619MPD2     C 9219   0.709   4.216  14.007 -0.3627 -0.0349 -0.2147
  619MPD2    C1 9220   0.655   4.248  13.888 -0.2995 -0.2071  0.3436
  619MPD2    C2 9221   0.522   4.210  13.854 -0.4387 -0.5414 -0.0828
  619MPD2    C3 9222   0.445   4.165  13.955 -0.0463  0.1414  0.1890
  619MPD2    C4 9223   0.494   4.139  14.081  0.9767 -0.1224  0.4063
  619MPD2    C5 9224   0.623   4.163  14.110 -0.1445 -0.6715  0.1912
  619MPD2     H 9225   0.483   4.236  13.756  1.3234 -0.7146 -0.8230
  619MPD2    H1 9226   0.425   4.092  14.150  0.5734 -0.7527 -0.4387
  619MPD2    H2 9227   0.815   4.221  14.027 -0.4218  2.4425 -0.5367
  619MPD2    H3 9228   0.658   4.136  14.209  0.7850 -0.3503 -0.0502
  619MPD2     N 9229   0.316   4.114  13.936  0.0389 -0.1216 -0.4760
  619MPD2    H5 9230   0.260   4.084  14.015 -0.1096  1.1936 -0.0726
  619MPD2    N1 9231   0.726   4.316  13.787 -0.7650 -0.4400  0.2038
  619MPD2    H7 9232   0.677   4.335  13.700 -1.5671  0.7758  0.9261
  620TMC3    C1 9233   0.895   4.435  13.666  0.0856 -0.1775  0.3078
  620TMC3    C2 9234   0.823   4.399  13.561 -0.4332  0.1602 -0.1265
  620TMC3    C3 9235   0.787   4.494  13.475  0.7100 -0.1310  0.0557
  620TMC3    C4 9236   0.948   4.563  13.686 -0.0368  0.1527 -0.2127
  620TMC3    C5 9237   0.928   4.657  13.593  0.0711 -0.5149 -0.2063
  620TMC3    C6 9238   0.846   4.617  13.487 -0.4871  0.5327 -0.4049
  620TMC3     C 9239   0.849   4.371  13.794 -0.0284 -0.4430  0.2929
  620TMC3     O 9240   0.923   4.363  13.889 -0.1299 -0.4172  0.6535
  620TMC3     H 9241   0.786   4.297  13.546  2.6975 -0.7741 -1.4245
  620TMC3    H1 9242   0.998   4.597  13.776 -0.0798 -1.2673  0.3506
  620TMC3    H2 9243   0.817   4.688  13.411 -1.9652 -0.0996 -0.4445
  620TMC3    C7 9244   0.918   0.058  13.640  0.4678  0.2878  0.0414
  620TMC3    C8 9245   0.645   4.509  13.453  0.2307  0.0490 -0.1525
  620TMC3    O1 9246   0.982   0.099  13.739 -0.8353 -0.2487  0.0024
  620TMC3    O2 9247   0.591   4.619  13.472  0.3703  0.0431 -0.2139
  621MPD2     C 9248   0.783   3.230  10.483  0.2689 -0.1555 -0.3376
  621MPD2    C1 9249   0.812   3.247  10.347  0.6772  0.7172 -0.0419
  621MPD2    C2 9250   0.930   3.307  10.311  0.5594 -0.5549 -0.6341
  621MPD2    C3 9251   1.023   3.341  10.407 -0.1005  0.0299  0.6887
  621MPD2    C4 9252   0.996   3.311  10.542 -0.2123 -0.3046 -0.4830
  621MPD2    C5 9253   0.874   3.261  10.579  0.1052  0.5803  0.2475
  621MPD2     H 9254   0.955   3.330  10.208 -1.2161  0.3181 -0.8741
  621MPD2    H1 9255   1.060   3.332  10.626 -0.3649 -0.2808 -0.3723
  621MPD2    H2 9256   0.692   3.186  10.519 -0.9544  4.1088  1.8468
  621MPD2    H3 9257   0.850   3.239  10.682 -2.1798 -1.5576 -0.7505
  621MPD2     N 9258   1.142   3.414  10.372  0.3996 -0.1368 -0.6359
  621MPD2    H5 9259   1.215   3.425  10.441 -0.8751 -2.0095  1.0149
  621MPD2    N1 9260   0.730   3.207  10.240  0.2324 -0.5150 -0.5504
  621MPD2    H7 9261   0.752   3.238  10.146  1.9090 -2.0685 -0.6840
  622TMC3    C1 9262   0.528   3.143  10.138 -0.4031 -1.0267 -0.4072
  622TMC3    C2 9263   0.397   3.167  10.160 -0.2811  0.0121 -0.4662
  622TMC3    C3 9264   0.321   3.130  10.055 -0.3300 -0.6354 -0.8323
  622TMC3    C4 9265   0.587   3.100  10.023  0.0533 -0.2872 -0.0026
  622TMC3    C5 9266   0.504   3.111   9.919 -0.4149 -0.7829 -0.0535
  622TMC3    C6 9267   0.372   3.114   9.932  0.2009 -0.8971 -0.0096
  622TMC3     C 9268   0.607   3.151  10.260 -0.4251  0.2702 -0.3592
  622TMC3     O 9269   0.546   3.132  10.368  0.0520 -0.4010  0.0722
  622TMC3     H 9270   0.353   3.197  10.255  1.0616  1.4811 -0.3020
  622TMC3    H1 9271   0.695   3.109  10.014 -0.0701  3.2516  2.1329
  622TMC3    H2 9272   0.310   3.107   9.843  1.1358  0.3988 -0.7740
  622TMC3    C7 9273   0.567   3.178   9.809 -0.1366 -0.5077  0.8072
  622TMC3    C8 9274   0.180   3.102  10.082 -0.1382 -0.8210 -0.1749
  622TMC3    O1 9275   0.674   3.126   9.776 -0.6280 -0.2160  0.3816
  622TMC3    O2 9276   0.124   3.019  10.009  0.9880 -0.0303 -0.7461
  623MPD2     C 9277   4.195   4.399  16.081  0.1202 -0.1475  0.5356
  623MPD2    C1 9278   4.161   4.484  16.180  0.0461  0.0472 -0.0519
  623MPD2    C2 9279   4.254   4.559  16.247 -0.3506 -0.0280 -0.2044
  623MPD2    C3 9280   4.385   4.544  16.214  0.2849 -0.1708 -0.3047
  623MPD2    C4 9281   4.426   4.462  16.112 -0.0772  0.3823  0.0639
  623MPD2    C5 9282   4.326   4.387  16.052 -0.5538 -0.0181 -0.3630
  623MPD2     H 9283   4.226   4.631  16.322  1.9038  0.9986 -0.3471
  623MPD2    H1 9284   4.528   4.454  16.075  0.6285  0.8351  1.8740
  623MPD2    H2 9285   4.122   4.334  16.035 -0.2304 -0.4686  1.5317
  623MPD2    H3 9286   4.360   4.323  15.970 -0.3302 -1.0100  0.4934
  623MPD2     N 9287   4.470   4.623  16.291  0.1718 -0.6681 -0.3616
  623MPD2    H5 9288   4.430   4.681  16.365 -0.2030  2.9962 -3.4288
  623MPD2    N1 9289   4.027   4.515  16.210 -0.1293  0.4278 -0.2296
  623MPD2    H7 9290   4.015   4.599  16.266 -2.1636 -0.5739  0.8080
  624TMC3    C1 9291   4.698   0.005  16.608  0.0212 -0.2280  0.2252
  624TMC3    C2 9292   4.606   0.104  16.633 -0.5407 -0.2856 -0.1048
  624TMC3    C3 9293   4.510   0.139  16.538 -0.1046  0.6548  0.1340
  624TMC3    C4 9294   4.721   4.702  16.477 -0.9883  0.2510 -0.4937
  624TMC3    C5 9295   4.639   0.006  16.380  0.8936  0.8979 -0.3157
  624TMC3    C6 9296   4.538   0.096  16.411 -0.3421 -0.4708 -0.0396
  624TMC3     C 9297   0.042   4.706  16.719 -0.1530  0.5415  0.3666
  624TMC3     O 9298   0.041   0.029  16.820  0.0020  0.1058 -0.3963
  624TMC3     H 9299   4.585   0.126  16.737  0.7062  0.6901 -0.0602
  624TMC3    H1 9300   0.067   4.641  16.448  0.1380  1.4736  0.2688
  624TMC3    H2 9301   4.468   0.124  16.333  1.3202  1.4683 -0.8420
  624TMC3    C7 9302   4.602   4.646  16.280  0.0108  0.2083 -0.0279
  624TMC3    C8 9303   4.376   0.111  16.576  0.4200  0.6904 -0.2865
  624TMC3    O1 9304   4.692   4.591  16.220 -0.2048  0.1728 -0.1256
  624TMC3    O2 9305   4.310   0.048  16.495  0.2068 -0.5193 -0.0275
  625MPD2     C 9306   0.274   1.028   1.009 -0.2909  0.0554  0.1239
  625MPD2    C1 9307   0.261   1.097   0.893  0.6425  0.3746  0.7250
  625MPD2    C2 9308   0.376   1.130   0.825 -0.1607 -0.0001 -0.3260
  625MPD2    C3 9309   0.498   1.083   0.865 -0.2979  0.1960  0.4499
  625MPD2    C4 9310   0.503   0.997   0.972 -0.0991 -0.6193  0.2267
  625MPD2    C5 9311   0.393   0.967   1.045  0.0995  0.1263 -0.0083
  625MPD2     H 9312   0.366   1.188   0.734 -1.0403  0.0580 -0.1862
  625MPD2    H1 9313   0.599   0.969   1.016 -0.6118  2.7961  3.5560
  625MPD2    H2 9314   0.191   1.007   1.077 -1.3236 -0.0667 -1.1791
  625MPD2    H3 9315   0.402   0.918   1.141  2.2280  0.4676 -0.0219
  625MPD2     N 9316   0.613   1.121   0.788  0.2957  0.0786 -0.1477
  625MPD2    H5 9317   0.596   1.188   0.714  0.3494  1.2421  0.8942
  625MPD2    N1 9318   0.133   1.102   0.835 -0.7211  0.3860 -0.5016
  625MPD2    H7 9319   0.052   1.082   0.893 -0.9193  3.8135  0.3940
  626TMC3    C1 9320   4.696   1.138   0.692  0.4242 -0.4483  0.2239
  626TMC3    C2 9321   4.650   1.110   0.566  0.5166 -1.3433  0.3334
  626TMC3    C3 9322   4.516   1.108   0.549  0.0856 -0.0790  0.3514
  626TMC3    C4 9323   4.614   1.188   0.792  0.1545 -0.0742 -0.3803
  626TMC3    C5 9324   4.475   1.204   0.761 -0.2884  0.4202  0.2174
  626TMC3    C6 9325   4.424   1.149   0.644  0.0734 -0.3979  0.3593
  626TMC3     C 9326   0.102   1.129   0.711  0.2471 -0.3428  0.3738
  626TMC3     O 9327   0.165   1.120   0.610  0.0066  0.0999  0.1371
  626TMC3     H 9328   4.716   1.054   0.501 -1.9049 -1.3768 -2.0890
  626TMC3    H1 9329   4.663   1.237   0.875 -2.5783  0.3556  0.9759
  626TMC3    H2 9330   4.319   1.166   0.620 -0.0124  1.7525  2.3215
  626TMC3    C7 9331   4.400   1.273   0.854 -0.1778  0.4097  0.8759
  626TMC3    C8 9332   4.460   1.079   0.422  0.0674  0.7922 -0.3615
  626TMC3    O1 9333   4.467   1.323   0.947  0.2986  0.1241  0.9508
  626TMC3    O2 9334   4.351   1.029   0.432 -0.0167  0.1233 -0.1767
  627MPD2     C 9335   3.355   1.538  14.059  0.3515 -0.0372 -0.0275
  627MPD2    C1 9336   3.374   1.534  14.192 -0.2829 -0.3221 -1.1938
  627MPD2    C2 9337   3.289   1.460  14.278 -1.3920  0.2667 -0.5013
  627MPD2    C3 9338   3.178   1.397  14.222  1.1792  0.2094  0.3422
  627MPD2    C4 9339   3.157   1.403  14.086  0.1836  0.8492 -0.7341
  627MPD2    C5 9340   3.252   1.470  14.002  0.2007  0.6052 -0.3585
  627MPD2     H 9341   3.294   1.475  14.385 -2.6970 -1.7185 -0.1735
  627MPD2    H1 9342   3.078   1.342  14.044  0.6799  1.7688 -3.0256
  627MPD2    H2 9343   3.421   1.597  13.995  1.4694  1.0412  2.1380
  627MPD2    H3 9344   3.240   1.484  13.895  2.1907  0.6427 -0.5846
  627MPD2     N 9345   3.085   1.327  14.307 -0.2135 -0.0584 -0.2752
  627MPD2    H5 9346   3.115   1.312  14.402 -1.8010  0.9016  0.3836
  627MPD2    N1 9347   3.482   1.611  14.240 -0.4878 -0.1515 -0.4808
  627MPD2    H7 9348   3.552   1.644  14.174 -0.7490  0.9240 -0.2182
  628TMC3    C1 9349   3.611   1.746  14.380  0.5337 -0.3547 -0.0790
  628TMC3    C2 9350   3.727   1.684  14.350 -0.0769 -0.9170  0.0734
  628TMC3    C3 9351   3.844   1.719  14.417  1.0633 -0.3330  0.1364
  628TMC3    C4 9352   3.614   1.832  14.483  0.4207  0.2201 -0.4489
  628TMC3    C5 9353   3.734   1.866  14.549 -0.3710  0.2552  0.4315
  628TMC3    C6 9354   3.849   1.826  14.503  0.4869 -0.5923  0.0724
  628TMC3     C 9355   3.484   1.677  14.361  0.2099  0.5035 -0.2993
  628TMC3     O 9356   3.402   1.673  14.451 -0.4874  0.7552 -0.3898
  628TMC3     H 9357   3.713   1.600  14.283 -1.5340 -0.2363 -0.4574
  628TMC3    H1 9358   3.518   1.870  14.514 -1.3893 -3.3683 -1.6129
  628TMC3    H2 9359   3.940   1.848  14.557  0.0200 -0.5023  0.8281
  628TMC3    C7 9360   3.727   1.992  14.628  0.0382  0.6969  0.2450
  628TMC3    C8 9361   3.959   1.649  14.369  0.4163 -0.1759  0.2001
  628TMC3    O1 9362   3.810   2.017  14.718  0.5040  0.3655 -0.5232
  628TMC3    O2 9363   3.947   1.589  14.266 -0.1680 -0.1041  0.3583
  629MPD2     C 9364   1.185   0.365  16.351 -0.1995 -0.1576 -0.0024
  629MPD2    C1 9365   1.287   0.283  16.373 -0.1325 -0.4465  0.2786
  629MPD2    C2 9366   1.279   0.158  16.313  0.0795  0.5938 -0.4013
  629MPD2    C3 9367   1.184   0.128  16.215  0.3387 -0.7712  0.2696
  629MPD2    C4 9368   1.085   0.219  16.187  0.1241  0.2637  0.8551
  629MPD2    C5 9369   1.089   0.331  16.259  0.3887 -0.2136  0.5764
  629MPD2     H 9370   1.359   0.089  16.336  1.3916  2.3072  0.2578
  629MPD2    H1 9371   0.997   0.211  16.124 -0.3058 -2.1001  1.7360
  629MPD2    H2 9372   1.187   0.464  16.396  0.9616 -1.0478  1.9000
  629MPD2    H3 9373   1.018   0.409  16.235 -0.5851 -0.2409  3.3094
  629MPD2     N 9374   1.182   4.733  16.173 -0.0023  0.2205 -0.4607
  629MPD2    H5 9375   1.255   4.673  16.211 -0.9438  0.3578  1.5605
  629MPD2    N1 9376   1.390   0.319  16.467 -0.1849 -0.0187 -0.1260
  629MPD2    H7 9377   1.391   0.412  16.508  2.4526  1.2326 -2.9959
  630TMC3    C1 9378   1.568   0.296  16.614  0.3988  0.5409  0.9325
  630TMC3    C2 9379   1.659   0.399  16.590  0.6138  0.2181  0.1758
  630TMC3    C3 9380   1.762   0.414  16.673  0.0283  0.2730 -0.4824
  630TMC3    C4 9381   1.584   0.198  16.714  0.8752 -0.4979 -0.4406
  630TMC3    C5 9382   1.687   0.228  16.802  0.2125  0.2072  0.0451
  630TMC3    C6 9383   1.770   0.333  16.784 -0.4066 -0.7580 -0.1143
  630TMC3     C 9384   1.494   0.239  16.511  0.0923  0.8221 -0.2185
  630TMC3     O 9385   1.516   0.121  16.490  0.5738  0.1938 -0.4955
  630TMC3     H 9386   1.648   0.449  16.494  0.3337 -1.0430 -0.4475
  630TMC3    H1 9387   1.507   0.123  16.728 -1.5581  2.0245 -0.4214
  630TMC3    H2 9388   1.835   0.371  16.862 -1.2088  1.3739 -0.4765
  630TMC3    C7 9389   1.713   0.134  16.913 -0.6717  0.2002 -0.7443
  630TMC3    C8 9390   1.892   0.481  16.642  0.8236  0.2699 -0.4732
  630TMC3    O1 9391   1.625   0.052  16.933 -0.5729  0.5086  0.2305
  630TMC3    O2 9392   1.983   0.432  16.708 -0.2181  0.4414 -0.9190
  631MPD2     C 9393   4.459   0.088  15.505 -0.1443 -0.0863  0.1927
  631MPD2    C1 9394   4.557   0.188  15.493 -0.1347  0.2452  0.2482
  631MPD2    C2 9395   4.688   0.145  15.465  0.3120 -0.6342 -0.1950
  631MPD2    C3 9396   4.712   0.016  15.424 -0.0368  0.0288  0.0706
  631MPD2    C4 9397   4.617   4.663  15.442  0.3171  0.2333 -0.0478
  631MPD2    C5 9398   4.496   4.696  15.485  0.3319  0.2510 -0.7423
  631MPD2     H 9399   0.029   0.215  15.442 -1.0913  1.4098  1.0482
  631MPD2    H1 9400   4.634   4.558  15.425 -0.9406 -0.2859  1.8179
  631MPD2    H2 9401   4.356   0.103  15.535  0.2076 -1.1238  1.8850
  631MPD2    H3 9402   4.429   4.614  15.509  2.1726 -0.9497  0.2788
  631MPD2     N 9403   0.093   4.723  15.362  0.6933 -0.1170  0.4020
  631MPD2    H5 9404   0.149   0.066  15.342 -1.3281  1.1575 -0.0597
  631MPD2    N1 9405   4.508   0.320  15.509 -0.5741  0.7288 -0.4686
  631MPD2    H7 9406   4.408   0.333  15.504 -0.8255 -1.1507 -0.4208
  632TMC3    C1 9407   4.502   0.559  15.505  0.0580 -0.6578  0.6071
  632TMC3    C2 9408   4.362   0.549  15.499  0.4036 -0.3113  0.3854
  632TMC3    C3 9409   4.313   0.649  15.413  0.3516  1.1199 -0.0775
  632TMC3    C4 9410   4.580   0.652  15.451  0.4194 -0.7063  0.8555
  632TMC3    C5 9411   4.524   0.740  15.359 -0.8096  0.2030  0.1647
  632TMC3    C6 9412   4.387   0.739  15.337  0.0369 -0.1042  0.5707
  632TMC3     C 9413   4.583   0.434  15.518 -0.7502 -0.7620  0.0307
  632TMC3     O 9414   4.707   0.433  15.524  0.0559 -0.0229  0.1501
  632TMC3     H 9415   4.304   0.484  15.564 -1.1765  0.5297 -0.1907
  632TMC3    H1 9416   4.688   0.646  15.462  0.2758 -1.5991  1.7801
  632TMC3    H2 9417   4.353   0.806  15.258  1.2789  1.7069  1.5599
  632TMC3    C7 9418   4.612   0.775  15.250  0.0379 -0.7310  0.5712
  632TMC3    C8 9419   4.164   0.648  15.411 -0.1824  0.0668  0.2309
  632TMC3    O1 9420   4.571   0.784  15.136  0.1202 -0.5640 -0.0060
  632TMC3    O2 9421   4.107   0.547  15.437  0.1567 -0.7264  0.3331
  633MPD2     C 9422   4.673   2.836  17.432 -0.4756 -0.4229 -0.0082
  633MPD2    C1 9423   4.668   2.781  17.305  0.2274 -0.6845 -1.1818
  633MPD2    C2 9424   4.648   2.644  17.290  0.3389 -1.1808 -0.1179
  633MPD2    C3 9425   4.632   2.561  17.402 -0.4900  0.3551 -0.7417
  633MPD2    C4 9426   4.646   2.617  17.528  0.1300 -0.1621  0.1753
  633MPD2    C5 9427   4.661   2.755  17.539 -0.1344  0.1975 -0.4565
  633MPD2     H 9428   4.660   2.604  17.190 -2.4159 -2.2587 -0.0346
  633MPD2    H1 9429   4.657   2.555  17.617  0.8384 -3.4414 -2.2117
  633MPD2    H2 9430   4.699   2.942  17.441  0.5892 -0.6472 -0.4062
  633MPD2    H3 9431   4.661   2.809  17.634  1.8936 -0.6006 -0.0228
  633MPD2     N 9432   4.635   2.421  17.399 -0.6354 -0.1040 -0.4150
  633MPD2    H5 9433   4.637   2.371  17.488  2.0477  1.7524  0.5759
  633MPD2    N1 9434   4.686   2.852  17.183 -0.6354 -0.7543  0.2800
  633MPD2    H7 9435   4.673   2.800  17.097 -1.3699  1.0821 -0.7137
  634TMC3    C1 9436   4.712   3.031  17.039 -0.0439 -0.1060  0.0655
  634TMC3    C2 9437   0.055   2.961  16.953 -0.1881 -0.1383 -0.5815
  634TMC3    C3 9438   0.086   3.009  16.831 -0.8390 -0.6073  0.0190
  634TMC3    C4 9439   4.657   3.153  17.007 -0.5739  0.5440 -0.7442
  634TMC3    C5 9440   4.678   3.195  16.877 -0.0538 -0.9211  0.0377
  634TMC3    C6 9441   0.013   3.117  16.786  0.7744  0.1723  0.0067
  634TMC3     C 9442   4.706   2.985  17.173  0.5368  0.1133  0.4649
  634TMC3     O 9443   4.680   3.069  17.259 -0.4535 -0.0563 -0.1877
  634TMC3     H 9444   0.111   2.877  16.993  0.7203  1.0296  0.5926
  634TMC3    H1 9445   4.587   3.195  17.078 -0.1221 -0.5531  0.3577
  634TMC3    H2 9446   0.030   3.165  16.691 -1.8946 -0.2999 -0.6899
  634TMC3    C7 9447   4.651   3.335  16.841 -0.0989 -0.0012 -0.1718
  634TMC3    C8 9448   0.164   2.921  16.738  0.3681 -0.4011 -0.3480
  634TMC3    O1 9449   4.691   3.369  16.728  0.3758  0.1530 -0.5332
  634TMC3    O2 9450   0.211   2.814  16.782 -0.0055 -0.3220  0.1912
  635TMC3    C1 9451   0.518   3.822   0.066  0.2722  0.0892 -0.5792
  635TMC3    C2 9452   0.403   3.750   0.068  0.2315  0.8139 -0.2289
  635TMC3    C3 9453   0.423   3.616   0.066 -0.7175 -0.2374  0.3975
  635TMC3    C4 9454   0.646   3.777   0.088  0.5100  0.1173 -0.1333
  635TMC3    C5 9455   0.654   3.641   0.069 -0.1971 -0.4103 -0.3258
  635TMC3    C6 9456   0.545   3.558   0.064  0.2060 -0.2606  0.4662
  635TMC3     C 9457   0.510   3.967   0.097 -0.9873 -0.5411  0.0676
  635TMC3     O 9458   0.598   4.014   0.173  0.3626  0.5607  0.1745
  635TMC3     H 9459   0.309   3.802   0.086 -0.8631 -1.1469 -0.2117
  635TMC3    H1 9460   0.723   3.853   0.088  0.4040  0.2254  0.0532
  635TMC3    H2 9461   0.553   3.450   0.066  2.8589 -0.1022 -1.6875
  635TMC3    C7 9462   0.786   3.580   0.043 -0.3430 -0.2691  0.0945
  635TMC3    C8 9463   0.309   3.540   0.014 -0.6232 -0.1562  0.7808
  635TMC3    O1 9464   0.795   3.460   0.068 -0.4198  0.1236 -0.2652
  635TMC3    O2 9465   0.216   3.604  17.722 -0.4594 -0.0283  0.3785
  636MPD2     C 9466   1.124   3.337  15.771  0.0885 -0.1739  0.1226
  636MPD2    C1 9467   1.118   3.317  15.907  0.1002  0.1850 -0.4532
  636MPD2    C2 9468   1.169   3.199  15.960 -0.2692 -0.1790 -0.3630
  636MPD2    C3 9469   1.208   3.091  15.880  0.1953  0.0616  0.7570
  636MPD2    C4 9470   1.196   3.112  15.746  0.2959 -0.7320  0.4434
  636MPD2    C5 9471   1.154   3.228  15.688  0.1740 -0.1656  0.0778
  636MPD2     H 9472   1.180   3.184  16.067 -2.2028  1.4127  0.0539
  636MPD2    H1 9473   1.218   3.033  15.675 -2.7291 -0.5565 -0.7031
  636MPD2    H2 9474   1.090   3.426  15.719 -0.4430  0.5400  1.6962
  636MPD2    H3 9475   1.153   3.244  15.581 -2.2529 -0.8109 -0.0012
  636MPD2     N 9476   1.253   2.969  15.935  0.8175 -0.1333 -0.0728
  636MPD2    H5 9477   1.271   2.979  16.035 -0.8388  4.6127 -0.2567
  636MPD2    N1 9478   1.079   3.415  16.002 -0.9648  0.0574 -0.0101
  636MPD2    H7 9479   1.081   3.386  16.099 -2.2212  2.3129  0.6794
  637TMC3    C1 9480   1.355   2.766  15.964  0.5224 -0.1516 -0.2730
  637TMC3    C2 9481   1.304   2.763  16.088  0.3969  0.2187 -0.6709
  637TMC3    C3 9482   1.380   2.679  16.172 -0.0567 -0.7684 -0.0376
  637TMC3    C4 9483   1.458   2.690  15.905 -0.7868  0.1926  0.1490
  637TMC3    C5 9484   1.517   2.605  15.995 -0.4689 -0.1265 -0.1595
  637TMC3    C6 9485   1.474   2.593  16.122  0.2012 -0.4749 -0.8453
  637TMC3     C 9486   1.295   2.858  15.870  0.0584  0.1355 -0.2102
  637TMC3     O 9487   1.300   2.833  15.751 -0.2255  0.3439 -0.0055
  637TMC3     H 9488   1.213   2.807  16.126  0.9080 -0.4721  1.3924
  637TMC3    H1 9489   1.484   2.692  15.800 -2.2381 -1.7100 -0.2537
  637TMC3    H2 9490   1.547   2.540  16.181 -2.9236 -1.3173  2.3099
  637TMC3    C7 9491   1.617   2.507  15.957  0.0461  1.1907 -0.0016
  637TMC3    C8 9492   1.421   2.745  16.294  0.1245  0.2399 -0.3192
  637TMC3    O1 9493   1.574   2.391  15.970  0.5867 -0.5722  0.3523
  637TMC3    O2 9494   1.400   2.866  16.291  0.4295  0.1945  0.1750
  638MPD2     C 9495   0.885   2.179  15.025 -0.5903 -0.1647  0.2628
  638MPD2    C1 9496   0.828   2.086  14.938 -0.1055  0.2953 -0.2800
  638MPD2    C2 9497   0.740   1.996  14.996 -0.0362 -0.0480  0.3005
  638MPD2    C3 9498   0.715   1.990  15.133  0.4949  0.5660 -0.3792
  638MPD2    C4 9499   0.768   2.088  15.211  0.0165 -0.0786 -0.4286
  638MPD2    C5 9500   0.841   2.193  15.157 -0.4556 -0.2234 -0.4004
  638MPD2     H 9501   0.710   1.911  14.936  0.8835 -1.6114  2.0576
  638MPD2    H1 9502   0.757   2.096  15.318  3.8035  0.3536 -0.0547
  638MPD2    H2 9503   0.954   2.249  14.979 -0.0265  0.5216  2.1210
  638MPD2    H3 9504   0.883   2.264  15.228 -2.2772 -0.4507  0.9268
  638MPD2     N 9505   0.653   1.867  15.174  0.0741  0.6486 -0.3716
  638MPD2    H5 9506   0.637   1.796  15.104 -1.7387 -2.0477  2.7807
  638MPD2    N1 9507   0.881   2.076  14.806 -0.3915  0.3600  0.9108
  638MPD2    H7 9508   0.958   2.138  14.782  1.2501 -1.5420  1.1818
  639TMC3    C1 9509   0.629   1.679  15.321 -0.1261  0.4438  0.6279
  639TMC3    C2 9510   0.569   1.616  15.218  0.3092 -0.1171 -0.2055
  639TMC3    C3 9511   0.607   1.488  15.184  0.3723  0.4494 -0.6791
  639TMC3    C4 9512   0.733   1.620  15.391  0.8330 -0.4946  0.5068
  639TMC3    C5 9513   0.768   1.491  15.354  0.1651  0.2039 -0.3098
  639TMC3    C6 9514   0.718   1.429  15.245  0.1317 -0.1512  0.2251
  639TMC3     C 9515   0.652   1.825  15.304 -0.1477 -0.0380 -0.1538
  639TMC3     O 9516   0.694   1.885  15.402  0.1576  0.4608  0.1233
  639TMC3     H 9517   0.494   1.670  15.161 -0.2792  0.4816  1.1213
  639TMC3    H1 9518   0.783   1.665  15.476 -0.1027  1.6762 -0.0798
  639TMC3    H2 9519   0.763   1.335  15.218  0.0730 -0.9699  3.0225
  639TMC3    C7 9520   0.900   1.442  15.414  0.7825  0.5461 -0.3187
  639TMC3    C8 9521   0.537   1.408  15.086 -0.4905 -0.1575  0.3998
  639TMC3    O1 9522   0.917   1.447  15.532  0.3910 -0.0502 -0.0700
  639TMC3    O2 9523   0.605   1.326  15.024 -0.0422 -0.5963 -0.0575
  640MPD2     C 9524   0.615   4.074  10.246 -0.1317  0.0944  0.4711
  640MPD2    C1 9525   0.626   4.190  10.173 -0.2559  0.9712  0.3772
  640MPD2    C2 9526   0.572   4.305  10.218  0.5218  0.3586 -0.1075
  640MPD2    C3 9527   0.514   4.313  10.347  0.0075  0.1485  0.1986
  640MPD2    C4 9528   0.500   4.202  10.423 -0.2898  0.3013  0.2548
  640MPD2    C5 9529   0.547   4.081  10.367 -0.3913  0.2231 -0.4660
  640MPD2     H 9530   0.580   4.396  10.159  2.5492  0.0444 -0.3356
  640MPD2    H1 9531   0.447   4.198  10.517 -2.6582 -2.8199 -1.1891
  640MPD2    H2 9532   0.649   3.978  10.207  2.9532  1.1682  0.5330
  640MPD2    H3 9533   0.532   3.989  10.422 -0.9647  2.0417  2.3974
  640MPD2     N 9534   0.466   4.432  10.402 -0.0271  0.4071  0.9022
  640MPD2    H5 9535   0.407   4.426  10.484  1.4302 -0.3615  1.8785
  640MPD2    N1 9536   0.696   4.178  10.049 -0.5637 -0.4174 -0.0174
  640MPD2    H7 9537   0.735   4.086  10.034 -0.9006 -0.5405 -0.1401
  641TMC3    C1 9538   0.803   4.236   9.848 -0.7033  0.0509 -0.0367
  641TMC3    C2 9539   0.833   4.105   9.816 -0.5166 -0.0990  0.0546
  641TMC3    C3 9540   0.900   4.081   9.699 -0.5218 -0.1915  0.0947
  641TMC3    C4 9541   0.839   4.336   9.762 -0.1679 -0.3933 -0.4649
  641TMC3    C5 9542   0.895   4.302   9.637  0.3302 -0.0742  0.1684
  641TMC3    C6 9543   0.934   4.180   9.611 -0.2221  0.2814  0.2502
  641TMC3     C 9544   0.714   4.275   9.956 -0.4243 -0.5947 -0.7318
  641TMC3     O 9545   0.673   4.389   9.955 -0.4503  0.1879  0.0218
  641TMC3     H 9546   0.804   4.016   9.871  2.3199  0.4579  2.4726
  641TMC3    H1 9547   0.830   4.440   9.791 -2.7645 -1.0806  1.1773
  641TMC3    H2 9548   0.990   4.158   9.521  1.8477  1.3664  1.2782
  641TMC3    C7 9549   0.908   4.415   9.546  0.0779  0.0997  0.1813
  641TMC3    C8 9550   0.940   3.943   9.653 -0.1997  0.3152 -0.4608
  641TMC3    O1 9551   0.831   4.511   9.557  0.6473 -0.1415  0.1588
  641TMC3    O2 9552   0.971   3.934   9.538 -0.2261 -0.3807  0.6276
  642TMC3    C1 9553   2.814   1.905  12.500 -0.4460 -0.7553  0.3148
  642TMC3    C2 9554   2.945   1.914  12.446 -0.1477 -0.3514  0.2460
  642TMC3    C3 9555   2.964   1.906  12.309 -0.0939 -0.7059  0.2768
  642TMC3    C4 9556   2.707   1.890  12.416  0.7822 -0.1533 -0.5802
  642TMC3    C5 9557   2.733   1.882  12.276 -0.1445  0.3149 -0.4941
  642TMC3    C6 9558   2.857   1.887  12.222 -0.3355 -0.1331 -0.5357
  642TMC3     C 9559   2.796   1.938  12.643 -0.1829  1.2668  0.7252
  642TMC3     O 9560   2.901   1.951  12.710  0.3942 -0.2452 -0.0168
  642TMC3     H 9561   3.030   1.920  12.513  0.5731 -1.8459 -0.5247
  642TMC3    H1 9562   2.612   1.867  12.463  1.0677 -0.0301  0.0577
  642TMC3    H2 9563   2.885   1.892  12.117  2.0106  0.1339  0.0823
  642TMC3    C7 9564   2.624   1.832  12.189 -0.2421  0.0860 -0.5184
  642TMC3    C8 9565   3.103   1.897  12.255 -0.2580  0.0708 -0.0245
  642TMC3    O1 9566   2.649   1.801  12.074 -0.2970  0.1622 -0.1524
  642TMC3    O2 9567   3.114   1.830  12.155 -0.0583 -0.6462  0.0771
  643TMC3    C1 9568   1.874   0.788   0.062  0.2406 -0.7129  0.3319
  643TMC3    C2 9569   1.736   0.804   0.057 -0.5133 -0.6281 -0.7533
  643TMC3    C3 9570   1.663   0.765  17.704 -0.1904  0.3667 -0.3860
  643TMC3    C4 9571   1.941   0.733  17.709  0.8323 -0.5932 -0.6051
  643TMC3    C5 9572   1.862   0.688  17.605 -0.1007 -0.6021 -0.7570
  643TMC3    C6 9573   1.724   0.692  17.603 -0.8134 -0.3409 -0.2680
  643TMC3     C 9574   1.927   0.878   0.159 -0.6179  0.5964 -0.3508
  643TMC3     O 9575   1.864   0.980   0.177  0.0632 -0.2559 -0.0082
  643TMC3     H 9576   1.686   0.851   0.141 -0.8148  0.7038 -1.6691
  643TMC3    H1 9577   2.047   0.754  17.711  0.5272  0.8724  0.0321
  643TMC3    H2 9578   1.664   0.654  17.521 -2.9491 -3.1226  2.5846
  643TMC3    C7 9579   1.916   0.731  17.477 -0.1920  0.0416 -0.0313
  643TMC3    C8 9580   1.565   0.858  17.633  0.1254 -0.8306 -0.3839
  643TMC3    O1 9581   1.841   0.764  17.385 -0.5034 -0.1594  0.7629
  643TMC3    O2 9582   1.494   0.813  17.547  0.8673  0.0452  0.3163
  644MPD2     C 9583   0.798   0.636   9.841 -0.2821  0.0896 -0.2507
  644MPD2    C1 9584   0.769   0.501   9.824  0.1034 -0.5770 -0.1546
  644MPD2    C2 9585   0.651   0.455   9.873  0.6236 -0.3574  0.6674
  644MPD2    C3 9586   0.564   0.540   9.942 -0.1814 -0.6090 -0.3746
  644MPD2    C4 9587   0.596   0.673   9.949 -0.0674  0.4355 -0.1752
  644MPD2    C5 9588   0.712   0.719   9.898  0.1751 -0.4483 -0.6400
  644MPD2     H 9589   0.628   0.351   9.893 -0.0301  0.1400  2.4905
  644MPD2    H1 9590   0.529   0.747   9.991 -0.0755  1.1035 -1.3703
  644MPD2    H2 9591   0.891   0.676   9.801 -0.3292 -0.7553 -1.2014
  644MPD2    H3 9592   0.731   0.825   9.911  0.9058 -0.7554  0.8282
  644MPD2     N 9593   0.458   0.481  10.015  0.5528  0.0233  0.7013
  644MPD2    H5 9594   0.456   0.380  10.009  0.3697 -0.0952  2.7255
  644MPD2    N1 9595   0.866   0.412   9.767  0.7485 -0.2970  0.5954
  644MPD2    H7 9596   0.962   0.441   9.751  1.0188  0.0553  2.8419
  645TMC3    C1 9597   0.268   0.474  10.168  0.6702 -0.4838 -0.0948
  645TMC3    C2 9598   0.221   0.519  10.285  0.2637 -0.5158 -0.3751
  645TMC3    C3 9599   0.117   0.452  10.337 -0.7759 -0.0929 -0.8398
  645TMC3    C4 9600   0.216   0.363  10.099  0.0279  0.0545 -0.3691
  645TMC3    C5 9601   0.106   0.301  10.156 -0.3362 -0.0567 -0.1446
  645TMC3    C6 9602   0.052   0.340  10.277 -0.5391  0.0619  0.1657
  645TMC3     C 9603   0.382   0.548  10.110 -0.1663 -0.1926 -0.1674
  645TMC3     O 9604   0.409   0.656  10.163  0.3142  0.2088  0.0175
  645TMC3     H 9605   0.267   0.603  10.336 -2.0538 -1.9134  4.0522
  645TMC3    H1 9606   0.242   0.334   9.998 -0.4949 -1.2988 -0.1224
  645TMC3    H2 9607   4.703   0.292  10.314 -0.2309 -1.1954 -0.6992
  645TMC3    C7 9608   0.027   0.197  10.090  0.3260 -1.1132  0.1465
  645TMC3    C8 9609   0.037   0.522  10.442  0.0767  0.3617 -0.0007
  645TMC3    O1 9610   4.705   0.115  10.159 -0.6850  0.3579  0.3247
  645TMC3    O2 9611   0.099   0.611  10.502  0.2018 -0.1564 -0.4745
  646MPD2     C 9612   1.006   0.689  14.673  0.1101  1.1205 -0.2922
  646MPD2    C1 9613   0.912   0.669  14.775 -0.1298 -0.0051  0.0085
  646MPD2    C2 9614   0.781   0.704  14.745  0.5332 -0.6426 -0.4655
  646MPD2    C3 9615   0.744   0.766  14.622 -0.0929 -0.0917  0.5001
  646MPD2    C4 9616   0.840   0.780  14.527 -0.0071  0.0714  0.2462
  646MPD2    C5 9617   0.972   0.750  14.551 -0.1520  0.3283  0.1208
  646MPD2     H 9618   0.699   0.681  14.813  1.7195  1.5378  1.6938
  646MPD2    H1 9619   0.813   0.825  14.432 -0.6703 -1.2184 -0.1909
  646MPD2    H2 9620   1.110   0.662  14.680 -0.1083  0.4769  0.4487
  646MPD2    H3 9621   1.046   0.745  14.472 -2.2181  0.6017 -1.7994
  646MPD2     N 9622   0.611   0.802  14.598 -0.2714 -1.2169 -0.3190
  646MPD2    H5 9623   0.539   0.777  14.665  1.5618  0.6449  2.3340
  646MPD2    N1 9624   0.956   0.603  14.894  0.0374 -0.6980  0.1579
  646MPD2    H7 9625   1.043   0.551  14.895  0.7459  0.4857  0.1347
  647TMC3    C1 9626   0.955   0.503  15.099  0.1360 -0.0684 -0.5558
  647TMC3    C2 9627   0.871   0.434  15.187  0.0020  0.0636  0.4328
  647TMC3    C3 9628   0.921   0.388  15.302 -0.6891 -0.9174 -0.0085
  647TMC3    C4 9629   1.086   0.534  15.138  0.3565 -0.2550 -0.2423
  647TMC3    C5 9630   1.133   0.483  15.256  0.0285  0.0489 -0.9396
  647TMC3    C6 9631   1.057   0.407  15.338 -0.2512 -0.4017  0.2488
  647TMC3     C 9632   0.889   0.589  15.008 -0.0293  0.6006  0.0755
  647TMC3     O 9633   0.775   0.627  15.040  0.1356  0.0590  0.0387
  647TMC3     H 9634   0.770   0.418  15.151  0.2580 -0.5248 -0.0146
  647TMC3    H1 9635   1.141   0.602  15.074  0.3488  0.2330  0.2773
  647TMC3    H2 9636   1.104   0.347  15.415  0.0576  1.0690  1.1944
  647TMC3    C7 9637   1.277   0.449  15.276 -0.0569  0.5722  0.3391
  647TMC3    C8 9638   0.864   0.266  15.362 -0.5511  0.2190 -0.1323
  647TMC3    O1 9639   1.310   0.433  15.396  0.0801  0.1736  0.8410
  647TMC3    O2 9640   0.874   0.256  15.487  0.0698  0.0213 -0.5604
  648TMC3    C1 9641   0.440   3.104  16.118 -0.3080 -0.4812 -0.7183
  648TMC3    C2 9642   0.521   3.010  16.045  0.6225  0.1460  0.1479
  648TMC3    C3 9643   0.473   2.977  15.922  0.1981  0.1179 -0.7816
  648TMC3    C4 9644   0.341   3.169  16.055 -0.4034 -0.4990 -0.5479
  648TMC3    C5 9645   0.311   3.144  15.921 -0.4930 -0.3945  0.1325
  648TMC3    C6 9646   0.371   3.044  15.854 -0.4171  0.0302  0.1200
  648TMC3     C 9647   0.439   3.103  16.265  0.2664  0.4031  0.2060
  648TMC3     O 9648   0.368   3.185  16.318 -0.5040 -0.2039  0.1494
  648TMC3     H 9649   0.616   2.977  16.085 -0.0141 -1.8955 -0.0737
  648TMC3    H1 9650   0.273   3.228  16.116  1.0961  1.3581 -0.6665
  648TMC3    H2 9651   0.333   3.008  15.759 -1.7858  1.0127  0.2880
  648TMC3    C7 9652   0.208   3.224  15.848  0.1793 -0.4742  0.1009
  648TMC3    C8 9653   0.526   2.861  15.852  0.0437  0.3918  0.4596
  648TMC3    O1 9654   0.156   3.190  15.744 -0.7035  0.1880 -0.0122
  648TMC3    O2 9655   0.517   2.864  15.728  0.2515  0.7876 -0.6219
  649TMC3    C1 9656   3.851   4.209  13.045  0.0064  0.0846 -0.6479
  649TMC3    C2 9657   3.942   4.195  12.948 -0.2254 -0.2155  0.3579
  649TMC3    C3 9658   4.056   4.120  12.973  0.0436 -0.7083  0.0577
  649TMC3    C4 9659   3.870   4.158  13.175 -0.2825  0.0024 -0.8246
  649TMC3    C5 9660   3.974   4.071  13.186 -0.2681  0.3241  0.2816
  649TMC3    C6 9661   4.078   4.061  13.096 -0.5592  0.5783  0.1712
  649TMC3     C 9662   3.707   4.233  13.016  0.0729 -0.0068 -0.4338
  649TMC3     O 9663   3.634   4.256  13.112 -0.1377 -0.5251 -0.3201
  649TMC3     H 9664   3.938   4.254  12.857 -2.2671 -0.6697  0.1551
  649TMC3    H1 9665   3.787   4.160  13.244  0.4449  1.3861  0.0214
  649TMC3    H2 9666   4.161   3.997  13.120 -0.2532  0.7273 -0.4831
  649TMC3    C7 9667   3.968   3.984  13.298 -0.2235  0.0310  0.1925
  649TMC3    C8 9668   4.171   4.144  12.885  0.0062 -0.1253 -0.3123
  649TMC3    O1 9669   3.852   3.969  13.332  0.0375 -0.1332 -0.2953
  649TMC3    O2 9670   4.282   4.148  12.939  0.1595  0.6242  0.1252
  650TMC3    C1 9671   2.174   1.116  13.259  0.2834 -0.3057 -0.2144
  650TMC3    C2 9672   2.149   1.212  13.352 -0.0465 -0.2444  0.0119
  650TMC3    C3 9673   2.025   1.265  13.355 -0.5006 -0.0784  0.3075
  650TMC3    C4 9674   2.076   1.084  13.169  0.4535  0.2771  0.2406
  650TMC3    C5 9675   1.954   1.147  13.169 -0.2172 -0.0472 -0.7565
  650TMC3    C6 9676   1.918   1.235  13.269  0.2987  0.2558  0.0124
  650TMC3     C 9677   2.310   1.066  13.241  0.2898 -1.1674 -0.8022
  650TMC3     O 9678   2.391   1.137  13.297 -0.1505  1.0000  0.5772
  650TMC3     H 9679   2.224   1.256  13.416 -0.2866  0.8907 -0.4836
  650TMC3    H1 9680   2.103   1.026  13.081 -1.0611  0.6187 -0.4348
  650TMC3    H2 9681   1.819   1.278  13.260  0.0195 -0.1384  1.3025
  650TMC3    C7 9682   1.893   1.142  13.045  0.7077  0.0748  0.7466
  650TMC3    C8 9683   2.034   1.404  13.369 -1.5904  0.1768 -0.0094
  650TMC3    O1 9684   1.891   1.036  12.984  0.1264 -0.0535 -0.1566
  650TMC3    O2 9685   2.127   1.465  13.321  0.2608 -0.1929 -0.0776
  651MPD2     C 9686   0.425   2.518  10.589  0.1747  0.3316 -0.2578
  651MPD2    C1 9687   0.400   2.587  10.709 -0.0281  0.0753 -0.9607
  651MPD2    C2 9688   0.512   2.614  10.785  0.1712  0.1327  0.0455
  651MPD2    C3 9689   0.644   2.571  10.755  0.3185 -0.2631 -0.3142
  651MPD2    C4 9690   0.663   2.514  10.629 -0.9298  0.1781 -0.2651
  651MPD2    C5 9691   0.555   2.486  10.553  0.1507  0.4994 -0.7140
  651MPD2     H 9692   0.498   2.664  10.880 -1.5335 -0.1650 -0.0421
  651MPD2    H1 9693   0.761   2.497  10.586 -0.6145  1.0543  0.1220
  651MPD2    H2 9694   0.345   2.490  10.521 -1.5377  0.1606  1.8013
  651MPD2    H3 9695   0.572   2.446  10.454  0.1687  0.5327 -0.7243
  651MPD2     N 9696   0.746   2.597  10.849  0.2014 -0.7341  0.3192
  651MPD2    H5 9697   0.728   2.626  10.944  0.6588  2.9884 -0.7084
  651MPD2    N1 9698   0.275   2.629  10.759  0.4293 -0.2127 -0.7494
  651MPD2    H7 9699   0.288   2.692  10.838 -0.2793  1.5357 -2.0221
  652TMC3    C1 9700   1.182   2.560  11.021  0.1715 -0.0967  0.9698
  652TMC3    C2 9701   1.086   2.531  10.926 -0.1999 -0.1166  0.4529
  652TMC3    C3 9702   0.960   2.581  10.940 -0.4598 -0.4513  0.2859
  652TMC3    C4 9703   1.152   2.638  11.127  0.1471 -0.2586  0.5413
  652TMC3    C5 9704   1.026   2.687  11.132 -0.5328 -0.0171 -0.0691
  652TMC3    C6 9705   0.926   2.661  11.045  0.4576 -1.1428 -0.9731
  652TMC3     C 9706   1.317   2.537  10.979 -0.6367  0.0098 -0.9294
  652TMC3     O 9707   1.347   2.434  10.923 -0.0594  0.1402 -0.2779
  652TMC3     H 9708   1.118   2.471  10.842 -0.8464 -0.3397  0.3665
  652TMC3    H1 9709   1.231   2.659  11.199 -0.0047 -0.0379  0.6424
  652TMC3    H2 9710   0.830   2.711  11.046  1.3868  0.6188  0.9550
  652TMC3    C7 9711   1.003   2.783  11.232 -0.5993 -0.3947 -0.2075
  652TMC3    C8 9712   0.876   2.560  10.824  0.4854 -0.7338 -0.4025
  652TMC3    O1 9713   0.901   2.792  11.296  0.4810  0.5704 -0.3066
  652TMC3    O2 9714   0.932   2.514  10.725 -0.4897 -0.3290 -0.3879
  653MPD2     C 9715   4.448   2.887   0.027 -0.2885  0.5564 -0.7471
  653MPD2    C1 9716   4.440   2.990  17.693  0.3036  0.2788 -0.2145
  653MPD2    C2 9717   4.393   2.966  17.563 -0.6128 -0.3532  1.3425
  653MPD2    C3 9718   4.345   2.841  17.525  0.0515  0.0642 -0.1688
  653MPD2    C4 9719   4.343   2.742  17.625  0.7390  0.0608 -0.7654
  653MPD2    C5 9720   4.398   2.766  17.750 -0.2161  0.9047 -1.0924
  653MPD2     H 9721   4.410   3.042  17.488 -3.1468 -0.1283  0.9936
  653MPD2    H1 9722   4.316   2.638  17.606  1.1955  0.1785 -2.1148
  653MPD2    H2 9723   4.496   2.898   0.124  0.6051  0.2132 -1.1580
  653MPD2    H3 9724   4.391   2.682   0.062 -0.5533  1.7869 -0.0636
  653MPD2     N 9725   4.299   2.826  17.393 -0.2985  0.3447 -0.5514
  653MPD2    H5 9726   4.280   2.911  17.341 -0.7127  0.6732  0.1404
  653MPD2    N1 9727   4.481   3.120  17.732  0.0509  0.7762 -0.3354
  653MPD2    H7 9728   4.453   3.198  17.673 -3.0206  1.1213  1.6094
  654TMC3    C1 9729   4.241   2.716  17.195 -0.3131  0.6433  0.6329
  654TMC3    C2 9730   4.140   2.805  17.157 -0.0072  0.0095 -0.1399
  654TMC3    C3 9731   4.078   2.776  17.044  0.4208  1.0104 -0.0430
  654TMC3    C4 9732   4.273   2.601  17.131 -1.0944 -0.4557 -0.2998
  654TMC3    C5 9733   4.208   2.580  17.013 -0.1045 -0.4964 -0.5190
  654TMC3    C6 9734   4.110   2.666  16.967  0.4603 -0.2373  0.1175
  654TMC3     C 9735   4.279   2.703  17.336 -0.4410 -0.5881 -0.3041
  654TMC3     O 9736   4.299   2.594  17.383 -0.5504  0.2684  0.5615
  654TMC3     H 9737   4.121   2.894  17.216  0.8232  1.3417 -1.8941
  654TMC3    H1 9738   4.354   2.535  17.159 -0.1129  0.1962 -1.6039
  654TMC3    H2 9739   4.057   2.652  16.873 -0.1952  1.2318  0.2670
  654TMC3    C7 9740   4.214   2.456  16.943 -0.7453 -0.1048  0.0570
  654TMC3    C8 9741   3.967   2.867  16.999  0.6052  0.6140 -0.3956
  654TMC3    O1 9742   4.163   2.431  16.834  0.6316 -0.3344  0.4888
  654TMC3    O2 9743   3.897   2.928  17.077  0.0429 -0.0581 -0.3037
  655MPD2     C 9744   0.735   3.322  15.831  0.1295  0.1969 -0.1740
  655MPD2    C1 9745   0.619   3.378  15.790  0.6190  0.2041 -0.0450
  655MPD2    C2 9746   0.538   3.320  15.692  1.2943  0.2225 -0.5575
  655MPD2    C3 9747   0.566   3.195  15.642  0.0948  0.5623  0.1841
  655MPD2    C4 9748   0.685   3.141  15.682  0.6819 -0.0395 -0.0815
  655MPD2    C5 9749   0.769   3.203  15.774  0.2656  0.0960 -0.0978
  655MPD2     H 9750   0.456   3.376  15.651  0.2540 -1.6457 -1.0088
  655MPD2    H1 9751   0.731   3.058  15.630 -0.0136 -0.8857  0.6574
  655MPD2    H2 9752   0.802   3.368  15.903  1.7803  0.2093 -1.7101
  655MPD2    H3 9753   0.865   3.156  15.794 -1.0317 -2.4087  0.3422
  655MPD2     N 9754   0.510   3.134  15.527 -0.9987  0.7561 -0.2498
  655MPD2    H5 9755   0.557   3.057  15.481 -0.2819  0.0385  1.7187
  655MPD2    N1 9756   0.589   3.511  15.830 -0.7653 -0.3487  0.2614
  655MPD2    H7 9757   0.513   3.555  15.779 -0.5268  2.3503  2.1821
  656TMC3    C1 9758   0.573   3.701  15.965 -0.5966 -0.1892  0.7819
  656TMC3    C2 9759   0.511   3.733  16.080  0.4520 -0.4236  0.2598
  656TMC3    C3 9760   0.429   3.837  16.089 -0.1419 -0.7667  0.2003
  656TMC3    C4 9761   0.531   3.765  15.852  0.2563  0.1434  0.2771
  656TMC3    C5 9762   0.435   3.872  15.853  0.1682 -0.1041 -0.1187
  656TMC3    C6 9763   0.390   3.909  15.976  0.3477  0.1856  0.7952
  656TMC3     C 9764   0.616   3.564  15.956 -0.1480 -0.4229 -0.5710
  656TMC3     O 9765   0.675   3.511  16.048  0.0306  0.2384  0.9010
  656TMC3     H 9766   0.542   3.676  16.167 -1.4219 -1.5586  0.2002
  656TMC3    H1 9767   0.579   3.749  15.757  2.2207  1.4952  1.0214
  656TMC3    H2 9768   0.324   3.990  16.004  0.4736  0.8484 -0.8595
  656TMC3    C7 9769   0.342   3.887  15.738  0.8938 -0.6086  0.1144
  656TMC3    C8 9770   0.330   3.821  16.184  0.0159  0.3870 -0.6429
  656TMC3    O1 9771   0.393   3.855  15.634 -0.0811  0.2518  0.4505
  656TMC3    O2 9772   0.210   3.812  16.154  0.4825 -0.0081 -0.0566
  657TMC3    C1 9773   4.390   2.470  15.178  1.0678  0.6042  0.3148
  657TMC3    C2 9774   4.468   2.430  15.284  0.2151 -0.1855  0.2540
  657TMC3    C3 9775   4.422   2.481  15.402 -0.6548 -0.1304 -0.6440
  657TMC3    C4 9776   4.274   2.545  15.168 -0.3970  0.0504  0.7718
  657TMC3    C5 9777   4.241   2.592  15.294  0.6021  0.8014 -0.3570
  657TMC3    C6 9778   4.313   2.562  15.412 -0.6298 -0.0476  0.7198
  657TMC3     C 9779   4.444   2.444  15.044  0.2360 -0.3317 -0.6312
  657TMC3     O 9780   4.370   2.400  14.958  0.2670  0.1262  0.3457
  657TMC3     H 9781   4.549   2.360  15.266 -0.8922 -1.3615 -0.1535
  657TMC3    H1 9782   4.223   2.563  15.074  0.3786  0.9416  0.5282
  657TMC3    H2 9783   4.280   2.605  15.506  0.3303 -0.7564  1.3754
  657TMC3    C7 9784   4.105   2.653  15.305 -0.2358  0.8186 -0.2013
  657TMC3    C8 9785   4.502   2.478  15.521 -0.7866  0.5467  0.3467
  657TMC3    O1 9786   4.087   2.744  15.383 -0.2465  0.5378  0.4028
  657TMC3    O2 9787   4.473   2.550  15.617 -0.2423 -0.6698  0.0360
  658MPD2     C 9788   0.937   3.126  15.084 -0.7489 -0.5655  0.0254
  658MPD2    C1 9789   0.818   3.168  15.038 -0.5068  0.2486 -0.0296
  658MPD2    C2 9790   0.812   3.249  14.930 -0.1351 -0.3268 -1.0159
  658MPD2    C3 9791   0.932   3.277  14.869 -0.0164 -0.3758  0.2140
  658MPD2    C4 9792   1.053   3.221  14.904  0.1146  0.1909  0.7144
  658MPD2    C5 9793   1.058   3.152  15.022  0.0626 -0.5802 -0.0701
  658MPD2     H 9794   0.719   3.290  14.893  0.7794  2.4325 -0.2104
  658MPD2    H1 9795   1.146   3.237  14.850  1.2231 -0.8935  2.2902
  658MPD2    H2 9796   0.933   3.050  15.162 -0.0275 -2.2299 -1.5684
  658MPD2    H3 9797   1.150   3.109  15.059  0.2137  0.2249  0.4907
  658MPD2     N 9798   0.925   3.355  14.751 -0.1570 -0.8423 -0.2007
  658MPD2    H5 9799   0.828   3.376  14.727 -0.1438 -0.3685  0.1669
  658MPD2    N1 9800   0.710   3.115  15.109  0.1562  0.1390  0.3632
  658MPD2    H7 9801   0.726   3.050  15.185 -1.0780 -1.7268 -0.9607
  659TMC3    C1 9802   0.476   3.067  15.143 -0.6971  0.7984  0.4236
  659TMC3    C2 9803   0.487   3.094  15.275  0.1527 -1.1676  0.0438
  659TMC3    C3 9804   0.376   3.120  15.343  0.3178 -1.0880  0.2067
  659TMC3    C4 9805   0.359   3.047  15.074 -0.7490  0.1593 -0.1351
  659TMC3    C5 9806   0.244   3.082  15.152  0.0039 -0.0816  0.3052
  659TMC3    C6 9807   0.254   3.120  15.281 -0.2656 -0.5957 -0.3952
  659TMC3     C 9808   0.583   3.116  15.063  0.4000  0.0714  0.2770
  659TMC3     O 9809   0.546   3.148  14.951 -0.1659 -0.5620 -0.2193
  659TMC3     H 9810   0.580   3.135  15.314  0.4292 -1.5995 -0.1588
  659TMC3    H1 9811   0.346   3.016  14.971 -0.4286 -0.3341 -0.0266
  659TMC3    H2 9812   0.173   3.177  15.326 -0.6250 -1.1961 -0.2879
  659TMC3    C7 9813   0.111   3.061  15.098 -0.0646  0.8249 -0.7190
  659TMC3    C8 9814   0.394   3.180  15.469 -0.5563 -0.0295  0.1403
  659TMC3    O1 9815   0.018   3.118  15.148 -0.4124  0.7110 -0.4774
  659TMC3    O2 9816   0.317   3.267  15.511  0.3451 -0.0900  0.3689
  660MPD2     C 9817   3.638   2.475  12.948  0.7107  0.1633  0.5347
  660MPD2    C1 9818   3.655   2.358  12.878 -1.1283 -0.1511 -0.3880
  660MPD2    C2 9819   3.589   2.241  12.916 -0.1560  0.8236  0.7230
  660MPD2    C3 9820   3.511   2.234  13.029  0.3854  0.4821 -0.2125
  660MPD2    C4 9821   3.490   2.350  13.098  0.2299 -0.0997  0.6987
  660MPD2    C5 9822   3.554   2.467  13.055  0.6123 -0.2653 -0.5759
  660MPD2     H 9823   3.597   2.158  12.847 -2.0222  2.3740 -1.3906
  660MPD2    H1 9824   3.418   2.349  13.179 -1.5289 -0.4349 -0.8640
  660MPD2    H2 9825   3.695   2.566  12.929  1.0563 -0.5431 -1.8670
  660MPD2    H3 9826   3.530   2.559  13.108  0.3215  0.6976 -2.3552
  660MPD2     N 9827   3.437   2.110  13.059 -0.1659 -0.2694 -0.5386
  660MPD2    H5 9828   3.372   2.117  13.136  0.5832 -1.8710  0.2365
  660MPD2    N1 9829   3.710   2.362  12.749 -0.1262  0.0146  0.2465
  660MPD2    H7 9830   3.715   2.455  12.708  2.3166 -0.2003  0.0585
  661TMC3    C1 9831   3.770   2.275  12.534  0.4209  0.3539  0.3832
  661TMC3    C2 9832   3.849   2.182  12.470 -0.3316  0.1198  0.0018
  661TMC3    C3 9833   3.813   2.142  12.348 -0.1856  0.5280 -0.5643
  661TMC3    C4 9834   3.671   2.346  12.473  0.3337 -0.3114 -0.2915
  661TMC3    C5 9835   3.637   2.306  12.340  0.9099  0.2014 -0.3059
  661TMC3    C6 9836   3.708   2.202  12.285  0.3452  0.9105  0.0515
  661TMC3     C 9837   3.746   2.253  12.675 -0.0366  0.3468 -0.0804
  661TMC3     O 9838   3.761   2.137  12.715  0.3926  0.2598  0.3983
  661TMC3     H 9839   3.930   2.133  12.525 -0.3555  1.3587  1.1421
  661TMC3    H1 9840   3.609   2.411  12.533  0.2863 -2.4684  1.9656
  661TMC3    H2 9841   3.671   2.160  12.192 -1.2756  4.0846 -0.7237
  661TMC3    C7 9842   3.493   2.316  12.307  0.9770  0.4655  0.3056
  661TMC3    C8 9843   3.902   2.066  12.275 -0.0564  0.3982  0.8932
  661TMC3    O1 9844   3.429   2.384  12.390 -0.3963  0.3981  0.1839
  661TMC3    O2 9845   3.985   2.009  12.340  0.0794  0.2903  0.0961
  662MPD2     C 9846   4.091   1.500  17.058 -0.1049  0.6698 -0.5992
  662MPD2    C1 9847   4.025   1.455  17.165  0.3012  0.0195 -0.0627
  662MPD2    C2 9848   3.896   1.497  17.194 -0.1765  0.3158 -0.0880
  662MPD2    C3 9849   3.830   1.581  17.102 -0.5688 -0.2234  0.4908
  662MPD2    C4 9850   3.900   1.634  16.998 -0.1711  0.4690  0.0332
  662MPD2    C5 9851   4.034   1.594  16.982 -0.1921 -0.3359 -0.7084
  662MPD2     H 9852   3.840   1.467  17.281  1.7563  0.5970  1.2707
  662MPD2    H1 9853   3.863   1.709  16.929 -0.3343 -0.8511 -1.3348
  662MPD2    H2 9854   4.190   1.462  17.036  0.1700  1.4580 -0.7413
  662MPD2    H3 9855   4.083   1.635  16.894 -0.4200 -1.0417 -1.1638
  662MPD2     N 9856   3.696   1.628  17.121  0.1451  0.7059 -0.0716
  662MPD2    H5 9857   3.671   1.714  17.073 -1.3531  0.3819  0.1383
  662MPD2    N1 9858   4.075   1.350  17.247  0.2024  0.0260 -0.5011
  662MPD2    H7 9859   4.025   1.321  17.331  2.6061 -1.0078  0.5664
  663TMC3    C1 9860   4.153   1.138  17.272  0.1964 -0.1739 -0.2888
  663TMC3    C2 9861   4.102   1.148  17.399  0.2542 -0.8043  0.5490
  663TMC3    C3 9862   4.011   1.062  17.452 -0.2719  0.2101 -0.2245
  663TMC3    C4 9863   4.085   1.053  17.192  0.8018  0.0264  0.5628
  663TMC3    C5 9864   3.984   0.982  17.242  0.7248 -0.7431  0.4157
  663TMC3    C6 9865   3.956   0.974  17.376 -0.0552 -0.2004  0.8331
  663TMC3     C 9866   4.176   1.263  17.208 -0.8149  0.2217  0.0075
  663TMC3     O 9867   4.256   1.264  17.114 -0.7702  0.4500  0.4026
  663TMC3     H 9868   4.161   1.210  17.465  1.8076 -0.7344 -0.9304
  663TMC3    H1 9869   4.089   1.074  17.086 -0.9778 -0.4818  0.3943
  663TMC3    H2 9870   3.849   0.963  17.391 -0.3406 -1.8933 -2.3607
  663TMC3    C7 9871   3.929   0.879  17.157 -0.4742  1.3349  0.4357
  663TMC3    C8 9872   3.922   1.150  17.517  0.2313 -0.5873  0.6828
  663TMC3    O1 9873   3.929   0.885  17.036  0.4708  0.2698 -0.1896
  663TMC3    O2 9874   3.964   1.265  17.537  0.2832 -0.0951 -0.1875
  664MPD2     C 9875   1.109   4.283  17.449 -0.4885  0.4745 -0.0906
  664MPD2    C1 9876   1.237   4.338  17.465 -0.1159 -0.2217 -0.0788
  664MPD2    C2 9877   1.310   4.304  17.579  0.0360  0.4584  0.2056
  664MPD2    C3 9878   1.267   4.214  17.669  0.3213  0.4761  0.3493
  664MPD2    C4 9879   1.142   4.162  17.655  1.4691  0.0373  0.5669
  664MPD2    C5 9880   1.070   4.194  17.547 -0.0293  0.3820  0.2970
  664MPD2     H 9881   1.409   4.343  17.597  0.4964 -1.7952  2.5094
  664MPD2    H1 9882   1.087   4.091  17.716  1.9967 -1.1972 -0.3885
  664MPD2    H2 9883   1.054   4.302  17.357 -1.0032  1.1323  0.3533
  664MPD2    H3 9884   0.982   4.132  17.532 -0.6361  1.1253  0.7620
  664MPD2     N 9885   1.345   4.205   0.028  0.7900 -0.1071  1.6345
  664MPD2    H5 9886   1.431   4.260   0.032  0.0999  1.1734 -1.7055
  664MPD2    N1 9887   1.312   4.414  17.371  0.3491 -0.3684  0.9463
  664MPD2    H7 9888   1.413   4.413  17.382  0.6813  1.6413 -1.8126
  665TMC3    C1 9889   1.473   4.109   0.192 -0.6209  0.1041 -0.1859
  665TMC3    C2 9890   1.476   4.072   0.321  0.0116  0.5284 -0.5222
  665TMC3    C3 9891   1.560   4.141   0.411 -0.0749  0.3661 -0.4143
  665TMC3    C4 9892   1.562   4.206   0.158 -0.1669  0.4494 -0.4812
  665TMC3    C5 9893   1.636   4.278   0.247 -0.0522 -0.3902 -0.5757
  665TMC3    C6 9894   1.639   4.249   0.377 -0.1774  0.3341 -0.3848
  665TMC3     C 9895   1.344   4.103   0.118 -0.4008  0.0384 -0.8608
  665TMC3     O 9896   1.267   4.018   0.146  0.1521 -0.1906  0.4765
  665TMC3     H 9897   1.414   3.989   0.351 -0.6833  0.9820 -0.7174
  665TMC3    H1 9898   1.570   4.227   0.052  0.5720  1.5272 -0.2157
  665TMC3    H2 9899   1.678   4.317   0.452 -1.7375  0.6655  0.1170
  665TMC3    C7 9900   1.644   4.419   0.208 -0.2878  0.2198  0.7452
  665TMC3    C8 9901   1.557   4.114   0.557 -0.0082  0.3730 -0.6769
  665TMC3    O1 9902   1.585   4.444   0.105 -0.3964 -0.5225 -0.4956
  665TMC3    O2 9903   1.641   4.173   0.628 -0.2612 -0.1510  0.6025
  666TMC3    C1 9904   1.295   3.545  10.259  0.2755 -0.7224 -0.2979
  666TMC3    C2 9905   1.401   3.502  10.334  0.3952  0.0399  0.5865
  666TMC3    C3 9906   1.504   3.589  10.353  1.0201 -0.3888 -0.3434
  666TMC3    C4 9907   1.292   3.672  10.204 -1.2195  0.0965 -0.5961
  666TMC3    C5 9908   1.398   3.758  10.226 -0.0783 -1.1770 -0.6700
  666TMC3    C6 9909   1.504   3.717  10.301  1.0335 -0.4242 -0.1989
  666TMC3     C 9910   1.166   3.482  10.255 -0.3868 -0.6043  0.2975
  666TMC3     O 9911   1.079   3.523  10.178  0.6007  0.1199 -0.5452
  666TMC3     H 9912   1.401   3.406  10.384 -2.4220  0.5499  1.5418
  666TMC3    H1 9913   1.208   3.718  10.154 -1.4133 -0.7357 -1.0218
  666TMC3    H2 9914   1.576   3.792  10.331  0.0139  0.7748 -0.7387
  666TMC3    C7 9915   1.354   3.895  10.239  0.1858 -0.1183  0.7808
  666TMC3    C8 9916   1.567   3.579  10.488 -0.1587 -0.1947  1.0496
  666TMC3    O1 9917   1.272   3.916  10.325 -0.1903 -0.3396 -0.3445
  666TMC3    O2 9918   1.519   3.503  10.572  0.6465  0.1838  0.3967
  667MPD2     C 9919   2.753   4.721  14.573 -0.1562 -0.1715 -0.1371
  667MPD2    C1 9920   2.706   4.731  14.701  0.2269  0.3298 -0.5469
  667MPD2    C2 9921   2.622   4.635  14.748  0.3780 -0.5762 -0.1238
  667MPD2    C3 9922   2.585   4.529  14.668  0.2958  0.2974 -0.3730
  667MPD2    C4 9923   2.623   4.522  14.536 -0.4211 -0.9832  0.3403
  667MPD2    C5 9924   2.711   4.621  14.490  0.2753  0.1828 -0.5437
  667MPD2     H 9925   2.568   4.657  14.840 -0.4452 -1.3770 -0.4153
  667MPD2    H1 9926   2.582   4.448  14.469 -0.7066 -1.0259  0.5607
  667MPD2    H2 9927   2.834   0.048  14.547  0.6457 -0.1936  2.3203
  667MPD2    H3 9928   2.751   4.612  14.390  0.5746 -1.1871 -0.3029
  667MPD2     N 9929   2.490   4.434  14.720 -0.6030  0.2609  0.8379
  667MPD2    H5 9930   2.473   4.355  14.658  0.4336 -0.2241  1.1571
  667MPD2    N1 9931   2.739   0.091  14.793 -0.1296 -0.1280 -0.1245
  667MPD2    H7 9932   2.714   0.075  14.890 -1.9639  2.3480 -0.1709
  668TMC3    C1 9933   2.850   0.287  14.885 -0.2030 -0.4801 -0.3132
  668TMC3    C2 9934   2.876   0.423  14.877  0.1946  0.0594 -0.1368
  668TMC3    C3 9935   2.903   0.495  14.992 -0.2296  0.0216 -0.6741
  668TMC3    C4 9936   2.850   0.218  15.003  0.6592  0.2154  0.2708
  668TMC3    C5 9937   2.881   0.299  15.114 -0.1867  0.0030  0.6040
  668TMC3    C6 9938   2.905   0.436  15.112  0.5111 -0.2828  0.1824
  668TMC3     C 9939   2.803   0.208  14.771 -0.8476 -0.2221  0.4636
  668TMC3     O 9940   2.811   0.260  14.658  0.7714  0.0007  0.1065
  668TMC3     H 9941   2.879   0.472  14.780 -1.8479  1.5873  0.5840
  668TMC3    H1 9942   2.817   0.116  15.017 -0.9650  0.6599 -0.3934
  668TMC3    H2 9943   2.902   0.496  15.203  3.5563  1.5542 -0.9671
  668TMC3    C7 9944   2.893   0.244  15.242 -0.3354 -0.5840 -0.1931
  668TMC3    C8 9945   2.930   0.632  14.981  0.0395 -0.2235 -0.2655
  668TMC3    O1 9946   2.973   0.291  15.324  0.3053  0.2685 -0.6075
  668TMC3    O2 9947   2.918   0.691  15.090  0.1850  0.0501  0.5180
  669TMC3    C1 9948   0.914   4.623  14.645 -0.5820 -0.0995 -0.6117
  669TMC3    C2 9949   0.793   4.638  14.575 -0.2242 -0.7841 -0.4413
  669TMC3    C3 9950   0.784   4.722  14.474  0.3403  0.3028 -0.1746
  669TMC3    C4 9951   1.029   4.685  14.613 -0.0054  0.2542  0.0233
  669TMC3    C5 9952   1.021   0.030  14.506  0.2444 -0.7382 -0.3042
  669TMC3    C6 9953   0.905   0.035  14.431 -0.4307  0.2107  0.3689
  669TMC3     C 9954   0.904   4.532  14.758  0.6777 -0.0164 -0.1824
  669TMC3     O 9955   0.795   4.513  14.810 -0.4863 -0.2526 -0.1117
  669TMC3     H 9956   0.702   4.595  14.615 -1.2550  0.4229 -1.4928
  669TMC3    H1 9957   1.122   4.691  14.669  0.8429 -0.9815 -1.2572
  669TMC3    H2 9958   0.901   0.113  14.355 -1.1245 -1.3604 -1.2159
  669TMC3    C7 9959   1.139   0.087  14.451  1.1851  0.0220 -0.2369
  669TMC3    C8 9960   0.655   0.020  14.426 -0.3126 -0.2716 -0.7389
  669TMC3    O1 9961   1.221   0.132  14.526  0.5205  0.4090  0.3455
  669TMC3    O2 9962   0.559   4.693  14.471 -0.0149 -0.3414  0.6041
  670MPD2     C 9963   3.702   2.376  13.380 -0.2864  0.2357 -0.3581
  670MPD2    C1 9964   3.823   2.385  13.442  0.5432 -0.4686 -0.3784
  670MPD2    C2 9965   3.830   2.373  13.582  0.1149 -0.5269 -0.2048
  670MPD2    C3 9966   3.715   2.364  13.653 -0.3397 -0.1212  0.4951
  670MPD2    C4 9967   3.593   2.344  13.587  0.6280  0.2501  0.3073
  670MPD2    C5 9968   3.589   2.349  13.452 -0.1964 -0.0965  0.4132
  670MPD2     H 9969   3.923   2.393  13.635 -0.5678  1.8625  0.1170
  670MPD2    H1 9970   3.504   2.321  13.645  1.5192  0.8014  1.9062
  670MPD2    H2 9971   3.690   2.382  13.272  0.5084  1.7434 -0.3614
  670MPD2    H3 9972   3.499   2.325  13.397  1.0075 -2.3705 -0.5995
  670MPD2     N 9973   3.720   2.368  13.795 -0.7201  0.1610 -0.0530
  670MPD2    H5 9974   3.813   2.369  13.835 -1.4151  0.0187  1.5551
  670MPD2    N1 9975   3.940   2.413  13.374 -0.4462  0.8151 -0.3222
  670MPD2    H7 9976   4.023   2.438  13.427 -0.8290  1.5141 -0.0514
  671TMC3    C1 9977   3.648   2.351  14.019 -0.2522 -0.7667 -0.8141
  671TMC3    C2 9978   3.781   2.331  14.050 -0.3375 -0.7047 -0.2720
  671TMC3    C3 9979   3.807   2.261  14.165 -0.7095 -1.1215 -0.1217
  671TMC3    C4 9980   3.548   2.296  14.093  0.3217 -0.1513  0.2791
  671TMC3    C5 9981   3.587   2.203  14.187  0.2467  0.4059 -0.4760
  671TMC3    C6 9982   3.717   2.186  14.232  0.0043 -0.1297 -0.1246
  671TMC3     C 9983   3.614   2.378  13.880 -0.3652  0.2705  0.1593
  671TMC3     O 9984   3.503   2.418  13.854  0.0148 -0.0306 -0.7721
  671TMC3     H 9985   3.858   2.396  14.010  1.5211 -1.8191  1.5372
  671TMC3    H1 9986   3.454   2.291  14.040  0.5756  2.5959 -0.4244
  671TMC3    H2 9987   3.741   2.105  14.300  2.0644 -0.6123 -1.4293
  671TMC3    C7 9988   3.511   2.081  14.175 -0.0839 -0.1080 -0.0413
  671TMC3    C8 9989   3.943   2.214  14.164 -0.2578  0.4068  0.2337
  671TMC3    O1 9990   3.575   1.979  14.158 -0.3057  0.7007 -0.4643
  671TMC3    O2 9991   4.011   2.220  14.064 -0.1741  0.4372 -0.7517
  672MPD2     C 9992   4.142   2.421   0.998  0.4344 -0.5541 -0.0881
  672MPD2    C1 9993   4.246   2.350   0.941 -0.3260 -0.5001 -0.6713
  672MPD2    C2 9994   4.379   2.386   0.952 -0.1375  0.7180  0.2924
  672MPD2    C3 9995   4.400   2.504   1.007  0.7924 -0.2619 -0.2110
  672MPD2    C4 9996   4.298   2.575   1.070 -0.5315  0.3269  0.5393
  672MPD2    C5 9997   4.182   2.525   1.070 -0.6844  0.5219 -0.9862
  672MPD2     H 9998   4.447   2.331   0.888 -2.8423  1.0654 -2.8866
  672MPD2    H1 9999   4.319   2.669   1.121  0.5086  0.0234  0.6777
  672MPD2    H210000   4.043   2.376   0.999 -0.1980  0.8472  0.5349
  672MPD2    H310001   4.111   2.577   1.134  0.5291 -0.3946  1.1111
  672MPD2     N10002   4.527   2.558   1.023 -0.2143 -0.1376 -0.4893
  672MPD2    H510003   4.543   2.652   1.056 -0.6695 -0.0838 -0.4289
  672MPD2    N110004   4.214   2.242   0.858  0.3133 -0.9419  0.1141
  672MPD2    H710005   4.283   2.171   0.833  0.1058 -2.1021  2.7552
  673TMC3    C110006   4.093   2.140   0.695 -0.0380  0.2211  0.2912
  673TMC3    C210007   4.130   2.012   0.727  0.2080  1.0225  0.5815
  673TMC3    C310008   4.086   1.913   0.641 -0.1323 -0.1759 -0.6288
  673TMC3    C410009   4.011   2.175   0.591 -0.2129 -0.0837  0.4220
  673TMC3    C510010   3.948   2.063   0.532 -0.3617  0.1349  0.1319
  673TMC3    C610011   3.989   1.940   0.545  0.1178  0.2174  0.1358
  673TMC3     C10012   4.092   2.245   0.787 -0.0315 -0.0322  0.4740
  673TMC3     O10013   4.008   2.333   0.775 -0.0035 -0.9415 -0.0833
  673TMC3     H10014   4.163   1.995   0.828  4.4031 -0.8581 -1.1121
  673TMC3    H110015   3.986   2.278   0.567 -3.0530 -0.2683  2.6484
  673TMC3    H210016   3.934   1.864   0.491 -0.7720  0.3168  0.8791
  673TMC3    C710017   3.862   2.075   0.414 -0.0447 -0.0103  0.2396
  673TMC3    C810018   4.156   1.787   0.630 -0.6271 -0.2359  0.0967
  673TMC3    O110019   3.871   1.995   0.321  0.2006 -0.0443  0.1058
  673TMC3    O210020   4.102   1.708   0.559 -0.3055  0.0341 -0.4080
  674MPD2     C10021   4.037   2.651   0.013  0.1967 -0.8157 -0.2364
  674MPD2    C110022   3.995   2.550  17.684 -0.8959  0.8904 -0.2381
  674MPD2    C210023   3.880   2.571  17.605 -0.1564  0.2551  0.2252
  674MPD2    C310024   3.807   2.688  17.637 -0.2311 -0.4773  0.4637
  674MPD2    C410025   3.858   2.791  17.711  0.1446 -0.5141  0.3923
  674MPD2    C510026   3.978   2.776   0.017 -0.4667  0.5062 -0.5832
  674MPD2     H10027   3.839   2.484  17.555  1.1227 -1.3063  1.8815
  674MPD2    H110028   3.810   2.887  17.721  1.2118 -0.1211  1.6896
  674MPD2    H210029   4.122   2.629   0.077  0.5619  1.4093  0.0243
  674MPD2    H310030   4.024   2.854   0.076 -0.0387 -0.1962  0.0144
  674MPD2     N10031   3.676   2.677  17.593 -0.3128 -0.1099  0.5096
  674MPD2    H510032   3.641   2.592  17.549 -0.3930 -0.6634  1.6365
  674MPD2    N110033   4.059   2.426  17.686  0.8120 -0.6355 -0.7816
  674MPD2    H710034   4.101   2.409   0.020 -1.0127 -0.9652 -0.0031
  675TMC3    C110035   4.041   2.188  17.674 -0.1866  0.1398  0.4759
  675TMC3    C210036   3.951   2.085  17.640 -0.0490  0.5576  0.7501
  675TMC3    C310037   3.957   1.978  17.724 -0.1684  0.2866  0.3543
  675TMC3    C410038   4.128   2.186   0.030  0.2828  0.3368 -0.2610
  675TMC3    C510039   4.111   2.077   0.116 -0.2465  0.4448  0.1686
  675TMC3    C610040   4.034   1.970   0.078  0.6100 -0.5812 -0.0327
  675TMC3     C10041   4.016   2.318  17.617  0.2602  1.0745  0.3172
  675TMC3     O10042   3.961   2.305  17.507  0.4957  0.5973  0.1833
  675TMC3     H10043   3.869   2.112  17.575  3.1059  1.2645 -2.9136
  675TMC3    H110044   4.204   2.260   0.054  2.4953 -1.3052 -2.2076
  675TMC3    H210045   4.035   1.874   0.128  0.4729 -0.7853 -0.4207
  675TMC3    C710046   4.202   2.054   0.232 -0.5206 -0.4569 -0.5828
  675TMC3    C810047   3.843   1.884  17.702  0.2977 -0.2691 -0.2139
  675TMC3    O110048   4.212   1.939   0.275 -0.0815  0.6700  0.0882
  675TMC3    O210049   3.784   1.882  17.592 -0.3024  0.0650 -0.0018
  676MPD2     C10050   2.213   0.604  11.250  0.2308 -0.2253 -0.2684
  676MPD2    C110051   2.104   0.533  11.312  0.3161 -0.2613  0.2396
  676MPD2    C210052   2.092   0.393  11.284 -0.1682  0.8205 -0.0300
  676MPD2    C310053   2.191   0.324  11.216  0.4322  0.0282  0.0040
  676MPD2    C410054   2.294   0.401  11.157  0.4183 -1.1672 -0.1922
  676MPD2    C510055   2.302   0.539  11.179 -0.4095  0.2928 -0.0140
  676MPD2     H10056   2.002   0.346  11.323  1.2415 -2.6801 -0.9986
  676MPD2    H110057   2.380   0.349  11.116  0.2876 -0.8047 -0.9191
  676MPD2    H210058   2.229   0.711  11.255  0.4265 -0.4125  3.4747
  676MPD2    H310059   2.387   0.588  11.134  0.5482 -0.5951  0.8392
  676MPD2     N10060   2.187   0.182  11.188 -0.3834 -0.3976  0.1959
  676MPD2    H510061   2.264   0.143  11.134  0.5128 -0.3890  1.4598
  676MPD2    N110062   2.008   0.590  11.392 -0.6223 -0.5512 -0.2097
  676MPD2    H710063   1.940   0.520  11.421 -1.3411 -0.5557 -1.8722
  677TMC3    C110064   1.879   0.757  11.477  0.2277 -0.0356  0.1767
  677TMC3    C210065   1.819   0.659  11.553 -0.2632 -0.2272  1.0576
  677TMC3    C310066   1.710   0.696  11.627 -0.5928  0.4882 -0.3098
  677TMC3    C410067   1.850   0.896  11.491  0.1949 -0.6282  0.0175
  677TMC3    C510068   1.735   0.927  11.560  0.3073  0.3532 -0.0165
  677TMC3    C610069   1.667   0.828  11.627  0.0393 -0.1218  0.0738
  677TMC3     C10070   1.998   0.719  11.413  0.0805  0.3465 -0.4493
  677TMC3     O10071   2.060   0.821  11.373  0.1523  0.3666 -0.1650
  677TMC3     H10072   1.848   0.557  11.572 -0.6656 -0.1891  1.8426
  677TMC3    H110073   1.913   0.971  11.444  0.2355 -1.6503 -1.5493
  677TMC3    H210074   1.583   0.858  11.689 -0.1102 -0.5604  0.0829
  677TMC3    C710075   1.694   1.069  11.587 -0.1065  0.8172 -0.3323
  677TMC3    C810076   1.647   0.596  11.708 -0.2179 -1.3321  0.4482
  677TMC3    O110077   1.577   1.077  11.632 -0.6458 -0.7419  0.0710
  677TMC3    O210078   1.618   0.492  11.651 -0.3853 -0.0572 -0.3067
  678MPD2     C10079   3.271   4.715   0.928 -0.7189 -0.6004  0.4362
  678MPD2    C110080   3.212   0.090   0.976  0.0283  0.4028 -0.8734
  678MPD2    C210081   3.082   0.121   0.933  0.3782  0.7289  0.5178
  678MPD2    C310082   2.996   0.031   0.878  0.3964 -0.2937 -0.8140
  678MPD2    C410083   3.054   4.656   0.838 -0.2947 -0.7420 -0.2408
  678MPD2    C510084   3.186   4.634   0.859  1.1174  0.6237  0.3274
  678MPD2     H10085   3.038   0.218   0.953  2.4215  1.7304  0.1894
  678MPD2    H110086   2.996   4.582   0.783 -1.6875  0.8382 -0.8892
  678MPD2    H210087   3.371   4.678   0.949 -0.7045 -0.8097  0.0064
  678MPD2    H310088   3.231   4.542   0.824 -0.7350 -0.2582  0.2583
  678MPD2     N10089   2.865   0.078   0.844  0.0428 -0.3420  0.1556
  678MPD2    H510090   2.849   0.177   0.856 -0.6881 -0.3829 -0.4849
  678MPD2    N110091   3.287   0.189   1.044 -0.2847 -0.6838 -0.3171
  678MPD2    H710092   3.388   0.178   1.036  0.3562  2.2844  3.8294
  679TMC3    C110093   3.545   0.491   1.126  0.1592 -0.0184  0.0673
  679TMC3    C210094   3.460   0.383   1.128  0.3207  0.7526 -0.1422
  679TMC3    C310095   3.326   0.410   1.136 -0.7551  0.3624 -0.2034
  679TMC3    C410096   3.501   0.615   1.129  0.2445  0.2410 -0.2913
  679TMC3    C510097   3.367   0.637   1.141  0.3461  0.1718  0.3535
  679TMC3    C610098   3.274   0.532   1.154 -0.1182 -0.1730 -0.7096
  679TMC3     C10099   3.678   0.465   1.079 -0.1988  0.1261 -0.5426
  679TMC3     O10100   3.710   0.348   1.048  0.3588  0.6503 -0.1607
  679TMC3     H10101   3.509   0.287   1.137 -2.2277 -0.5660 -0.6031
  679TMC3    H110102   3.566   0.702   1.131 -0.0086  0.4384 -0.5365
  679TMC3    H210103   3.166   0.548   1.153 -0.2512 -0.8325  1.9917
  679TMC3    C710104   3.318   0.742   1.057  0.4230 -0.1288  0.4110
  679TMC3    C810105   3.231   0.306   1.097  0.2464 -0.1323  0.1473
  679TMC3    O110106   3.409   0.788   0.986 -0.0753 -0.0571 -0.8903
  679TMC3    O210107   3.117   0.332   1.133 -0.1160 -0.1586 -0.0736
  680MPD2     C10108   3.317   4.175  13.882  0.1553 -0.1053 -0.1370
  680MPD2    C110109   3.437   4.157  13.959  0.2127 -0.1447  0.7625
  680MPD2    C210110   3.484   4.274  14.019 -0.0244  0.2590  0.6055
  680MPD2    C310111   3.421   4.399  14.005 -0.0852 -0.4101  0.2103
  680MPD2    C410112   3.308   4.416  13.928  0.0318 -0.0491  0.0283
  680MPD2    C510113   3.252   4.300  13.879 -0.3147 -0.5296  0.0457
  680MPD2     H10114   3.578   4.261  14.071 -0.6186  1.5028  1.9831
  680MPD2    H110115   3.263   4.513  13.910 -0.2776 -0.1845  0.0672
  680MPD2    H210116   3.269   4.102  13.819  0.7407  0.4138 -1.1982
  680MPD2    H310117   3.166   4.307  13.815 -1.8249 -2.0925  1.8848
  680MPD2     N10118   3.481   4.515  14.059  0.1222  0.2498  0.3610
  680MPD2    H510119   3.440   4.604  14.036 -0.0188 -0.3653 -1.7635
  680MPD2    N110120   3.506   4.036  13.973  0.4709 -0.0369  0.1704
  680MPD2    H710121   3.593   4.037  14.025 -0.1921 -1.2657  1.2901
  681TMC3    C110122   3.548   3.809  13.954  0.8561  0.4125  0.4863
  681TMC3    C210123   3.497   3.688  13.990 -0.2071 -0.4620  0.4760
  681TMC3    C310124   3.585   3.584  14.013  0.3587 -0.3492 -0.1643
  681TMC3    C410125   3.683   3.827  13.917 -0.4784  0.0454  0.0181
  681TMC3    C510126   3.764   3.716  13.930 -0.4789  0.4163  0.0475
  681TMC3    C610127   3.716   3.603  13.987  0.3228  0.3098 -0.2154
  681TMC3     C10128   3.455   3.910  13.930 -0.7029  0.4143  0.7362
  681TMC3     O10129   3.346   3.889  13.887 -0.6158  0.1989 -0.3420
  681TMC3     H10130   3.391   3.687  14.013 -0.0361 -0.9900  1.2672
  681TMC3    H110131   3.715   3.926  13.888 -3.0500  0.9027  0.0898
  681TMC3    H210132   3.783   3.520  14.000 -0.8296 -0.3127  1.8619
  681TMC3    C710133   3.887   3.706  13.856 -0.0334  0.6045 -0.7067
  681TMC3    C810134   3.539   3.488  14.111  0.3367  0.1223 -0.5604
  681TMC3    O110135   3.953   3.607  13.861  0.2705 -0.1250 -0.1649
  681TMC3    O210136   3.626   3.459  14.194 -0.2760  0.1340  0.0428
  682MPD2     C10137   1.019   0.322  10.868  0.2118 -0.2280  0.1314
  682MPD2    C110138   0.963   0.202  10.905  0.3928 -0.1371 -0.0483
  682MPD2    C210139   0.864   0.200  11.001 -1.2305  0.4469  0.0174
  682MPD2    C310140   0.817   0.313  11.059 -0.0938 -0.2887  0.4943
  682MPD2    C410141   0.890   0.424  11.036  0.1596 -0.4115  0.1959
  682MPD2    C510142   0.978   0.434  10.939  0.2341 -0.3526 -0.4728
  682MPD2     H10143   0.826   0.104  11.035 -0.5963 -0.1201 -0.8739
  682MPD2    H110144   0.876   0.513  11.096 -3.1392 -0.0801 -1.0726
  682MPD2    H210145   1.101   0.339  10.800 -0.2071 -1.5064 -0.6901
  682MPD2    H310146   1.037   0.525  10.934 -1.3100  0.7247  1.3287
  682MPD2     N10147   0.717   0.308  11.160  0.0700 -0.2247 -0.1356
  682MPD2    H510148   0.715   0.386  11.225 -5.0164 -0.0068 -0.5312
  682MPD2    N110149   1.003   0.073  10.852 -0.0387 -1.0093  0.5551
  682MPD2    H710150   0.956   4.726  10.873 -0.8962 -1.1101 -1.8260
  683TMC3    C110151   0.571   0.341  11.525  0.4562  0.2257  0.3767
  683TMC3    C210152   0.541   0.227  11.593  0.2445 -0.2526 -0.5819
  683TMC3    C310153   0.527   0.104  11.525 -0.0581  0.1108 -0.1382
  683TMC3    C410154   0.592   0.343  11.389 -0.1235  0.1107 -0.1507
  683TMC3    C510155   0.578   0.221  11.323  0.0505  0.0589  0.5374
  683TMC3    C610156   0.543   0.105  11.392 -0.2348  0.4892  0.1687
  683TMC3     C10157   0.584   0.467  11.602 -0.5328 -0.2643 -0.3579
  683TMC3     O10158   0.677   0.536  11.558  0.1391  0.6126  0.1978
  683TMC3     H10159   0.555   0.218  11.700 -3.9171  0.1408 -0.0080
  683TMC3    H110160   0.596   0.442  11.343  0.4036 -0.6090 -1.6568
  683TMC3    H210161   0.517   0.021  11.329  1.7010 -0.6789  0.8984
  683TMC3    C710162   0.639   0.201  11.197 -0.0136  0.7352 -0.2769
  683TMC3    C810163   0.543   4.712  11.588 -0.1679  0.8637  0.2614
  683TMC3    O110164   0.640   0.090  11.154 -0.0668  0.6887  0.4570
  683TMC3    O210165   0.469   4.667  11.678  0.2423 -0.0838 -0.2757
  684MPD2     C10166   3.686   0.291  16.562  0.1734  0.0727 -0.1395
  684MPD2    C110167   3.779   0.259  16.462 -1.0065 -0.0694  0.0256
  684MPD2    C210168   3.874   0.350  16.427 -0.7139  0.1853 -0.1960
  684MPD2    C310169   3.884   0.469  16.500  0.1693 -0.3434 -0.4902
  684MPD2    C410170   3.802   0.501  16.601  0.6847  0.3850 -0.5356
  684MPD2    C510171   3.698   0.413  16.622 -0.1378 -0.1089 -0.4265
  684MPD2     H10172   3.934   0.320  16.342 -1.7608  1.2322 -1.3120
  684MPD2    H110173   3.810   0.596  16.654 -0.8493 -0.2542  0.8417
  684MPD2    H210174   3.605   0.231  16.601 -0.4137  1.1678  0.3072
  684MPD2    H310175   3.625   0.437  16.699 -0.7635 -2.9252 -0.1358
  684MPD2     N10176   3.984   0.563  16.469 -0.4392 -0.3165 -0.0976
  684MPD2    H510177   3.985   0.645  16.529 -0.5391 -1.9729  2.1412
  684MPD2    N110178   3.777   0.135  16.390  0.8984  0.7177 -0.5734
  684MPD2    H710179   3.860   0.121  16.333  1.8259 -3.4958  1.7912
  685TMC3    C110180   3.677   4.695  16.285 -0.3062  1.1548 -0.4014
  685TMC3    C210181   3.563   4.659  16.222  0.4458  0.1858  0.4899
  685TMC3    C310182   3.566   4.542  16.145  0.5420  0.5660 -0.5900
  685TMC3    C410183   3.795   4.618  16.285  0.4352  0.0536  0.1122
  685TMC3    C510184   3.794   4.509  16.202 -0.8542  0.0248  0.1219
  685TMC3    C610185   3.676   4.466  16.142 -0.3086 -0.2219 -0.1357
  685TMC3     C10186   3.662   0.061  16.381 -0.0640  0.1539 -0.6428
  685TMC3     O10187   3.548   0.080  16.424 -0.8511 -0.4381  0.0394
  685TMC3     H10188   3.478   4.724  16.237  0.3996  0.4683 -0.9665
  685TMC3    H110189   3.875   4.640  16.355  1.1492 -0.3198 -0.5892
  685TMC3    H210190   3.680   4.371  16.090  1.6204 -0.4731  0.4526
  685TMC3    C710191   3.918   4.445  16.166  0.1064  0.3226 -0.7057
  685TMC3    C810192   3.454   4.514  16.051 -0.2660  0.3321 -0.5336
  685TMC3    O110193   3.909   4.338  16.113 -0.3530 -0.3729 -0.7052
  685TMC3    O210194   3.454   4.400  16.004  0.1979  0.0054 -0.9817
  686MPD2     C10195   0.276   0.405  15.486 -0.2685 -0.3000 -1.0582
  686MPD2    C110196   0.358   0.297  15.499 -0.3629  0.4085  0.3089
  686MPD2    C210197   0.422   0.244  15.388 -0.1974 -0.0559  0.6107
  686MPD2    C310198   0.391   0.307  15.262  0.1224 -0.0970 -0.5528
  686MPD2    C410199   0.329   0.431  15.250  0.1077 -0.5158  0.7593
  686MPD2    C510200   0.273   0.476  15.368  0.8381 -0.0770 -0.4331
  686MPD2     H10201   0.486   0.158  15.401 -0.1712 -0.3636 -1.5048
  686MPD2    H110202   0.314   0.473  15.151  0.5232 -3.7979 -0.6988
  686MPD2    H210203   0.209   0.442  15.563  0.4595  0.2007 -0.6666
  686MPD2    H310204   0.215   0.567  15.364  0.1300 -0.5057  0.1638
  686MPD2     N10205   0.449   0.246  15.141  0.0431 -0.4505 -0.4703
  686MPD2    H510206   0.455   0.307  15.060  0.9707  0.4942  0.3115
  686MPD2    N110207   0.367   0.238  15.626  0.4951  0.5508 -0.0365
  686MPD2    H710208   0.326   0.285  15.707  0.4164  3.4128 -1.7464
  687TMC3    C110209   0.459   0.015  15.199 -0.4169  0.5076 -0.1836
  687TMC3    C210210   0.327   0.006  15.235 -0.4662  0.2405 -0.2245
  687TMC3    C310211   0.277   4.623  15.282 -0.0805 -0.6330 -0.2735
  687TMC3    C410212   0.546   4.650  15.228  0.8247  0.1608 -0.6295
  687TMC3    C510213   0.491   4.532  15.277 -0.2295 -0.2556  0.3005
  687TMC3    C610214   0.357   4.515  15.293  0.3313  0.2848 -0.0777
  687TMC3     C10215   0.519   0.128  15.128 -0.5557 -0.4058 -1.1687
  687TMC3     O10216   0.602   0.101  15.035  0.0404 -0.2370 -0.1972
  687TMC3     H10217   0.254   0.078  15.199 -1.6898 -1.5174 -1.2360
  687TMC3    H110218   0.653   4.663  15.217  0.8603  0.6773  0.3772
  687TMC3    H210219   0.317   4.433  15.352  0.2560 -1.2141 -2.1740
  687TMC3    C710220   0.582   4.463  15.372  0.0317 -0.1865  0.3874
  687TMC3    C810221   0.139   4.608  15.320  0.7359 -0.2779  0.5887
  687TMC3    O110222   0.531   4.405  15.470  0.1778 -0.7274  0.0100
  687TMC3    O210223   0.099   4.495  15.326  0.6613 -0.2851 -0.5240
  688MPD2     C10224   4.665   3.793  17.442  0.0279  0.0187 -0.0680
  688MPD2    C110225   4.684   3.656  17.450  0.5557  0.2897  0.1495
  688MPD2    C210226   0.033   3.604  17.352  0.7200  0.6309 -0.3478
  688MPD2    C310227   0.095   3.685  17.258 -1.2947 -0.3536 -0.5878
  688MPD2    C410228   0.084   3.822  17.262 -0.0744  0.6999 -0.3979
  688MPD2    C510229   4.740   3.870  17.357  0.6660  0.2054  0.2048
  688MPD2     H10230   0.048   3.497  17.354  0.5197  0.6047 -0.1739
  688MPD2    H110231   0.148   3.874  17.192  0.4712  0.0170 -0.4042
  688MPD2    H210232   4.594   3.853  17.497 -0.7558 -1.4342  0.5167
  688MPD2    H310233   4.732   3.978  17.369  2.5792  0.3115  0.4060
  688MPD2     N10234   0.173   3.628  17.158 -0.1300  0.1528 -0.0794
  688MPD2    H510235   0.223   3.694  17.098  0.3876 -1.6098 -1.5781
  688MPD2    N110236   4.631   3.568  17.542 -0.4180 -0.3767  0.0028
  688MPD2    H710237   4.662   3.471  17.536 -0.9282 -0.5218 -0.2679
  689TMC3    C110238   4.512   3.498  17.747 -0.7395  0.1336  0.4588
  689TMC3    C210239   4.441   3.539   0.103 -0.1008 -0.4699  0.0970
  689TMC3    C310240   4.446   3.464   0.216 -0.8006  0.2305 -1.2332
  689TMC3    C410241   4.565   3.373  17.747  0.3182  0.2665 -0.6061
  689TMC3    C510242   4.558   3.298   0.105  0.2227  0.0115  0.1306
  689TMC3    C610243   4.504   3.340   0.220 -0.2390 -0.9172  0.2894
  689TMC3     C10244   4.542   3.603  17.645  0.3705 -0.4945  0.2583
  689TMC3     O10245   4.466   3.698  17.641 -0.2888  0.3421 -0.3305
  689TMC3     H10246   4.414   3.643   0.106 -0.4684 -0.5319 -0.9313
  689TMC3    H110247   4.617   3.336  17.659  1.5816  0.9908 -0.1727
  689TMC3    H210248   4.517   3.277   0.308  1.1190  0.4193  1.0470
  689TMC3    C710249   4.557   3.155   0.087  0.5547 -0.6613  0.1910
  689TMC3    C810250   4.355   3.490   0.327 -0.7183 -0.1740  0.4519
  689TMC3    O110251   4.604   3.088   0.177  0.0077 -0.4101 -0.0934
  689TMC3    O210252   4.354   3.408   0.412  0.0550  0.6373  0.0564
  690MPD2     C10253   2.136   1.049  15.954 -0.4367 -0.2304 -0.0956
  690MPD2    C110254   2.071   1.013  15.839  0.1885 -0.1687  0.8897
  690MPD2    C210255   2.140   1.024  15.718  0.2013  0.6552 -0.3982
  690MPD2    C310256   2.266   1.065  15.708 -0.6521 -0.2979 -0.2948
  690MPD2    C410257   2.331   1.093  15.828 -0.1238  0.1244 -0.4576
  690MPD2    C510258   2.265   1.090  15.948 -0.4114 -0.1970 -0.2110
  690MPD2     H10259   2.080   1.009  15.629  1.3770 -1.4042 -0.8615
  690MPD2    H110260   2.434   1.128  15.826 -1.1158  2.9878 -0.4028
  690MPD2    H210261   2.103   1.057  16.056  1.3945 -0.0952  0.4908
  690MPD2    H310262   2.306   1.120  16.044 -2.7831  0.0358  0.7253
  690MPD2     N10263   2.324   1.078  15.577  0.3039 -0.3088  0.2029
  690MPD2    H510264   2.271   1.043  15.498  0.0073 -0.0963  0.3059
  690MPD2    N110265   1.936   0.981  15.840 -0.6521 -0.1477  0.4278
  690MPD2    H710266   1.895   0.956  15.751  0.7983  1.8029 -0.7757
  691TMC3    C110267   1.736   0.890  15.931 -0.1253 -0.0172  0.2903
  691TMC3    C210268   1.669   0.934  15.819 -0.5645 -0.2379  0.4383
  691TMC3    C310269   1.540   0.891  15.821 -0.5960 -0.8472 -0.4610
  691TMC3    C410270   1.692   0.812  16.033 -0.0332  0.0548 -0.8000
  691TMC3    C510271   1.555   0.774  16.027 -0.1742 -0.1048 -0.0685
  691TMC3    C610272   1.480   0.819  15.929  0.3097 -0.0146 -0.0494
  691TMC3     C10273   1.869   0.941  15.949  0.0736 -0.0310 -0.0636
  691TMC3     O10274   1.906   0.931  16.068  0.2613  0.1371  0.2391
  691TMC3     H10275   1.703   1.015  15.756  0.4179 -0.3349  0.8362
  691TMC3    H110276   1.756   0.767  16.108  0.1609 -1.5946 -1.9394
  691TMC3    H210277   1.382   0.774  15.920  0.8259 -1.0978 -0.1719
  691TMC3    C710278   1.535   0.641  16.081  0.3696 -0.3952  0.5889
  691TMC3    C810279   1.443   0.943  15.725  0.3278  0.7237 -0.1639
  691TMC3    O110280   1.587   0.616  16.192  0.1392  0.0119  0.4556
  691TMC3    O210281   1.452   0.901  15.611 -0.4271  0.4689 -0.3347
  692TMC3    C110282   3.318   1.439  15.541  1.0905  0.6740  0.0307
  692TMC3    C210283   3.433   1.509  15.516 -0.1579  0.6644  0.6765
  692TMC3    C310284   3.548   1.438  15.512 -0.2643  0.0351 -0.0422
  692TMC3    C410285   3.317   1.321  15.611 -0.2903  0.3885 -0.2902
  692TMC3    C510286   3.439   1.266  15.630  0.4806  0.4108 -0.4613
  692TMC3    C610287   3.554   1.318  15.577 -0.8327 -0.4497  0.1820
  692TMC3     C10288   3.220   1.531  15.587  1.1972  0.6490  0.1349
  692TMC3     O10289   3.268   1.623  15.653 -0.5099 -0.1227  0.4301
  692TMC3     H10290   3.425   1.601  15.459  0.1574 -0.5491 -1.3483
  692TMC3    H110291   3.228   1.278  15.656  0.5552 -0.9352  0.1294
  692TMC3    H210292   3.652   1.277  15.596 -0.5549 -0.2311 -0.8079
  692TMC3    C710293   3.445   1.140  15.694 -0.1282 -0.1684  0.4320
  692TMC3    C810294   3.653   1.531  15.552 -0.0261 -0.0115 -0.0666
  692TMC3    O110295   3.341   1.078  15.690  0.0590 -0.0797  0.4819
  692TMC3    O210296   3.766   1.491  15.529 -0.2019  0.4236  0.3744
  693MPD2     C10297   2.686   4.052  10.936  0.2731 -0.0919 -1.1476
  693MPD2    C110298   2.739   3.983  10.830 -0.0387 -0.3873  0.1804
  693MPD2    C210299   2.828   3.880  10.863 -0.1653 -0.5859 -0.2957
  693MPD2    C310300   2.857   3.853  10.990  0.0910 -0.1668 -0.0038
  693MPD2    C410301   2.792   3.918  11.095 -0.6151  0.8254 -0.5044
  693MPD2    C510302   2.711   4.021  11.061  0.0955  0.0212 -0.7408
  693MPD2     H10303   2.889   3.841  10.782  0.9171  0.5884 -0.0349
  693MPD2    H110304   2.815   3.901  11.199  0.5582 -0.5809 -1.0097
  693MPD2    H210305   2.635   4.145  10.915 -1.3601 -0.6846  0.1762
  693MPD2    H310306   2.675   4.089  11.137 -1.2029  0.2188 -1.5317
  693MPD2     N10307   2.956   3.774  11.032  0.1566  0.7887  0.1607
  693MPD2    H510308   2.983   3.780  11.130  2.0183  0.5817 -0.3301
  693MPD2    N110309   2.705   4.034  10.705 -0.1129  0.0993  0.0710
  693MPD2    H710310   2.647   4.116  10.704  0.5235  0.5886  2.4058
  694TMC3    C110311   2.689   4.078  10.486  0.0325  0.0362 -0.2008
  694TMC3    C210312   2.594   4.012  10.409 -0.4999  0.0705  0.6886
  694TMC3    C310313   2.475   4.071  10.399 -0.0879  0.6479  0.2384
  694TMC3    C410314   2.667   4.204  10.535  0.5042  0.0739 -0.1837
  694TMC3    C510315   2.548   4.269  10.515 -0.0488  0.8321 -0.4530
  694TMC3    C610316   2.450   4.193  10.456 -0.3556 -0.3076 -0.5592
  694TMC3     C10317   2.754   3.994  10.582  0.8435 -0.0152  0.1458
  694TMC3     O10318   2.817   3.893  10.545  0.2559  0.6122 -0.3850
  694TMC3     H10319   2.607   3.912  10.368 -2.4935  1.1312 -2.5070
  694TMC3    H110320   2.739   4.261  10.593  0.1952  1.0154 -0.7305
  694TMC3    H210321   2.358   4.241  10.426  1.1650  2.1306 -1.2958
  694TMC3    C710322   2.513   4.356  10.626 -0.1929 -0.5284  0.0356
  694TMC3    C810323   2.365   3.973  10.386  0.4374 -0.2656  0.1143
  694TMC3    O110324   2.585   4.442  10.672 -0.2984  0.1507 -0.4691
  694TMC3    O210325   2.387   3.873  10.451  0.7279 -0.7711  0.4492
  695MPD2     C10326   4.137   1.619  13.369 -0.3022 -0.2985  0.4807
  695MPD2    C110327   4.114   1.689  13.488 -0.3145 -0.5762 -0.3349
  695MPD2    C210328   3.994   1.751  13.505  0.2754 -0.2323 -0.7104
  695MPD2    C310329   3.900   1.740  13.401 -0.7421  0.2040  0.0425
  695MPD2    C410330   3.926   1.680  13.280 -0.0597 -0.3331 -0.1610
  695MPD2    C510331   4.052   1.623  13.268  0.2871 -0.3541  0.1085
  695MPD2     H10332   3.972   1.808  13.595  0.0461  0.5378 -1.2535
  695MPD2    H110333   3.855   1.672  13.199 -1.6168  1.7910  0.9948
  695MPD2    H210334   4.234   1.573  13.352  0.4497  2.2780 -2.2500
  695MPD2    H310335   4.082   1.580  13.174  3.7853  0.3570  0.8830
  695MPD2     N10336   3.776   1.792  13.434 -0.0363 -0.0678  0.5624
  695MPD2    H510337   3.757   1.830  13.527 -1.4477 -0.2248  0.3447
  695MPD2    N110338   4.198   1.683  13.599 -0.3055  0.1020 -0.0631
  695MPD2    H710339   4.162   1.743  13.672  3.1707  0.9436  0.9765
  696TMC3    C110340   3.547   1.809  13.429 -1.0765 -0.3510  0.5460
  696TMC3    C210341   3.519   1.755  13.551  0.2646  0.9168 -0.5199
  696TMC3    C310342   3.399   1.795  13.615  0.2569 -0.2143  0.0673
  696TMC3    C410343   3.464   1.896  13.364  0.1335  0.8031  0.0415
  696TMC3    C510344   3.342   1.926  13.429 -0.3225 -0.3577  0.5604
  696TMC3    C610345   3.310   1.886  13.556  0.1107 -0.5179  0.3217
  696TMC3     C10346   3.668   1.777  13.358  0.5140  0.7395 -0.8661
  696TMC3     O10347   3.657   1.769  13.237 -0.3497  0.1050 -0.0791
  696TMC3     H10348   3.601   1.701  13.596  1.2196  0.3787 -2.8919
  696TMC3    H110349   3.490   1.933  13.266  2.2143  0.2628  0.3719
  696TMC3    H210350   3.220   1.919  13.607  0.8444  2.1537 -0.1059
  696TMC3    C710351   3.309   2.069  13.416 -0.6608 -0.4295 -0.5478
  696TMC3    C810352   3.408   1.800  13.765 -1.1255  0.2192 -0.1944
  696TMC3    O110353   3.320   2.119  13.307  0.0310  0.4038  0.1772
  696TMC3    O210354   3.518   1.818  13.812  0.1575 -0.0807 -0.7576
  697MPD2     C10355   3.003   3.540  15.749  0.7035  0.4130 -0.4537
  697MPD2    C110356   3.017   3.473  15.630  0.3091  0.1834 -0.5759
  697MPD2    C210357   3.011   3.544  15.514  0.2658  0.7620  0.1813
  697MPD2    C310358   2.980   3.681  15.519 -0.0643 -0.0385  0.1283
  697MPD2    C410359   2.984   3.745  15.639  0.1341 -0.3202  0.2165
  697MPD2    C510360   2.992   3.673  15.755 -0.3514  0.0093 -0.5390
  697MPD2     H10361   3.008   3.488  15.421  1.6703 -0.8635  1.1081
  697MPD2    H110362   2.958   3.851  15.640  1.2323 -0.0288 -1.5990
  697MPD2    H210363   3.008   3.492  15.846 -0.3143 -0.9927 -1.0900
  697MPD2    H310364   2.984   3.732  15.846  1.1689  1.3891 -1.3047
  697MPD2     N10365   2.963   3.741  15.388 -0.4937 -0.2052 -0.7544
  697MPD2    H510366   2.975   3.682  15.306  1.3217 -1.2892  0.3002
  697MPD2    N110367   3.055   3.338  15.632  0.2600  0.6272  0.0902
  697MPD2    H710368   3.060   3.298  15.725  1.7219  2.0030  0.6017
  698TMC3    C110369   2.959   3.920  15.226  0.2954 -0.9760  0.0031
  698TMC3    C210370   3.041   4.019  15.178  0.3578  0.3734  0.8208
  698TMC3    C310371   3.053   4.027  15.040 -1.1261  0.4444  0.2639
  698TMC3    C410372   2.883   3.842  15.143  0.0422 -0.8142 -0.1277
  698TMC3    C510373   2.899   3.850  15.007 -0.1375  0.6223 -1.1178
  698TMC3    C610374   2.996   3.934  14.958  0.5109  0.0132  0.0476
  698TMC3     C10375   2.956   3.879  15.361 -0.0572  0.1847 -0.0032
  698TMC3     O10376   2.955   3.973  15.435 -0.1567 -0.0730  0.6251
  698TMC3     H10377   3.089   4.078  15.255  2.5431  2.1703 -1.9121
  698TMC3    H110378   2.823   3.760  15.180 -1.6562  0.4669 -0.0414
  698TMC3    H210379   3.030   3.939  14.855  1.0050 -1.5546  0.1366
  698TMC3    C710380   2.834   3.762  14.908  0.3975 -0.0919  0.8166
  698TMC3    C810381   3.142   4.132  14.980 -0.2665  0.4350  0.2057
  698TMC3    O110382   2.895   3.740  14.803 -0.0056  0.4319 -0.0251
  698TMC3    O210383   3.125   4.131  14.860 -0.6809  0.0903 -0.1983
  699TMC3    C110384   3.331   1.897  13.049  0.6160  0.4001 -0.4482
  699TMC3    C210385   3.358   1.763  13.056 -0.4776 -0.2907 -0.5601
  699TMC3    C310386   3.260   1.687  13.111 -0.3594 -0.8317 -0.1216
  699TMC3    C410387   3.223   1.960  13.109 -0.4461  0.0376  0.4210
  699TMC3    C510388   3.129   1.878  13.171  0.2311 -0.6144  0.0591
  699TMC3    C610389   3.142   1.742  13.164  0.1881  0.1530 -0.6458
  699TMC3     C10390   3.435   1.988  12.997 -0.1459 -0.2565 -0.6934
  699TMC3     O10391   3.525   1.943  12.921  0.0910 -0.1852  0.0009
  699TMC3     H10392   3.445   1.727  13.004 -0.1878  1.6219 -1.3972
  699TMC3    H110393   3.195   2.063  13.092  1.1136  0.1806 -1.2441
  699TMC3    H210394   3.069   1.674  13.206 -0.6883  0.2044 -2.0859
  699TMC3    C710395   3.010   1.928  13.232  0.3807 -0.4264 -0.0716
  699TMC3    C810396   3.292   1.569  13.186  0.0095  0.1931  0.1205
  699TMC3    O110397   2.920   1.848  13.255  0.1435  0.4070  0.1381
  699TMC3    O210398   3.198   1.502  13.231 -0.4779 -0.4376 -0.0438
  700TMC3    C110399   2.431   3.664  17.587  0.3643 -0.6195  0.0908
  700TMC3    C210400   2.504   3.555  17.573 -0.1297  0.1317 -0.1849
  700TMC3    C310401   2.635   3.566  17.620  0.5657 -0.5758 -0.8150
  700TMC3    C410402   2.479   3.779  17.648  0.2239 -0.1020  0.5899
  700TMC3    C510403   2.606   3.781  17.705  0.2148 -0.0689 -0.1659
  700TMC3    C610404   2.693   3.677  17.685 -0.7545  0.2932  0.3840
  700TMC3     C10405   2.363   3.695  17.470 -0.0748  0.0063  0.1299
  700TMC3     O10406   2.276   3.619  17.428  0.1481 -0.3533 -0.0607
  700TMC3     H10407   2.473   3.481  17.501 -0.2393 -1.5136  1.5566
  700TMC3    H110408   2.416   3.866  17.661  2.1231  1.5827 -1.4836
  700TMC3    H210409   2.790   3.675  17.732 -0.9742  1.4878  0.8669
  700TMC3    C710410   2.658   3.891   0.024  0.5565  0.1844  0.3439
  700TMC3    C810411   2.732   3.472  17.559  0.9497 -0.3192  0.1968
  700TMC3    O110412   2.776   3.919   0.012 -0.2620  0.6066  0.1720
  700TMC3    O210413   2.842   3.516  17.527  0.4410 -0.1925 -0.0907
  701TMC3    C110414   2.383   2.909  15.722 -0.0833 -0.2470 -0.3538
  701TMC3    C210415   2.381   2.857  15.588 -0.1912 -0.7007  0.4027
  701TMC3    C310416   2.472   2.914  15.506 -0.7349  0.0459  0.0638
  701TMC3    C410417   2.473   3.001  15.772  0.4426 -0.0120  0.1585
  701TMC3    C510418   2.566   3.045  15.683 -0.1151  0.2342  0.0258
  701TMC3    C610419   2.568   2.999  15.556  0.1059 -0.8573 -0.2250
  701TMC3     C10420   2.298   2.838  15.815  0.0104  0.1200  0.3793
  701TMC3     O10421   2.225   2.751  15.768  0.1003  0.4795  0.0341
  701TMC3     H10422   2.298   2.802  15.543 -1.2959 -0.8700  2.6693
  701TMC3    H110423   2.477   3.030  15.877  1.2866 -0.3558  0.2228
  701TMC3    H210424   2.633   3.047  15.483  0.5055  2.7701  2.5207
  701TMC3    C710425   2.648   3.157  15.715 -0.3800  0.5137 -0.6245
  701TMC3    C810426   2.452   2.909  15.362  0.3744  0.8432 -1.0074
  701TMC3    O110427   2.678   3.245  15.630  0.0644  0.0656 -0.1412
  701TMC3    O210428   2.515   2.988  15.289 -0.0006  0.0681 -0.2658
  702MPD2     C10429   2.283   4.583  10.539 -0.4788  0.9608 -0.1861
  702MPD2    C110430   2.160   4.538  10.594 -0.4584 -0.0965 -0.4991
  702MPD2    C210431   2.066   4.485  10.509 -0.1316  0.1826  0.3954
  702MPD2    C310432   2.094   4.463  10.374  0.2875 -0.1331  0.8418
  702MPD2    C410433   2.219   4.492  10.328  0.0495  0.7158  0.2094
  702MPD2    C510434   2.311   4.548  10.409 -0.9724 -0.0388 -0.1703
  702MPD2     H10435   1.978   4.449  10.561  0.1354  0.7771  1.2507
  702MPD2    H110436   2.258   4.457  10.233 -0.8553 -1.5540  0.6727
  702MPD2    H210437   2.357   4.627  10.605  0.3708  0.3329 -0.7165
  702MPD2    H310438   2.406   4.566  10.360 -0.6172  0.2103  0.6055
  702MPD2     N10439   2.002   4.393  10.286  0.1639 -0.2127  0.1247
  702MPD2    H510440   2.037   4.354  10.199  0.4986 -2.2329  1.1809
  702MPD2    N110441   2.124   4.548  10.728  0.4878 -0.1408  0.0368
  702MPD2    H710442   2.042   4.496  10.757  0.2186  0.1942 -0.1252
  703TMC3    C110443   1.781   4.440  10.379 -0.0931  0.1631 -0.5946
  703TMC3    C210444   1.697   4.381  10.472 -0.2350  0.1053  0.6303
  703TMC3    C310445   1.643   4.461  10.569 -0.5059  0.0125 -0.2044
  703TMC3    C410446   1.810   4.571  10.386  0.6407 -0.2773 -0.4504
  703TMC3    C510447   1.761   4.645  10.491  0.2846  0.7472  0.1959
  703TMC3    C610448   1.666   4.596  10.576  0.2836  0.0366 -0.0873
  703TMC3     C10449   1.873   4.353  10.307  0.0465 -0.1809 -0.3253
  703TMC3     O10450   1.817   4.266  10.243  0.3939  0.2807  0.5494
  703TMC3     H10451   1.672   4.278  10.451 -0.1032  0.2073 -0.0180
  703TMC3    H110452   1.872   4.616  10.309  0.1021  1.2300 -0.0028
  703TMC3    H210453   1.617   4.658  10.650  2.3996  2.5495 -0.8036
  703TMC3    C710454   1.830   0.028  10.529 -0.8069 -0.6451 -0.3608
  703TMC3    C810455   1.544   4.407  10.662 -0.0536  0.2120  0.2343
  703TMC3    O110456   1.893   0.079  10.440  0.2372 -0.1143 -0.8123
  703TMC3    O210457   1.522   4.287  10.646  0.5482  0.0742  0.6806
  704TMC3    C110458   4.613   3.365  12.736 -0.5037  0.3130  0.5148
  704TMC3    C210459   4.734   3.393  12.678 -0.1049  0.1298  0.4213
  704TMC3    C310460   0.086   3.288  12.686 -0.1445 -0.0951  0.4392
  704TMC3    C410461   4.579   3.249  12.805  0.1683  0.1409 -0.1928
  704TMC3    C510462   4.686   3.162  12.837 -0.5068 -0.6227  0.2526
  704TMC3    C610463   0.064   3.177  12.772  0.0580 -0.0654 -0.7916
  704TMC3     C10464   4.501   3.424  12.661 -0.2175  0.6812  0.2300
  704TMC3     O10465   4.395   3.449  12.718  0.4446  0.3549 -0.5643
  704TMC3     H10466   0.021   3.496  12.657  1.9546 -0.5227 -0.1904
  704TMC3    H110467   4.476   3.225  12.831  0.2517 -0.7186 -0.6847
  704TMC3    H210468   0.139   3.100  12.786  0.6238  0.2251 -2.3172
  704TMC3    C710469   4.646   3.024  12.849  0.0268 -0.3385  0.1656
  704TMC3    C810470   0.213   3.301  12.620 -0.2365 -0.4610 -0.1736
  704TMC3    O110471   4.714   2.935  12.795 -0.0629 -0.3574 -0.1449
  704TMC3    O210472   0.243   3.420  12.608  0.1439  0.8713  0.6013
  705MPD2     C10473   3.883   1.319  16.224 -0.5681 -0.2538 -0.1437
  705MPD2    C110474   3.878   1.458  16.235 -0.5602 -0.4559  0.4415
  705MPD2    C210475   3.768   1.519  16.285  0.1204  0.2397 -0.5073
  705MPD2    C310476   3.655   1.446  16.325  0.6115  0.1719  0.5818
  705MPD2    C410477   3.663   1.310  16.314  0.4053 -0.3220  0.0139
  705MPD2    C510478   3.776   1.250  16.260  0.0182  0.3077 -0.1674
  705MPD2     H10479   3.768   1.627  16.283 -3.1385  0.2812  1.3397
  705MPD2    H110480   3.578   1.246  16.338  2.0252 -2.2318  0.6718
  705MPD2    H210481   3.971   1.269  16.185 -2.0669 -1.5313 -1.8889
  705MPD2    H310482   3.770   1.142  16.261 -0.8176  0.3721  1.3484
  705MPD2     N10483   3.535   1.511  16.374  0.0213 -0.4253 -0.3078
  705MPD2    H510484   3.447   1.461  16.384 -1.3723  2.4866  1.9215
  705MPD2    N110485   3.982   1.547  16.195  0.1023  0.1195 -0.3789
  705MPD2    H710486   3.963   1.647  16.199  0.2114  0.1188  0.0808
  706TMC3    C110487   4.322   1.716  15.929 -0.1750 -0.2194  0.2422
  706TMC3    C210488   4.260   1.837  15.916 -0.6593  0.0566  0.0523
  706TMC3    C310489   4.138   1.850  15.977 -0.3711 -0.7170 -0.2266
  706TMC3    C410490   4.269   1.618  16.002  0.2882 -0.2666  0.3684
  706TMC3    C510491   4.147   1.630  16.058  0.3823  0.1938  0.3162
  706TMC3    C610492   4.077   1.745  16.046 -0.2939  0.4550 -0.0075
  706TMC3     C10493   4.385   1.670  15.803 -0.0559  0.2996 -0.1101
  706TMC3     O10494   4.360   1.720  15.697 -0.2463 -0.2723  0.3065
  706TMC3     H10495   4.303   1.913  15.851  0.1836 -0.7472 -0.3209
  706TMC3    H110496   4.325   1.526  16.006  0.4628 -0.1866 -0.2033
  706TMC3    H210497   3.976   1.766  16.079 -1.2564 -2.6485 -0.9634
  706TMC3    C710498   4.099   1.520  16.131 -0.0612 -0.2269 -0.1309
  706TMC3    C810499   4.087   1.985  15.990 -0.2349 -0.1622  0.1827
  706TMC3    O110500   4.149   1.412  16.102  0.5881 -0.3703 -0.3118
  706TMC3    O210501   4.092   2.052  15.891  0.4737 -0.1844 -0.4134
  707TMC3    C110502   0.822   0.430   1.081  0.1064  0.3148 -0.1772
  707TMC3    C210503   0.893   0.385   1.192 -0.1035 -0.7399  0.2638
  707TMC3    C310504   0.866   0.437   1.314  0.0752  0.0029 -0.1549
  707TMC3    C410505   0.721   0.517   1.096  0.2265  0.5430  0.6628
  707TMC3    C510506   0.693   0.564   1.221 -0.3176  0.4932  0.1547
  707TMC3    C610507   0.758   0.529   1.335 -0.0050 -0.3944  0.0436
  707TMC3     C10508   0.889   0.408   0.956 -0.0103  0.2888  0.7371
  707TMC3     O10509   0.964   0.312   0.942  0.4332  0.0930 -0.2697
  707TMC3     H10510   0.970   0.309   1.179  1.4623  0.6507  1.3253
  707TMC3    H110511   0.655   0.537   1.013 -0.0602 -0.8548  0.5519
  707TMC3    H210512   0.730   0.550   1.438  0.7242  0.3384  0.0898
  707TMC3    C710513   0.555   0.609   1.234 -1.3530  0.9845 -0.6619
  707TMC3    C810514   0.952   0.404   1.421 -0.4098  0.1157  0.0674
  707TMC3    O110515   0.467   0.589   1.157 -0.3501 -0.2285  0.1524
  707TMC3    O210516   0.940   0.479   1.518  0.5128  0.5383 -0.3612
  708MPD2     C10517   2.145   4.638  14.109  0.5293 -0.1251 -0.8620
  708MPD2    C110518   2.189   0.005  14.177  0.1797 -0.1673  0.3853
  708MPD2    C210519   2.209   4.738  14.313 -0.5104  0.4703  0.0674
  708MPD2    C310520   2.183   4.621  14.382 -0.3618 -0.0140 -0.1098
  708MPD2    C410521   2.126   4.521  14.313  0.5848 -0.1133  0.0966
  708MPD2    C510522   2.105   4.528  14.178 -0.0431  0.3652 -0.4922
  708MPD2     H10523   2.251   0.081  14.369 -0.2361 -2.1762  3.7858
  708MPD2    H110524   2.103   4.429  14.367 -1.9000 -0.9014 -2.2912
  708MPD2    H210525   2.107   4.650  14.008 -0.7817 -0.4830 -0.4123
  708MPD2    H310526   2.060   4.442  14.131  1.8054 -1.7502  1.5730
  708MPD2     N10527   2.198   4.612  14.522 -0.1070 -0.4010 -0.6976
  708MPD2    H510528   2.163   4.527  14.567  1.7357  0.3374  2.1363
  708MPD2    N110529   2.210   0.125  14.101 -0.1665  0.1068  0.5460
  708MPD2    H710530   2.178   0.125  14.005  2.3491 -0.1805 -0.2813
  709TMC3    C110531   2.165   0.346  14.070  0.0810  0.0892 -0.6398
  709TMC3    C210532   2.108   0.290  13.959  0.6869  0.0068 -0.2912
  709TMC3    C310533   1.971   0.302  13.935  0.3901  1.0348 -0.2017
  709TMC3    C410534   2.084   0.416  14.156 -0.0978  0.6006 -0.3436
  709TMC3    C510535   1.944   0.400  14.147 -0.8699 -0.1337  0.5376
  709TMC3    C610536   1.885   0.345  14.033 -0.0500  0.1317  0.4803
  709TMC3     C10537   2.239   0.247  14.147  1.1406  0.3233 -0.2077
  709TMC3     O10538   2.281   0.276  14.259 -0.6207  0.2594 -0.7861
  709TMC3     H10539   2.174   0.235  13.893 -0.1722  0.6797 -1.7212
  709TMC3    H110540   2.124   0.453  14.249 -1.5012  0.4741  0.2988
  709TMC3    H210541   1.778   0.332  14.021  0.3029 -0.5948 -1.7795
  709TMC3    C710542   1.894   0.363  14.279  0.1690  0.8328 -0.0029
  709TMC3    C810543   1.916   0.239  13.816  0.0816  0.1906  0.3040
  709TMC3    O110544   1.945   0.403  14.380 -0.0035 -0.2218 -0.0908
  709TMC3    O210545   1.802   0.195  13.820  0.8602  0.3417 -0.0237
  710TMC3    C110546   3.080   1.043   0.273  0.8730  0.1242 -0.0785
  710TMC3    C210547   3.177   1.011   0.184 -0.1045 -0.5832  0.3369
  710TMC3    C310548   3.302   0.995   0.237  0.4576 -0.0853 -0.0256
  710TMC3    C410549   3.096   1.059   0.406 -0.7731  0.0962 -0.3721
  710TMC3    C510550   3.222   1.033   0.455  0.5672  0.1723 -0.2404
  710TMC3    C610551   3.328   1.002   0.373  0.0182  0.1886  0.3154
  710TMC3     C10552   2.959   1.102   0.216 -0.0633  0.8348 -1.0199
  710TMC3     O10553   2.939   1.073   0.100  0.2208 -0.1361  0.4408
  710TMC3     H10554   3.165   0.993   0.077  2.3981 -2.2521  0.3353
  710TMC3    H110555   3.007   1.056   0.468 -0.6643 -0.0076 -0.2211
  710TMC3    H210556   3.430   0.999   0.410  0.5841 -0.2750 -1.3011
  710TMC3    C710557   3.238   1.002   0.600  0.3043  0.5099 -0.3691
  710TMC3    C810558   3.408   1.024   0.147 -0.0808  0.0728 -0.2498
  710TMC3    O110559   3.319   0.911   0.625 -0.2534  0.3830 -0.1731
  710TMC3    O210560   3.515   0.974   0.185  0.2309  0.8951  0.0615
  711TMC3    C110561   2.859   2.300  14.908 -0.3189  0.1584 -0.2399
  711TMC3    C210562   2.893   2.296  15.040  0.3239 -0.4943  0.5015
  711TMC3    C310563   2.978   2.397  15.084  0.0843 -1.3567 -0.2233
  711TMC3    C410564   2.921   2.384  14.819  0.4839  0.2401 -0.4284
  711TMC3    C510565   3.019   2.466  14.862 -0.1333 -0.3381  0.3329
  711TMC3    C610566   3.038   2.485  15.000 -0.5549  0.5210 -0.1862
  711TMC3     C10567   2.831   2.172  14.849 -0.2265 -1.2100  0.4228
  711TMC3     O10568   2.811   2.178  14.730 -0.3163 -0.7837  0.1246
  711TMC3     H10569   2.836   2.233  15.107  2.2779 -0.8649  1.8264
  711TMC3    H110570   2.891   2.389  14.715  1.7550  0.9678 -0.7610
  711TMC3    H210571   3.105   2.561  15.039 -3.2070  3.0223 -0.5191
  711TMC3    C710572   3.144   2.415  14.809 -0.0131 -0.7960 -0.1525
  711TMC3    C810573   2.987   2.420  15.228  0.1547 -0.1978 -0.3974
  711TMC3    O110574   3.239   2.438  14.878  0.1724  0.5413 -0.5925
  711TMC3    O210575   2.890   2.386  15.295 -0.1898  1.7016 -0.1902
  712MPD2     C10576   0.088   3.270  13.471  0.6523 -0.6042 -0.0023
  712MPD2    C110577   4.739   3.286  13.576  0.1769  0.0603  0.2184
  712MPD2    C210578   4.726   3.414  13.634 -0.2867  0.3037 -0.3569
  712MPD2    C310579   0.048   3.525  13.591  0.5187  0.7234  0.0160
  712MPD2    C410580   0.126   3.512  13.478 -0.1763  0.4114 -0.5485
  712MPD2    C510581   0.135   3.385  13.412 -0.3965 -0.1305 -0.4637
  712MPD2     H10582   4.662   3.422  13.721 -1.7862 -1.7373 -1.2945
  712MPD2    H110583   0.185   3.592  13.434 -0.8609  1.8627  1.1891
  712MPD2    H210584   0.103   3.174  13.423  0.0455 -0.4557 -0.4959
  712MPD2    H310585   0.193   3.381  13.321 -0.3703  1.9834 -0.5507
  712MPD2     N10586   0.047   3.652  13.647  0.0493 -0.0524  0.1177
  712MPD2    H510587   0.109   3.725  13.613 -0.8968  0.3764 -0.6955
  712MPD2    N110588   4.664   3.188  13.643 -0.0404 -0.1384  0.0084
  712MPD2    H710589   4.606   3.217  13.721 -1.7195 -0.6964 -1.0216
  713TMC3    C110590   4.737   3.823  13.794 -0.8048  0.1085  0.0775
  713TMC3    C210591   0.115   3.886  13.770  0.3932  0.1479  0.4291
  713TMC3    C310592   0.131   4.007  13.834  0.0800 -0.2758  0.1106
  713TMC3    C410593   4.639   3.886  13.872 -0.0857  0.2378  0.6751
  713TMC3    C510594   4.666   4.003  13.931  0.7703 -0.3207  0.8112
  713TMC3    C610595   0.040   4.070  13.915  0.3440  0.7537 -0.9423
  713TMC3     C10596   4.704   3.693  13.747 -0.4797 -0.3983 -0.0267
  713TMC3     O10597   4.598   3.644  13.780 -0.4215 -0.1134 -0.0857
  713TMC3     H10598   0.188   3.844  13.702 -1.0229  0.3273 -1.2087
  713TMC3    H110599   4.546   3.837  13.899  0.8845 -1.8033  0.3862
  713TMC3    H210600   0.062   4.169  13.955  1.2472  0.6922 -1.2847
  713TMC3    C710601   4.570   4.065  14.029  0.0771  0.1598 -0.5981
  713TMC3    C810602   0.262   4.076  13.813  0.2289  0.1817  0.2641
  713TMC3    O110603   4.624   4.111  14.129  0.1607  0.3229  0.3158
  713TMC3    O210604   0.321   4.049  13.708 -0.0023 -0.3343 -0.4046
  714MPD2     C10605   2.051   1.845   1.567  0.6721  0.2006 -0.1102
  714MPD2    C110606   2.070   1.809   1.437  0.4523 -0.0044  0.0987
  714MPD2    C210607   2.005   1.879   1.339 -0.4084  0.4959 -0.2558
  714MPD2    C310608   1.905   1.968   1.377 -0.7480 -0.0340 -0.6371
  714MPD2    C410609   1.882   1.999   1.509 -0.1445 -0.1374 -0.1784
  714MPD2    C510610   1.955   1.935   1.602 -0.0828  0.2736  0.3030
  714MPD2     H10611   2.010   1.850   1.235 -2.1635 -1.2714  0.1585
  714MPD2    H110612   1.799   2.062   1.540  0.6415  1.5161 -1.4283
  714MPD2    H210613   2.120   1.811   1.644 -0.5644 -0.3941  0.7402
  714MPD2    H310614   1.953   1.969   1.705  1.2666 -0.0846  0.4449
  714MPD2     N10615   1.827   2.039   1.285  0.6625  0.3703  0.3928
  714MPD2    H510616   1.746   2.084   1.326 -1.8739 -0.0420 -4.2366
  714MPD2    N110617   2.162   1.709   1.408  0.3335  0.7576  0.0577
  714MPD2    H710618   2.221   1.675   1.484  1.1811  2.8835  0.3697
  715TMC3    C110619   2.320   1.585   1.292  0.2350  0.7056  0.1879
  715TMC3    C210620   2.329   1.475   1.213  0.6279  0.3239  0.6913
  715TMC3    C310621   2.440   1.393   1.240  0.4136 -0.2596 -0.8737
  715TMC3    C410622   2.418   1.643   1.365 -0.0070  0.3508 -0.0075
  715TMC3    C510623   2.533   1.561   1.374 -0.5135  0.2490 -0.2423
  715TMC3    C610624   2.543   1.436   1.321 -1.1964 -0.1988 -0.0443
  715TMC3     C10625   2.194   1.655   1.287  0.1077 -0.0462  0.3598
  715TMC3     O10626   2.116   1.646   1.190 -0.9216 -0.5629  0.2160
  715TMC3     H10627   2.245   1.446   1.151  0.3855  1.6108  0.4157
  715TMC3    H110628   2.414   1.744   1.405  1.6141 -0.0302  1.1100
  715TMC3    H210629   2.632   1.374   1.325 -0.6352  0.6230  0.0183
  715TMC3    C710630   2.661   1.631   1.372 -0.1575 -0.0248 -0.0998
  715TMC3    C810631   2.439   1.258   1.194 -0.4248  0.3595 -0.9017
  715TMC3    O110632   2.745   1.575   1.300  0.4116 -0.1150 -0.3990
  715TMC3    O210633   2.366   1.224   1.097  0.2928  0.5626  0.0338
  716MPD2     C10634   0.992   3.638   9.844 -0.4314  0.3248 -0.2762
  716MPD2    C110635   0.987   3.714   9.728 -0.1554 -0.0255  0.4715
  716MPD2    C210636   1.039   3.663   9.611 -0.7721  0.1816  0.4698
  716MPD2    C310637   1.113   3.547   9.609 -0.2308 -0.1965 -0.6018
  716MPD2    C410638   1.111   3.467   9.725 -0.4148  0.5568  0.1027
  716MPD2    C510639   1.052   3.519   9.837  0.0847 -0.3465 -0.0386
  716MPD2     H10640   1.026   3.721   9.520 -1.0362  0.0835  0.4460
  716MPD2    H110641   1.158   3.369   9.720  1.3945  1.2894  2.6563
  716MPD2    H210642   0.957   3.673   9.940  0.4139 -0.0676  0.1688
  716MPD2    H310643   1.058   3.466   9.931  1.8900 -0.3333 -0.1367
  716MPD2     N10644   1.175   3.499   9.490 -0.2595  0.0664  0.6544
  716MPD2    H510645   1.165   3.554   9.405 -0.7955 -0.2581  0.5003
  716MPD2    N110646   0.935   3.842   9.746 -0.4356 -0.4077  0.6685
  716MPD2    H710647   0.931   3.868   9.844 -0.1983  0.0310  0.5640
  717TMC3    C110648   1.331   3.396   9.353 -0.1016  0.0966 -0.8572
  717TMC3    C210649   1.253   3.435   9.250  0.1971 -0.5653  0.3229
  717TMC3    C310650   1.318   3.493   9.151 -0.9037 -0.1911  0.0678
  717TMC3    C410651   1.469   3.389   9.341 -0.0499  0.2521 -0.1866
  717TMC3    C510652   1.521   3.434   9.221  0.0354 -1.0665 -0.2198
  717TMC3    C610653   1.452   3.489   9.123  0.1287  0.0319  0.3041
  717TMC3     C10654   1.275   3.404   9.484 -0.0769 -0.6734 -0.2074
  717TMC3     O10655   1.355   3.368   9.574 -0.0814  0.0640 -0.2056
  717TMC3     H10656   1.145   3.447   9.252  0.6926  4.1987 -0.3335
  717TMC3    H110657   1.524   3.340   9.421  0.1206 -1.1769 -1.1870
  717TMC3    H210658   1.492   3.535   9.034  0.8408 -1.1664  0.0001
  717TMC3    C710659   1.662   3.402   9.198 -0.0948  0.0258  0.4025
  717TMC3    C810660   1.246   3.601   9.091  0.6269  0.0114  0.5823
  717TMC3    O110661   1.713   3.348   9.297  0.1497  0.0815 -0.5571
  717TMC3    O210662   1.164   3.641   9.168  0.0634 -0.4127  0.7679
  718MPD2     C10663   1.798   3.780  12.299  0.2446 -0.1816 -0.1535
  718MPD2    C110664   1.745   3.892  12.362  0.2659  0.5615 -1.1017
  718MPD2    C210665   1.612   3.887  12.382  1.2256  0.0858 -0.5870
  718MPD2    C310666   1.532   3.773  12.372 -0.4435 -0.2259  0.4020
  718MPD2    C410667   1.592   3.659  12.325 -0.3949 -0.1035 -0.5564
  718MPD2    C510668   1.722   3.665  12.285  0.4154  0.8230  0.2973
  718MPD2     H10669   1.559   3.973  12.421  1.2871  0.3939 -1.1820
  718MPD2    H110670   1.537   3.567  12.318 -0.2617  0.0313 -3.1009
  718MPD2    H210671   1.899   3.774  12.260  1.2805  0.6607  2.3975
  718MPD2    H310672   1.760   3.585  12.222 -4.1198 -1.7190  0.7556
  718MPD2     N10673   1.404   3.781  12.430 -0.0009 -0.1856  0.5171
  718MPD2    H510674   1.370   3.873  12.457 -0.0361 -0.3340  0.9696
  718MPD2    N110675   1.829   3.997  12.386  0.3667 -0.1733  0.2585
  718MPD2    H710676   1.924   4.010  12.352  0.5057 -2.3215 -0.1901
  719TMC3    C110677   1.923   4.185  12.476 -0.9577 -0.4892  0.0495
  719TMC3    C210678   1.888   4.297  12.545 -0.1087  0.0863 -0.1339
  719TMC3    C310679   1.951   4.332  12.663 -0.2422 -0.2766  0.2393
  719TMC3    C410680   2.036   4.111  12.513 -0.3139 -0.0286  0.0549
  719TMC3    C510681   2.114   4.159  12.615 -0.8354 -0.6155 -0.5093
  719TMC3    C610682   2.074   4.269  12.688  0.1340 -0.0611  0.8536
  719TMC3     C10683   1.803   4.113  12.449  0.2191  0.7720  0.5172
  719TMC3     O10684   1.706   4.136  12.523  0.0592  0.2581  0.8618
  719TMC3     H10685   1.797   4.341  12.505 -0.3995 -0.1896  0.2260
  719TMC3    H110686   2.068   4.014  12.477  1.6906  1.4248 -2.0587
  719TMC3    H210687   2.122   4.286  12.784  1.2280  0.0540  0.2902
  719TMC3    C710688   2.249   4.120  12.626  0.6037 -0.3252 -0.9615
  719TMC3    C810689   1.865   4.349  12.775 -0.1689  0.3395  0.5446
  719TMC3    O110690   2.274   4.011  12.576  0.1964 -0.0224  0.4769
  719TMC3    O210691   1.929   4.375  12.877 -0.4396  0.2044  0.3422
  720MPD2     C10692   4.280   0.255  14.337  0.2538  0.4585  0.0750
  720MPD2    C110693   4.348   0.322  14.243  1.4635 -0.3469  0.2434
  720MPD2    C210694   4.482   0.364  14.267 -0.4168 -0.4854 -0.5792
  720MPD2    C310695   4.549   0.337  14.386  0.2061  0.2231  0.2490
  720MPD2    C410696   4.477   0.258  14.477 -0.2695  0.2351  0.9625
  720MPD2    C510697   4.342   0.224  14.456  0.4633  0.9051 -0.8949
  720MPD2     H10698   4.537   0.417  14.190 -0.8452  0.6105 -0.1264
  720MPD2    H110699   4.522   0.227  14.571  1.6464 -1.4603 -0.5093
  720MPD2    H210700   4.176   0.228  14.324  0.2168 -0.0927  1.5103
  720MPD2    H310701   4.290   0.166  14.531  0.9727  0.0527 -1.2041
  720MPD2     N10702   4.682   0.382  14.398  0.5546  0.3237 -0.2294
  720MPD2    H510703   4.719   0.424  14.314  1.5961  0.2471  0.1917
  720MPD2    N110704   4.289   0.353  14.112  0.1159  0.0616 -0.8506
  720MPD2    H710705   4.357   0.410  14.063  0.6481 -0.3639 -0.6134
  721TMC3    C110706   0.132   0.466  14.508 -0.7835  0.1412 -0.5639
  721TMC3    C210707   0.174   0.518  14.630 -0.4065 -0.4025 -0.0533
  721TMC3    C310708   0.307   0.551  14.659  0.6575  0.8219  0.8303
  721TMC3    C410709   0.230   0.455  14.409  0.0796  0.3050 -0.1317
  721TMC3    C510710   0.364   0.498  14.437  0.1612 -0.1136  0.4017
  721TMC3    C610711   0.398   0.546  14.560  0.2932  0.4436 -0.6803
  721TMC3     C10712   0.016   0.383  14.511  0.2099  0.4854 -0.2889
  721TMC3     O10713   4.726   0.337  14.617  0.1709 -0.1646 -0.1866
  721TMC3     H10714   0.092   0.541  14.697 -1.0462 -0.3756 -0.8435
  721TMC3    H110715   0.209   0.416  14.310 -1.7562  1.4070 -0.1798
  721TMC3    H210716   0.500   0.579  14.581 -0.0403 -0.2111  2.0376
  721TMC3    C710717   0.470   0.494  14.338 -0.8796 -0.0965 -0.4729
  721TMC3    C810718   0.331   0.639  14.778 -0.8345  0.1549 -0.2362
  721TMC3    O110719   0.459   0.548  14.229  0.7252 -0.3332 -0.0034
  721TMC3    O210720   0.446   0.685  14.788  0.2608  0.1954  0.4094
  722MPD2     C10721   3.551   3.851  13.533  0.0669  0.4529 -0.6351
  722MPD2    C110722   3.484   3.971  13.547 -0.4939 -0.2209  0.0077
  722MPD2    C210723   3.354   3.982  13.507  0.2766  0.3628  0.3999
  722MPD2    C310724   3.290   3.878  13.439 -0.2477 -0.2988 -0.1255
  722MPD2    C410725   3.360   3.759  13.410  0.3735  0.1213  0.7389
  722MPD2    C510726   3.487   3.748  13.465  0.4175 -0.1104 -0.1329
  722MPD2     H10727   3.289   4.066  13.528 -2.7858 -1.5384 -1.4816
  722MPD2    H110728   3.319   3.680  13.349  2.1710 -1.0354  1.0694
  722MPD2    H210729   3.650   3.826  13.569  1.2134  2.4952 -2.3774
  722MPD2    H310730   3.541   3.655  13.454  2.4122  1.0116  0.2706
  722MPD2     N10731   3.162   3.911  13.392  0.0031 -0.4389  0.3611
  722MPD2    H510732   3.127   4.005  13.409 -0.1362 -0.5616  0.7606
  722MPD2    N110733   3.541   4.092  13.592  0.2097 -0.1856  0.0017
  722MPD2    H710734   3.478   4.171  13.596  1.0912  0.6693 -3.2855
  723TMC3    C110735   2.946   3.885  13.310 -0.7085 -0.3107  0.7122
  723TMC3    C210736   2.853   3.804  13.241  0.1030  0.6623 -0.6989
  723TMC3    C310737   2.728   3.860  13.229  0.0729  0.1105  0.3654
  723TMC3    C410738   2.912   4.010  13.365  0.0876  0.1701  0.2433
  723TMC3    C510739   2.787   4.058  13.349  0.0425  0.4673  0.4078
  723TMC3    C610740   2.691   3.985  13.278  0.5367  0.1071 -0.7319
  723TMC3     C10741   3.071   3.821  13.333  0.3055  0.3321  0.5119
  723TMC3     O10742   3.081   3.698  13.313  0.3096 -0.5592 -0.1170
  723TMC3     H10743   2.884   3.703  13.215  1.1459  1.5086 -2.7137
  723TMC3    H110744   2.984   4.070  13.419 -0.8211 -0.1768  1.8507
  723TMC3    H210745   2.592   4.026  13.264  0.5102 -0.5302 -2.3438
  723TMC3    C710746   2.786   4.206  13.347 -0.1811 -1.1524  0.0235
  723TMC3    C810747   2.622   3.789  13.177 -0.0016 -0.1469  0.1233
  723TMC3    O110748   2.854   4.270  13.429 -0.4308  0.1773  0.2875
  723TMC3    O210749   2.511   3.844  13.179 -0.0747 -0.3469  0.3469
  724TMC3    C110750   3.803   1.657  10.590  0.3473 -0.4482  0.3696
  724TMC3    C210751   3.737   1.730  10.498  0.7680 -0.7370  0.6621
  724TMC3    C310752   3.812   1.799  10.401 -0.5176  0.0743 -0.0657
  724TMC3    C410753   3.939   1.652  10.595  0.1383  0.2031 -0.5219
  724TMC3    C510754   4.011   1.725  10.497  0.3098  0.5240  0.4139
  724TMC3    C610755   3.950   1.797  10.399  0.6927  0.6809 -0.0685
  724TMC3     C10756   3.719   1.592  10.691 -0.1630  0.4909  0.2780
  724TMC3     O10757   3.603   1.585  10.659 -0.3714  0.6058 -0.6713
  724TMC3     H10758   3.630   1.746  10.512  1.0932  0.7254  1.4367
  724TMC3    H110759   3.988   1.589  10.668 -0.8651 -0.9231 -0.8038
  724TMC3    H210760   4.018   1.850  10.334  1.0656  1.6467  1.1217
  724TMC3    C710761   4.156   1.742  10.507  0.2617 -0.1413  0.3247
  724TMC3    C810762   3.751   1.896  10.315 -0.3870 -0.5452 -0.1299
  724TMC3    O110763   4.214   1.763  10.400 -0.4754 -0.1773  0.0388
  724TMC3    O210764   3.637   1.872  10.283  0.1925  0.0623  0.2451
  725TMC3    C110765   0.407   0.633  12.820  0.5109  0.4065  0.5834
  725TMC3    C210766   0.283   0.649  12.772  0.2556 -0.6287  0.2366
  725TMC3    C310767   0.196   0.539  12.781  0.8821 -0.0445 -0.2377
  725TMC3    C410768   0.441   0.516  12.885 -0.0507  0.3162 -0.5846
  725TMC3    C510769   0.350   0.415  12.902  0.0171 -0.1746  0.4201
  725TMC3    C610770   0.223   0.420  12.856 -0.0051 -0.2792 -0.5383
  725TMC3     C10771   0.488   0.747  12.862  0.5082 -0.2814 -0.5538
  725TMC3     O10772   0.437   0.849  12.905 -0.6621 -0.4331  0.0107
  725TMC3     H10773   0.256   0.744  12.726 -4.2822 -1.6154  0.8372
  725TMC3    H110774   0.535   0.503  12.937  0.1718  1.6490 -0.6678
  725TMC3    H210775   0.148   0.344  12.876 -0.7283  0.2842 -1.1037
  725TMC3    C710776   0.412   0.287  12.912 -0.1624  0.1664  0.4487
  725TMC3    C810777   0.076   0.528  12.704  0.1788 -0.5126  0.5969
  725TMC3    O110778   0.526   0.275  12.864 -0.4215  0.1529  0.1291
  725TMC3    O210779   4.739   0.445  12.748 -0.1911 -0.2236 -0.3326
  726MPD2     C10780   3.035   2.091  10.221 -0.6145  0.3970 -0.4420
  726MPD2    C110781   2.919   2.164  10.194 -0.2925  0.1059  0.4414
  726MPD2    C210782   2.796   2.117  10.246  0.1138  0.3304  0.0547
  726MPD2    C310783   2.796   2.027  10.347 -0.1023 -0.8229  0.2020
  726MPD2    C410784   2.915   1.958  10.379 -0.3483 -0.1983  0.2656
  726MPD2    C510785   3.020   1.977  10.295  0.2390  0.2939  0.0636
  726MPD2     H10786   2.713   2.185  10.230 -1.3087 -1.4060  0.0209
  726MPD2    H110787   2.916   1.870  10.443 -0.3475 -0.8889 -0.6786
  726MPD2    H210788   3.130   2.121  10.179  1.8229 -4.3399  1.7570
  726MPD2    H310789   3.101   1.905  10.294 -0.0538 -0.0286 -1.3072
  726MPD2     N10790   2.683   2.008  10.430 -0.0939 -0.2363 -0.5771
  726MPD2    H510791   2.695   1.944  10.508 -0.5228  0.7056  0.2724
  726MPD2    N110792   2.922   2.287  10.120 -0.4561 -0.6595  0.0309
  726MPD2    H710793   2.832   2.324  10.093  0.2230  0.2762 -0.9375
  727TMC3    C110794   2.982   2.486  10.036 -0.3533 -0.2133  0.0346
  727TMC3    C210795   3.057   2.598  10.061 -0.4032 -0.1683  0.6493
  727TMC3    C310796   3.005   2.721  10.014 -0.2611  0.1011 -0.4061
  727TMC3    C410797   2.866   2.490   9.962  0.3289  0.6195  0.5440
  727TMC3    C510798   2.828   2.613   9.910  0.6004  0.0314  0.1192
  727TMC3    C610799   2.903   2.725   9.932 -0.4312 -0.3960 -0.5059
  727TMC3     C10800   3.032   2.369  10.100 -0.2953  0.2104  0.0701
  727TMC3     O10801   3.146   2.359  10.140 -0.4138 -0.4049  0.2100
  727TMC3     H10802   3.144   2.595  10.126 -0.9706  2.8758  1.5342
  727TMC3    H110803   2.804   2.402   9.945  1.8706 -0.9413  3.0047
  727TMC3    H210804   2.850   2.814   9.900 -0.3255  0.1749  0.9096
  727TMC3    C710805   2.695   2.637   9.845  0.1049  0.5903 -0.4096
  727TMC3    C810806   3.054   2.840  10.079  0.3193 -0.0203 -0.3545
  727TMC3    O110807   2.674   2.743   9.784 -0.2994 -0.0760 -0.1303
  727TMC3    O210808   3.135   2.822  10.171  0.0396  0.0483 -0.2059
  728TMC3    C110809   2.500   1.143  15.420 -1.0410  0.2396  0.3274
  728TMC3    C210810   2.620   1.212  15.407 -0.6434 -0.1742  0.5551
  728TMC3    C310811   2.640   1.284  15.286  0.1550 -0.2170  0.3052
  728TMC3    C410812   2.406   1.139  15.322 -0.0263 -0.4615  0.0346
  728TMC3    C510813   2.431   1.212  15.208 -0.2839 -0.2143 -0.9393
  728TMC3    C610814   2.543   1.287  15.189  0.7216  0.5245 -0.2376
  728TMC3     C10815   2.459   1.114  15.560  0.5571  0.0607  0.5210
  728TMC3     O10816   2.543   1.147  15.639 -0.2928 -0.4088  0.3324
  728TMC3     H10817   2.702   1.197  15.476 -0.1512 -0.5448 -0.1049
  728TMC3    H110818   2.316   1.080  15.338 -0.7957  0.4862 -0.7545
  728TMC3    H210819   2.554   1.350  15.101  1.3279 -0.8011 -1.1078
  728TMC3    C710820   2.333   1.200  15.100  0.1126 -0.5217  0.3832
  728TMC3    C810821   2.773   1.335  15.252  0.0670  0.4893  0.0900
  728TMC3    O110822   2.224   1.158  15.129 -0.3712  0.1688 -0.0771
  728TMC3    O210823   2.776   1.442  15.195 -0.7002 -0.2444 -0.3550
  729MPD2     C10824   0.206   2.135  16.482 -0.9484 -0.5806  0.6127
  729MPD2    C110825   0.309   2.168  16.573  0.5514 -0.6094 -0.5225
  729MPD2    C210826   0.290   2.151  16.708  0.5022  0.7701 -0.0483
  729MPD2    C310827   0.164   2.119  16.759 -0.9398  0.4604 -0.2810
  729MPD2    C410828   0.065   2.087  16.670 -0.1798  0.5033 -0.3605
  729MPD2    C510829   0.087   2.100  16.534  0.1870  0.0379 -0.0579
  729MPD2     H10830   0.363   2.180  16.783 -0.5980 -0.0079  1.3117
  729MPD2    H110831   4.709   2.057  16.709 -1.0814 -1.2932 -3.9918
  729MPD2    H210832   0.226   2.148  16.376 -0.2794 -1.5241  0.6271
  729MPD2    H310833   4.738   2.081  16.474 -0.0812  0.3051  0.2506
  729MPD2     N10834   0.139   2.118  16.900 -0.3525 -0.1212 -0.4173
  729MPD2    H510835   0.211   2.156  16.960  0.0778  1.2685 -1.8042
  729MPD2    N110836   0.426   2.224  16.510  0.0182  0.9235 -0.4479
  729MPD2    H710837   0.424   2.241  16.410 -1.0707  0.9868 -0.4062
  730TMC3    C110838   0.029   2.076  17.108  0.7283  0.3851  0.1141
  730TMC3    C210839   0.159   2.092  17.150 -0.7749  0.1795  0.4501
  730TMC3    C310840   0.176   2.179  17.255 -0.0910 -0.2825  0.0449
  730TMC3    C410841   4.670   2.150  17.170  0.1717 -0.1069 -0.5473
  730TMC3    C510842   4.688   2.222  17.286  0.4540 -0.1136  0.1059
  730TMC3    C610843   0.077   2.231  17.334  0.5878 -0.5675  0.4417
  730TMC3     C10844   0.026   2.057  16.961  0.3029  0.4342  0.0367
  730TMC3     O10845   4.672   1.998  16.919 -0.2937  0.1919  0.6149
  730TMC3     H10846   0.242   2.040  17.104  0.7355  2.5679  0.4402
  730TMC3    H110847   4.568   2.139  17.136  1.0500 -1.1682 -2.8521
  730TMC3    H210848   0.098   2.282  17.428 -1.4104  0.7855  0.1473
  730TMC3    C710849   4.619   2.347  17.282  0.7448  1.2107  0.4343
  730TMC3    C810850   0.251   2.295  17.198  0.0282 -0.4807 -0.0736
  730TMC3    O110851   4.572   2.375  17.174  0.1893 -0.4565  0.0223
  730TMC3    O210852   0.326   2.265  17.100  0.0540 -0.6298  0.1554
  731MPD2     C10853   4.121   4.677  12.747 -0.1414  0.0557  0.1216
  731MPD2    C110854   4.235   4.599  12.730 -0.5177 -0.1201  0.3159
  731MPD2    C210855   4.264   4.515  12.837  0.4192  0.1779 -0.1432
  731MPD2    C310856   4.191   4.514  12.957  0.7437  0.3067 -0.2436
  731MPD2    C410857   4.082   4.600  12.969  0.2249 -0.1196 -0.3169
  731MPD2    C510858   4.052   4.686  12.869 -0.1381 -0.2999  0.7095
  731MPD2     H10859   4.340   4.437  12.836  0.6178  0.3663  0.2320
  731MPD2    H110860   4.024   4.618  13.059  1.0396 -0.0686  0.1955
  731MPD2    H210861   4.087   4.736  12.663  0.5168  1.8207  1.0937
  731MPD2    H310862   3.971   0.016  12.888  0.6799  0.1850  2.4703
  731MPD2     N10863   4.235   4.428  13.060  0.1659 -0.5306 -0.2383
  731MPD2    H510864   4.312   4.365  13.037  1.5132  0.5629  1.2845
  731MPD2    N110865   4.315   4.606  12.610  0.1277 -0.0481  0.0875
  731MPD2    H710866   4.265   4.644  12.531 -1.6748 -2.2753  0.1378
  732TMC3    C110867   4.506   4.598  12.479 -0.0219 -0.1413  0.0243
  732TMC3    C210868   4.436   4.583  12.361 -0.7133  0.1464 -0.6920
  732TMC3    C310869   4.495   4.613  12.241 -0.5220 -0.1855 -0.5992
  732TMC3    C410870   4.629   4.657  12.483 -0.5175  0.3728 -0.3670
  732TMC3    C510871   4.679   4.697  12.360  0.4968 -0.5548 -0.1828
  732TMC3    C610872   4.616   4.673  12.239  0.6156 -0.1649 -0.0808
  732TMC3     C10873   4.450   4.573  12.611  0.4181 -0.0695  0.0526
  732TMC3     O10874   4.527   4.542  12.700  0.1718 -0.6450 -0.5047
  732TMC3     H10875   4.344   4.527  12.365 -2.3392  2.7918 -1.6669
  732TMC3    H110876   4.678   4.680  12.577 -1.0997  0.4321 -0.0833
  732TMC3    H210877   4.669   4.694  12.147  1.9296 -3.7572 -0.1399
  732TMC3    C710878   0.067   0.020  12.356 -0.6106 -0.7662  0.6087
  732TMC3    C810879   4.434   4.594  12.108  0.6148  0.0106 -0.0698
  732TMC3    O110880   0.151   4.720  12.433 -0.1599 -0.0025 -0.4572
  732TMC3    O210881   4.514   4.592  12.018 -0.1510 -0.0635  0.0483
  733TMC3    C110882   1.063   3.679  12.705  0.3547  0.0531 -0.9735
  733TMC3    C210883   1.132   3.636  12.600  0.2226 -0.1564  0.6763
  733TMC3    C310884   1.241   3.711  12.579  0.6555 -0.0212  0.3188
  733TMC3    C410885   1.087   3.793  12.775  1.1388 -0.0244  0.5932
  733TMC3    C510886   1.202   3.862  12.743  0.1820  0.0787  0.0277
  733TMC3    C610887   1.279   3.821  12.647  0.7107  0.0474  0.2322
  733TMC3     C10888   0.949   3.598  12.749 -0.3100 -0.3000  0.2390
  733TMC3     O10889   0.886   3.648  12.839 -0.3443 -0.0150 -0.2784
  733TMC3     H10890   1.096   3.562  12.529  0.2955  1.0355 -0.5889
  733TMC3    H110891   1.017   3.830  12.850  1.7856 -0.4268  1.4036
  733TMC3    H210892   1.381   3.858  12.638  0.1262  0.8764 -2.7796
  733TMC3    C710893   1.253   3.968  12.839  0.2951 -0.7034 -0.5061
  733TMC3    C810894   1.330   3.674  12.469 -0.8622  0.4434  0.2061
  733TMC3    O110895   1.199   3.973  12.947 -0.3929 -0.1917 -0.2170
  733TMC3    O210896   1.334   3.558  12.430  0.3717  0.9239 -0.2761
  734MPD2     C10897   2.880   1.339  12.709  0.0046  0.6237 -0.5084
  734MPD2    C110898   2.759   1.306  12.654 -0.4796  0.0666  0.0165
  734MPD2    C210899   2.730   1.355  12.527 -0.0636 -0.9758  0.5069
  734MPD2    C310900   2.827   1.437  12.465 -0.5467  0.0389  0.4446
  734MPD2    C410901   2.938   1.478  12.529  0.2711 -0.1957  0.2426
  734MPD2    C510902   2.961   1.427  12.654  0.1936  0.4344  0.1003
  734MPD2     H10903   2.640   1.336  12.470 -0.0572  1.9885 -0.4881
  734MPD2    H110904   3.007   1.551  12.488 -0.0486 -0.4571 -0.7357
  734MPD2    H210905   2.904   1.298  12.806  0.7644  1.3242 -0.3959
  734MPD2    H310906   3.054   1.449  12.704 -0.1367 -0.2744  1.0275
  734MPD2     N10907   2.788   1.486  12.339  0.8211 -0.0303 -0.4227
  734MPD2    H510908   2.693   1.470  12.308  0.3831  3.7425 -0.9594
  734MPD2    N110909   2.676   1.214  12.722 -0.1815  0.8801  0.2783
  734MPD2    H710910   2.712   1.169  12.806  2.4615 -0.3356 -1.4953
  735TMC3    C110911   2.500   1.046  12.758 -0.3535 -0.2075  0.1136
  735TMC3    C210912   2.393   1.015  12.686 -0.1361  0.4339 -0.1520
  735TMC3    C310913   2.369   0.891  12.630  0.2887  0.3333  0.1222
  735TMC3    C410914   2.600   0.959  12.775  0.3326  0.3712  0.3067
  735TMC3    C510915   2.586   0.834  12.723  0.4858 -0.7025  0.4125
  735TMC3    C610916   2.477   0.801  12.646 -1.0759  0.3704 -0.3029
  735TMC3     C10917   2.552   1.164  12.680 -0.0683 -0.0228 -0.2039
  735TMC3     O10918   2.491   1.193  12.576 -0.4170  0.3755  0.5880
  735TMC3     H10919   2.320   1.095  12.679  2.5350  2.9863  1.2752
  735TMC3    H110920   2.686   0.977  12.839 -1.0723  0.1432  2.2744
  735TMC3    H210921   2.482   0.712  12.584  0.7341  0.0947  0.2405
  735TMC3    C710922   2.709   0.775  12.686 -0.0239  0.0903  0.0732
  735TMC3    C810923   2.320   0.886  12.501 -0.1072  0.1126  0.6334
  735TMC3    O110924   2.811   0.840  12.699 -0.5032  0.4889 -0.1310
  735TMC3    O210925   2.286   0.781  12.457  0.6661  0.4051 -0.5841
  736MPD2     C10926   2.777   0.423  12.636  0.9822 -0.2201  0.2118
  736MPD2    C110927   2.799   0.558  12.614 -0.3449  0.2598  0.4996
  736MPD2    C210928   2.926   0.603  12.578 -0.2555 -0.6730 -0.1974
  736MPD2    C310929   3.031   0.515  12.555 -0.2653  1.2544  0.0395
  736MPD2    C410930   3.014   0.386  12.586 -0.0073  0.1234 -0.4599
  736MPD2    C510931   2.889   0.335  12.620 -0.7103  0.1274 -0.1440
  736MPD2     H10932   2.947   0.708  12.558  1.7718 -0.8345  1.0755
  736MPD2    H110933   3.087   0.307  12.571 -0.4271 -0.7794  2.1886
  736MPD2    H210934   2.677   0.388  12.658  1.3557 -1.6649 -0.3568
  736MPD2    H310935   2.878   0.232  12.653 -0.4579 -0.4037 -1.6665
  736MPD2     N10936   3.155   0.549  12.502  0.4808  0.1964  0.2413
  736MPD2    H510937   3.202   0.465  12.470  0.8976 -0.6566  3.1213
  736MPD2    N110938   2.695   0.646  12.655  0.1106 -0.0255  0.1392
  736MPD2    H710939   2.602   0.608  12.665  0.5823 -1.0688  0.5718
  737TMC3    C110940   3.295   0.652  12.344 -0.0974 -0.2850  0.3194
  737TMC3    C210941   3.307   0.770  12.276 -0.0819 -0.4271 -0.2687
  737TMC3    C310942   3.327   0.773  12.145 -0.0703 -0.0018  0.3474
  737TMC3    C410943   3.295   0.533  12.270 -0.0332  0.4900  0.0044
  737TMC3    C510944   3.315   0.552  12.135 -0.4299 -0.6381  0.4303
  737TMC3    C610945   3.334   0.666  12.066  0.1131  0.0466 -0.5324
  737TMC3     C10946   3.197   0.670  12.449  0.6990  0.1617 -0.4403
  737TMC3     O10947   3.140   0.779  12.452  0.1933  0.4114  0.0584
  737TMC3     H10948   3.303   0.866  12.326  0.3607  0.7854 -2.5583
  737TMC3    H110949   3.285   0.437  12.318 -1.0811  1.2889  1.3825
  737TMC3    H210950   3.336   0.677  11.958  1.0431 -2.8802 -0.8077
  737TMC3    C710951   3.287   0.437  12.056  0.3136 -0.5086  0.0551
  737TMC3    C810952   3.342   0.910  12.096 -0.1957 -0.0435  0.5362
  737TMC3    O110953   3.191   0.371  12.084  0.4072 -0.9456 -0.1275
  737TMC3    O210954   3.410   0.983  12.172  0.3213  0.1831  0.6946
  738MPD2     C10955   3.269   4.389  14.894  0.2739  0.4766 -0.4470
  738MPD2    C110956   3.308   4.307  15.001  0.0304 -0.1595  0.4407
  738MPD2    C210957   3.428   4.338  15.062 -0.6430  0.3337 -0.1403
  738MPD2    C310958   3.518   4.427  15.007 -0.1556  0.0799 -0.0797
  738MPD2    C410959   3.483   4.496  14.895 -0.5015 -0.1083 -0.0088
  738MPD2    C510960   3.356   4.487  14.844 -0.1459 -0.4968 -0.1308
  738MPD2     H10961   3.436   4.287  15.157 -3.5725  0.5292  0.2048
  738MPD2    H110962   3.551   4.567  14.849 -0.5332 -0.1067 -0.0525
  738MPD2    H210963   3.168   4.380  14.855 -0.2895 -0.0169  1.1063
  738MPD2    H310964   3.325   4.546  14.758  2.3936 -0.6461 -1.1344
  738MPD2     N10965   3.646   4.455  15.050 -0.0084  0.1156  0.5252
  738MPD2    H510966   3.699   4.515  14.987 -0.0231  2.2379  2.5312
  738MPD2    N110967   3.237   4.200  15.052 -0.0264  0.1209  0.5453
  738MPD2    H710968   3.268   4.167  15.142 -3.5289  0.9382  2.0585
  739TMC3    C110969   3.847   4.409  15.147  0.2311  0.3570  0.6676
  739TMC3    C210970   3.903   4.512  15.082 -0.2184  0.3848  0.0021
  739TMC3    C310971   4.031   4.501  15.039 -0.4681  0.1686 -0.1953
  739TMC3    C410972   3.930   4.307  15.179 -0.0253  0.3602  0.4751
  739TMC3    C510973   4.062   4.301  15.142 -0.4323 -0.7027  0.7974
  739TMC3    C610974   4.119   4.398  15.066  0.3996 -0.3444 -0.6046
  739TMC3     C10975   3.706   4.386  15.144  0.6153 -0.6322 -0.2400
  739TMC3     O10976   3.658   4.299  15.213  0.4085  0.4835 -0.1175
  739TMC3     H10977   3.842   4.598  15.056  1.4895  0.5853 -3.2718
  739TMC3    H110978   3.895   4.225  15.242 -1.5248  1.6701  1.3438
  739TMC3    H210979   4.217   4.385  15.020  0.0068 -1.3317 -1.1553
  739TMC3    C710980   4.144   4.191  15.196 -0.1791  0.2754  0.3517
  739TMC3    C810981   4.061   4.565  14.914  0.4401  0.4769 -0.4547
  739TMC3    O110982   4.084   4.123  15.278  0.2911  0.2420  0.1276
  739TMC3    O210983   4.121   4.501  14.830  0.0336 -0.6104  0.4418
  740TMC3    C110984   4.370   0.925  14.540 -0.0351 -0.4818 -0.2551
  740TMC3    C210985   4.393   0.855  14.656  0.0990  0.4195  0.1960
  740TMC3    C310986   4.506   0.776  14.657 -0.4790  0.1736 -0.2438
  740TMC3    C410987   4.442   0.913  14.424 -0.2770  0.2404 -0.5389
  740TMC3    C510988   4.553   0.834  14.433  0.6301 -0.1521 -0.2870
  740TMC3    C610989   4.587   0.771  14.547  0.2547  0.8198 -0.1921
  740TMC3     C10990   4.246   1.001  14.534 -0.0124  0.8030  0.3606
  740TMC3     O10991   4.245   1.085  14.448 -0.2181  0.4151  0.1196
  740TMC3     H10992   4.334   0.881  14.743  1.7361  1.8362  0.8970
  740TMC3    H110993   4.418   0.964  14.331  2.3388 -0.6080 -1.6622
  740TMC3    H210994   4.665   0.696  14.552 -0.9116 -0.2213  1.8774
  740TMC3    C710995   4.637   0.799  14.323 -0.5592  0.7116 -0.1843
  740TMC3    C810996   4.548   0.696  14.776  0.3514 -0.2897 -0.3593
  740TMC3    O110997   0.002   0.743  14.345 -0.1885  0.0940 -0.3416
  740TMC3    O210998   4.670   0.683  14.794  0.1471  0.2685  0.2433
  741TMC3    C110999   3.638   0.409  14.371 -0.0287 -1.0810  0.0924
  741TMC3    C211000   3.557   0.314  14.327 -0.8098 -0.5276 -0.2085
  741TMC3    C311001   3.513   0.213  14.412  0.2974 -0.0196  1.1897
  741TMC3    C411002   3.663   0.417  14.511 -0.0136 -0.2027  0.5672
  741TMC3    C511003   3.616   0.318  14.592  0.0706  0.2938 -0.1258
  741TMC3    C611004   3.540   0.212  14.545  0.5753  0.0736  0.0514
  741TMC3     C11005   3.598   0.537  14.308 -0.2113 -0.0203 -0.0944
  741TMC3     O11006   3.560   0.621  14.383  0.2057 -0.7428 -0.2779
  741TMC3     H11007   3.522   0.318  14.225 -1.4060 -2.7299 -0.0765
  741TMC3    H111008   3.718   0.500  14.553 -0.3337  0.8698 -1.1342
  741TMC3    H211009   3.484   0.151  14.616 -0.4765 -0.2747 -1.0533
  741TMC3    C711010   3.638   0.331  14.735 -0.2898  0.2039 -0.0095
  741TMC3    C811011   3.394   0.139  14.371 -0.0627  0.2223 -0.1894
  741TMC3    O111012   3.703   0.428  14.779  0.3755  0.1904  0.5580
  741TMC3    O211013   3.323   0.194  14.290  0.2268  0.0303 -0.6215
  742TMC3    C111014   3.464   3.344  15.530  0.1407 -0.3456  0.0808
  742TMC3    C211015   3.445   3.389  15.400 -0.2498  0.2538  0.3523
  742TMC3    C311016   3.482   3.304  15.305 -0.3027  0.2941  0.2993
  742TMC3    C411017   3.532   3.232  15.565 -0.4668 -0.1816  0.7430
  742TMC3    C511018   3.578   3.151  15.461  0.1881  0.3779  0.5495
  742TMC3    C611019   3.563   3.195  15.329  0.2454  0.2293  0.2664
  742TMC3     C11020   3.414   3.432  15.637  0.3110  0.4701 -0.4810
  742TMC3     O11021   3.371   3.375  15.737 -0.2178  0.1991  0.1803
  742TMC3     H11022   3.371   3.466  15.382 -2.0815 -1.2663  1.3327
  742TMC3    H111023   3.535   3.202  15.669  0.4426  2.2864  1.4139
  742TMC3    H211024   3.596   3.134  15.246 -1.2046 -0.3240  0.1111
  742TMC3    C711025   3.703   3.083  15.490 -1.0076  0.4591  0.0032
  742TMC3    C811026   3.422   3.316  15.174  0.0113 -0.8115  0.5382
  742TMC3    O111027   3.738   2.990  15.417  0.6046 -0.4674 -0.2066
  742TMC3    O211028   3.496   3.310  15.073  0.3640  0.0592  0.1486
  743MPD2     C11029   2.110   4.405   1.346  0.4120 -0.1047  0.9556
  743MPD2    C111030   2.017   4.337   1.271 -0.2730 -0.0544  0.1391
  743MPD2    C211031   2.068   4.248   1.171 -0.6067 -0.0368  0.9268
  743MPD2    C311032   2.198   4.231   1.139  0.1754  0.0397 -0.2481
  743MPD2    C411033   2.285   4.303   1.212  0.8750  0.5009 -0.2953
  743MPD2    C511034   2.245   4.393   1.313 -0.0578 -0.6650 -0.3726
  743MPD2     H11035   2.001   4.201   1.100  1.5807 -2.8359  0.7219
  743MPD2    H111036   2.392   4.286   1.211  0.9089  0.6254  0.6511
  743MPD2    H211037   2.074   4.475   1.421 -1.7295  0.2270 -0.3703
  743MPD2    H311038   2.313   4.458   1.367 -0.0353 -0.3180 -0.8199
  743MPD2     N11039   2.232   4.162   1.017 -0.2943 -0.0323 -0.0646
  743MPD2    H511040   2.159   4.127   0.956  1.5471 -1.4568 -1.4394
  743MPD2    N111041   1.879   4.362   1.273 -0.3491  0.1481  0.1400
  743MPD2    H711042   1.834   4.314   1.196 -0.2982 -1.1860  0.9355
  744TMC3    C111043   1.665   4.423   1.340 -1.1750  0.5492 -1.0327
  744TMC3    C211044   1.594   4.539   1.373  0.0804  0.0148  0.2650
  744TMC3    C311045   1.464   4.545   1.335 -0.3705 -0.1740 -0.1902
  744TMC3    C411046   1.608   4.318   1.270 -0.1171 -0.8215 -0.0961
  744TMC3    C511047   1.482   4.336   1.225 -0.6293  0.0349  0.3519
  744TMC3    C611048   1.410   4.444   1.257  0.6994  0.2873  0.6078
  744TMC3     C11049   1.807   4.433   1.364 -0.5213 -0.1774  0.5807
  744TMC3     O11050   1.843   4.509   1.452 -0.1577  0.6505 -0.4042
  744TMC3     H11051   1.640   4.620   1.427 -1.9245  0.8001  0.7985
  744TMC3    H111052   1.656   4.223   1.249  0.7409 -0.0837 -1.4900
  744TMC3    H211053   1.305   4.438   1.228  0.4321 -1.1980  1.8462
  744TMC3    C711054   1.413   4.227   1.162 -0.1678  0.0474 -0.8882
  744TMC3    C811055   1.371   4.655   1.362 -0.3943  0.2523  0.3286
  744TMC3    O111056   1.295   4.221   1.183 -0.3475 -0.5128 -0.2776
  744TMC3    O211057   1.274   4.657   1.289 -0.5317  0.0503 -0.3250
  745TMC3    C111058   4.527   2.996  13.618 -0.2956 -0.3445  0.5461
  745TMC3    C211059   4.451   3.046  13.716 -0.6869 -0.2277  0.7844
  745TMC3    C311060   4.314   3.053  13.695 -0.5220  0.3808 -0.1790
  745TMC3    C411061   4.470   2.953  13.502 -0.1106  0.2113  0.6167
  745TMC3    C511062   4.335   2.962  13.477 -0.8890 -0.9551  0.0691
  745TMC3    C611063   4.255   3.007  13.586  0.2136 -0.0426  0.6255
  745TMC3     C11064   4.649   3.064  13.589 -0.0149 -0.4437 -0.3524
  745TMC3     O11065   4.703   3.023  13.487 -0.0495  0.1339 -0.3896
  745TMC3     H11066   4.494   3.096  13.802 -3.8550  0.6310  1.8966
  745TMC3    H111067   4.537   2.893  13.443 -0.7445  0.5519 -0.4407
  745TMC3    H211068   4.147   3.006  13.579  0.4205 -2.1440 -2.4366
  745TMC3    C711069   4.308   3.039  13.361 -0.3873 -0.5892  0.1540
  745TMC3    C811070   4.231   3.063  13.814 -0.1603 -0.7924 -0.3708
  745TMC3    O111071   4.194   3.051  13.320 -0.5127 -0.1043 -0.2755
  745TMC3    O211072   4.116   3.024  13.804  0.9818  0.3027 -0.1081
  746TMC3    C111073   2.102   4.709  11.154  0.2419 -0.5341  0.3609
  746TMC3    C211074   2.132   4.720  11.023  0.0341  0.5003  0.1237
  746TMC3    C311075   2.125   4.606  10.951 -0.5343 -0.5283 -0.4726
  746TMC3    C411076   2.019   4.605  11.190  0.2602 -0.3250  0.4883
  746TMC3    C511077   1.991   4.506  11.102 -1.2649  0.7272  0.5284
  746TMC3    C611078   2.059   4.490  10.985  0.2421  0.4115  0.7414
  746TMC3     C11079   2.088   0.094  11.225 -0.1589  0.3270 -0.6206
  746TMC3     O11080   1.987   0.108  11.293  0.4420  0.9772 -0.3503
  746TMC3     H11081   2.180   0.069  10.981 -1.1934  0.5106 -1.2799
  746TMC3    H111082   1.955   4.626  11.275 -1.4319  0.3771 -0.9663
  746TMC3    H211083   2.060   4.402  10.922  2.0602  0.4112  0.7609
  746TMC3    C711084   1.924   4.392  11.148  0.4338  0.0100  0.0489
  746TMC3    C811085   2.187   4.625  10.821  0.0026  0.0227  0.1773
  746TMC3    O111086   1.871   4.316  11.066 -0.1191  0.6062  0.5958
  746TMC3    O211087   2.278   4.705  10.807  0.8220 -0.3453 -0.3754
  747TMC3    C111088   3.755   0.028  11.181 -0.1753  0.0295 -0.0785
  747TMC3    C211089   3.657   0.076  11.264 -0.0402  0.0654  0.0950
  747TMC3    C311090   3.686   0.081  11.397  0.0454  0.3952 -0.5009
  747TMC3    C411091   3.879   4.727  11.219  1.0548 -0.2756 -0.1773
  747TMC3    C511092   3.897   4.738  11.355  0.0500  0.1754 -0.8104
  747TMC3    C611093   3.808   0.051  11.441 -0.6730  0.7096 -0.5438
  747TMC3     C11094   3.728   0.034  11.037 -0.3945 -0.0108  0.5041
  747TMC3     O11095   3.660   0.128  10.999 -0.5180 -0.1476  0.5737
  747TMC3     H11096   3.555   0.091  11.229 -0.0622 -0.4450 -0.0632
  747TMC3    H111097   3.960   4.689  11.158  2.7885  2.8158  0.2203
  747TMC3    H211098   3.818   0.042  11.548 -1.2446 -1.8976 -0.6867
  747TMC3    C711099   4.032   4.723  11.402 -0.1028  1.0624  0.1725
  747TMC3    C811100   3.567   0.084  11.484 -0.6653 -0.1923  0.3897
  747TMC3    O111101   4.059   0.062  11.493  0.1811  0.3551 -0.3620
  747TMC3    O211102   3.486   0.010  11.435 -0.3878 -0.2283 -0.6512
  748MPD2     C11103   1.136   0.769   0.984 -0.7838 -0.9895 -0.3140
  748MPD2    C111104   1.248   0.775   1.058  0.1177 -0.1336  0.0691
  748MPD2    C211105   1.357   0.846   1.004 -0.5303  0.0202  0.3760
  748MPD2    C311106   1.354   0.918   0.881  0.3792  0.0748  0.1182
  748MPD2    C411107   1.239   0.903   0.810  0.5291 -0.6111 -0.0489
  748MPD2    C511108   1.131   0.828   0.856  1.2293  0.3167 -0.4175
  748MPD2     H11109   1.439   0.861   1.073 -0.3411  0.6076  0.0290
  748MPD2    H111110   1.229   0.941   0.709 -1.4067 -0.9200  0.0269
  748MPD2    H211111   1.046   0.722   1.020 -1.8291  3.0664  2.3809
  748MPD2    H311112   1.042   0.835   0.794  0.2129  1.8934  1.1775
  748MPD2     N11113   1.465   0.990   0.835 -0.8242 -0.4963 -0.4498
  748MPD2    H511114   1.550   0.995   0.891 -0.0466  1.0570 -1.7497
  748MPD2    N111115   1.248   0.706   1.184 -0.9816  0.1626  0.3475
  748MPD2    H711116   1.160   0.686   1.230 -0.3921  0.0531  1.4453
  749TMC3    C111117   1.580   1.155   0.711 -0.2200 -0.1900 -0.0906
  749TMC3    C211118   1.692   1.100   0.760  0.5478 -0.0507  0.5665
  749TMC3    C311119   1.808   1.175   0.754  0.2390 -0.6238  0.1750
  749TMC3    C411120   1.572   1.289   0.676  0.0481 -0.3384  0.4531
  749TMC3    C511121   1.689   1.359   0.663 -0.9791  0.9983 -0.1952
  749TMC3    C611122   1.810   1.307   0.707 -0.0423  0.6359 -0.6504
  749TMC3     C11123   1.454   1.083   0.731  0.9364 -0.3353 -0.2170
  749TMC3     O11124   1.357   1.127   0.673  0.5811 -0.9155  0.1700
  749TMC3     H11125   1.704   0.996   0.789 -2.2505 -1.3277 -2.8398
  749TMC3    H111126   1.478   1.326   0.637  0.2419 -1.5522 -1.1743
  749TMC3    H211127   1.898   1.370   0.702 -0.2911  0.9062 -1.5827
  749TMC3    C711128   1.685   1.487   0.591 -0.4654  0.3934  0.3028
  749TMC3    C811129   1.932   1.127   0.823 -0.0439  0.2851 -0.4083
  749TMC3    O111130   1.768   1.573   0.624  0.0036 -0.0180 -0.2424
  749TMC3    O211131   2.006   1.215   0.866 -0.1878 -0.0861 -0.2494
  750MPD2     C11132   1.648   1.898  11.364 -0.1749  0.7763  0.3382
  750MPD2    C111133   1.529   1.825  11.385  0.1919  0.2843  0.5624
  750MPD2    C211134   1.537   1.689  11.370 -0.6107  0.0659 -0.4023
  750MPD2    C311135   1.657   1.633  11.328 -0.4263  0.4451 -0.3049
  750MPD2    C411136   1.771   1.712  11.313 -0.8689 -0.1758  0.0481
  750MPD2    C511137   1.769   1.844  11.328 -0.1053 -0.2042  0.5275
  750MPD2     H11138   1.455   1.624  11.397 -0.0652  0.5275  2.3697
  750MPD2    H111139   1.858   1.657  11.280 -0.0440  1.0960  0.0774
  750MPD2    H211140   1.663   2.003  11.390  0.0684  0.8410 -0.0626
  750MPD2    H311141   1.863   1.898  11.326 -0.0841 -0.2764 -0.5401
  750MPD2     N11142   1.668   1.496  11.301 -0.6078 -0.5711 -0.3918
  750MPD2    H511143   1.752   1.465  11.253 -0.0235 -0.5905  0.6342
  750MPD2    N111144   1.421   1.896  11.430 -0.4547 -0.0166 -0.0364
  750MPD2    H711145   1.419   1.998  11.428  0.2746  0.0685  2.8600
  751TMC3    C111146   1.607   1.265  11.290 -0.6537 -0.0532  0.3081
  751TMC3    C211147   1.532   1.156  11.330 -0.0207 -0.4673 -0.5653
  751TMC3    C311148   1.543   1.036  11.267  0.2262  0.2389  0.6266
  751TMC3    C411149   1.713   1.246  11.209  0.7293 -0.5225  0.2326
  751TMC3    C511150   1.716   1.122  11.142  0.1738  0.3158 -0.1453
  751TMC3    C611151   1.634   1.019  11.171 -0.4266 -0.4396  0.5455
  751TMC3     C11152   1.580   1.397  11.349  0.1216 -0.4269 -0.0565
  751TMC3     O11153   1.471   1.400  11.406 -0.4561  0.2337 -0.9570
  751TMC3     H11154   1.453   1.169  11.403 -0.7403 -0.8564 -1.2761
  751TMC3    H111155   1.754   1.331  11.157 -0.6198  1.4763  2.4387
  751TMC3    H211156   1.630   0.936  11.102  1.7476 -1.1279  1.2452
  751TMC3    C711157   1.826   1.109  11.050  0.6094 -0.0924 -0.4952
  751TMC3    C811158   1.442   0.935  11.294  0.1256 -0.2898  0.2127
  751TMC3    O111159   1.871   1.216  11.003 -0.3381  0.4128 -0.2853
  751TMC3    O211160   1.445   0.835  11.222 -0.2789 -0.0106 -0.0913
  752TMC3    C111161   0.612   2.588  17.394 -0.5846  0.1296  0.0808
  752TMC3    C211162   0.625   2.450  17.397 -0.2323  0.7883  0.3226
  752TMC3    C311163   0.558   2.374  17.481 -0.8054  1.0169 -0.8477
  752TMC3    C411164   0.527   2.648  17.487 -0.4245 -0.1188  0.5294
  752TMC3    C511165   0.447   2.564  17.565  0.0180  0.8111 -0.5188
  752TMC3    C611166   0.462   2.431  17.561 -0.6231  0.8672 -0.5354
  752TMC3     C11167   0.693   2.673  17.306  0.6349  0.6783  0.2820
  752TMC3     O11168   0.717   2.790  17.342 -0.4965 -0.7861 -0.3327
  752TMC3     H11169   0.703   2.408  17.334  0.4527 -1.0034  2.3858
  752TMC3    H111170   0.527   2.756  17.496 -0.4735 -0.0211 -0.7427
  752TMC3    H211171   0.391   2.367  17.614  1.4850  0.7244  2.1486
  752TMC3    C711172   0.347   2.636  17.643 -0.0335  0.5980  0.3374
  752TMC3    C811173   0.575   2.231  17.467  0.1350  0.6987  0.8236
  752TMC3    O111174   0.335   2.757  17.624 -0.6714 -0.0285  0.3009
  752TMC3    O211175   0.631   2.185  17.368  0.5019  0.1540 -0.2853
  753TMC3    C111176   2.229   3.044  13.425  0.6199 -0.1066 -0.3963
  753TMC3    C211177   2.281   3.000  13.542  1.2061  0.4481  0.9535
  753TMC3    C311178   2.230   2.876  13.579  0.0936 -0.2473 -0.0911
  753TMC3    C411179   2.162   2.969  13.339  0.0251  0.4380  0.0936
  753TMC3    C511180   2.130   2.841  13.379  0.4676  0.0356 -0.2604
  753TMC3    C611181   2.149   2.798  13.506  0.0102  0.3914 -1.0073
  753TMC3     C11182   2.222   3.187  13.412  0.8610  0.5393 -0.3377
  753TMC3     O11183   2.302   3.243  13.480  0.4777 -0.7830  0.2553
  753TMC3     H11184   2.362   3.055  13.588  0.0843  1.0062  2.2814
  753TMC3    H111185   2.131   3.001  13.240 -3.0716 -1.1630  0.5355
  753TMC3    H211186   2.119   2.703  13.549  0.7504  0.1534 -1.0208
  753TMC3    C711187   2.053   2.757  13.285 -0.2339 -0.6613 -0.2884
  753TMC3    C811188   2.224   2.863  13.722  0.4598 -0.2224 -0.4772
  753TMC3    O111189   2.033   2.797  13.171 -0.0874  0.2280  0.7988
  753TMC3    O211190   2.196   2.754  13.769 -0.4349  0.1741  0.7118
  754MPD2     C11191   1.531   1.826  12.960 -0.1853 -0.1379 -0.2712
  754MPD2    C111192   1.519   1.711  13.029  0.0087  0.0989  0.7387
  754MPD2    C211193   1.400   1.640  13.001 -0.6044  0.4287 -0.1982
  754MPD2    C311194   1.287   1.696  12.945  0.2339  0.2048  0.1574
  754MPD2    C411195   1.304   1.824  12.890 -0.7761 -0.4635 -0.6341
  754MPD2    C511196   1.425   1.885  12.893 -0.1044 -0.0346 -0.4280
  754MPD2     H11197   1.399   1.535  13.027  0.3209  0.8463  1.4943
  754MPD2    H111198   1.236   1.877  12.826 -0.8277  2.9345  2.2169
  754MPD2    H211199   1.627   1.875  12.952 -0.9225  1.1609 -1.1079
  754MPD2    H311200   1.433   1.971  12.828 -0.7187 -0.4535 -1.0536
  754MPD2     N11201   1.156   1.643  12.950 -0.3918  0.4789 -0.0402
  754MPD2    H511202   1.078   1.697  12.914 -1.5724 -0.7472  0.7078
  754MPD2    N111203   1.638   1.661  13.091  0.1633 -0.7047 -0.7303
  754MPD2    H711204   1.721   1.712  13.062 -1.7955  0.8347 -3.5886
  755MPD2     C11205   0.490   2.165  13.092  0.2988  0.4807 -0.2059
  755MPD2    C111206   0.437   2.047  13.135  0.5261 -0.9476  0.2193
  755MPD2    C211207   0.509   1.937  13.113 -0.0784  0.9390  0.3780
  755MPD2    C311208   0.635   1.936  13.045  0.1123  0.6994 -0.5762
  755MPD2    C411209   0.695   2.056  13.034 -0.3353 -0.3359 -0.9207
  755MPD2    C511210   0.624   2.170  13.056 -0.0123 -0.5293 -0.4094
  755MPD2     H11211   0.469   1.841  13.143 -1.3215 -0.1575 -4.8488
  755MPD2    H111212   0.800   2.055  13.006 -1.1428 -0.7734 -3.8967
  755MPD2    H211213   0.449   2.263  13.112  2.7798  1.6078 -0.5690
  755MPD2    H311214   0.680   2.258  13.029 -0.8177  0.5178  1.3766
  755MPD2     N11215   0.708   1.814  13.008 -0.5421 -0.6536 -0.3684
  755MPD2    H511216   0.785   1.821  12.943  1.4712  1.2401  2.2081
  755MPD2    N111217   0.309   2.034  13.196  0.1245  0.2953  0.0757
  755MPD2    H711218   0.286   1.939  13.223 -0.3113  0.4357  0.2092
  756MPD2     C11219   0.763   2.370   9.701  0.0503  0.1326 -0.7359
  756MPD2    C111220   0.743   2.259   9.778 -0.0629 -0.6790  0.7727
  756MPD2    C211221   0.622   2.199   9.779  0.0363  0.2053  0.3230
  756MPD2    C311222   0.526   2.242   9.689 -0.4386 -0.0701 -0.2551
  756MPD2    C411223   0.546   2.351   9.604 -0.1198 -0.5800 -0.0998
  756MPD2    C511224   0.663   2.412   9.615 -0.0220 -0.3105 -0.8065
  756MPD2     H11225   0.598   2.120   9.850 -1.9247  1.3394  0.9403
  756MPD2    H111226   0.467   2.394   9.544  0.3922  1.2703  0.5323
  756MPD2    H211227   0.845   2.442   9.703 -0.7152  0.9975 -0.5500
  756MPD2    H311228   0.671   2.504   9.557  0.6884  0.3950  0.4314
  756MPD2     N11229   0.408   2.163   9.699  0.8170  0.0016  0.2333
  756MPD2    H511230   0.400   2.101   9.778  3.3016 -0.6022  0.0092
  756MPD2    N111231   0.843   2.206   9.860 -0.1647  0.0784 -0.4936
  756MPD2    H711232   0.819   2.123   9.913 -0.3779  1.7612  2.0181
  757MPD2     C11233   0.304   1.679  10.341  0.1548  0.0688  0.3162
  757MPD2    C111234   0.381   1.694  10.227  0.5691  0.3475  0.0483
  757MPD2    C211235   0.335   1.765  10.118  0.1534  0.3302  0.3947
  757MPD2    C311236   0.207   1.815  10.115  0.4600  0.8359 -0.0856
  757MPD2    C411237   0.124   1.803  10.231 -0.2716  0.4588  0.1541
  757MPD2    C511238   0.175   1.733  10.342  0.3164 -0.2196 -0.0755
  757MPD2     H11239   0.394   1.777  10.027 -2.2448 -0.7985 -1.3287
  757MPD2    H111240   0.027   1.851  10.233 -1.2092 -1.4812  1.3692
  757MPD2    H211241   0.357   1.634  10.424 -0.4772 -1.9299 -0.3622
  757MPD2    H311242   0.115   1.727  10.432  0.4043 -0.7398 -0.0492
  757MPD2     N11243   0.178   1.903  10.008  0.3453  0.5180  0.0825
  757MPD2    H511244   0.254   1.921   9.942  1.0011 -1.1924  0.3671
  757MPD2    N111245   0.515   1.641  10.231 -0.0034  0.0080 -0.4527
  757MPD2    H711246   0.545   1.575  10.302 -0.2863 -2.4680 -2.6222
  758MPD2     C11247   1.304   1.777  15.802  0.7151  0.2611 -0.0850
  758MPD2    C111248   1.296   1.683  15.903  0.1725  0.4907  0.2395
  758MPD2    C211249   1.219   1.712  16.018  1.2353 -0.2218  0.0814
  758MPD2    C311250   1.172   1.839  16.042  0.2192  0.7339 -0.5468
  758MPD2    C411251   1.191   1.933  15.950  0.5798 -0.3579  0.0339
  758MPD2    C511252   1.258   1.909  15.830 -0.1534 -0.0355  0.1723
  758MPD2     H11253   1.202   1.644  16.100  0.4505 -1.8721 -1.4654
  758MPD2    H111254   1.153   2.034  15.951  0.7739 -0.2785 -0.7618
  758MPD2    H211255   1.359   1.758  15.711 -0.5214 -0.9278 -0.5935
  758MPD2    H311256   1.267   1.981  15.749 -1.8864 -1.2576 -1.1237
  758MPD2     N11257   1.106   1.878  16.163 -0.2479  0.4143  0.3294
  758MPD2    H511258   1.094   1.975  16.190  2.8745  1.5082 -2.1112
  758MPD2    N111259   1.355   1.550  15.875 -0.0222  0.4669 -0.6353
  758MPD2    H711260   1.398   1.546  15.783  0.4665  1.6568 -0.4661
  759MPD2     C11261   0.106   3.986  10.871  0.0714 -0.3706 -0.0515
  759MPD2    C111262   0.084   3.897  10.764  0.0108  1.0852 -0.3448
  759MPD2    C211263   0.102   3.939  10.637  0.5616 -0.4684 -0.3565
  759MPD2    C311264   0.130   4.067  10.599  0.1308  0.3943  0.7659
  759MPD2    C411265   0.169   4.152  10.704 -0.3555 -0.3919  0.2246
  759MPD2    C511266   0.154   4.111  10.830 -1.1179  0.4636 -0.2104
  759MPD2     H11267   0.078   3.864  10.562  1.8263  0.1849 -1.4122
  759MPD2    H111268   0.193   4.257  10.691  1.3040 -0.6386  1.2111
  759MPD2    H211269   0.081   3.959  10.973  0.3853  0.7076  0.3173
  759MPD2    H311270   0.174   4.184  10.908  0.0330 -1.5588  1.3990
  759MPD2     N11271   0.135   4.101  10.459  0.3888 -0.3805 -0.8885
  759MPD2    H511272   0.116   4.025  10.394 -0.6891 -0.2181 -0.7611
  759MPD2    N111273   0.040   3.767  10.788 -0.0834 -0.4364 -0.9344
  759MPD2    H711274   0.036   3.710  10.704 -1.5740 -1.7174  0.0046
  760MPD2     C11275   0.203   1.460  12.239  0.0712  0.3285 -0.3746
  760MPD2    C111276   0.226   1.455  12.103  0.2447  0.3252 -0.0009
  760MPD2    C211277   0.205   1.336  12.030  0.1610  0.4437 -0.2457
  760MPD2    C311278   0.153   1.226  12.091  0.1731  0.2356 -0.1829
  760MPD2    C411279   0.129   1.230  12.223  0.2192  0.1535  0.3465
  760MPD2    C511280   0.150   1.348  12.294  0.0379 -0.1922  0.2739
  760MPD2     H11281   0.226   1.342  11.924 -1.9802 -2.4950 -0.8290
  760MPD2    H111282   0.099   1.138  12.273 -0.8275 -1.2999 -2.9572
  760MPD2    H211283   0.229   1.545  12.302 -0.5652  1.0832 -1.1309
  760MPD2    H311284   0.136   1.350  12.401 -1.8980 -2.0198  0.0716
  760MPD2     N11285   0.137   1.103  12.018  0.3929  0.2705  0.0922
  760MPD2    H511286   0.122   1.025  12.081 -0.5853 -0.0344 -0.5229
  760MPD2    N111287   0.270   1.573  12.039 -0.2997 -0.2150 -0.1662
  760MPD2    H711288   0.281   1.568  11.938  0.0668 -0.3161 -0.1239
  761MPD2     C11289   1.149   0.668  11.631 -0.1234 -0.0190 -0.1544
  761MPD2    C111290   1.189   0.633  11.501  0.3266 -0.3119  0.1978
  761MPD2    C211291   1.263   0.725  11.424  0.1814 -0.1395 -0.0056
  761MPD2    C311292   1.307   0.844  11.490 -0.1318  0.3836 -0.3085
  761MPD2    C411293   1.284   0.873  11.624  0.8272  0.0144 -0.3168
  761MPD2    C511294   1.199   0.786  11.684 -0.8254 -0.7231 -0.0474
  761MPD2     H11295   1.285   0.712  11.319 -2.4444 -0.2884 -0.5223
  761MPD2    H111296   1.311   0.967  11.671  1.3486 -0.0694 -0.4452
  761MPD2    H211297   1.092   0.591  11.682  1.4442 -1.3843 -0.4389
  761MPD2    H311298   1.180   0.820  11.785  2.6041  1.1354 -0.0192
  761MPD2     N11299   1.386   0.942  11.420  0.1733  0.1973 -0.2746
  761MPD2    H511300   1.410   1.023  11.477  1.8116  0.2381 -1.0425
  761MPD2    N111301   1.137   0.512  11.456 -0.2604 -0.2218 -0.0162
  761MPD2    H711302   1.092   0.453  11.525  1.0060  3.1216  3.6532
  762MPD2     C11303   1.256   4.411  11.080  0.0584  1.3745 -0.1994
  762MPD2    C111304   1.294   4.544  11.056  0.1284 -0.1346 -1.0513
  762MPD2    C211305   1.371   4.569  10.950  0.2727  0.0349 -0.1789
  762MPD2    C311306   1.417   4.468  10.870 -0.6523 -0.1755  0.4439
  762MPD2    C411307   1.403   4.336  10.911 -0.1390  0.5270  0.4038
  762MPD2    C511308   1.324   4.305  11.021 -0.0371 -0.2976 -0.3573
  762MPD2     H11309   1.396   4.673  10.931 -0.5398  0.3553  0.4947
  762MPD2    H111310   1.443   4.254  10.852 -0.3016 -0.4944  1.7050
  762MPD2    H211311   1.195   4.387  11.166 -0.5888  0.8967 -0.7960
  762MPD2    H311312   1.312   4.200  11.043  0.2156 -0.3979 -0.6933
  762MPD2     N11313   1.492   4.496  10.755 -0.1102 -0.2497 -0.5893
  762MPD2    H511314   1.511   4.595  10.742 -0.2075  0.0457  1.5748
  762MPD2    N111315   1.247   4.641  11.138 -0.7420  0.3052 -0.0176
  762MPD2    H711316   1.186   4.611  11.214  0.7427 -0.4353  0.8845
  763MPD2     C11317   3.466   1.465  15.993  0.0097  0.5587  0.3474
  763MPD2    C111318   3.348   1.510  16.036  0.0917 -0.2019  0.3712
  763MPD2    C211319   3.342   1.640  16.056  0.4533 -0.4322  0.5277
  763MPD2    C311320   3.452   1.728  16.050  0.0527 -0.2277 -0.0840
  763MPD2    C411321   3.576   1.672  16.020  0.9274 -0.4880  0.3602
  763MPD2    C511322   3.583   1.536  15.983 -0.8898  0.5674  0.1119
  763MPD2     H11323   3.246   1.684  16.083  1.1143  1.8648 -0.7897
  763MPD2    H111324   3.663   1.736  16.027  1.7700 -1.5226 -0.7279
  763MPD2    H211325   3.486   1.364  15.959 -0.1832 -0.1992  2.5238
  763MPD2    H311326   3.668   1.480  15.947 -1.3353  0.1519 -0.2964
  763MPD2     N11327   3.454   1.866  16.071  0.2765  0.1053 -0.2522
  763MPD2    H511328   3.545   1.911  16.072  0.4293 -0.2404  1.0222
  763MPD2    N111329   3.222   1.434  16.023  0.1225  0.2228  0.3628
  763MPD2    H711330   3.140   1.491  16.037  1.1710  1.9245 -0.4170
  764MPD2     C11331   1.599   3.450   0.039 -0.2837  0.1357  0.1973
  764MPD2    C111332   1.518   3.351  17.747 -0.1762  0.0364  0.2806
  764MPD2    C211333   1.441   3.276   0.083  0.4426  0.0773  0.1892
  764MPD2    C311334   1.450   3.303   0.221 -0.2988  0.0489  0.4721
  764MPD2    C411335   1.530   3.406   0.266  0.5493 -0.1242  0.1375
  764MPD2    C511336   1.604   3.473   0.171 -0.1818 -0.8436  0.7329
  764MPD2     H11337   1.380   3.188   0.064  0.2345  0.1778  0.3923
  764MPD2    H111338   1.541   3.439   0.369  0.4143 -1.7852  0.6789
  764MPD2    H211339   1.654   3.512  17.726 -0.3666 -0.4081 -0.3476
  764MPD2    H311340   1.669   3.553   0.207 -0.2455  0.7349 -2.7220
  764MPD2     N11341   1.370   3.215   0.300 -0.2707  0.2250  0.1037
  764MPD2    H511342   1.314   3.136   0.269  1.1481 -1.1198  0.9390
  764MPD2    N111343   1.521   3.331  17.608  0.4234  0.0200  0.2284
  764MPD2    H711344   1.569   3.392  17.542  0.3742 -1.4449 -1.1719
  765MPD2     C11345   0.949   1.099  15.650 -0.1561 -0.6768 -0.3266
  765MPD2    C111346   1.000   1.159  15.762  0.2637 -0.4516  0.1192
  765MPD2    C211347   1.127   1.132  15.807  0.5206  0.3659 -0.7284
  765MPD2    C311348   1.211   1.043  15.737  0.0844 -0.1136 -0.7624
  765MPD2    C411349   1.167   0.996  15.620  0.3876  0.1289 -0.2475
  765MPD2    C511350   1.035   1.026  15.572 -0.2261  0.5171  0.3111
  765MPD2     H11351   1.172   1.183  15.892 -1.8610 -0.9719  1.3179
  765MPD2    H111352   1.236   0.949  15.551  0.5654  0.5215 -0.3356
  765MPD2    H211353   0.850   1.121  15.611  0.2929  1.5508 -0.1992
  765MPD2    H311354   1.003   0.985  15.477  0.4284 -0.4012  0.4853
  765MPD2     N11355   1.342   1.011  15.794  0.4884 -0.4862 -0.6661
  765MPD2    H511356   1.361   1.020  15.893  2.0493 -0.8531 -0.9316
  765MPD2    N111357   0.917   1.254  15.821 -0.1164 -0.1133 -0.1107
  765MPD2    H711358   0.821   1.264  15.787  0.6168  3.1180 -1.2923
  766MPD2     C11359   0.290   1.413  15.531 -0.6981  0.0194  0.6773
  766MPD2    C111360   0.418   1.363  15.559  0.0975  0.2916  0.7471
  766MPD2    C211361   0.478   1.268  15.474  0.3477 -0.6910 -0.2971
  766MPD2    C311362   0.409   1.201  15.372 -0.0356 -0.5122  0.8296
  766MPD2    C411363   0.280   1.244  15.348  0.1073  0.3459 -0.9787
  766MPD2    C511364   0.223   1.346  15.425 -0.6391  0.1940  0.2961
  766MPD2     H11365   0.584   1.256  15.490  0.0965  2.6651  3.7461
  766MPD2    H111366   0.211   1.200  15.278 -1.9904 -1.6075  2.2980
  766MPD2    H211367   0.238   1.481  15.597 -2.2270 -1.2219  0.7462
  766MPD2    H311368   0.124   1.383  15.403 -0.1924  0.4999 -1.2495
  766MPD2     N11369   0.480   1.130  15.274  0.4228 -0.5032  0.0204
  766MPD2    H511370   0.418   1.113  15.195  0.2055  3.3075 -0.6525
  766MPD2    N111371   0.476   1.428  15.674  0.6102 -0.4607 -0.0689
  766MPD2    H711372   0.421   1.506  15.710  0.7727 -0.6970  0.6988
  767MPD2     C11373   0.168   1.370  15.067 -0.3898  1.0303 -0.6766
  767MPD2    C111374   0.297   1.346  15.028  0.8122  0.2417  0.2402
  767MPD2    C211375   0.326   1.269  14.921  0.0202 -0.7185  0.0097
  767MPD2    C311376   0.225   1.191  14.868 -0.3104 -0.0998  0.3021
  767MPD2    C411377   0.095   1.208  14.913 -0.7495 -0.0971 -0.4303
  767MPD2    C511378   0.070   1.301  15.011  0.4038  0.1915  0.5713
  767MPD2     H11379   0.423   1.269  14.873 -0.0941  0.8373 -0.2192
  767MPD2    H111380   0.011   1.145  14.884  0.3675 -1.8044 -0.0011
  767MPD2    H211381   0.145   1.437  15.149  0.2351 -1.9753  2.0076
  767MPD2    H311382   4.712   1.298  15.057 -0.6237  0.3029 -1.6159
  767MPD2     N11383   0.258   1.107  14.757 -0.3654 -0.3795 -0.6514
  767MPD2    H511384   0.358   1.092  14.752 -0.3260 -1.3571  3.0591
  767MPD2    N111385   0.397   1.426  15.094  0.0673  0.2655 -0.3156
  767MPD2    H711386   0.364   1.498  15.158 -0.3257  0.1111 -0.3425
  768MPD2     C11387   1.831   3.854  11.072 -0.1400  0.4884 -0.1333
  768MPD2    C111388   1.809   3.793  11.196  0.0625 -0.1705  0.3430
  768MPD2    C211389   1.889   3.822  11.305 -0.6449  0.3956  0.1255
  768MPD2    C311390   1.985   3.929  11.291 -0.2161  0.6132  0.5726
  768MPD2    C411391   1.987   4.006  11.177 -0.3075 -0.2560 -0.0377
  768MPD2    C511392   1.927   3.959  11.061 -0.8497 -0.6328  0.2602
  768MPD2     H11393   1.866   3.769  11.396  0.7627 -1.8462 -0.8216
  768MPD2    H111394   2.049   4.095  11.177  1.4006 -1.4406  2.1379
  768MPD2    H211395   1.766   3.833  10.988 -0.9865  0.7280  0.4585
  768MPD2    H311396   1.938   4.008  10.965 -0.0896 -1.1595  0.0733
  768MPD2     N11397   2.057   3.976  11.402  0.1317  0.4744  0.2379
  768MPD2    H511398   2.129   4.044  11.380 -0.5097  1.5829  1.5589
  768MPD2    N111399   1.702   3.706  11.221  0.1715  0.7142 -0.7790
  768MPD2    H711400   1.688   3.668  11.314  3.5387  0.4186 -0.3708
  769MPD2     C11401   2.206   2.770  14.936 -0.5957 -0.2862  0.0052
  769MPD2    C111402   2.163   2.692  15.045 -0.3409  0.6747 -0.1467
  769MPD2    C211403   2.214   2.717  15.168  0.2859  0.6606 -0.1954
  769MPD2    C311404   2.304   2.814  15.193  0.1563 -0.1647  0.9847
  769MPD2    C411405   2.342   2.893  15.088  0.0642  0.5634  0.5082
  769MPD2    C511406   2.301   2.879  14.960  0.3832 -0.0214 -0.2161
  769MPD2     H11407   2.189   2.660  15.257  2.2017 -2.3029 -1.5291
  769MPD2    H111408   2.421   2.968  15.090 -2.1860  2.9520  0.9193
  769MPD2    H211409   2.160   2.757  14.838 -1.1847  0.2146  0.2146
  769MPD2    H311410   2.319   2.947  14.877 -2.1878  0.8952 -0.0295
  769MPD2     N11411   2.354   2.823  15.323 -0.5176  0.2606  0.2742
  769MPD2    H511412   2.318   2.757  15.391 -0.0319 -0.2186  0.0626
  769MPD2    N111413   2.067   2.589  15.014  0.2689  0.4737 -0.1124
  769MPD2    H711414   2.026   2.589  14.921  0.4009 -1.8156 -0.1731
  770MPD2     C11415   1.310   1.872  15.015 -0.1133 -1.2319  0.0817
  770MPD2    C111416   1.436   1.847  14.982 -0.1601 -0.8450 -0.0629
  770MPD2    C211417   1.520   1.956  14.977  0.5395  0.0281 -0.0402
  770MPD2    C311418   1.477   2.084  15.007 -0.0938 -0.3055  0.6289
  770MPD2    C411419   1.340   2.104  15.032  0.2009  0.4076 -0.3359
  770MPD2    C511420   1.260   1.997  15.029  0.5508 -0.2611  0.1730
  770MPD2     H11421   1.620   1.944  14.937  0.2073  0.4403 -0.9871
  770MPD2    H111422   1.299   2.204  15.042  0.7666  0.3150  2.7925
  770MPD2    H211423   1.241   1.789  15.025 -2.2767  0.8524  2.5683
  770MPD2    H311424   1.153   2.000  15.046  0.3269 -0.8217 -1.1757
  770MPD2     N11425   1.575   2.194  15.013  0.3126  0.2272 -0.9161
  770MPD2    H511426   1.670   2.157  15.004 -0.1235 -0.6888 -1.7805
  770MPD2    N111427   1.479   1.710  14.956 -0.6088 -0.4986  0.1511
  770MPD2    H711428   1.410   1.637  14.944  0.7205 -1.8256  0.6333
  771MPD2     C11429   3.155   0.631  13.968  0.1131  0.5611  0.1870
  771MPD2    C111430   3.069   0.707  13.892 -0.1497  0.0499  0.0942
  771MPD2    C211431   2.976   0.646  13.812  0.4395  0.6714  0.5839
  771MPD2    C311432   2.967   0.504  13.811 -0.0073 -0.2981 -0.1813
  771MPD2    C411433   3.058   0.429  13.886 -0.3791  0.2110 -0.3749
  771MPD2    C511434   3.140   0.497  13.965  0.9222  0.1838  1.0664
  771MPD2     H11435   2.901   0.700  13.755  2.6667  0.9341 -2.1263
  771MPD2    H111436   3.044   0.322  13.893 -1.0919  0.5115  2.8607
  771MPD2    H211437   3.226   0.681  14.034  1.4054  1.7215 -2.0835
  771MPD2    H311438   3.208   0.442  14.028 -1.1807 -2.3624  1.0807
  771MPD2     N11439   2.866   0.444  13.736  0.4260 -0.1152 -0.0665
  771MPD2    H511440   2.812   0.500  13.671 -0.6533 -1.3307 -0.2311
  771MPD2    N111441   3.070   0.846  13.883  0.3241 -0.2825 -0.1038
  771MPD2    H711442   3.013   0.889  13.810 -1.1102 -2.6488 -0.4033
  772MPD2     C11443   2.662   1.380  13.618 -0.4002 -0.1837 -0.3026
  772MPD2    C111444   2.680   1.270  13.698 -0.2710  0.3156 -0.0976
  772MPD2    C211445   2.570   1.185  13.701  0.2795 -0.2726  0.8739
  772MPD2    C311446   2.450   1.217  13.640  0.1079 -0.2330 -0.1239
  772MPD2    C411447   2.438   1.340  13.577 -0.0235 -0.7882 -0.2355
  772MPD2    C511448   2.545   1.419  13.566 -0.5288  0.3647  0.0441
  772MPD2     H11449   2.573   1.095  13.762  2.3210 -1.2081 -0.6030
  772MPD2    H111450   2.344   1.379  13.539  0.3239 -0.5222 -0.8273
  772MPD2    H211451   2.739   1.453  13.596 -0.3604 -0.0967  0.1320
  772MPD2    H311452   2.535   1.518  13.522  0.4371  0.7586  0.6925
  772MPD2     N11453   2.325   1.148  13.674  0.1311 -0.0364  0.3061
  772MPD2    H511454   2.239   1.201  13.667 -0.6203 -1.3581 -0.3386
  772MPD2    N111455   2.805   1.219  13.736 -0.0088 -0.1399 -0.1909
  772MPD2    H711456   2.817   1.120  13.757 -1.6265 -0.4002 -0.5262
  773MPD2     C11457   2.073   1.634   0.472  0.1090  1.0368 -0.8898
  773MPD2    C111458   2.092   1.603   0.338  0.0202 -0.4978 -0.8599
  773MPD2    C211459   2.184   1.505   0.305  0.0753  0.2878 -0.0021
  773MPD2    C311460   2.261   1.444   0.395 -0.0961 -0.1053 -0.6945
  773MPD2    C411461   2.255   1.491   0.526  0.3282 -0.4640  0.3815
  773MPD2    C511462   2.161   1.581   0.565 -0.7613  0.4212 -0.0889
  773MPD2     H11463   2.178   1.463   0.206  0.6878 -1.0246  0.5172
  773MPD2    H111464   2.304   1.439   0.607  2.4947 -1.4631 -1.5517
  773MPD2    H211465   1.987   1.689   0.509 -0.8636  0.9288 -2.9764
  773MPD2    H311466   2.152   1.611   0.668 -0.6961  0.0660  0.0220
  773MPD2     N11467   2.334   1.328   0.363  0.2445 -0.4205  0.9322
  773MPD2    H511468   2.336   1.297   0.266  1.6205 -1.0387  1.1584
  773MPD2    N111469   2.009   1.654   0.237 -0.1671  0.1904 -0.0445
  773MPD2    H711470   2.018   1.616   0.143  0.9218  0.5753 -0.0889
  774MPD2     C11471   1.234   0.755  13.559  0.3031 -1.0684  0.3298
  774MPD2    C111472   1.166   0.874  13.587 -0.1436  0.2358 -0.4129
  774MPD2    C211473   1.180   0.986  13.510  0.9442  0.7410 -0.0605
  774MPD2    C311474   1.272   0.989  13.408 -0.7083  0.1229  1.1706
  774MPD2    C411475   1.336   0.872  13.370 -0.4996 -0.7065 -0.1086
  774MPD2    C511476   1.313   0.758  13.446  0.1372 -0.5101  0.7832
  774MPD2     H11477   1.133   1.078  13.544 -0.4957 -0.6898  1.7727
  774MPD2    H111478   1.407   0.870  13.289  0.4790 -3.8956  0.8228
  774MPD2    H211479   1.218   0.662  13.611  0.9282 -1.3172  0.0845
  774MPD2    H311480   1.359   0.665  13.414 -2.9639 -0.7184 -3.1710
  774MPD2     N11481   1.286   1.117  13.355  0.4898 -0.2473  0.8248
  774MPD2    H511482   1.229   1.192  13.395 -1.4066 -1.3398  0.1796
  774MPD2    N111483   1.093   0.874  13.711 -0.5103 -0.0243 -0.9808
  774MPD2    H711484   1.097   0.793  13.772 -1.8919  1.2356  0.8078
  775MPD2     C11485   2.548   2.478  15.606  0.8600  0.1291 -0.2350
  775MPD2    C111486   2.580   2.564  15.705 -0.5816 -0.5646 -0.4504
  775MPD2    C211487   2.674   2.662  15.680 -1.2327 -0.6848 -0.3040
  775MPD2    C311488   2.737   2.673  15.558 -0.7121 -0.2485 -1.0067
  775MPD2    C411489   2.689   2.596  15.461 -0.3432 -0.0875 -0.2479
  775MPD2    C511490   2.596   2.494  15.482 -0.0063  0.6835 -0.7023
  775MPD2     H11491   2.711   2.724  15.761  1.0312 -0.9719 -1.0955
  775MPD2    H111492   2.726   2.597  15.359 -1.0373  0.3885 -0.4978
  775MPD2    H211493   2.482   2.394  15.625  2.6841 -1.0343  0.9138
  775MPD2    H311494   2.559   2.430  15.402  0.6570  0.3098 -0.7122
  775MPD2     N11495   2.839   2.757  15.525 -0.1787  0.1865  0.2734
  775MPD2    H511496   2.878   2.742  15.433  1.7111 -0.4527  1.1697
  775MPD2    N111497   2.528   2.541  15.831 -0.7218  0.2548  0.0364
  775MPD2    H711498   2.491   2.447  15.843  0.0376  0.5223  4.5414
  776MPD2     C11499   1.136   2.624  11.532  0.1152 -0.3281  0.7762
  776MPD2    C111500   1.213   2.522  11.474 -0.1936 -0.2242 -0.0842
  776MPD2    C211501   1.334   2.549  11.419 -0.0050 -0.6583  0.3338
  776MPD2    C311502   1.387   2.674  11.417 -0.2175 -0.0474  0.2038
  776MPD2    C411503   1.311   2.784  11.470 -0.1261 -0.1928 -0.0843
  776MPD2    C511504   1.189   2.752  11.527  0.1866 -0.6024  1.2654
  776MPD2     H11505   1.396   2.479  11.365 -0.4326 -0.8836  0.1276
  776MPD2    H111506   1.355   2.882  11.481 -0.6446  0.1852 -1.4201
  776MPD2    H211507   1.036   2.606  11.572  0.1511  0.7347  1.3609
  776MPD2    H311508   1.130   2.830  11.574  1.1701  0.3448  0.9140
  776MPD2     N11509   1.511   2.712  11.359  0.3783 -0.0931  0.6800
  776MPD2    H511510   1.540   2.809  11.369  0.5086 -0.2323  1.6395
  776MPD2    N111511   1.153   2.392  11.473  0.1041  0.1164  0.2951
  776MPD2    H711512   1.060   2.394  11.515 -0.1778  1.0691 -0.3882
  777MPD2     C11513   1.783   0.154   0.293 -0.5246 -0.3678 -0.4205
  777MPD2    C111514   1.856   0.065   0.373 -0.4817 -0.0899 -0.4535
  777MPD2    C211515   1.851   4.674   0.353 -0.9565  0.2237  0.0681
  777MPD2    C311516   1.753   4.626   0.268 -0.0174  0.3887  0.7022
  777MPD2    C411517   1.667   4.705   0.197 -0.1983  0.0554 -0.3392
  777MPD2    C511518   1.685   0.103   0.215  0.0005 -0.0787 -0.6121
  777MPD2     H11519   1.892   4.599   0.421  0.2606  3.2891  2.7045
  777MPD2    H111520   1.575   4.678   0.147 -0.1076 -0.5355 -0.1785
  777MPD2    H211521   1.774   0.259   0.320 -0.6259 -0.3658 -0.4609
  777MPD2    H311522   1.628   0.167   0.148  0.7339  2.8636  1.6049
  777MPD2     N11523   1.743   4.488   0.275 -0.3202 -0.1804 -0.1824
  777MPD2    H511524   1.805   4.439   0.339 -0.6818  2.4382  2.1208
  777MPD2    N111525   1.932   0.121   0.482 -0.3834 -0.1129 -0.1427
  777MPD2    H711526   1.933   0.222   0.489  0.7528 -0.1759  0.6992
  778MPD2     C11527   3.090   0.878  14.971  0.6509  0.6455  0.0570
  778MPD2    C111528   3.094   0.787  14.874  0.2888 -0.1724  0.2785
  778MPD2    C211529   3.170   0.802  14.757 -0.3210 -0.2070 -0.4198
  778MPD2    C311530   3.249   0.915  14.747 -0.3282 -0.0911  0.2088
  778MPD2    C411531   3.253   1.005  14.855 -0.3678 -0.2434 -0.2424
  778MPD2    C511532   3.177   0.983  14.967  0.1689 -0.2291  0.0420
  778MPD2     H11533   3.179   0.726  14.680 -1.7662 -0.2689 -0.5430
  778MPD2    H111534   3.323   1.087  14.862  0.3984 -1.0912  2.1865
  778MPD2    H211535   3.038   0.867  15.066  0.4847  0.2633 -0.0772
  778MPD2    H311536   3.180   1.050  15.052 -0.5327  1.2888 -1.1182
  778MPD2     N11537   3.330   0.926  14.631 -0.5902  0.4316  0.3273
  778MPD2    H511538   3.323   0.852  14.562  0.7973 -0.0504  0.7011
  778MPD2    N111539   3.015   0.664  14.879 -0.4014 -0.2864  0.7665
  778MPD2    H711540   3.026   0.594  14.807  0.4799  0.2830  0.3454
  779MPD2     C11541   2.254   4.119  13.989 -0.6741 -0.1751 -0.1717
  779MPD2    C111542   2.381   4.099  14.038  0.9766 -0.4318  0.1199
  779MPD2    C211543   2.462   4.211  14.053 -1.3099 -0.1679  0.0558
  779MPD2    C311544   2.426   4.335  14.013 -0.1354  0.0523  0.2488
  779MPD2    C411545   2.310   4.340  13.932  0.3394  0.1483  0.8979
  779MPD2    C511546   2.221   4.240  13.924  0.0239 -0.2957  0.2793
  779MPD2     H11547   2.559   4.197  14.100 -0.4165  0.0685 -1.7433
  779MPD2    H111548   2.280   4.424  13.872 -0.2752 -1.0115 -0.4137
  779MPD2    H211549   2.175   4.045  13.987 -1.5784  0.8580 -2.4047
  779MPD2    H311550   2.127   4.257  13.873  0.9552 -1.1317 -1.7304
  779MPD2     N11551   2.517   4.445  14.030 -0.4442  0.1897  0.2271
  779MPD2    H511552   2.599   4.431  14.087 -1.1705 -2.1142  0.7096
  779MPD2    N111553   2.423   3.971  14.081  0.2385  0.5773  0.0329
  779MPD2    H711554   2.520   3.966  14.112  0.6608  1.6051 -1.1767
  780MPD2     C11555   3.235   3.697   1.217  0.0674  0.5596  0.3293
  780MPD2    C111556   3.105   3.721   1.204 -0.1391 -1.0453  0.3163
  780MPD2    C211557   3.067   3.792   1.091 -0.6110  0.6381 -0.0049
  780MPD2    C311558   3.159   3.849   1.003  0.1084 -0.2867  0.1028
  780MPD2    C411559   3.298   3.837   1.033  0.1454 -0.3720 -1.0802
  780MPD2    C511560   3.333   3.757   1.137 -0.3135 -0.0529 -0.6904
  780MPD2     H11561   2.964   3.817   1.066 -1.6099 -3.4618  0.0861
  780MPD2    H111562   3.375   3.858   0.959  3.0775 -1.6760  1.5720
  780MPD2    H211563   3.275   3.642   1.301 -1.9196  0.6321  1.3274
  780MPD2    H311564   3.439   3.734   1.139 -0.4032 -0.3754  0.4150
  780MPD2     N11565   3.121   3.919   0.886 -0.1206 -0.0022  0.7731
  780MPD2    H511566   3.026   3.955   0.884 -0.0027  0.2517 -0.4899
  780MPD2    N111567   3.011   3.666   1.300  0.0227  0.5806  0.0950
  780MPD2    H711568   3.042   3.618   1.384  1.0764 -0.1356 -0.7127
  781MPD2     C11569   4.060   0.280  12.151 -0.8063 -0.0267  0.3194
  781MPD2    C111570   4.175   0.253  12.218 -0.1276  0.4119 -0.2808
  781MPD2    C211571   4.293   0.234  12.149 -0.0194 -0.9855 -0.8310
  781MPD2    C311572   4.298   0.225  12.013  0.3572 -0.7634 -0.2185
  781MPD2    C411573   4.183   0.240  11.946  0.3728 -0.0505  0.4928
  781MPD2    C511574   4.062   0.266  12.017 -0.1611 -0.3730 -0.2588
  781MPD2     H11575   4.385   0.232  12.205 -0.2551 -2.5100 -0.5052
  781MPD2    H111576   4.185   0.231  11.838  1.8651  1.5036  0.3851
  781MPD2    H211577   3.960   0.294  12.191 -0.2967  1.7452  0.9655
  781MPD2    H311578   3.969   0.258  11.962  0.5752 -1.5017 -1.3248
  781MPD2     N11579   4.420   0.192  11.936 -0.2768 -0.2520  0.3475
  781MPD2    H511580   4.415   0.195  11.835 -2.5484  0.6973  0.4917
  781MPD2    N111581   4.180   0.272  12.366 -0.0536  0.1614 -0.6872
  781MPD2    H711582   4.275   0.266  12.401 -0.7039 -0.6796  0.9491
  782MPD2     C11583   2.117   1.594  10.207  0.6462  0.4649 -0.0144
  782MPD2    C111584   2.183   1.609  10.326  1.1890 -0.3409  0.2918
  782MPD2    C211585   2.172   1.727  10.395  0.4755 -0.2771  0.4820
  782MPD2    C311586   2.092   1.825  10.340  0.1297 -0.0011  0.5193
  782MPD2    C411587   2.032   1.818  10.223 -0.0062 -0.3801 -0.2856
  782MPD2    C511588   2.045   1.699  10.152 -0.0365 -0.2963  0.6154
  782MPD2     H11589   2.218   1.745  10.491 -0.4080  2.0003  0.4747
  782MPD2    H111590   1.970   1.897  10.183  0.0014 -1.0784 -1.6701
  782MPD2    H211591   2.137   1.513  10.137 -1.2501  2.1301 -2.4754
  782MPD2    H311592   2.001   1.688  10.054 -1.8855  1.5212  1.2316
  782MPD2     N11593   2.058   1.949  10.407 -0.5842  0.3729  0.4833
  782MPD2    H511594   1.981   1.994  10.358  0.7756 -0.5231 -2.4912
  782MPD2    N111595   2.273   1.514  10.381  0.1377 -0.0694  0.1380
  782MPD2    H711596   2.315   1.540  10.470  1.4181 -0.7859 -0.2659
  783MPD2     C11597   2.057   0.828  11.018 -0.0995  0.9920  0.0010
  783MPD2    C111598   1.999   0.942  10.980 -0.1777 -0.7590 -0.3993
  783MPD2    C211599   2.072   1.022  10.890 -0.5689  0.1666  0.5903
  783MPD2    C311600   2.185   0.983  10.830  0.0762 -0.2112 -0.0363
  783MPD2    C411601   2.233   0.856  10.859 -0.8771 -0.6516  1.0358
  783MPD2    C511602   2.171   0.775  10.958  0.4091 -0.1488 -0.3136
  783MPD2     H11603   2.035   1.121  10.865 -0.5519 -0.0817 -0.4465
  783MPD2    H111604   2.316   0.808  10.809 -0.6701  0.8661 -0.0920
  783MPD2    H211605   2.020   0.772  11.102 -0.9662  0.5480 -0.6782
  783MPD2    H311606   2.213   0.679  10.984  1.5878  0.0819 -1.3861
  783MPD2     N11607   2.246   1.070  10.737  0.6223 -0.6757 -0.0383
  783MPD2    H511608   2.203   1.160  10.718  2.2185  0.2395  0.6593
  783MPD2    N111609   1.878   0.983  11.040 -0.4808  0.0672  0.8024
  783MPD2    H711610   1.832   0.912  11.096 -0.9477 -1.6740 -1.8204
  784MPD2     C11611   4.582   1.502   0.621  0.4416 -0.1227  0.4011
  784MPD2    C111612   4.616   1.629   0.678 -0.1491  0.4070 -0.7226
  784MPD2    C211613   4.522   1.727   0.681  0.6802  0.9040  0.1256
  784MPD2    C311614   4.388   1.694   0.645  0.0571  0.3673 -0.2876
  784MPD2    C411615   4.351   1.571   0.591 -0.3681  0.1062  0.0686
  784MPD2    C511616   4.454   1.480   0.575  0.1958 -0.5669 -0.1819
  784MPD2     H11617   4.537   1.819   0.736 -0.9033  0.5454  1.1605
  784MPD2    H111618   4.253   1.536   0.562 -0.4426 -0.1555  0.6331
  784MPD2    H211619   4.654   1.422   0.608  0.2784 -0.0692 -0.8388
  784MPD2    H311620   4.436   1.384   0.527  0.9516 -0.5814 -0.4458
  784MPD2     N11621   4.289   1.790   0.672  0.3071  0.3622 -0.9717
  784MPD2    H511622   4.320   1.876   0.717  1.2071 -0.3404 -0.2372
  784MPD2    N111623   0.005   1.654   0.726  0.4396 -0.4099 -0.6911
  784MPD2    H711624   0.021   1.739   0.781 -0.2399  0.0588 -1.2191
  785MPD2     C11625   4.366   0.421  11.138  0.1966 -0.0114 -0.0828
  785MPD2    C111626   4.286   0.515  11.088  0.2001  0.5042  0.2479
  785MPD2    C211627   4.167   0.476  11.023 -0.1699 -0.0926  0.6537
  785MPD2    C311628   4.148   0.345  10.989  0.0120 -0.6375 -0.3412
  785MPD2    C411629   4.232   0.253  11.042  0.4125  0.3671  0.2467
  785MPD2    C511630   4.339   0.287  11.116 -0.7178 -0.1275 -0.1123
  785MPD2     H11631   4.105   0.558  10.989 -0.8027 -0.9860 -0.3271
  785MPD2    H111632   4.230   0.150  11.008  3.3278  0.0626  0.9639
  785MPD2    H211633   4.456   0.439  11.196  0.1684  1.5475 -0.5314
  785MPD2    H311634   4.403   0.205  11.148 -0.1302  0.0477 -0.8253
  785MPD2     N11635   4.039   0.311  10.902 -0.0673  0.0063  0.0053
  785MPD2    H511636   3.982   0.391  10.877  0.7419  0.5676 -0.0739
  785MPD2    N111637   4.310   0.653  11.110  0.6085 -0.0700 -0.1536
  785MPD2    H711638   4.239   0.720  11.080 -1.2258 -2.9876 -2.2730
  786MPD2     C11639   3.037   3.237  14.853 -0.1269 -0.5421  0.4355
  786MPD2    C111640   3.171   3.199  14.849  0.9232  0.5712  0.1989
  786MPD2    C211641   3.256   3.217  14.954 -0.5632 -0.2549 -0.2753
  786MPD2    C311642   3.203   3.268  15.068  0.5822 -0.5277  0.3177
  786MPD2    C411643   3.068   3.278  15.090 -0.1992  0.0510  0.2252
  786MPD2    C511644   2.983   3.269  14.978 -0.0776  0.3651 -0.2345
  786MPD2     H11645   3.359   3.189  14.935 -0.1216 -1.5871  4.0768
  786MPD2    H111646   3.030   3.312  15.186  1.1187 -2.1814  1.5404
  786MPD2    H211647   2.972   3.239  14.766 -1.2247 -1.7984  1.2381
  786MPD2    H311648   2.876   3.278  14.989  0.1798  0.8085  1.8944
  786MPD2     N11649   3.284   3.293  15.183  0.0661 -0.1124  0.4259
  786MPD2    H511650   3.237   3.295  15.273 -1.5283 -1.4280 -0.3930
  786MPD2    N111651   3.240   3.146  14.743  0.7726 -0.7178 -0.2059
  786MPD2    H711652   3.340   3.131  14.753  0.7012 -0.9155  0.2315
  787MPD2     C11653   3.739   2.838  14.912 -0.0607  0.2306 -1.0950
  787MPD2    C111654   3.723   2.810  14.780  0.8900 -0.6814 -0.7831
  787MPD2    C211655   3.797   2.708  14.730  0.0007  0.5370 -0.3907
  787MPD2    C311656   3.880   2.631  14.819 -0.7968 -0.1594  0.5288
  787MPD2    C411657   3.901   2.673  14.944 -1.0381  0.3225 -0.1618
  787MPD2    C511658   3.822   2.768  14.993  0.3182  0.5613 -0.4298
  787MPD2     H11659   3.789   2.671  14.628  1.3245 -0.4937 -0.1224
  787MPD2    H111660   3.976   2.634  15.011 -1.5747 -1.1015 -0.4001
  787MPD2    H211661   3.678   2.915  14.959  1.5894 -1.0645  3.1764
  787MPD2    H311662   3.856   2.803  15.090 -0.8281 -2.4724  1.0634
  787MPD2     N11663   3.943   2.518  14.766 -0.2758  0.5200 -0.3339
  787MPD2    H511664   3.941   2.514  14.664 -1.7530  0.1337 -0.2968
  787MPD2    N111665   3.634   2.891  14.701  0.2863 -0.2407 -0.0067
  787MPD2    H711666   3.589   2.973  14.740 -1.7786 -2.0078  1.3411
  788MPD2     C11667   0.868   1.746   0.895  0.3538 -0.6166  0.3873
  788MPD2    C111668   0.910   1.701   0.766  0.6406  0.6272  0.7684
  788MPD2    C211669   0.974   1.795   0.683  0.1978  0.3660 -0.5128
  788MPD2    C311670   0.997   1.928   0.724 -0.1417  0.4513 -0.6490
  788MPD2    C411671   0.960   1.967   0.856 -0.0573 -0.0944 -0.6397
  788MPD2    C511672   0.884   1.877   0.932 -0.0882  0.4249 -1.1079
  788MPD2     H11673   1.009   1.755   0.589 -0.1085 -0.3887 -0.3123
  788MPD2    H111674   0.976   2.065   0.899  1.0208 -0.9032  0.8001
  788MPD2    H211675   0.825   1.678   0.969  1.3797 -0.5123  1.0875
  788MPD2    H311676   0.838   1.914   1.023 -0.8000  0.3788 -1.4476
  788MPD2     N11677   1.069   2.018   0.642  0.5262  0.1033 -0.4864
  788MPD2    H511678   1.085   2.109   0.685  2.8856 -0.6760  0.2454
  788MPD2    N111679   0.879   1.568   0.733  0.1615 -0.0745  0.4347
  788MPD2    H711680   0.819   1.525   0.803  1.3977 -1.5583  0.5931
  789MPD2     C11681   0.840   1.223  16.426 -0.0710 -0.4412 -0.1369
  789MPD2    C111682   0.716   1.196  16.366  0.3784 -0.8526  0.4324
  789MPD2    C211683   0.611   1.292  16.373  0.2239  0.0978 -0.0350
  789MPD2    C311684   0.642   1.413  16.430  0.5527  0.2343 -0.6827
  789MPD2    C411685   0.771   1.439  16.473  0.2117 -0.5374  0.6036
  789MPD2    C511686   0.864   1.344  16.473 -0.1789  0.0795  0.6668
  789MPD2     H11687   0.513   1.269  16.331  1.6911 -3.3224 -1.5442
  789MPD2    H111688   0.794   1.538  16.511  1.3482 -0.5518 -0.0749
  789MPD2    H211689   0.930   1.164  16.422  0.4897  0.3144  1.4048
  789MPD2    H311690   0.958   1.371  16.520  0.5203 -0.8157 -0.2291
  789MPD2     N11691   0.540   1.506  16.451  0.5727  0.6588 -0.0109
  789MPD2    H511692   0.567   1.600  16.479  0.5139  1.1323 -1.5361
  789MPD2    N111693   0.693   1.073  16.296  0.5936  0.2535  0.1815
  789MPD2    H711694   0.604   1.070  16.247  0.0043 -0.6804  1.3114
  790MPD2     C11695   1.847   3.095  13.662 -0.5002 -0.2251 -0.0857
  790MPD2    C111696   1.839   2.955  13.652  0.4530 -0.3838  0.6773
  790MPD2    C211697   1.799   2.900  13.533 -0.1206  0.4000 -0.6966
  790MPD2    C311698   1.793   2.982  13.420 -0.7423  0.4864 -0.3399
  790MPD2    C411699   1.810   3.120  13.431 -0.5900  0.3473  0.3389
  790MPD2    C511700   1.838   3.176  13.556 -0.4815  0.1691  0.6382
  790MPD2     H11701   1.786   2.793  13.527 -2.0663  0.5496  1.1460
  790MPD2    H111702   1.780   3.182  13.348  1.4867 -0.4922 -1.0329
  790MPD2    H211703   1.871   3.135  13.760  2.1769 -0.5207 -0.6130
  790MPD2    H311704   1.838   3.284  13.568 -2.0947  0.4658 -2.1123
  790MPD2     N11705   1.763   2.917  13.303 -0.1105  0.4554  0.3899
  790MPD2    H511706   1.735   2.819  13.299 -0.0987  0.4450  0.5646
  790MPD2    N111707   1.876   2.891  13.769  0.2955 -0.4814  0.4052
  790MPD2    H711708   1.904   2.953  13.844  0.7384  0.5211 -0.5935
  791MPD2     C11709   1.126   2.843  13.121  0.1323  0.0426  0.3215
  791MPD2    C111710   1.204   2.771  13.033  1.1060 -0.1253  0.3218
  791MPD2    C211711   1.156   2.661  12.966  0.1767  0.9052 -0.0629
  791MPD2    C311712   1.024   2.628  12.988  0.3290  0.4215 -0.0128
  791MPD2    C411713   0.944   2.694  13.083  0.6397 -0.0088 -0.2702
  791MPD2    C511714   0.993   2.805  13.146  0.1563 -0.6507  0.0444
  791MPD2     H11715   1.208   2.607  12.888 -2.3478  1.7412 -2.3201
  791MPD2    H111716   0.843   2.666  13.111  0.7675 -0.7013 -0.5091
  791MPD2    H211717   1.165   2.933  13.168 -1.6078  1.9182 -1.8326
  791MPD2    H311718   0.928   2.869  13.205  3.4931  1.4617  1.4656
  791MPD2     N11719   0.966   2.520  12.916  0.0975 -0.4334 -0.0335
  791MPD2    H511720   1.026   2.484  12.842 -3.9970 -0.8916 -3.1596
  791MPD2    N111721   1.349   2.787  13.039 -0.2701 -0.0511 -0.5471
  791MPD2    H711722   1.382   2.867  13.092 -0.8498  0.2895 -0.6954
  792MPD2     C11723   2.103   1.712  11.143 -0.3368  0.1923  0.1709
  792MPD2    C111724   2.013   1.789  11.067 -0.8022  0.5036 -0.1473
  792MPD2    C211725   1.917   1.726  10.989 -0.3765 -0.0546  0.1967
  792MPD2    C311726   1.911   1.582  10.993 -0.0096  0.0138  0.2702
  792MPD2    C411727   2.003   1.510  11.072  0.4865  0.1109 -0.1859
  792MPD2    C511728   2.101   1.576  11.149  0.4049  0.5373  0.0896
  792MPD2     H11729   1.850   1.779  10.923  0.4427 -0.1504 -0.7191
  792MPD2    H111730   2.001   1.401  11.066 -0.6152  0.1876 -1.2605
  792MPD2    H211731   2.181   1.751  11.207 -0.1897  0.8875 -0.4292
  792MPD2    H311732   2.171   1.528  11.216  0.3644 -0.4489 -0.5821
  792MPD2     N11733   1.819   1.516  10.909 -0.4502 -1.0055 -0.6930
  792MPD2    H511734   1.828   1.415  10.913  0.2531 -0.9215 -0.0528
  792MPD2    N111735   2.041   1.928  11.054 -0.4661  0.1031 -0.8415
  792MPD2    H711736   2.126   1.957  11.101 -0.7231 -0.5411  0.0144
  793MPD2     C11737   0.949   1.723  10.421 -0.1882  0.5354  0.4762
  793MPD2    C111738   1.066   1.795  10.407  0.2013 -0.5079  0.0965
  793MPD2    C211739   1.178   1.747  10.459 -0.0568 -0.2028 -0.5998
  793MPD2    C311740   1.187   1.623  10.517  0.0814 -0.1357  0.4726
  793MPD2    C411741   1.075   1.546  10.510  0.5910  0.0706 -0.4748
  793MPD2    C511742   0.956   1.596  10.472 -0.0552  0.2488 -0.0702
  793MPD2     H11743   1.268   1.807  10.459  0.8300 -1.5297  0.8247
  793MPD2    H111744   1.073   1.443  10.544  3.5700 -0.0136 -0.5689
  793MPD2    H211745   0.854   1.766  10.391 -0.3525 -0.2760 -0.1872
  793MPD2    H311746   0.872   1.527  10.477  0.6208 -0.7120 -1.8747
  793MPD2     N11747   1.310   1.566  10.551 -0.5666  0.1600 -1.0746
  793MPD2    H511748   1.392   1.626  10.550 -1.5144  1.4746 -0.0141
  793MPD2    N111749   1.076   1.922  10.339  0.4061  0.3843 -0.5062
  793MPD2    H711750   1.172   1.954  10.336  0.4532  0.3293  0.3378
  794MPD2     C11751   1.683   2.288  17.583 -0.1040  0.1644  0.2380
  794MPD2    C111752   1.647   2.167  17.523 -0.4568 -0.3501 -0.5580
  794MPD2    C211753   1.618   2.170  17.390 -0.5809 -0.3833 -0.6075
  794MPD2    C311754   1.595   2.292  17.316 -0.4904  0.7316 -0.5827
  794MPD2    C411755   1.630   2.408  17.383  0.4105  1.0207 -0.3909
  794MPD2    C511756   1.692   2.398  17.506  0.6922  0.7659 -0.3698
  794MPD2     H11757   1.602   2.072  17.347 -1.1809 -0.9337  0.8809
  794MPD2    H111758   1.646   2.495  17.320  0.9223 -0.1000 -1.8196
  794MPD2    H211759   1.718   2.300  17.685  0.2816  1.8046 -0.0777
  794MPD2    H311760   1.736   2.486  17.550  1.3500  1.3197 -2.1382
  794MPD2     N11761   1.534   2.303  17.193 -0.8926 -0.2426  0.2973
  794MPD2    H511762   1.529   2.398  17.157  1.4838  0.2394  1.2811
  794MPD2    N111763   1.659   2.043  17.584  0.2111  0.3116 -0.5061
  794MPD2    H711764   1.658   1.964  17.519  0.0036 -1.7504  1.9846
  795MPD2     C11765   4.134   4.306  14.148 -0.1788 -0.1656  0.3061
  795MPD2    C111766   4.129   4.263  14.020  0.4609  0.0215  0.5094
  795MPD2    C211767   4.229   4.191  13.964 -0.4279  0.1625 -0.0423
  795MPD2    C311768   4.347   4.160  14.033  0.1941  0.0899 -0.1712
  795MPD2    C411769   4.350   4.207  14.166 -0.3158 -0.2127 -0.0631
  795MPD2    C511770   4.246   4.281  14.220 -0.5680  0.4798 -0.3931
  795MPD2     H11771   4.233   4.167  13.859  2.2313  2.4634 -0.4752
  795MPD2    H111772   4.434   4.187  14.231 -0.8143  0.1288  0.6790
  795MPD2    H211773   4.062   4.364  14.206 -0.5233  0.7917 -1.0779
  795MPD2    H311774   4.245   4.321  14.321  2.3058  0.4441 -0.3550
  795MPD2     N11775   4.452   4.090  13.967 -0.0062 -0.8785 -0.0094
  795MPD2    H511776   4.442   4.066  13.869  0.2819  1.6013 -0.6357
  795MPD2    N111777   4.017   4.278  13.933 -0.0250  0.2351  0.5230
  795MPD2    H711778   4.031   4.254  13.835 -4.5004 -0.2245  0.0100
  796MPD2     C11779   3.625   0.760  15.999 -0.1054 -0.9027  0.8817
  796MPD2    C111780   3.717   0.864  15.998 -0.1012  0.5794  0.4657
  796MPD2    C211781   3.697   0.974  15.917  0.2733  1.1018 -0.7347
  796MPD2    C311782   3.578   0.997  15.845 -0.2249 -0.2489 -0.1228
  796MPD2    C411783   3.482   0.901  15.868 -0.0302 -0.6364 -0.2474
  796MPD2    C511784   3.498   0.787  15.950 -0.1840 -0.0767 -0.8235
  796MPD2     H11785   3.771   1.053  15.903  0.9088  0.4323 -1.1078
  796MPD2    H111786   3.383   0.905  15.825  0.0897 -0.9439 -0.5637
  796MPD2    H211787   3.633   0.669  16.059  2.0269 -1.7300 -0.6756
  796MPD2    H311788   3.413   0.722  15.967 -0.4861 -0.3987 -3.5099
  796MPD2     N11789   3.559   1.123  15.769 -0.1655 -0.0644 -0.2421
  796MPD2    H511790   3.644   1.178  15.762 -0.5053  0.5623  0.5782
  796MPD2    N111791   3.833   0.848  16.077  0.0381  0.1408 -0.1086
  796MPD2    H711792   3.831   0.768  16.140 -1.8837  0.8931  0.8009
  797MPD2     C11793   0.023   0.705  17.349 -0.4609  0.7713 -0.1021
  797MPD2    C111794   0.132   0.786  17.341  0.1582 -0.1347 -0.3879
  797MPD2    C211795   0.155   0.855  17.226  0.1469 -0.4171  0.0282
  797MPD2    C311796   0.074   0.837  17.113 -0.9601  0.1932 -1.0694
  797MPD2    C411797   4.708   0.752  17.125  0.5934 -0.0664  0.2480
  797MPD2    C511798   4.682   0.686  17.240  0.2280 -0.7551  0.1729
  797MPD2     H11799   0.237   0.926  17.227 -0.7048  0.5420  1.2952
  797MPD2    H111800   4.637   0.745  17.043 -0.1526 -0.9019  0.9696
  797MPD2    H211801   0.013   0.647  17.440  0.4673  0.4236 -0.2255
  797MPD2    H311802   4.613   0.603  17.251 -1.8813  0.7448 -1.6950
  797MPD2     N11803   0.085   0.911  16.990  0.1034  0.3152  0.5897
  797MPD2    H511804   0.013   0.899  16.920 -1.5130  2.3675  1.9224
  797MPD2    N111805   0.223   0.807  17.452 -0.0577  0.0827 -0.3656
  797MPD2    H711806   0.306   0.865  17.440  1.9884 -2.7501  0.1148
  798MPD2     C11807   0.518   1.442  17.160 -0.0109 -0.3857  0.1529
  798MPD2    C111808   0.426   1.334  17.141  0.8630 -0.1051 -0.0035
  798MPD2    C211809   0.393   1.254  17.246 -0.1627  0.4447 -0.1936
  798MPD2    C311810   0.432   1.277  17.376 -0.4627  0.2268  1.0909
  798MPD2    C411811   0.518   1.380  17.399 -0.0438 -0.2358  0.3119
  798MPD2    C511812   0.560   1.464  17.293  0.1759  0.2706  0.2407
  798MPD2     H11813   0.332   1.166  17.230 -0.9193  1.1655 -1.2270
  798MPD2    H111814   0.545   1.408  17.500  0.9325 -1.4646  0.3895
  798MPD2    H211815   0.550   1.502  17.075  0.9098  0.1024  0.8435
  798MPD2    H311816   0.615   1.553  17.318  0.4466 -0.1319  1.0805
  798MPD2     N11817   0.403   1.184  17.480 -0.6987 -0.3729  0.1139
  798MPD2    H511818   0.355   1.101  17.447  1.6984 -1.6054 -0.2665
  798MPD2    N111819   0.371   1.288  17.015  0.6703 -0.3408 -0.3193
  798MPD2    H711820   0.312   1.205  17.016  2.2035 -1.4292 -0.0751
  799MPD2     C11821   3.649   2.257  14.732 -0.0588 -0.5240 -0.4210
  799MPD2    C111822   3.590   2.196  14.623  0.0514 -0.2884 -0.0842
  799MPD2    C211823   3.486   2.253  14.552 -0.7667  0.2853 -0.2733
  799MPD2    C311824   3.435   2.379  14.593 -0.1476 -0.7765 -0.4540
  799MPD2    C411825   3.491   2.439  14.702 -0.0879 -0.8412  0.4393
  799MPD2    C511826   3.594   2.379  14.769  0.2853 -0.2653 -0.0450
  799MPD2     H11827   3.451   2.194  14.467  2.2242 -0.0484 -1.2617
  799MPD2    H111828   3.475   2.541  14.733  1.5761 -0.9183  1.5617
  799MPD2    H211829   3.721   2.208  14.796  0.1802  0.8227  0.3352
  799MPD2    H311830   3.634   2.422  14.860  2.1750 -1.4409 -0.3251
  799MPD2     N11831   3.356   2.456  14.506 -0.6585 -0.1577 -0.3362
  799MPD2    H511832   3.332   2.550  14.534  0.1788  0.8523 -2.9941
  799MPD2    N111833   3.624   2.068  14.571  0.5639  0.1474 -0.3016
  799MPD2    H711834   3.570   2.031  14.494  2.0332 -1.9242 -0.3434
  800MPD2     C11835   4.102   3.242  14.282  0.0365  0.0958  0.0875
  800MPD2    C111836   4.224   3.303  14.244 -0.1798 -0.3997  0.0014
  800MPD2    C211837   4.281   3.255  14.130  0.0998 -0.1098  0.3957
  800MPD2    C311838   4.225   3.165  14.045  1.1175 -0.0615 -0.1657
  800MPD2    C411839   4.100   3.113  14.082  0.2194 -0.2638  0.0070
  800MPD2    C511840   4.041   3.158  14.196  0.3745  0.7234 -0.3042
  800MPD2     H11841   4.367   3.306  14.089  0.2212  0.2036  1.0369
  800MPD2    H111842   4.036   3.056  14.016  1.5962  0.3736 -1.8929
  800MPD2    H211843   4.056   3.275  14.374  0.7063  0.8010  0.1781
  800MPD2    H311844   3.945   3.118  14.225  0.7439 -0.7249 -1.1131
  800MPD2     N11845   4.293   3.136  13.918  0.2890 -1.6240 -0.1131
  800MPD2    H511846   4.388   3.170  13.906 -0.5087  0.4963 -0.3885
  800MPD2    N111847   4.288   3.404  14.325 -0.5888 -0.2055  0.6354
  800MPD2    H711848   4.237   3.429  14.409 -0.6288 -0.2782  0.6333
  801MPD2     C11849   3.967   4.008  14.551  0.4462 -0.1206 -0.0618
  801MPD2    C111850   4.002   3.880  14.567 -0.4151  0.0883 -0.9971
  801MPD2    C211851   3.914   3.805  14.644 -0.5833  0.6747 -0.3028
  801MPD2    C311852   3.792   3.848  14.696  0.0584  0.3384 -0.0722
  801MPD2    C411853   3.758   3.974  14.667  1.0127  0.4227  0.3524
  801MPD2    C511854   3.848   4.055  14.607  0.4303  0.0207  0.1363
  801MPD2     H11855   3.945   3.701  14.656  1.4004  1.0516 -2.1888
  801MPD2    H111856   3.663   4.017  14.693  1.7355  2.4859 -0.4193
  801MPD2    H211857   4.023   4.077  14.489 -0.8472  2.1140  1.2090
  801MPD2    H311858   3.824   4.161  14.608  3.3961  0.7145 -0.9507
  801MPD2     N11859   3.710   3.776  14.790  0.4900 -0.5289 -0.1772
  801MPD2    H511860   3.626   3.824  14.822  0.8232 -0.6516  0.9067
  801MPD2    N111861   4.121   3.818  14.516 -0.0646  0.0146 -0.0702
  801MPD2    H711862   4.127   3.718  14.530  3.1936 -0.1915 -3.2147
  802MPD2     C11863   4.146   4.103   0.169  0.5433  0.1182  0.4275
  802MPD2    C111864   4.011   4.127   0.152 -0.8011 -0.1374  0.6036
  802MPD2    C211865   3.939   4.064   0.043 -0.0665  0.2952  0.3664
  802MPD2    C311866   3.990   3.954  17.733  0.7660 -0.5818  0.0288
  802MPD2    C411867   4.117   3.922   0.004 -0.0394  0.0169 -0.4372
  802MPD2    C511868   4.188   3.992   0.103  0.5632  0.2612 -0.1305
  802MPD2     H11869   3.841   4.109   0.032  0.0468  0.3331 -0.4755
  802MPD2    H111870   4.167   3.844  17.705  0.8338  0.8820 -0.8652
  802MPD2    H211871   4.201   4.137   0.256  0.2177  3.1918 -0.5525
  802MPD2    H311872   4.283   3.958   0.144  1.2040  1.9572 -0.2078
  802MPD2     N11873   3.910   3.899  17.632 -0.2456  0.2558 -0.0759
  802MPD2    H511874   3.824   3.948  17.611 -1.2157 -1.7905 -0.8767
  802MPD2    N111875   3.943   4.227   0.227  0.1534  0.3983  0.0595
  802MPD2    H711876   3.844   4.238   0.209  0.1852  1.0511  0.2932
  803MPD2     C11877   0.215   2.292  12.007  0.2489  0.6489 -0.3178
  803MPD2    C111878   0.218   2.403  12.089  0.2638  0.4941  0.0098
  803MPD2    C211879   0.128   2.399  12.191 -0.3772  0.4918  0.1529
  803MPD2    C311880   0.030   2.299  12.195  1.1203 -0.4914  0.6406
  803MPD2    C411881   0.026   2.195  12.102  0.1772 -0.7445  0.3737
  803MPD2    C511882   0.130   2.192  12.005  0.0361  0.3892 -0.0071
  803MPD2     H11883   0.136   2.484  12.258 -0.8970  0.1704  0.6302
  803MPD2    H111884   4.691   2.117  12.090 -0.9891  0.3843  0.3629
  803MPD2    H211885   0.295   2.290  11.933  0.7832 -1.6282  0.3262
  803MPD2    H311886   0.139   2.113  11.932 -1.8664  0.4129 -0.2729
  803MPD2     N11887   4.659   2.297  12.279  0.0820  0.0694 -0.1442
  803MPD2    H511888   4.590   2.224  12.264 -0.7789  0.8945 -0.2612
  803MPD2    N111889   0.318   2.503  12.081  0.2601  0.0175 -0.3108
  803MPD2    H711890   0.325   2.560  12.165  1.0242 -0.4302 -0.0642
  804MPD2     C11891   4.218   3.975  17.314 -0.3817  0.4506  0.1203
  804MPD2    C111892   4.294   3.915  17.411  0.7179 -0.8005  0.3809
  804MPD2    C211893   4.351   3.997  17.505 -0.2765 -0.0345  0.1355
  804MPD2    C311894   4.333   4.140  17.491  0.4526  0.3852  0.3792
  804MPD2    C411895   4.256   4.197  17.394 -0.3471  0.1170  0.2559
  804MPD2    C511896   4.196   4.111  17.310  0.1066 -0.0370  0.1072
  804MPD2     H11897   4.408   3.968  17.592 -0.4667  2.0479  0.9557
  804MPD2    H111898   4.233   4.300  17.371 -1.2564 -0.1176  0.1399
  804MPD2    H211899   4.156   3.914  17.249 -0.0050  0.1585  0.0367
  804MPD2    H311900   4.119   4.151  17.245  0.9466  3.0405  1.0145
  804MPD2     N11901   4.405   4.229  17.581  0.6504  0.6205  0.4103
  804MPD2    H511902   4.458   4.194  17.660  0.9380 -0.4912 -0.2827
  804MPD2    N111903   4.324   3.777  17.414 -0.7549 -0.4026 -0.0119
  804MPD2    H711904   4.367   3.746  17.501  1.7968  4.1270  0.3485
  805MPD2     C11905   3.035   2.495  15.518  0.2680  0.0750 -0.0410
  805MPD2    C111906   3.130   2.497  15.416 -0.6867  0.1656 -0.1398
  805MPD2    C211907   3.261   2.523  15.441  0.2372  0.1601 -1.1999
  805MPD2    C311908   3.303   2.547  15.574 -0.3043  0.6422  0.6391
  805MPD2    C411909   3.208   2.549  15.676  0.3036  0.1378  0.0648
  805MPD2    C511910   3.078   2.518  15.641 -0.2687  0.3560  0.0017
  805MPD2     H11911   3.333   2.541  15.362  1.5503 -0.0111 -0.0330
  805MPD2    H111912   3.233   2.571  15.780 -0.1291  1.4634 -0.1102
  805MPD2    H211913   2.931   2.484  15.492 -0.2315 -2.5269  2.9639
  805MPD2    H311914   3.008   2.505  15.723  2.0762  0.7667  2.0560
  805MPD2     N11915   3.447   2.565  15.599  0.0917  0.2575  0.2913
  805MPD2    H511916   3.505   2.602  15.525 -0.9216 -1.3075 -1.2905
  805MPD2    N111917   3.104   2.471  15.275  0.1673  0.1849  0.1497
  805MPD2    H711918   3.189   2.463  15.220 -1.1297  2.1848 -2.1320
  806MPD2     C11919   3.466   1.629   0.175 -0.3970 -0.1366 -0.3423
  806MPD2    C111920   3.547   1.679   0.275 -0.6704  0.2386  0.2472
  806MPD2    C211921   3.658   1.748   0.232  0.1611 -0.2122  0.1048
  806MPD2    C311922   3.691   1.767   0.103 -0.4229 -0.1682 -0.5022
  806MPD2    C411923   3.603   1.719   0.011  0.2960  0.0552 -0.5610
  806MPD2    C511924   3.494   1.645   0.043  0.3400  0.7879 -0.0223
  806MPD2     H11925   3.726   1.782   0.309 -0.5229  2.1587 -0.3528
  806MPD2    H111926   3.620   1.732  17.661  1.2792 -0.2905 -0.4502
  806MPD2    H211927   3.371   1.587   0.207 -0.4317 -0.6347 -1.0992
  806MPD2    H311928   3.421   1.617  17.724  0.6171  1.2488 -0.4546
  806MPD2     N11929   3.793   1.849   0.071 -0.3217  0.1501 -0.2953
  806MPD2    H511930   3.848   1.889   0.146 -0.0052  0.2182 -0.5651
  806MPD2    N111931   3.508   1.640   0.405 -0.2279  0.2986  0.9254
  806MPD2    H711932   3.414   1.606   0.421 -0.2047 -0.0777  0.2620
  807MPD2     C11933   2.984   1.482   0.954  0.2688  0.1989 -0.5791
  807MPD2    C111934   3.086   1.395   0.961 -0.9934 -0.6064 -0.2049
  807MPD2    C211935   3.076   1.288   1.043  0.4264  0.8820 -0.0704
  807MPD2    C311936   2.966   1.276   1.131  0.3702 -0.5707 -0.2222
  807MPD2    C411937   2.859   1.360   1.116  0.7108  0.5784 -0.5429
  807MPD2    C511938   2.868   1.463   1.028  0.4803  0.1471 -0.4787
  807MPD2     H11939   3.157   1.217   1.056 -1.9463 -1.6047  0.9505
  807MPD2    H111940   2.779   1.356   1.189 -2.1362  0.3461 -3.6795
  807MPD2    H211941   2.985   1.569   0.889 -0.6163 -0.1191 -1.0073
  807MPD2    H311942   2.788   1.535   1.024  0.0393 -0.4437 -2.2502
  807MPD2     N11943   2.977   1.180   1.235 -0.3994 -0.4829  0.4146
  807MPD2    H511944   3.061   1.125   1.250 -0.3120  0.1652  2.2846
  807MPD2    N111945   3.209   1.400   0.893  0.5693 -0.0445  0.8931
  807MPD2    H711946   3.282   1.346   0.939  0.4272 -1.3926 -0.4586
  808MPD2     C11947   4.016   3.018   9.639  0.7854 -0.8191 -0.6084
  808MPD2    C111948   4.076   3.007   9.764  0.4216 -0.8555  0.5921
  808MPD2    C211949   4.114   3.124   9.826 -0.0036  0.3051 -0.0065
  808MPD2    C311950   4.082   3.249   9.779 -0.8799  0.0862 -0.5709
  808MPD2    C411951   4.011   3.260   9.663  0.2649  0.5022  0.3268
  808MPD2    C511952   3.982   3.146   9.596 -0.1726 -0.4278 -0.0737
  808MPD2     H11953   4.171   3.107   9.917  0.3655  1.0305 -0.1041
  808MPD2    H111954   3.983   3.351   9.612 -0.5480  0.6294  0.9916
  808MPD2    H211955   3.984   2.938   9.574  2.8982 -1.8400 -0.3921
  808MPD2    H311956   3.938   3.156   9.498 -0.1775 -1.1973 -0.1534
  808MPD2     N11957   4.129   3.375   9.835 -0.0076  0.1155  0.1490
  808MPD2    H511958   4.111   3.464   9.790 -2.0849 -0.5092 -0.2493
  808MPD2    N111959   4.131   2.879   9.808 -0.4329 -0.1092 -0.0024
  808MPD2    H711960   4.190   2.885   9.891 -0.7297  1.3369  0.1043
  809MPD2     C11961   4.649   4.224   9.851  0.8488 -0.1228  0.1616
  809MPD2    C111962   4.664   4.089   9.807 -0.2334 -0.9873 -0.8023
  809MPD2    C211963   4.572   4.002   9.844 -0.0591 -0.6720  0.6431
  809MPD2    C311964   4.468   4.037   9.929  0.3784  0.0650 -0.1740
  809MPD2    C411965   4.451   4.166   9.972 -0.6385  0.0673 -0.0596
  809MPD2    C511966   4.542   4.262   9.926  0.5221  0.5077 -0.0733
  809MPD2     H11967   4.584   3.901   9.805 -0.3584  0.6975 -3.0182
  809MPD2    H111968   4.387   4.196  10.055  2.3974 -1.3899  2.8321
  809MPD2    H211969   4.716   4.308   9.834 -1.4876  1.7583  0.1917
  809MPD2    H311970   4.541   4.361   9.969 -0.1730  1.1349 -1.5302
  809MPD2     N11971   4.378   3.940   9.974  1.1233  0.0804 -0.2917
  809MPD2    H511972   4.312   3.961  10.048  1.4566  1.7836 -0.4902
  809MPD2    N111973   0.025   4.043   9.719  0.0947  0.4735 -0.2084
  809MPD2    H711974   0.019   3.947   9.687  3.6733 -0.1979  1.1591
  810MPD2     C11975   4.030   2.859  10.665 -0.0890  0.0213 -0.5207
  810MPD2    C111976   3.922   2.837  10.580 -0.0757 -0.5786 -0.2308
  810MPD2    C211977   3.810   2.923  10.586 -0.0400  0.6565 -0.2797
  810MPD2    C311978   3.811   3.033  10.666 -0.2014 -0.7042  1.1909
  810MPD2    C411979   3.928   3.060  10.732 -0.1136  0.5138 -0.0259
  810MPD2    C511980   4.031   2.974  10.730 -0.2187 -0.6801 -0.1938
  810MPD2     H11981   3.719   2.896  10.533  0.3376 -0.8042 -0.1807
  810MPD2    H111982   3.945   3.155  10.781  1.9394  0.8568 -1.4280
  810MPD2    H211983   4.119   2.798  10.657  0.3626  0.3427  2.0052
  810MPD2    H311984   4.119   2.994  10.791  0.7780 -1.9939 -1.1904
  810MPD2     N11985   3.706   3.130  10.671  0.0561 -0.0891 -0.2334
  810MPD2    H511986   3.709   3.199  10.745 -2.8559  0.2570 -0.4311
  810MPD2    N111987   3.903   2.720  10.506 -0.2722 -0.4779 -0.0922
  810MPD2    H711988   3.817   2.717  10.454 -0.1121 -0.6002 -0.3477
  811MPD2     C11989   3.376   2.559   9.959 -0.3118  0.0554 -0.0971
  811MPD2    C111990   3.457   2.629  10.046  0.1515 -0.0317  0.6761
  811MPD2    C211991   3.449   2.770  10.049 -0.3470  0.9222  0.3416
  811MPD2    C311992   3.388   2.837   9.949  0.2804  0.1621  0.2696
  811MPD2    C411993   3.323   2.766   9.848  0.0867 -0.1949 -0.1367
  811MPD2    C511994   3.310   2.631   9.863  0.4160 -0.4318  0.0003
  811MPD2     H11995   3.498   2.826  10.128  1.4639  0.5676 -0.5369
  811MPD2    H111996   3.291   2.810   9.755 -0.7146 -1.2460 -0.3679
  811MPD2    H211997   3.366   2.451   9.965 -1.3420  0.1439 -0.1138
  811MPD2    H311998   3.278   2.576   9.775  1.7622 -0.0128 -0.7438
  811MPD2     N11999   3.375   2.978   9.967 -0.2461  0.1932  0.4019
  811MPD2    H512000   3.416   3.008  10.055  3.3156 -1.9181 -0.5439
  811MPD2    N112001   3.543   2.560  10.130 -0.7254  0.3493  0.2820
  811MPD2    H712002   3.543   2.459  10.121  1.3561  0.4642 -1.1464
  812MPD2     C12003   2.699   2.379  12.125 -0.0996 -0.2796  0.6472
  812MPD2    C112004   2.709   2.507  12.173 -0.6289  0.6728 -0.0432
  812MPD2    C212005   2.694   2.534  12.308  0.1375 -0.0000 -0.5458
  812MPD2    C312006   2.652   2.432  12.394  0.1856 -0.0021 -0.2245
  812MPD2    C412007   2.661   2.304  12.349  0.6055  0.0338 -0.1797
  812MPD2    C512008   2.691   2.279  12.214  0.2713  0.4835  0.7717
  812MPD2     H12009   2.703   2.635  12.345  0.3147 -0.2339  0.0588
  812MPD2    H112010   2.656   2.223  12.420 -1.1047 -1.3914 -1.9462
  812MPD2    H212011   2.723   2.356  12.022  2.4215  0.1810  1.1287
  812MPD2    H312012   2.707   2.176  12.182  2.5079  0.6042  1.4735
  812MPD2     N12013   2.616   2.453  12.528 -0.3247 -0.0547 -0.1460
  812MPD2    H512014   2.630   2.549  12.560  0.9853 -0.6197  0.9860
  812MPD2    N112015   2.723   2.617  12.081 -0.8807  0.2529  0.8413
  812MPD2    H712016   2.718   2.589  11.984 -1.1997 -0.1974  0.9875
  813MPD2     C12017   1.891   0.021  12.834  0.6106 -0.5310  0.3366
  813MPD2    C112018   1.933   0.125  12.914  0.2633  0.5713 -0.2570
  813MPD2    C212019   1.866   0.175  13.022  0.3523  0.3057 -0.2348
  813MPD2    C312020   1.756   0.107  13.068  0.1501 -0.0823 -0.0818
  813MPD2    C412021   1.716   4.730  13.001 -0.5503  0.3050 -0.7756
  813MPD2    C512022   1.779   4.697  12.876 -0.5116  0.9810  0.5475
  813MPD2     H12023   1.906   0.257  13.080  2.6671 -1.8134  1.1914
  813MPD2    H112024   1.635   4.665  13.030  1.8361 -1.5725  1.6554
  813MPD2    H212025   1.939   4.728  12.743  1.0663 -0.1544  0.4388
  813MPD2    H312026   1.738   4.611  12.825  2.2102  2.5732 -4.2861
  813MPD2     N12027   1.685   0.153  13.182 -0.0301  0.0382  0.1191
  813MPD2    H512028   1.733   0.231  13.226 -1.9167  0.6888  1.0155
  813MPD2    N112029   2.065   0.170  12.898  0.0190 -0.3838  0.4798
  813MPD2    H712030   2.094   0.254  12.946  0.4324  0.1843 -0.7465
  814MPD2     C12031   2.149   1.644  12.170  0.0033 -0.1647  0.5558
  814MPD2    C112032   2.258   1.617  12.089  0.8786  0.1100 -0.9269
  814MPD2    C212033   2.375   1.688  12.108  0.2151 -0.1197 -0.1699
  814MPD2    C312034   2.378   1.785  12.204  0.1838  0.7291 -0.3445
  814MPD2    C412035   2.264   1.817  12.278  0.1358  0.3546 -0.3241
  814MPD2    C512036   2.150   1.747  12.262 -0.3947  0.0584  0.2119
  814MPD2     H12037   2.459   1.665  12.044  1.2057 -2.0242  1.7966
  814MPD2    H112038   2.268   1.903  12.344 -1.6811 -1.6708  2.4472
  814MPD2    H212039   2.057   1.586  12.168 -1.2973  1.9709 -1.4422
  814MPD2    H312040   2.060   1.782  12.310 -0.1693 -0.0861  0.7461
  814MPD2     N12041   2.502   1.837  12.248  0.6265 -0.2104  0.0246
  814MPD2    H512042   2.507   1.892  12.333  0.0784 -3.0133  1.8480
  814MPD2    N112043   2.251   1.521  11.989  0.4650 -0.5587  0.1594
  814MPD2    H712044   2.338   1.511  11.939  0.0943  0.1047 -0.6198
  815MPD2     C12045   3.320   3.807  11.729  0.2317 -0.0819 -0.0718
  815MPD2    C112046   3.290   3.679  11.784 -0.2199  0.7621 -0.3325
  815MPD2    C212047   3.284   3.671  11.922 -0.5324 -0.0774 -0.2268
  815MPD2    C312048   3.288   3.775  12.002  0.4631  0.5094  0.3012
  815MPD2    C412049   3.332   3.896  11.954 -0.8310 -1.3333  0.1289
  815MPD2    C512050   3.354   3.905  11.821  0.6561 -0.1577  0.6055
  815MPD2     H12051   3.258   3.575  11.967  0.2546 -0.7718 -1.2462
  815MPD2    H112052   3.366   3.972  12.024 -0.7156  0.3628 -1.7758
  815MPD2    H212053   3.324   3.835  11.625 -0.4759 -1.3162 -0.4225
  815MPD2    H312054   3.411   3.989  11.781 -0.0861  1.0097  1.9863
  815MPD2     N12055   3.243   3.747  12.134  0.0423 -0.4588 -0.8726
  815MPD2    H512056   3.213   3.653  12.157 -2.1850  0.4858  0.0121
  815MPD2    N112057   3.272   3.565  11.708  0.5812 -0.0703 -0.9492
  815MPD2    H712058   3.229   3.485  11.752  0.2218  1.4302  1.4497
  816MPD2     C12059   2.697   3.107  17.510  0.4120  0.2179 -0.3040
  816MPD2    C112060   2.746   3.234  17.493  0.2384  0.6541 -0.6980
  816MPD2    C212061   2.866   3.244  17.416  0.3167 -0.3938  0.1669
  816MPD2    C312062   2.924   3.136  17.346 -0.0028  0.1013  0.5002
  816MPD2    C412063   2.879   3.010  17.379  0.2900 -0.7177 -0.6284
  816MPD2    C512064   2.766   3.001  17.453  0.3184 -0.5366  0.5466
  816MPD2     H12065   2.917   3.337  17.395  0.6685 -0.5572  0.2957
  816MPD2    H112066   2.915   2.921  17.329 -1.3921 -0.9089 -1.5109
  816MPD2    H212067   2.604   3.086  17.562  0.5925 -1.7116 -0.7578
  816MPD2    H312068   2.720   2.905  17.471 -0.0412 -0.1267  1.7601
  816MPD2     N12069   3.014   3.160  17.237  0.9504 -0.2249 -0.0960
  816MPD2    H512070   3.036   3.258  17.223  1.1655 -0.4969 -1.6487
  816MPD2    N112071   2.679   3.343  17.550  0.6943  0.4001  0.5530
  816MPD2    H712072   2.590   3.328  17.597  0.3818 -1.0694 -0.5289
  817MPD2     C12073   1.124   4.166   9.998 -0.8614 -0.0734 -0.2095
  817MPD2    C112074   1.198   4.179   9.883 -0.0805  0.3315  0.4379
  817MPD2    C212075   1.203   4.303   9.819 -0.0410  0.4429 -0.3950
  817MPD2    C312076   1.131   4.403   9.875  0.4515 -0.5238  0.1265
  817MPD2    C412077   1.066   4.393   9.994  0.4775  0.0284  0.1138
  817MPD2    C512078   1.062   4.271  10.057  0.1227 -0.5206 -1.1726
  817MPD2     H12079   1.258   4.318   9.727 -0.9465 -2.0598 -1.3627
  817MPD2    H112080   1.020   4.473  10.052 -2.4428 -1.1261 -0.5860
  817MPD2    H212081   1.117   4.071  10.050 -0.2543 -0.2659 -0.4772
  817MPD2    H312082   1.007   4.258  10.150  2.6444  1.1781  0.5690
  817MPD2     N12083   1.124   4.521   9.800  0.6226  1.1813  0.0206
  817MPD2    H512084   1.184   4.521   9.718 -1.7930  1.5461 -1.7504
  817MPD2    N112085   1.252   4.065   9.816  0.5814  0.2732 -0.4581
  817MPD2    H712086   1.301   4.080   9.729  1.0520 -1.0903 -0.4199
  818MPD2     C12087   1.454   4.396  10.208  0.2384  0.5531  0.0880
  818MPD2    C112088   1.366   4.323  10.283  0.2982 -0.1417  0.1306
  818MPD2    C212089   1.349   4.191  10.256 -0.0750  1.5318  0.3711
  818MPD2    C312090   1.440   4.119  10.180 -0.1788 -0.2463  0.0335
  818MPD2    C412091   1.528   4.192  10.107 -0.1044 -0.9673  0.8195
  818MPD2    C512092   1.547   4.332  10.130 -0.0487  0.4834 -0.0883
  818MPD2     H12093   1.275   4.140  10.317  0.0575 -0.2623 -0.9735
  818MPD2    H112094   1.596   4.142  10.039 -0.8128 -2.4592  1.2043
  818MPD2    H212095   1.462   4.502  10.225  0.6465  0.5689 -0.2078
  818MPD2    H312096   1.621   4.380  10.066  1.1733 -0.5123  0.5914
  818MPD2     N12097   1.446   3.981  10.181 -0.3738 -0.3412  0.2301
  818MPD2    H512098   1.528   3.950  10.129  1.0317  2.2276  0.9135
  818MPD2    N112099   1.278   4.373  10.378 -0.3435  0.3977 -0.2558
  818MPD2    H712100   1.218   4.302  10.419 -1.0471  0.3801 -1.3189
  819MPD2     C12101   3.813   2.397  15.524  0.4141 -0.2952 -0.1565
  819MPD2    C112102   3.846   2.261  15.500 -0.1749  0.5684 -0.0147
  819MPD2    C212103   3.970   2.224  15.548  1.0504  0.1672  0.6187
  819MPD2    C312104   4.057   2.311  15.612  0.4200  0.7919 -0.5276
  819MPD2    C412105   4.028   2.445  15.623  0.1433  0.2590 -0.2039
  819MPD2    C512106   3.903   2.485  15.587 -0.0387  0.0290 -0.1380
  819MPD2     H12107   4.007   2.123  15.534  1.9250  0.3483  1.6578
  819MPD2    H112108   4.100   2.512  15.668  1.5797 -0.9058 -0.7422
  819MPD2    H212109   3.722   2.438  15.482  0.9110 -0.3526 -1.2871
  819MPD2    H312110   3.872   2.588  15.595  1.1756  0.3038  1.0057
  819MPD2     N12111   4.173   2.251  15.658 -0.3350  0.2040  0.4146
  819MPD2    H512112   4.188   2.157  15.624  0.7886  0.6371 -0.3001
  819MPD2    N112113   3.747   2.179  15.434  0.2083 -0.1675 -0.5609
  819MPD2    H712114   3.652   2.214  15.441 -1.1358 -3.4258 -2.1694
  820MPD2     C12115   3.181   2.094  14.628  0.3050  0.6602  0.1285
  820MPD2    C112116   3.194   2.189  14.725  0.4176  0.0612 -1.0022
  820MPD2    C212117   3.265   2.151  14.838 -0.2078  0.0569 -0.4010
  820MPD2    C312118   3.337   2.030  14.837 -0.2599 -0.2297  0.3308
  820MPD2    C412119   3.333   1.944  14.728 -0.4637 -0.1247  0.0918
  820MPD2    C512120   3.244   1.976  14.628  0.6827  0.6182  0.2283
  820MPD2     H12121   3.279   2.210  14.928 -0.7735 -0.0301 -0.2590
  820MPD2    H112122   3.376   1.845  14.722  0.2145  0.2036 -0.5003
  820MPD2    H212123   3.100   2.118  14.561  1.4057 -0.4360 -1.5994
  820MPD2    H312124   3.243   1.910  14.542 -2.1364  0.7391  0.1694
  820MPD2     N12125   3.416   1.979  14.946 -0.2189 -0.1054  0.0843
  820MPD2    H512126   3.480   1.902  14.926 -1.0753 -1.2602  1.8501
  820MPD2    N112127   3.123   2.315  14.717 -0.9299 -0.4462  0.8613
  820MPD2    H712128   3.040   2.316  14.658 -1.2102  1.8039  1.3020
  821MPD2     C12129   4.301   3.276  13.180  0.0869 -0.1306  0.2483
  821MPD2    C112130   4.418   3.220  13.227  0.4125 -0.3439 -0.0571
  821MPD2    C212131   4.540   3.273  13.190 -0.6119 -0.1414  0.5518
  821MPD2    C312132   4.546   3.378  13.103  0.1369 -0.1090  0.1061
  821MPD2    C412133   4.432   3.430  13.050 -0.3672  0.1684  0.2756
  821MPD2    C512134   4.313   3.373  13.083  0.1919 -0.4606  0.2645
  821MPD2     H12135   4.625   3.246  13.252 -0.6120 -2.1740 -0.3260
  821MPD2    H112136   4.442   3.511  12.978 -1.2845 -0.9020 -1.0445
  821MPD2    H212137   4.201   3.237  13.195 -0.2117  0.8876  0.9359
  821MPD2    H312138   4.228   3.405  13.025 -0.4088 -2.0104  0.2875
  821MPD2     N12139   4.660   3.439  13.060 -0.4838 -0.5910 -0.1646
  821MPD2    H512140   4.646   3.526  13.009  0.1080 -0.5915 -0.3357
  821MPD2    N112141   4.415   3.116  13.323  0.1159  0.0331 -0.1640
  821MPD2    H712142   4.499   3.102  13.378 -0.0011 -0.7283 -0.1806
  822MPD2     C12143   4.702   3.385  15.815 -0.3358 -0.6084 -0.3749
  822MPD2    C112144   0.063   3.418  15.897 -0.5012  0.3049  0.5423
  822MPD2    C212145   0.054   3.538  15.967  0.5486  0.8695 -0.0592
  822MPD2    C312146   4.676   3.612  15.965  0.1506 -0.4139 -0.2456
  822MPD2    C412147   4.580   3.583  15.880  0.1534  0.9031 -0.4160
  822MPD2    C512148   4.589   3.466  15.815 -0.1989 -0.0089  0.6526
  822MPD2     H12149   0.131   3.572  16.035  1.3453 -1.5191  0.2347
  822MPD2    H112150   4.492   3.645  15.869 -1.2482 -1.0343 -0.1025
  822MPD2    H212151   4.704   3.301  15.747 -2.1934  0.4319 -1.7049
  822MPD2    H312152   4.508   3.437  15.748 -0.1437  0.5472  0.3437
  822MPD2     N12153   4.678   3.724  16.047 -0.0655 -0.7385  0.3979
  822MPD2    H512154   0.025   3.753  16.092 -0.2202  2.0164 -1.0645
  822MPD2    N112155   0.176   3.338  15.916  0.7499 -0.0284 -0.4347
  822MPD2    H712156   0.240   3.364  15.991  0.5151  2.0183 -0.9485
  823MPD2     C12157   4.564   3.830  16.931  0.2915  0.3163 -0.5716
  823MPD2    C112158   4.563   3.764  16.812 -0.3278 -0.3457 -0.1590
  823MPD2    C212159   4.574   3.617  16.805 -0.2410 -0.2414  0.4588
  823MPD2    C312160   4.583   3.556  16.928  0.1883 -0.7526 -0.7370
  823MPD2    C412161   4.566   3.625  17.046  0.2881  0.2309  0.9518
  823MPD2    C512162   4.570   3.759  17.045 -0.1480  0.4364 -0.2246
  823MPD2     H12163   4.567   3.561  16.713 -0.4597  1.7364 -0.7352
  823MPD2    H112164   4.547   3.573  17.139  0.9734  0.6752  1.3412
  823MPD2    H212165   4.548   3.937  16.938  0.1684  0.2719 -0.1629
  823MPD2    H312166   4.562   3.820  17.134  2.8349  0.3326  0.1064
  823MPD2     N12167   4.600   3.413  16.945  0.5686  0.1504 -0.2661
  823MPD2    H512168   4.601   3.369  17.037  0.3040  0.2679 -0.2060
  823MPD2    N112169   4.548   3.840  16.693  0.1313  0.0830 -0.0192
  823MPD2    H712170   4.552   3.941  16.700  0.1990  0.0020  1.0550
  824MPD2     C12171   0.609   2.532  15.986 -0.5676 -1.0040  0.0792
  824MPD2    C112172   0.610   2.639  15.897 -0.3182 -0.4036 -0.3901
  824MPD2    C212173   0.677   2.625  15.771  0.3630  0.6380 -0.1628
  824MPD2    C312174   0.734   2.504  15.729 -0.3922  0.4926  0.0326
  824MPD2    C412175   0.719   2.402  15.816  0.1589 -0.9919  0.1739
  824MPD2    C512176   0.671   2.417  15.946 -0.0841 -0.2962  0.1322
  824MPD2     H12177   0.692   2.704  15.698 -1.1723 -2.0355 -3.3774
  824MPD2    H112178   0.780   2.313  15.803 -0.2250 -1.0527 -1.2074
  824MPD2    H212179   0.553   2.535  16.078  1.0266 -1.0582  1.0466
  824MPD2    H312180   0.683   2.326  16.004  0.6806 -1.1495 -1.3617
  824MPD2     N12181   0.817   2.479  15.615 -0.4422  0.1500 -0.0778
  824MPD2    H512182   0.856   2.385  15.610 -0.3266  0.2653 -1.3944
  824MPD2    N112183   0.560   2.764  15.944  0.1866  0.1786  0.1426
  824MPD2    H712184   0.541   2.785  16.041  0.3485  1.1103 -0.0235
  825MPD2     C12185   1.477   2.673  14.964  0.0962  0.0204  0.8247
  825MPD2    C112186   1.396   2.717  15.068 -1.0174 -0.2824 -0.2155
  825MPD2    C212187   1.409   2.846  15.103  0.3831  0.6523  0.4171
  825MPD2    C312188   1.503   2.927  15.041  0.4710  0.0370 -0.4186
  825MPD2    C412189   1.574   2.881  14.936 -0.9357 -0.1260  0.7694
  825MPD2    C512190   1.555   2.762  14.889 -0.1883 -0.0868 -0.1090
  825MPD2     H12191   1.334   2.884  15.171 -1.5200 -0.4597 -1.0593
  825MPD2    H112192   1.642   2.954  14.894  0.7368 -2.7076 -0.9651
  825MPD2    H212193   1.464   2.570  14.934 -0.2206 -0.3635  2.2872
  825MPD2    H312194   1.591   2.747  14.788 -2.1560  0.8134 -0.9600
  825MPD2     N12195   1.514   3.063  15.081  0.6923  0.0453  0.1331
  825MPD2    H512196   1.581   3.123  15.034  2.2520 -2.0254 -0.2826
  825MPD2    N112197   1.308   2.625  15.132  0.5512  0.0391 -0.3077
  825MPD2    H712198   1.330   2.527  15.115 -0.2527  0.0923 -1.6821
  826MPD2     C12199   0.669   2.499  13.692  0.6511 -0.5254  0.0768
  826MPD2    C112200   0.741   2.606  13.642 -0.0555 -0.3790 -0.4104
  826MPD2    C212201   0.683   2.735  13.649 -0.1227  0.6820 -0.0478
  826MPD2    C312202   0.558   2.753  13.701  0.1281  0.5573  0.0455
  826MPD2    C412203   0.489   2.639  13.749 -0.5171  0.2773 -0.5974
  826MPD2    C512204   0.546   2.518  13.751  0.4342 -0.2299  0.3362
  826MPD2     H12205   0.737   2.824  13.620  0.1422  0.6342  0.3011
  826MPD2    H112206   0.385   2.640  13.780 -0.4872  0.9436 -0.5305
  826MPD2    H212207   0.710   2.399  13.687  1.3430 -0.1910 -0.9323
  826MPD2    H312208   0.477   2.437  13.777  1.6929 -0.1978  3.7898
  826MPD2     N12209   0.508   2.886  13.695 -0.2428 -0.5205 -0.0108
  826MPD2    H512210   0.574   2.956  13.663  0.7173 -1.9231 -1.1137
  826MPD2    N112211   0.860   2.572  13.577  0.4897 -0.4718  0.0414
  826MPD2    H712212   0.895   2.477  13.584  2.3642  0.2802  0.6724
  827MPD2     C12213   1.488   3.253  10.078  0.1574  0.0806  0.1551
  827MPD2    C112214   1.501   3.204  10.204 -0.5256  0.3240  0.2784
  827MPD2    C212215   1.401   3.124  10.258 -0.1223 -0.1555  0.3611
  827MPD2    C312216   1.289   3.098  10.187 -0.3726  0.4356  0.2611
  827MPD2    C412217   1.272   3.151  10.064  0.3951  0.1443 -0.6788
  827MPD2    C512218   1.371   3.225  10.003 -0.1261 -0.7727 -0.8808
  827MPD2     H12219   1.410   3.095  10.362 -0.0178  1.4895  0.8104
  827MPD2    H112220   1.180   3.148  10.005 -0.2784 -2.3926  0.4918
  827MPD2    H212221   1.560   3.314  10.025  1.8586 -1.3545  0.7868
  827MPD2    H312222   1.360   3.269   9.904 -0.6310 -0.0293 -0.4898
  827MPD2     N12223   1.190   3.011  10.249 -0.1300  0.5102 -0.0482
  827MPD2    H512224   1.203   2.972  10.341  2.5218 -0.0960 -0.6775
  827MPD2    N112225   1.611   3.254  10.273  0.4245  0.6346 -0.3458
  827MPD2    H712226   1.680   3.310  10.224 -0.1671  2.4391  0.8801
  828MPD2     C12227   0.192   3.665  12.407 -0.2136  0.3504  0.4647
  828MPD2    C112228   0.125   3.746  12.313  0.3147  0.2236  0.3336
  828MPD2    C212229   0.198   3.813  12.217  0.6407 -0.9097 -0.1735
  828MPD2    C312230   0.337   3.807  12.218 -0.1140 -0.6780  0.1224
  828MPD2    C412231   0.400   3.740  12.318 -0.1834  0.1744 -0.0227
  828MPD2    C512232   0.332   3.660  12.405 -0.4505 -0.4678 -0.2094
  828MPD2     H12233   0.143   3.877  12.150  1.6183 -0.2630 -0.3666
  828MPD2    H112234   0.508   3.734  12.324 -0.2167 -0.0547  0.3933
  828MPD2    H212235   0.127   3.612  12.474  1.0169  0.6128  1.8665
  828MPD2    H312236   0.398   3.604  12.470 -2.1364 -1.1053  0.9563
  828MPD2     N12237   0.414   3.866  12.118 -0.5043 -0.3828  0.4904
  828MPD2    H512238   0.515   3.851  12.115 -0.6932 -2.0151  2.3442
  828MPD2    N112239   4.721   3.758  12.315 -0.2781 -0.2071  0.3797
  828MPD2    H712240   4.676   3.819  12.248 -2.1581 -0.5241  1.3588
  829MPD2     C12241   4.204   3.595  11.687  0.2786 -0.2805  0.3314
  829MPD2    C112242   4.142   3.567  11.807  0.3361  0.2614 -0.1425
  829MPD2    C212243   4.171   3.641  11.920  0.8074 -0.2163  0.1319
  829MPD2    C312244   4.267   3.745  11.913  0.2495 -0.8978  0.6885
  829MPD2    C412245   4.327   3.772  11.789 -0.3871  0.7675 -0.2674
  829MPD2    C512246   4.289   3.700  11.679 -0.3759 -0.4063  0.0235
  829MPD2     H12247   4.128   3.613  12.016  2.6940  0.8781  1.3073
  829MPD2    H112248   4.393   3.857  11.782  1.1110 -0.4549 -0.9725
  829MPD2    H212249   4.181   3.542  11.596 -0.5346  2.0713 -0.8376
  829MPD2    H312250   4.319   3.720  11.577  1.9131 -0.0213  0.7781
  829MPD2     N12251   4.307   3.816  12.025  0.1513 -0.0624 -0.0689
  829MPD2    H512252   4.395   3.867  12.024  0.2955 -0.2824  1.1661
  829MPD2    N112253   4.058   3.454  11.801 -0.6084  0.2623 -0.1176
  829MPD2    H712254   4.065   3.398  11.717  1.3720 -1.0208  0.8864
  830MPD2     C12255   4.477   2.055  15.216  0.1790 -0.6123 -0.1311
  830MPD2    C112256   4.571   2.033  15.316  0.0141  0.6565 -0.1559
  830MPD2    C212257   4.704   2.056  15.284  0.1966  0.1469  0.6716
  830MPD2    C312258   0.009   2.060  15.153  0.1847  0.2023  0.3279
  830MPD2    C412259   4.652   2.081  15.051 -0.4189 -0.1183 -0.7417
  830MPD2    C512260   4.519   2.081  15.086 -0.2972 -0.3390 -0.0210
  830MPD2     H12261   0.021   2.079  15.374  1.2173 -1.5182  0.4407
  830MPD2    H112262   4.680   2.100  14.948  2.8942 -3.4528 -0.4573
  830MPD2    H212263   4.371   2.053  15.235  0.5534 -0.3766  1.9746
  830MPD2    H312264   4.437   2.093  15.016 -1.9717 -1.3630  1.7693
  830MPD2     N12265   0.155   2.077  15.131 -0.2766 -0.5450 -0.3755
  830MPD2    H512266   0.176   2.084  15.032 -1.4357  2.1038 -0.4221
  830MPD2    N112267   4.523   2.035  15.450 -0.2810  0.2206  0.0043
  830MPD2    H712268   4.424   2.034  15.472 -0.1102  0.1149  0.7671
  831MPD2     C12269   0.376   3.708  16.533  0.8588  0.6808 -0.5524
  831MPD2    C112270   0.322   3.708  16.406 -0.0566 -0.5512 -0.0422
  831MPD2    C212271   0.201   3.635  16.388  0.0019  0.5301 -0.2814
  831MPD2    C312272   0.135   3.572  16.501  0.7025 -0.1117 -0.5700
  831MPD2    C412273   0.191   3.585  16.626  0.1711  0.3129  0.1023
  831MPD2    C512274   0.305   3.649  16.642  0.4185 -0.0119 -0.0476
  831MPD2     H12275   0.155   3.639  16.290 -1.5523  0.8752  0.4514
  831MPD2    H112276   0.136   3.552  16.713 -0.6789 -0.2597 -0.6508
  831MPD2    H212277   0.454   3.779  16.556  0.6050  0.4904  0.9350
  831MPD2    H312278   0.343   3.663  16.743 -0.2416  1.3321  0.0156
  831MPD2     N12279   0.017   3.498  16.486 -0.1215 -0.0986  0.0715
  831MPD2    H512280   4.717   3.476  16.577 -3.7316  2.6193 -0.8862
  831MPD2    N112281   0.386   3.785  16.307 -0.2888 -0.5783 -0.3362
  831MPD2    H712282   0.482   3.814  16.322  0.1150 -0.8265 -2.3616
  832MPD2     C12283   3.532   4.294  17.461 -0.3134 -0.3191 -0.4229
  832MPD2    C112284   3.468   4.413  17.443  0.1337 -0.3635 -0.0322
  832MPD2    C212285   3.351   4.416  17.365 -0.2594  0.3532  0.4686
  832MPD2    C312286   3.288   4.300  17.326  0.3239  0.4994 -0.1749
  832MPD2    C412287   3.351   4.185  17.358  0.3727 -0.1791  0.3307
  832MPD2    C512288   3.475   4.181  17.416  0.0062  0.5028 -0.0784
  832MPD2     H12289   3.300   4.512  17.361 -1.3227 -0.1526  1.7582
  832MPD2    H112290   3.316   4.086  17.332 -0.9031 -0.3420  2.7343
  832MPD2    H212291   3.627   4.293  17.514 -0.2748 -3.1007 -0.5567
  832MPD2    H312292   3.528   4.087  17.418  0.6056  0.8262 -0.5106
  832MPD2     N12293   3.162   4.286  17.263  0.3142  0.1391 -0.0868
  832MPD2    H512294   3.130   4.191  17.249  1.9290 -0.2212 -1.3699
  832MPD2    N112295   3.533   4.528  17.500  0.2295  0.1154  0.1569
  832MPD2    H712296   3.624   4.509  17.542 -0.2218 -0.8410  0.7175
  833MPD2     C12297   0.735   0.930  12.530  0.0824 -0.9697  0.1270
  833MPD2    C112298   0.750   1.068  12.514  0.7744 -0.3647 -0.1257
  833MPD2    C212299   0.804   1.104  12.388 -0.6773 -0.1745  0.0610
  833MPD2    C312300   0.864   1.014  12.305  0.1411  0.5813 -0.4593
  833MPD2    C412301   0.861   0.878  12.331 -0.3140 -0.0479 -0.3051
  833MPD2    C512302   0.792   0.840  12.440 -1.1246 -0.4285 -0.5209
  833MPD2     H12303   0.805   1.209  12.362  1.1723 -0.1216  0.4011
  833MPD2    H112304   0.906   0.807  12.262 -0.5253 -1.0463  0.5745
  833MPD2    H212305   0.697   0.881  12.618  0.0996  0.2217  0.7920
  833MPD2    H312306   0.788   0.735  12.464  1.8313 -0.7553 -1.4685
  833MPD2     N12307   0.910   1.052  12.176 -0.2690  0.4331  0.3259
  833MPD2    H512308   0.917   0.979  12.106 -1.6818  0.6291 -0.0067
  833MPD2    N112309   0.686   1.162  12.594 -0.0291  0.2935 -0.2928
  833MPD2    H712310   0.624   1.129  12.668  0.9562  0.7895  0.7633
  834MPD2     C12311   0.378   0.591  11.883  0.1466 -0.7842 -0.4517
  834MPD2    C112312   0.477   0.600  11.789  0.4379  0.7199  0.3393
  834MPD2    C212313   0.555   0.716  11.775 -0.4636  0.5580  0.2012
  834MPD2    C312314   0.527   0.825  11.859  0.1670 -0.4310  0.1345
  834MPD2    C412315   0.429   0.814  11.946 -0.5799  0.0411 -0.8054
  834MPD2    C512316   0.362   0.699  11.957  0.8067  0.8724  0.5945
  834MPD2     H12317   0.629   0.718  11.695 -1.2108  0.8301 -0.4864
  834MPD2    H112318   0.391   0.896  12.005  1.2364  2.1166 -2.5177
  834MPD2    H212319   0.313   0.506  11.903 -0.9370  0.1750  0.0900
  834MPD2    H312320   0.284   0.693  12.032  1.6869  0.7705  1.4990
  834MPD2     N12321   0.605   0.940  11.846  0.1784  0.3801  0.2071
  834MPD2    H512322   0.683   0.933  11.781  0.0259 -0.2232  0.0794
  834MPD2    N112323   0.498   0.479  11.714 -0.5876  0.1773 -0.2481
  834MPD2    H712324   0.441   0.399  11.739 -0.4612  0.3610  0.6363
  835MPD2     C12325   0.946   3.614  11.256 -0.5392  0.4710  0.1619
  835MPD2    C112326   0.888   3.719  11.317  0.0977  0.4197  0.2149
  835MPD2    C212327   0.960   3.785  11.421  0.8689  0.4192  0.2273
  835MPD2    C312328   1.074   3.724  11.462  0.2711 -0.3313  0.2435
  835MPD2    C412329   1.127   3.613  11.394 -0.1544 -0.3707 -0.3358
  835MPD2    C512330   1.065   3.558  11.290 -0.1557  0.2134 -0.2642
  835MPD2     H12331   0.907   3.866  11.468 -0.5619 -1.1355  1.2770
  835MPD2    H112332   1.220   3.565  11.421  0.1001  0.5865  0.4766
  835MPD2    H212333   0.903   3.569  11.167 -0.2977 -1.5968  1.0876
  835MPD2    H312334   1.098   3.475  11.230  0.1611  1.7877 -2.2695
  835MPD2     N12335   1.151   3.786  11.553 -0.1268 -0.0192 -0.2310
  835MPD2    H512336   1.226   3.737  11.600 -0.5862  0.7787  1.3510
  835MPD2    N112337   0.753   3.750  11.290  0.0830 -0.2332  0.3344
  835MPD2    H712338   0.730   3.839  11.333  0.4155 -1.4854  3.0635
  836MPD2     C12339   0.837   4.412  11.934 -0.5049  0.2017 -0.4539
  836MPD2    C112340   0.838   4.291  11.994 -0.2855 -0.1854 -0.0727
  836MPD2    C212341   0.727   4.237  12.057  0.6040  0.3465  0.0550
  836MPD2    C312342   0.611   4.316  12.063  0.0917 -0.6000 -0.4997
  836MPD2    C412343   0.603   4.437  11.994  0.4310  0.4836  0.2494
  836MPD2    C512344   0.718   4.488  11.945  0.0607 -0.2742  0.1756
  836MPD2     H12345   0.726   4.131  12.077 -2.0198  0.1686 -1.0211
  836MPD2    H112346   0.512   4.495  11.988  0.4047  0.3562 -0.4777
  836MPD2    H212347   0.923   4.451  11.881 -0.5597 -0.5950 -1.1310
  836MPD2    H312348   0.713   4.584  11.895  1.0555  1.2332  2.9744
  836MPD2     N12349   0.489   4.280  12.129  0.3496  0.1285  0.0290
  836MPD2    H512350   0.419   4.354  12.125  2.6145  2.2632  0.2468
  836MPD2    N112351   0.952   4.213  11.964 -0.6076 -0.0042 -0.2421
  836MPD2    H712352   1.026   4.261  11.914 -0.1834 -1.8984 -1.4429
  837MPD2     C12353   3.619   3.526  10.430  0.6144 -0.1650  0.0710
  837MPD2    C112354   3.503   3.563  10.371 -0.3451  0.2406  0.0407
  837MPD2    C212355   3.449   3.684  10.403 -0.4682 -0.0280 -0.5371
  837MPD2    C312356   3.507   3.777  10.492  0.3167 -0.0389  0.1233
  837MPD2    C412357   3.619   3.729  10.557 -0.6194 -0.3396  0.2354
  837MPD2    C512358   3.674   3.607  10.523  0.3153  0.4020 -0.3992
  837MPD2     H12359   3.351   3.711  10.367 -0.2459 -0.2387 -1.3028
  837MPD2    H112360   3.687   3.796  10.609 -0.1580 -0.1399 -0.6257
  837MPD2    H212361   3.666   3.431  10.408  1.2867  0.6800 -2.0556
  837MPD2    H312362   3.766   3.573  10.569 -1.7433 -2.0296  1.9392
  837MPD2     N12363   3.465   3.908  10.482 -0.4019  0.3844  0.4146
  837MPD2    H512364   3.391   3.935  10.419  0.4670 -0.2906 -0.8884
  837MPD2    N112365   3.438   3.487  10.280  0.1455 -0.1325  0.7407
  837MPD2    H712366   3.349   3.527  10.254  1.0446  1.0986 -0.4521
  838MPD2     C12367   2.252   2.096  12.049 -0.2644  0.0136 -0.1940
  838MPD2    C112368   2.145   2.032  11.989 -0.4330  0.9841  0.4007
  838MPD2    C212369   2.030   2.008  12.061 -0.0862 -0.1230 -0.2151
  838MPD2    C312370   2.016   2.056  12.185  0.1537 -0.1306 -0.6375
  838MPD2    C412371   2.118   2.137  12.239 -0.0949 -0.5165  0.1420
  838MPD2    C512372   2.242   2.149  12.173  0.0346  0.1281  0.0457
  838MPD2     H12373   1.946   1.960  12.012  0.7787 -1.4979 -0.3635
  838MPD2    H112374   2.102   2.178  12.338 -2.0372 -1.5212  0.2610
  838MPD2    H212375   2.349   2.092  12.000  0.0604  2.8157  0.2050
  838MPD2    H312376   2.316   2.219  12.211  1.3024 -0.3860 -1.5149
  838MPD2     N12377   1.899   2.018  12.256  0.1327 -0.5319 -0.1538
  838MPD2    H512378   1.826   1.982  12.195 -1.4054  2.3200 -0.0168
  838MPD2    N112379   2.154   1.978  11.851 -0.9349  0.0209  0.0175
  838MPD2    H712380   2.089   1.904  11.828 -0.4410 -0.9804  1.8213
  839MPD2     C12381   1.677   1.365  11.659  0.2383 -0.2119 -0.0951
  839MPD2    C112382   1.785   1.306  11.607 -0.3505  0.5576 -0.1313
  839MPD2    C212383   1.899   1.387  11.595 -0.2993 -0.0174  0.4804
  839MPD2    C312384   1.906   1.524  11.621  0.7052  0.0161  0.0626
  839MPD2    C412385   1.782   1.575  11.663 -0.0622  0.7495 -0.4392
  839MPD2    C512386   1.673   1.498  11.685 -0.2222  0.2060 -0.1249
  839MPD2     H12387   1.992   1.342  11.560  2.0044  1.7464  4.3971
  839MPD2    H112388   1.767   1.680  11.687  0.6383  1.2394 -2.0871
  839MPD2    H212389   1.580   1.318  11.672 -1.0978  2.7078  0.5845
  839MPD2    H312390   1.589   1.554  11.726 -1.6043 -1.6226 -0.4551
  839MPD2     N12391   2.020   1.605  11.620  0.4974 -0.2721  0.0305
  839MPD2    H512392   2.004   1.699  11.657  2.5477 -0.3003  1.0181
  839MPD2    N112393   1.793   1.167  11.567  0.4676  0.1126 -0.0067
  839MPD2    H712394   1.878   1.144  11.518  0.7417  2.5057 -0.6606
  840MPD2     C12395   1.922   3.798  10.207 -0.0229  0.3605  0.2464
  840MPD2    C112396   2.013   3.731  10.279 -0.2204 -0.8666  0.0931
  840MPD2    C212397   2.127   3.797  10.324  0.1657 -0.4085  0.0313
  840MPD2    C312398   2.138   3.930  10.292 -0.2175  0.3983 -0.1440
  840MPD2    C412399   2.045   3.996  10.211 -0.1575 -0.5924 -0.6753
  840MPD2    C512400   1.934   3.932  10.167  0.5537 -0.5367  0.2645
  840MPD2     H12401   2.193   3.747  10.394 -1.7613 -1.4176  1.1531
  840MPD2    H112402   2.053   4.095  10.167 -1.7066 -0.7197 -1.2304
  840MPD2    H212403   1.835   3.743  10.176  0.1076  0.9787 -1.1833
  840MPD2    H312404   1.861   3.984  10.106 -0.4230 -0.3698  1.5663
  840MPD2     N12405   2.245   4.012  10.323  0.0707  0.0818  0.1121
  840MPD2    H512406   2.251   4.101  10.274  3.3227 -0.1189  0.1522
  840MPD2    N112407   1.973   3.602  10.316 -0.2967 -0.2929  0.8614
  840MPD2    H712408   1.898   3.556  10.265 -0.5166 -0.4909  1.3696
  841MPD2     C12409   1.571   4.172  14.467  0.4107  0.2661 -0.3461
  841MPD2    C112410   1.641   4.053  14.461  0.3810 -0.1404  0.0393
  841MPD2    C212411   1.772   4.057  14.513 -0.3881 -0.7585  0.8252
  841MPD2    C312412   1.822   4.172  14.564 -0.7295  0.6766 -0.3846
  841MPD2    C412413   1.748   4.287  14.575  0.3409  0.0164 -0.0263
  841MPD2    C512414   1.625   4.286  14.525 -0.2831 -0.7068  0.4419
  841MPD2     H12415   1.841   3.975  14.495 -0.5119 -0.3656 -1.4441
  841MPD2    H112416   1.775   4.381  14.623 -0.3464 -1.2392  2.8173
  841MPD2    H212417   1.470   4.181  14.428  0.3312  0.6837 -0.0458
  841MPD2    H312418   1.564   4.375  14.524  0.5622 -0.1300  1.1257
  841MPD2     N12419   1.952   4.161  14.629  0.0576  0.7342  0.4597
  841MPD2    H512420   1.990   4.067  14.640  2.1250  1.0281 -4.1071
  841MPD2    N112421   1.599   3.933  14.401 -0.5111 -0.5598 -0.6270
  841MPD2    H712422   1.668   3.861  14.385  1.2582  0.8202  0.8790
  842MPD2     C12423   2.014   0.116  17.127 -0.2373  0.0975  0.1106
  842MPD2    C112424   1.892   0.075  17.076  0.2767 -0.8421  0.1175
  842MPD2    C212425   1.829   4.697  17.116  0.0771 -0.3020 -0.4220
  842MPD2    C312426   1.874   4.633  17.228  0.4827 -0.4148 -0.2268
  842MPD2    C412427   1.988   4.682  17.291  0.3532  0.2474  0.9219
  842MPD2    C512428   2.060   0.044  17.233 -0.4749  0.4287  0.1968
  842MPD2     H12429   1.733   4.660  17.082  0.2036 -0.8563 -0.1767
  842MPD2    H112430   2.022   4.639  17.384  0.5297 -2.9311 -0.5952
  842MPD2    H212431   2.063   0.206  17.092 -1.7430 -0.1402 -2.6355
  842MPD2    H312432   2.144   0.099  17.274 -0.5792 -0.1439  1.1709
  842MPD2     N12433   1.817   4.522  17.295  0.4727 -0.5864 -0.2797
  842MPD2    H512434   1.884   4.472  17.353  0.3820  0.9200  1.1005
  842MPD2    N112435   1.839   0.151  16.969  0.4850 -0.1627 -0.9390
  842MPD2    H712436   1.903   0.219  16.930 -2.5592  3.2619  0.0002
  843MPD2     C12437   0.113   1.341  17.469 -0.1562  0.4285 -0.1152
  843MPD2    C112438   0.038   1.269  17.562 -0.4424  0.2995 -0.0309
  843MPD2    C212439   0.047   1.317  17.694 -0.5968 -0.0018 -0.1619
  843MPD2    C312440   0.126   1.422  17.740 -0.5649 -0.2836  0.4858
  843MPD2    C412441   0.194   1.492  17.640  0.7642 -0.0308 -0.2080
  843MPD2    C512442   0.200   1.439  17.514 -0.5936  0.2628 -0.0499
  843MPD2     H12443   4.725   1.271   0.014  1.2773 -1.7454  0.3038
  843MPD2    H112444   0.253   1.582  17.651 -1.6107  1.5603 -0.5576
  843MPD2    H212445   0.112   1.320  17.363  1.5850  1.7365 -0.3837
  843MPD2    H312446   0.263   1.482  17.438  0.1371 -1.5193 -0.4515
  843MPD2     N12447   0.142   1.463   0.125  0.1028 -0.0932 -0.2488
  843MPD2    H512448   0.203   1.542   0.143 -0.4006  0.2108  0.0975
  843MPD2    N112449   4.704   1.153  17.540  0.2858 -0.2000  0.2596
  843MPD2    H712450   4.694   1.133  17.441 -1.1639 -0.7156  0.5183
  844MPD2     C12451   2.770   4.411  16.539 -0.0530 -0.3130 -0.0835
  844MPD2    C112452   2.878   4.324  16.559  1.3206 -0.1185  0.6187
  844MPD2    C212453   2.987   4.373  16.632  0.0487 -0.6343 -0.3786
  844MPD2    C312454   2.980   4.497  16.696 -0.4033  0.1672  0.1614
  844MPD2    C412455   2.870   4.575  16.678 -0.2778 -0.2404  0.3378
  844MPD2    C512456   2.765   4.535  16.600  0.6907 -0.3141  0.5043
  844MPD2     H12457   3.076   4.314  16.650  0.2449 -0.1715  0.1467
  844MPD2    H112458   2.853   4.673  16.723 -0.3768 -0.4000  0.6498
  844MPD2    H212459   2.688   4.396  16.470 -0.9129 -0.2714  0.9337
  844MPD2    H312460   2.688   4.607  16.578  1.1408  0.2381  0.7264
  844MPD2     N12461   3.090   4.541  16.770 -1.0354 -0.0112  0.3754
  844MPD2    H512462   3.169   4.477  16.777 -0.8918  0.2299  0.9180
  844MPD2    N112463   2.879   4.206  16.485 -0.3638 -0.2068 -0.0034
  844MPD2    H712464   2.794   4.192  16.433  1.4347  0.4423 -3.1033
  845MPD2     C12465   3.383   0.717  16.992  0.2142  0.4812  0.1825
  845MPD2    C112466   3.397   0.658  17.117  0.3493  0.8510 -1.0043
  845MPD2    C212467   3.385   0.518  17.123 -0.0881 -0.8175 -0.8685
  845MPD2    C312468   3.348   0.449  17.008  0.1973  0.2918  0.1764
  845MPD2    C412469   3.330   0.510  16.885 -0.1482  0.1122  0.0514
  845MPD2    C512470   3.353   0.644  16.883  0.5555  0.1408 -0.0509
  845MPD2     H12471   3.394   0.466  17.218  1.1620  0.8089 -0.1030
  845MPD2    H112472   3.298   0.456  16.797 -0.2807  1.4144 -0.6989
  845MPD2    H212473   3.407   0.822  16.984  1.1185  0.1587 -1.3049
  845MPD2    H312474   3.344   0.703  16.792 -2.2148  1.1277  0.8707
  845MPD2     N12475   3.340   0.311  17.002  0.1809  0.3934  0.5434
  845MPD2    H512476   3.319   0.273  16.910  0.2974  1.7335 -0.0404
  845MPD2    N112477   3.422   0.737  17.231 -0.4063  0.2548 -0.0239
  845MPD2    H712478   3.429   0.837  17.213 -1.8335  0.1861 -0.8911
  846MPD2     C12479   4.735   0.703  13.832  0.7582  0.2597 -0.2734
  846MPD2    C112480   4.628   0.790  13.837 -0.1508  0.5318  0.0732
  846MPD2    C212481   4.571   0.834  13.957  0.1264 -0.7930 -0.4190
  846MPD2    C312482   4.617   0.778  14.073  0.1995  0.1674 -0.1460
  846MPD2    C412483   4.713   0.674  14.067 -0.1679  0.8527  0.0565
  846MPD2    C512484   0.039   0.647  13.957 -0.2423 -0.0710  0.2603
  846MPD2     H12485   4.494   0.910  13.961  0.3781 -0.5054 -1.1900
  846MPD2    H112486   0.010   0.628  14.158  0.9758  0.7718 -0.4446
  846MPD2    H212487   0.055   0.672  13.747  3.1488  1.9982  0.7421
  846MPD2    H312488   0.122   0.577  13.959 -0.0304  0.2598  2.3262
  846MPD2     N12489   4.572   0.824  14.198  0.2259 -0.1702  0.6211
  846MPD2    H512490   4.500   0.895  14.203 -0.6494 -0.9554 -1.2057
  846MPD2    N112491   4.570   0.832  13.717 -0.3278  0.0954  0.1296
  846MPD2    H712492   4.503   0.908  13.721 -0.0022  0.3201  1.5247
  847MPD2     C12493   0.813   3.150  14.229  0.1063  0.3927  0.2602
  847MPD2    C112494   0.759   3.118  14.352 -0.7473 -1.0118 -0.3587
  847MPD2    C212495   0.850   3.088  14.453  0.1779 -0.4440  0.4264
  847MPD2    C312496   0.988   3.103  14.439  0.2839 -0.5133  0.1440
  847MPD2    C412497   1.038   3.143  14.313  0.2409  0.0416  0.3970
  847MPD2    C512498   0.948   3.169  14.210  0.3721 -0.3077 -0.6383
  847MPD2     H12499   0.806   3.048  14.543  0.9848  0.2802  1.1417
  847MPD2    H112500   1.144   3.156  14.293 -0.2866  0.9601 -1.8375
  847MPD2    H212501   0.752   3.189  14.149 -0.2452  1.0820  0.8598
  847MPD2    H312502   0.984   3.198  14.112 -0.5376 -0.1175 -0.9107
  847MPD2     N12503   1.078   3.060  14.543  0.0943  1.2696  0.2493
  847MPD2    H512504   1.177   3.079  14.532  0.2946 -0.9516 -1.9343
  847MPD2    N112505   0.622   3.098  14.375  0.1284 -0.4569 -0.3219
  847MPD2    H712506   0.601   3.065  14.468  0.1510  0.1575 -0.0976
  848MPD2     C12507   2.512   0.025  17.056  0.5621 -0.5033 -0.4894
  848MPD2    C112508   2.634   0.033  16.988  0.2411  0.5917  0.2321
  848MPD2    C212509   2.675   0.149  16.932  0.3618  0.1499 -0.0764
  848MPD2    C312510   2.583   0.251  16.921  0.1275 -0.3516  0.2778
  848MPD2    C412511   2.460   0.231  16.979  0.1571  0.0529 -0.0154
  848MPD2    C512512   2.421   0.121  17.048 -0.0814  0.1295 -0.0874
  848MPD2     H12513   2.771   0.156  16.882  0.2906  2.5304  0.1270
  848MPD2    H112514   2.386   0.311  16.974  0.3336  0.0551 -2.7150
  848MPD2    H212515   2.473   4.682  17.115 -0.0629  0.1736  0.0541
  848MPD2    H312516   2.323   0.109  17.091 -1.0405  0.6290 -2.1237
  848MPD2     N12517   2.605   0.373  16.852 -0.7597  0.0155  0.0835
  848MPD2    H512518   2.533   0.444  16.852 -0.6241  0.1412 -2.2184
  848MPD2    N112519   2.728   4.658  16.982 -0.3320 -0.3861  0.2428
  848MPD2    H712520   2.821   4.675  16.944 -0.4739 -0.4819 -0.1473
  849MPD2     C12521   1.618   0.119  14.320  0.6418 -0.1150  0.3658
  849MPD2    C112522   1.730   0.194  14.358  0.2949 -0.0465  0.1749
  849MPD2    C212523   1.796   0.167  14.477  0.1330  0.4659  0.1023
  849MPD2    C312524   1.740   0.075  14.562  0.1958 -0.3073 -0.2347
  849MPD2    C412525   1.634   4.738  14.527  0.0775  0.0270 -0.4852
  849MPD2    C512526   1.578   0.018  14.405  0.0131  0.3009 -0.4899
  849MPD2     H12527   1.895   0.207  14.496 -0.6250  1.3866  2.0796
  849MPD2    H112528   1.597   4.658  14.589  1.5581 -2.9366 -3.3958
  849MPD2    H212529   1.559   0.123  14.229  2.5604 -2.7740 -1.0017
  849MPD2    H312530   1.498   4.694  14.366  1.4205 -1.3664 -0.6500
  849MPD2     N12531   1.796   0.053  14.690 -0.7003 -0.2287  0.5750
  849MPD2    H512532   1.760   4.709  14.735  0.0122 -0.2622  1.0785
  849MPD2    N112533   1.789   0.280  14.263 -0.3500 -0.3098  0.2357
  849MPD2    H712534   1.739   0.285  14.175  0.7747  2.0875 -0.2834
  850MPD2     C12535   4.528   2.747  14.830  0.2929 -0.3668 -0.2482
  850MPD2    C112536   4.505   2.838  14.933 -0.7571 -0.4517  0.0201
  850MPD2    C212537   4.611   2.915  14.987  0.9067  0.5146 -0.8266
  850MPD2    C312538   0.003   2.896  14.949  0.4775  0.4489  0.6680
  850MPD2    C412539   0.020   2.818  14.832  0.4072 -0.4946  0.2407
  850MPD2    C512540   4.658   2.746  14.777  0.8574 -0.1494  0.1368
  850MPD2     H12541   4.599   2.984  15.069  0.5804  4.1394 -3.9405
  850MPD2    H112542   0.122   2.810  14.798  0.2253  0.8028 -0.6061
  850MPD2    H212543   4.449   2.691  14.780 -0.0158 -0.1986  0.0470
  850MPD2    H312544   4.679   2.671  14.702 -0.2970 -0.6270  0.2912
  850MPD2     N12545   0.112   2.960  15.005 -0.3605 -0.0239  0.2354
  850MPD2    H512546   0.199   2.924  14.967 -1.3285  0.1325 -2.1428
  850MPD2    N112547   4.368   2.848  14.980  0.1566  0.1380 -0.2474
  850MPD2    H712548   4.294   2.807  14.922  1.1096 -0.8038 -0.7999
  851MPD2     C12549   0.204   2.720  15.638  0.3042 -0.6311  0.0395
  851MPD2    C112550   0.157   2.695  15.515  0.2280  0.8311 -0.1769
  851MPD2    C212551   0.226   2.607  15.436  1.1160 -0.0711  0.4962
  851MPD2    C312552   0.340   2.545  15.482 -0.4040 -0.0581  0.1802
  851MPD2    C412553   0.381   2.556  15.615 -0.0795  0.3283 -0.1888
  851MPD2    C512554   0.312   2.648  15.688 -0.0882 -0.1849 -0.0824
  851MPD2     H12555   0.208   2.588  15.331  2.8150 -0.4386  0.2699
  851MPD2    H112556   0.461   2.492  15.650 -0.7937 -0.4539  0.0314
  851MPD2    H212557   0.175   2.804  15.701  0.8738 -0.0338 -0.4960
  851MPD2    H312558   0.342   2.660  15.792  0.8190  0.4205 -0.4164
  851MPD2     N12559   0.401   2.459  15.388 -0.0640  0.8721 -0.2700
  851MPD2    H512560   0.370   2.475  15.293  1.4349 -3.1691 -1.4137
  851MPD2    N112561   0.040   2.763  15.476  0.3902 -0.2458  0.5908
  851MPD2    H712562   0.008   2.835  15.539  1.1986 -0.6957  1.5057
  852MPD2     C12563   4.307   0.207  10.236  0.2008  0.4333  0.4491
  852MPD2    C112564   4.269   0.316  10.301  0.2157 -0.6753 -0.7860
  852MPD2    C212565   4.330   0.437  10.270  0.0701  0.0897 -0.6953
  852MPD2    C312566   4.421   0.440  10.165  0.4653 -0.2896  0.4379
  852MPD2    C412567   4.462   0.319  10.107 -0.2328  0.2084 -0.0128
  852MPD2    C512568   4.404   0.206  10.141  0.0363  0.6344 -0.2286
  852MPD2     H12569   4.302   0.533  10.311  0.6071 -0.6317  1.3382
  852MPD2    H112570   4.541   0.310  10.033  1.8252 -0.2377  2.2282
  852MPD2    H212571   4.262   0.114  10.270 -3.4500  1.5308 -1.3355
  852MPD2    H312572   4.434   0.119  10.083  0.4655  0.9708 -0.5139
  852MPD2     N12573   4.485   0.563  10.142 -0.3798 -0.4119 -0.2880
  852MPD2    H512574   4.455   0.636  10.207  0.0036 -0.8897  0.4210
  852MPD2    N112575   4.156   0.319  10.398  0.2600  0.1979 -0.1634
  852MPD2    H712576   4.142   0.403  10.454  1.4144 -0.2078  0.7514
  853MPD2     C12577   1.908   0.703  12.381  0.0215 -1.1137  0.3436
  853MPD2    C112578   1.811   0.631  12.430 -0.3971 -0.5101  0.4417
  853MPD2    C212579   1.760   0.524  12.353 -0.3477 -0.3985 -0.2655
  853MPD2    C312580   1.831   0.483  12.238 -0.7049  0.0065  0.3317
  853MPD2    C412581   1.930   0.558  12.188  0.3006 -0.4292  0.0930
  853MPD2    C512582   1.964   0.671  12.255 -0.4886  0.2363 -0.5925
  853MPD2     H12583   1.668   0.472  12.377 -0.1862 -0.2678  0.6343
  853MPD2    H112584   1.987   0.544  12.096 -0.1615 -2.6241  0.1246
  853MPD2    H212585   1.940   0.799  12.421  0.9266 -0.9413 -0.7922
  853MPD2    H312586   2.040   0.732  12.208  1.9122 -0.6811  2.0737
  853MPD2     N12587   1.792   0.374  12.162 -0.3356  0.0835 -0.0514
  853MPD2    H512588   1.858   0.341  12.091  0.6377 -1.3766  1.5098
  853MPD2    N112589   1.749   0.682  12.550 -0.0862 -0.3364 -0.1524
  853MPD2    H712590   1.784   0.771  12.583  0.0644  0.0288 -1.3028
  854MPD2     C12591   3.070   0.641  12.892 -0.4640 -0.3226  0.5769
  854MPD2    C112592   3.199   0.663  12.915  0.5434  1.5134 -0.4071
  854MPD2    C212593   3.278   0.560  12.962  0.7634 -0.5684 -0.3110
  854MPD2    C312594   3.231   0.431  12.968 -0.0773  0.1213 -0.2280
  854MPD2    C412595   3.098   0.406  12.943 -0.1309 -0.0737  0.4524
  854MPD2    C512596   3.021   0.510  12.912  0.1083  0.5014  0.1751
  854MPD2     H12597   3.382   0.574  12.988  0.0480  1.4366  1.4940
  854MPD2    H112598   3.052   0.310  12.963 -0.2322  0.1683  1.3821
  854MPD2    H212599   3.005   0.723  12.864  0.8242  0.5641  0.1798
  854MPD2    H312600   2.915   0.492  12.897 -0.2113 -0.2121  3.2642
  854MPD2     N12601   3.320   0.330  13.012 -0.0425 -0.9592  0.3571
  854MPD2    H512602   3.407   0.368  13.048 -0.4297  0.8659 -0.6468
  854MPD2    N112603   3.238   0.792  12.870  0.0014  0.2556  0.3435
  854MPD2    H712604   3.176   0.854  12.820  1.5001  2.8145  1.6634
  855MPD2     C12605   3.637   0.385  13.798 -0.5887  0.3137  0.1744
  855MPD2    C112606   3.650   0.254  13.776 -0.3262  0.2103  0.3359
  855MPD2    C212607   3.636   0.208  13.646  0.6781  0.3265  0.8381
  855MPD2    C312608   3.598   0.290  13.542 -0.3639  0.1402 -1.2511
  855MPD2    C412609   3.577   0.422  13.565 -1.0613 -0.2153 -0.5540
  855MPD2    C512610   3.598   0.468  13.696  0.0296 -0.1518  0.6104
  855MPD2     H12611   3.653   0.102  13.629  0.1171 -0.3096  4.1900
  855MPD2    H112612   3.555   0.493  13.486 -0.5815  0.1940 -0.3167
  855MPD2    H212613   3.655   0.424  13.897 -3.5014 -1.0786  1.2734
  855MPD2    H312614   3.577   0.568  13.732  2.6749  0.3257  0.8445
  855MPD2     N12615   3.587   0.248  13.405 -0.3749  0.0821  0.1262
  855MPD2    H512616   3.558   0.315  13.335  1.9103  0.7189 -0.2303
  855MPD2    N112617   3.673   0.165  13.886  0.5415 -0.3843  0.1754
  855MPD2    H712618   3.658   0.065  13.876  1.9700 -0.5610 -0.2084
  856MPD2     C12619   0.590   1.165  14.087 -0.7078  0.7812  0.2625
  856MPD2    C112620   0.666   1.284  14.092 -0.0267 -0.1266 -0.7084
  856MPD2    C212621   0.614   1.398  14.028  0.1705 -0.7757  0.0366
  856MPD2    C312622   0.490   1.393  13.959  1.0138 -0.1224 -0.0842
  856MPD2    C412623   0.416   1.271  13.962 -0.0862 -0.5649 -0.0415
  856MPD2    C512624   0.471   1.156  14.024  0.2046 -0.6156 -0.3655
  856MPD2     H12625   0.657   1.497  14.040 -0.8042 -0.3459  0.0072
  856MPD2    H112626   0.325   1.255  13.906  0.8715  0.8969 -2.0100
  856MPD2    H212627   0.624   1.072  14.131 -0.8973  1.4391  1.7843
  856MPD2    H312628   0.421   1.060  14.028 -0.0108 -0.4537  0.8387
  856MPD2     N12629   0.427   1.503  13.906  0.3706 -0.5367 -0.1386
  856MPD2    H512630   0.344   1.479  13.853  0.0081 -2.2019  1.1887
  856MPD2    N112631   0.793   1.287  14.158  0.6873  1.0509  0.0904
  856MPD2    H712632   0.834   1.380  14.164  1.8092  0.4144  2.4781
  857MPD2     C12633   2.417   3.377  12.949  0.3241 -0.0045  0.0625
  857MPD2    C112634   2.553   3.383  12.918  0.0279 -0.7273 -0.8323
  857MPD2    C212635   2.636   3.472  12.985  0.1199 -0.6343 -0.4953
  857MPD2    C312636   2.587   3.568  13.067  0.2815  0.5325  0.1623
  857MPD2    C412637   2.451   3.568  13.086  0.5667  0.9698 -0.4025
  857MPD2    C512638   2.371   3.467  13.034  0.5427 -0.4139  0.1360
  857MPD2     H12639   2.739   3.488  12.956  0.3328 -1.5610 -0.2527
  857MPD2    H112640   2.404   3.640  13.152  1.2123  0.0869  1.0167
  857MPD2    H212641   2.344   3.312  12.904  1.2157 -0.7980 -0.2460
  857MPD2    H312642   2.266   3.477  13.061  0.7914 -2.9915  2.0982
  857MPD2     N12643   2.666   3.671  13.122  0.0883 -0.1751  0.3895
  857MPD2    H512644   2.767   3.666  13.111  0.1509 -0.6576  1.2062
  857MPD2    N112645   2.595   3.293  12.814 -0.4227  0.1446 -0.8111
  857MPD2    H712646   2.524   3.228  12.782 -0.9911  0.5702 -0.4231
  858MPD2     C12647   3.521   2.659  16.390  0.3869  0.7064  0.5880
  858MPD2    C112648   3.541   2.527  16.423  0.2317  0.2420 -0.2078
  858MPD2    C212649   3.533   2.488  16.559 -0.5601 -0.4670  0.4219
  858MPD2    C312650   3.533   2.594  16.648  0.3913 -0.1605 -0.1751
  858MPD2    C412651   3.511   2.724  16.606  0.1516  0.4722  0.0334
  858MPD2    C512652   3.496   2.757  16.482  0.1864 -0.4755  0.1010
  858MPD2     H12653   3.540   2.388  16.602 -3.0841 -1.3933 -1.2702
  858MPD2    H112654   3.491   2.797  16.684 -1.1049 -0.4480  0.5813
  858MPD2    H212655   3.504   2.689  16.287  1.4500  0.7227  0.4188
  858MPD2    H312656   3.463   2.857  16.458 -0.4481 -0.5405  0.7160
  858MPD2     N12657   3.516   2.564  16.787 -0.1628 -0.2628 -0.3623
  858MPD2    H512658   3.475   2.643  16.836 -1.1060  0.8099 -2.8959
  858MPD2    N112659   3.548   2.430  16.319 -0.1273  0.2750  0.2148
  858MPD2    H712660   3.532   2.467  16.225 -0.8532 -0.8841 -0.1154
  859MPD2     C12661   1.848   0.045  16.074 -0.0425  0.3002 -0.4333
  859MPD2    C112662   1.854   0.006  15.943 -0.2805 -0.5347  0.1605
  859MPD2    C212663   1.865   4.608  15.921 -0.7860  0.8652 -0.0763
  859MPD2    C312664   1.857   4.517  16.026 -0.1618  0.1264  0.7810
  859MPD2    C412665   1.831   4.566  16.150 -0.0350 -0.8624  0.3830
  859MPD2    C512666   1.831   4.700  16.177  0.0898  1.0700 -0.4443
  859MPD2     H12667   1.905   4.566  15.830  0.9335  1.4543  0.4039
  859MPD2    H112668   1.812   4.500  16.235 -3.2109  1.5767  1.5693
  859MPD2    H212669   1.840   0.151  16.095 -0.1948  0.4127 -1.0414
  859MPD2    H312670   1.819   4.722  16.283  1.2333 -0.3235 -0.0264
  859MPD2     N12671   1.874   4.375  16.017  0.0100  0.4803 -0.2763
  859MPD2    H512672   1.856   4.326  16.104 -1.2410  0.9716 -0.2637
  859MPD2    N112673   1.892   0.095  15.842  0.0675 -0.8622 -0.5460
  859MPD2    H712674   1.925   0.188  15.866  2.5175 -1.9389  0.2547
  860MPD2     C12675   4.252   4.621  11.879  0.4950 -0.7477  0.3405
  860MPD2    C112676   4.215   4.595  12.006 -0.5216  0.2614 -0.0397
  860MPD2    C212677   4.079   4.577  12.018  0.6359 -0.5412 -0.4829
  860MPD2    C312678   3.984   4.602  11.916 -0.9907 -0.6660 -0.3108
  860MPD2    C412679   4.026   4.652  11.794  0.6106  0.3411 -1.8905
  860MPD2    C512680   4.164   4.643  11.773  0.0972  0.1234 -0.1575
  860MPD2     H12681   4.049   4.530  12.111  0.7139  1.1798  0.4146
  860MPD2    H112682   3.963   4.682  11.710 -1.3963  0.1187 -0.4659
  860MPD2    H212683   4.355   4.641  11.854  0.9797 -0.5389  2.5148
  860MPD2    H312684   4.210   4.669  11.678 -1.1257  0.0040 -0.7859
  860MPD2     N12685   3.843   4.583  11.949 -0.1093  0.1805 -0.6980
  860MPD2    H512686   3.814   4.535  12.033 -0.7422  0.2754 -0.8590
  860MPD2    N112687   4.297   4.597  12.119 -0.5403  0.6017 -0.6369
  860MPD2    H712688   4.253   4.599  12.210  2.2235 -1.1202  0.7358
  861MPD2     C12689   3.141   2.772  10.676  0.1879  0.1260 -0.8081
  861MPD2    C112690   3.041   2.699  10.742  0.0805  0.0312 -0.6394
  861MPD2    C212691   2.917   2.704  10.686 -0.5727 -0.0738 -0.2626
  861MPD2    C312692   2.881   2.796  10.590  0.3786  0.7772  0.5504
  861MPD2    C412693   2.983   2.857  10.522 -0.9084 -0.1656  0.2770
  861MPD2    C512694   3.109   2.843  10.569 -0.8267  0.1599  0.2542
  861MPD2     H12695   2.837   2.647  10.733 -1.1523 -1.7510 -3.2345
  861MPD2    H112696   2.966   2.918  10.434 -2.3848 -1.0288 -0.0458
  861MPD2    H212697   3.245   2.754  10.702 -0.6357 -2.4315  0.6387
  861MPD2    H312698   3.187   2.895  10.515 -1.1585  0.3887 -0.0073
  861MPD2     N12699   2.747   2.828  10.559 -0.1608 -0.2572  0.3256
  861MPD2    H512700   2.724   2.900  10.492  1.2739 -0.1121 -0.0019
  861MPD2    N112701   3.055   2.619  10.860  0.2426 -0.0628  0.7268
  861MPD2    H712702   2.984   2.549  10.878 -0.0679 -0.9095 -3.8790
  862MPD2     C12703   2.100   3.060  10.244 -0.5807 -0.2758 -0.4165
  862MPD2    C112704   2.187   2.966  10.284 -0.4107  0.4554  0.4344
  862MPD2    C212705   2.182   2.841  10.224  0.1890 -0.0778 -0.0636
  862MPD2    C312706   2.090   2.813  10.127 -0.4140  0.6326  0.4699
  862MPD2    C412707   1.995   2.909  10.089  0.0749 -0.0518 -0.2328
  862MPD2    C512708   2.005   3.032  10.146 -0.1569  0.3221  0.1902
  862MPD2     H12709   2.254   2.767  10.257 -0.0042 -0.2811 -0.0967
  862MPD2    H112710   1.915   2.891  10.019 -0.6196 -1.3008  0.8861
  862MPD2    H212711   2.093   3.163  10.278  0.0160  0.2393 -1.8265
  862MPD2    H312712   1.944   3.118  10.122 -0.3054 -1.1284 -4.6910
  862MPD2     N12713   2.074   2.683  10.090 -0.1667  0.0381 -0.6897
  862MPD2    H512714   1.979   2.671  10.057 -0.4452  3.4836 -1.0761
  862MPD2    N112715   2.287   2.981  10.385 -0.3011 -0.5054  0.3026
  862MPD2    H712716   2.324   2.896  10.426 -0.7195 -1.5219 -1.4364
  863MPD2     C12717   1.359   1.334  16.579  0.0453  0.3790  0.5458
  863MPD2    C112718   1.423   1.456  16.605 -0.2800  0.4403 -0.6418
  863MPD2    C212719   1.554   1.457  16.664  0.4881  0.7245 -0.2220
  863MPD2    C312720   1.618   1.332  16.693  0.3109  0.0721 -0.2063
  863MPD2    C412721   1.547   1.214  16.664  0.0517  0.0550  0.1802
  863MPD2    C512722   1.421   1.220  16.615  0.1264  0.1496 -0.3383
  863MPD2     H12723   1.612   1.547  16.684 -0.9891  0.9898  3.0010
  863MPD2    H112724   1.580   1.118  16.702  1.5020  1.0790  1.4813
  863MPD2    H212725   1.253   1.330  16.558 -0.1009  0.1831  1.3336
  863MPD2    H312726   1.358   1.132  16.617  0.5524 -0.1418  0.3395
  863MPD2     N12727   1.744   1.313  16.760 -0.2480  0.0981 -0.6473
  863MPD2    H512728   1.758   1.219  16.795 -0.7322  0.6499  1.0403
  863MPD2    N112729   1.346   1.572  16.570 -0.5076  0.1384 -0.0866
  863MPD2    H712730   1.256   1.560  16.525 -1.9974 -0.3376  3.0833
  864MPD2     C12731   2.408   2.374  17.371 -0.4562 -0.7528 -0.4480
  864MPD2    C112732   2.417   2.318  17.240 -0.4470  0.1159  0.8364
  864MPD2    C212733   2.500   2.385  17.151  0.2904 -0.9807  0.7379
  864MPD2    C312734   2.571   2.502  17.185 -0.6798  0.3918 -0.2652
  864MPD2    C412735   2.560   2.554  17.313  0.6578  0.8098  0.6148
  864MPD2    C512736   2.480   2.488  17.402 -0.3338  0.3156  0.2981
  864MPD2     H12737   2.507   2.341  17.052  2.4402 -0.1567  0.5205
  864MPD2    H112738   2.626   2.635  17.342  1.2172  0.4572  0.3434
  864MPD2    H212739   2.341   2.344  17.450  1.6720 -0.0789  1.6339
  864MPD2    H312740   2.463   2.528  17.501  0.6814 -1.2250  1.1012
  864MPD2     N12741   2.650   2.562  17.091  0.1071  0.1833 -0.2931
  864MPD2    H512742   2.702   2.644  17.120  2.8992 -1.6845 -0.0059
  864MPD2    N112743   2.346   2.198  17.204  0.0245  0.4255  0.3274
  864MPD2    H712744   2.298   2.139  17.272 -3.1489  2.7057  0.0585
  865MPD2     C12745   2.652   3.018  16.352 -0.6365  0.2733  0.2037
  865MPD2    C112746   2.630   2.918  16.435  0.0388  0.2849 -0.0829
  865MPD2    C212747   2.664   2.920  16.570 -0.3887 -0.3607  0.0807
  865MPD2    C312748   2.742   3.030  16.610 -0.2037  0.9476  0.3918
  865MPD2    C412749   2.775   3.124  16.519  0.3997  0.3448  0.0602
  865MPD2    C512750   2.736   3.116  16.393 -0.0408 -0.2579 -0.4315
  865MPD2     H12751   2.622   2.843  16.635  0.2486  0.1828  1.1400
  865MPD2    H112752   2.826   3.215  16.549 -0.6970  0.8813  0.2682
  865MPD2    H212753   2.624   3.031  16.248  1.2754 -3.6009 -0.7650
  865MPD2    H312754   2.761   3.198  16.327 -0.9121 -0.1629 -0.6459
  865MPD2     N12755   2.782   3.058  16.740  0.2482 -0.2348 -0.4497
  865MPD2    H512756   2.798   3.155  16.764 -0.3441 -0.8401  2.3671
  865MPD2    N112757   2.574   2.808  16.369 -0.1119  0.1865  0.2618
  865MPD2    H712758   2.559   2.830  16.271  1.4128 -0.3061 -0.0888
  866MPD2     C12759   3.703   2.926  11.026 -0.3957 -0.5125  0.3144
  866MPD2    C112760   3.659   3.056  11.025  0.3547 -0.2694 -0.4488
  866MPD2    C212761   3.536   3.087  10.974  0.6721  0.3804 -0.0588
  866MPD2    C312762   3.455   2.979  10.930 -0.3381  0.7429  0.3656
  866MPD2    C412763   3.514   2.859  10.907  1.0124  0.4302  0.2237
  866MPD2    C512764   3.639   2.834  10.950 -0.4516 -0.0715 -0.1095
  866MPD2     H12765   3.497   3.188  10.972  0.8029  0.4923  3.6826
  866MPD2    H112766   3.471   2.773  10.856  1.2535  0.7230 -0.4599
  866MPD2    H212767   3.802   2.897  11.057 -0.3511 -0.3673  0.3083
  866MPD2    H312768   3.684   2.743  10.912 -1.3350 -0.6395  0.1885
  866MPD2     N12769   3.319   2.986  10.904 -0.3226  0.1862 -0.2277
  866MPD2    H512770   3.265   2.900  10.896  1.1699 -1.1205  3.7803
  866MPD2    N112771   3.742   3.151  11.081 -0.5888 -0.3530  0.0429
  866MPD2    H712772   3.820   3.111  11.133  0.5761 -0.0082 -1.4386
  867MPD2     C12773   1.220   2.843  16.666  0.7312 -0.2152 -0.2456
  867MPD2    C112774   1.279   2.794  16.785 -0.3573  0.3514 -0.2797
  867MPD2    C212775   1.321   2.882  16.881 -0.2826 -0.3744 -0.2989
  867MPD2    C312776   1.308   3.017  16.868 -0.4717 -0.1542 -0.1913
  867MPD2    C412777   1.250   3.063  16.751 -0.0064 -0.5690 -0.8821
  867MPD2    C512778   1.199   2.977  16.652 -0.0657  0.0037  0.7886
  867MPD2     H12779   1.379   2.845  16.965  0.7379 -1.6111 -1.5432
  867MPD2    H112780   1.235   3.169  16.733  0.3734 -0.1623  1.2310
  867MPD2    H212781   1.174   2.774  16.597  0.1679  0.5320 -0.6263
  867MPD2    H312782   1.164   3.017  16.558 -1.6140 -0.4155  1.1941
  867MPD2     N12783   1.346   3.108  16.966 -0.5858  0.1107 -0.0015
  867MPD2    H512784   1.328   3.207  16.955 -1.1962  0.2845  2.5396
  867MPD2    N112785   1.301   2.651  16.792  0.4877 -0.1078 -0.2813
  867MPD2    H712786   1.294   2.602  16.703  1.0459  0.2954 -0.5450
  868MPD2     C12787   2.918   2.272  13.327  0.2683 -0.7702 -0.1673
  868MPD2    C112788   2.911   2.131  13.324 -0.4566 -0.2352 -0.4660
  868MPD2    C212789   2.818   2.058  13.407  0.4930  0.4342  0.1046
  868MPD2    C312790   2.724   2.131  13.476  0.1300  0.3460  0.1927
  868MPD2    C412791   2.730   2.270  13.475 -0.5471 -0.3408 -0.2343
  868MPD2    C512792   2.819   2.340  13.393  0.1426 -0.2042 -0.2124
  868MPD2     H12793   2.824   1.950  13.416 -0.0697  0.3285 -0.7521
  868MPD2    H112794   2.671   2.339  13.535 -1.6364 -1.7940  0.3498
  868MPD2    H212795   2.997   2.335  13.289  0.2197 -1.5151 -1.5378
  868MPD2    H312796   2.820   2.448  13.391 -0.7920 -0.1174  3.4121
  868MPD2     N12797   2.622   2.061  13.542  0.1104  0.0541 -0.5622
  868MPD2    H512798   2.643   1.964  13.559 -2.5602 -0.4829 -0.2927
  868MPD2    N112799   3.013   2.064  13.254 -0.5867  0.2981  0.1846
  868MPD2    H712800   3.094   2.109  13.213 -0.9994 -0.1226 -1.1044
  869MPD2     C12801   4.541   4.223   0.472  0.3200 -0.0409  0.0934
  869MPD2    C112802   4.410   4.241   0.501  0.2573 -0.0304  0.4366
  869MPD2    C212803   4.364   4.374   0.517 -0.7624  0.1201 -0.1922
  869MPD2    C312804   4.457   4.479   0.526 -0.0795  0.0774  0.2909
  869MPD2    C412805   4.589   4.461   0.509  0.3916  0.5892  0.5774
  869MPD2    C512806   4.625   4.334   0.474  0.0761 -0.4330  0.1759
  869MPD2     H12807   4.261   4.401   0.537 -0.2816  2.0122 -0.2671
  869MPD2    H112808   4.660   4.543   0.509  1.6897 -0.5295 -0.3555
  869MPD2    H212809   4.583   4.129   0.440 -1.9860 -0.8100 -0.6600
  869MPD2    H312810   4.730   4.325   0.451  0.1386  2.6724 -0.7325
  869MPD2     N12811   4.430   4.619   0.540  0.6477 -0.7272 -0.7927
  869MPD2    H512812   4.507   4.681   0.518 -0.5103  0.6503 -0.9567
  869MPD2    N112813   4.331   4.130   0.514 -0.8747 -0.6467  0.2881
  869MPD2    H712814   4.350   4.033   0.492  0.0686 -0.6867  1.2429
  870MPD2     C12815   4.138   2.626   1.680  0.0667  0.5777 -0.2739
  870MPD2    C112816   4.082   2.576   1.567 -0.5153  0.5952  0.2251
  870MPD2    C212817   3.958   2.628   1.519  0.7662  0.3090  0.1837
  870MPD2    C312818   3.897   2.734   1.584  0.4874 -0.2993  0.1029
  870MPD2    C412819   3.965   2.794   1.693  0.1693 -0.0538 -1.2058
  870MPD2    C512820   4.087   2.743   1.744 -0.1562 -0.1245  0.0924
  870MPD2     H12821   3.910   2.574   1.438  2.2794 -0.6073 -0.1185
  870MPD2    H112822   3.923   2.885   1.733 -0.8040 -0.4807 -1.2598
  870MPD2    H212823   4.233   2.585   1.713  0.0034  0.2378 -0.5244
  870MPD2    H312824   4.136   2.794   1.826 -1.5756  1.6824 -0.1930
  870MPD2     N12825   3.772   2.781   1.538 -0.0775 -0.0032 -0.2317
  870MPD2    H512826   3.738   2.735   1.454 -0.6737 -1.7325  0.9375
  870MPD2    N112827   4.149   2.459   1.511  0.2205 -0.4344 -0.2713
  870MPD2    H712828   4.242   2.439   1.549 -1.0068  0.0197  2.9804
  871MPD2     C12829   0.131   2.912  16.369 -0.6304 -0.2496  1.0079
  871MPD2    C112830   0.180   2.888  16.492 -0.4260  0.2923 -0.6162
  871MPD2    C212831   0.284   2.804  16.501  0.0138  0.0985  0.7494
  871MPD2    C312832   0.335   2.739  16.388 -0.0121  0.5254 -0.2080
  871MPD2    C412833   0.284   2.768  16.260  0.6181 -0.5528  0.3095
  871MPD2    C512834   0.175   2.855  16.256  0.5062  0.4369 -0.0965
  871MPD2     H12835   0.314   2.770  16.599 -0.6461 -2.0035  0.2185
  871MPD2    H112836   0.310   2.719  16.166  1.1786 -0.5587  0.4677
  871MPD2    H212837   0.046   2.979  16.354 -0.7766 -1.0149 -1.6836
  871MPD2    H312838   0.125   2.882  16.163  0.9632 -0.1664 -0.5194
  871MPD2     N12839   0.451   2.661  16.392  0.1188 -0.0594 -0.7029
  871MPD2    H512840   0.466   2.616  16.482 -2.5612  2.4561  0.9956
  871MPD2    N112841   0.134   2.956  16.609 -0.2334 -0.4786  0.0748
  871MPD2    H712842   0.068   3.032  16.594  2.2343  1.4621 -1.0642
  872MPD2     C12843   1.002   0.491  14.319  0.2299 -0.5108 -0.9653
  872MPD2    C112844   0.914   0.558  14.237 -0.1523  0.0053 -0.3582
  872MPD2    C212845   0.773   0.539  14.254  0.2740  0.2444 -0.4668
  872MPD2    C312846   0.724   0.463  14.360 -0.3349  0.8634  0.1510
  872MPD2    C412847   0.822   0.405  14.444 -0.0727  0.2820  0.5881
  872MPD2    C512848   0.954   0.413  14.416  0.0541 -0.3606  0.1164
  872MPD2     H12849   0.707   0.607  14.202  1.6453  0.4389 -1.9688
  872MPD2    H112850   0.778   0.351  14.527 -1.4066  0.8909  0.2771
  872MPD2    H212851   1.109   0.508  14.322  0.1499 -0.5048  1.3842
  872MPD2    H312852   1.020   0.363  14.486 -1.0658 -0.4016  1.1353
  872MPD2     N12853   0.585   0.449  14.397 -0.3321 -0.4614  0.4632
  872MPD2    H512854   0.561   0.388  14.474 -0.5772 -0.4465  0.4007
  872MPD2    N112855   0.939   0.663  14.155  0.6491  0.1421 -0.4583
  872MPD2    H712856   0.855   0.716  14.134  0.1220 -0.6478 -0.3611
  873MPD2     C12857   2.169   0.438   0.387  0.3150  0.2803  0.2728
  873MPD2    C112858   2.235   0.319   0.379 -0.2921  0.4109  0.1418
  873MPD2    C212859   2.201   0.227   0.285 -0.3217  0.3171  0.0753
  873MPD2    C312860   2.102   0.249   0.187  0.3895  0.4270  0.6155
  873MPD2    C412861   2.039   0.376   0.203  0.2612  0.0724 -0.3895
  873MPD2    C512862   2.075   0.468   0.294  0.2645  0.6462  0.3173
  873MPD2     H12863   2.260   0.137   0.272 -2.0380 -1.1173  2.2374
  873MPD2    H112864   1.959   0.405   0.136 -0.9955 -0.2584  0.9600
  873MPD2    H212865   2.175   0.509   0.469  0.4278 -1.3677  1.6846
  873MPD2    H312866   2.019   0.559   0.307  1.4047  1.1342  1.8349
  873MPD2     N12867   2.061   0.162   0.082  0.3541 -0.0181 -0.0107
  873MPD2    H512868   1.983   0.192   0.024 -0.2482 -1.9868 -0.2167
  873MPD2    N112869   2.326   0.302   0.482  0.4351 -0.9597  0.3990
  873MPD2    H712870   2.341   0.372   0.554 -2.0264  0.7576 -0.7662
  874MPD2     C12871   1.980   0.745  16.400 -0.0232  0.0855 -0.4736
  874MPD2    C112872   1.998   0.656  16.498  0.4504 -0.1055 -0.0671
  874MPD2    C212873   2.123   0.639  16.548 -0.4912 -0.2972 -0.0323
  874MPD2    C312874   2.236   0.701  16.501  0.7042  0.4468 -0.4703
  874MPD2    C412875   2.218   0.792  16.400 -0.0308  0.0988 -0.4382
  874MPD2    C512876   2.092   0.806  16.344 -0.2277  0.0324  0.4987
  874MPD2     H12877   2.135   0.566  16.627 -0.6603 -0.6887 -0.3687
  874MPD2    H112878   2.300   0.850  16.358 -2.0685  1.6122 -2.2745
  874MPD2    H212879   1.880   0.767  16.365  0.3857  1.1960 -0.9510
  874MPD2    H312880   2.074   0.880  16.266 -0.0407 -1.0107 -0.5308
  874MPD2     N12881   2.361   0.678  16.562 -0.3639 -0.5048 -0.4057
  874MPD2    H512882   2.367   0.596  16.621  0.8409 -1.7564 -2.2790
  874MPD2    N112883   1.887   0.576  16.545  0.1270 -0.3706  0.1711
  874MPD2    H712884   1.799   0.604  16.501 -1.2881 -1.4339  2.3236
  875MPD2     C12885   2.403   3.547  14.725  0.5471  0.0062  0.6125
  875MPD2    C112886   2.517   3.592  14.660  0.2721 -0.1248 -0.1340
  875MPD2    C212887   2.621   3.647  14.734 -0.2851  0.4425  0.5597
  875MPD2    C312888   2.614   3.665  14.869  0.6690 -0.0175 -0.1957
  875MPD2    C412889   2.490   3.631  14.925  0.2508  0.0328 -0.4498
  875MPD2    C512890   2.390   3.566  14.858  0.3151  0.6297  0.6197
  875MPD2     H12891   2.710   3.689  14.689  0.1308 -0.3787  0.6145
  875MPD2    H112892   2.473   3.646  15.031 -0.9165 -0.2221 -0.5957
  875MPD2    H212893   2.325   3.501  14.665  0.4819 -1.3551  1.7512
  875MPD2    H312894   2.299   3.548  14.914  0.7127 -1.0407  0.7343
  875MPD2     N12895   2.711   3.722  14.950 -0.2278  0.1883 -0.2882
  875MPD2    H512896   2.676   3.755  15.039 -1.2690 -1.7360  0.0087
  875MPD2    N112897   2.512   3.584  14.522 -0.3201  0.3204 -0.3412
  875MPD2    H712898   2.442   3.522  14.483 -0.7021  0.6363 -0.1490
  876MPD2     C12899   1.915   0.230  16.438 -0.1994 -0.0593 -0.8147
  876MPD2    C112900   2.051   0.264  16.421  0.5054  0.5414 -0.0158
  876MPD2    C212901   2.150   0.210  16.500  0.0299  0.3536 -0.1264
  876MPD2    C312902   2.117   0.109  16.588 -0.2923  0.3354 -0.2569
  876MPD2    C412903   1.984   0.078  16.604 -0.8383 -0.0508 -0.2425
  876MPD2    C512904   1.879   0.137  16.531 -0.2311  0.3282  0.3939
  876MPD2     H12905   2.252   0.248  16.493  0.8412 -1.5874  0.9824
  876MPD2    H112906   1.955   4.737  16.671 -0.8792  0.3298  0.1966
  876MPD2    H212907   1.832   0.270  16.381  0.1702  1.5620 -0.2012
  876MPD2    H312908   1.773   0.117  16.545 -0.2568 -0.5513 -1.0217
  876MPD2     N12909   2.222   0.035  16.652  0.1148  0.4933  0.0578
  876MPD2    H512910   2.312   0.053  16.608 -0.5341 -1.8818 -2.2567
  876MPD2    N112911   2.074   0.357  16.317  0.5056  0.1424  0.1774
  876MPD2    H712912   1.991   0.401  16.277  0.2235 -2.6181 -2.3097
  877MPD2     C12913   1.885   0.667  15.638  0.9755  0.1970  0.2727
  877MPD2    C112914   2.019   0.701  15.654  0.0555 -0.1784  0.1264
  877MPD2    C212915   2.094   0.737  15.541  0.3225 -0.1444 -0.9041
  877MPD2    C312916   2.038   0.721  15.417 -0.1053 -0.0131  0.4900
  877MPD2    C412917   1.899   0.688  15.403  0.5065 -0.6406  0.0727
  877MPD2    C512918   1.826   0.683  15.513  0.2055  0.3798  0.2906
  877MPD2     H12919   2.201   0.752  15.553  0.4323 -1.4714 -0.2452
  877MPD2    H112920   1.849   0.676  15.308  0.8267  1.1069 -0.3124
  877MPD2    H212921   1.819   0.647  15.721  0.1503 -1.3645 -0.7654
  877MPD2    H312922   1.718   0.675  15.512  0.1488  1.0216  2.3668
  877MPD2     N12923   2.106   0.755  15.299 -0.7754  0.1885  0.3435
  877MPD2    H512924   2.073   0.712  15.213  0.6636 -1.2416  0.4985
  877MPD2    N112925   2.083   0.689  15.783 -0.5020  0.0833  0.0182
  877MPD2    H712926   2.183   0.708  15.788 -0.0771 -1.1553 -3.2680
  878MPD2     C12927   1.971   0.002  13.374  0.3165  0.2476  0.2632
  878MPD2    C112928   2.069   0.097  13.376 -0.3365 -0.6917  0.3611
  878MPD2    C212929   2.080   0.171  13.498  0.0431 -0.3033 -0.3983
  878MPD2    C312930   1.993   0.148  13.601  0.2341 -0.5052 -0.8083
  878MPD2    C412931   1.893   0.053  13.590 -0.2928  0.5776  0.2901
  878MPD2    C512932   1.889   4.713  13.479 -0.2069 -0.1686  0.4795
  878MPD2     H12933   2.153   0.250  13.513 -2.2561  1.9269 -0.7466
  878MPD2    H112934   1.839   0.026  13.680 -1.1158  2.3952  0.3396
  878MPD2    H212935   1.947   4.678  13.290 -0.8755 -0.8135  1.4250
  878MPD2    H312936   1.825   4.625  13.479 -2.6658  1.6181 -0.6105
  878MPD2     N12937   2.008   0.226  13.716 -0.0379 -0.1331  0.2290
  878MPD2    H512938   2.092   0.282  13.715 -0.1861  0.0882  0.3668
  878MPD2    N112939   2.155   0.099  13.265  0.7676 -0.8410 -0.2085
  878MPD2    H712940   2.134   0.041  13.185 -0.5235  0.5727 -0.8615
  879MPD2     C12941   2.335   0.423  17.303  0.4650  0.3218  0.0845
  879MPD2    C112942   2.383   0.493  17.192  0.8375  0.7647  1.1051
  879MPD2    C212943   2.290   0.561  17.104  0.5285 -1.0473  0.1583
  879MPD2    C312944   2.155   0.544  17.120  0.5151  0.0209  0.7348
  879MPD2    C412945   2.117   0.474  17.230  0.3494 -0.5361 -0.1148
  879MPD2    C512946   2.203   0.416  17.324 -0.4751  0.2946  0.5764
  879MPD2     H12947   2.329   0.599  17.011  0.4151  0.6756  0.8104
  879MPD2    H112948   2.014   0.460  17.260 -0.0359 -0.0336 -1.1754
  879MPD2    H212949   2.407   0.385  17.375 -0.8435 -0.1174  1.1603
  879MPD2    H312950   2.160   0.378  17.416 -0.2145 -0.4899  0.3738
  879MPD2     N12951   2.058   0.608  17.036 -0.3532  0.3713  0.0142
  879MPD2    H512952   1.963   0.597  17.068 -0.1897 -2.7088 -0.5588
  879MPD2    N112953   2.520   0.502  17.176  0.2147 -0.2184 -0.3601
  879MPD2    H712954   2.578   0.440  17.232 -0.0878 -0.9475 -0.8676
  880MPD2     C12955   3.670   2.423   0.093 -0.9130 -0.1289 -0.6644
  880MPD2    C112956   3.673   2.473   0.219  0.5196 -0.1078  0.2091
  880MPD2    C212957   3.700   2.387   0.325 -0.1967 -0.2780 -0.0757
  880MPD2    C312958   3.734   2.256   0.303  0.9192  0.7820 -0.0457
  880MPD2    C412959   3.727   2.203   0.176 -0.3393 -0.9028 -0.2361
  880MPD2    C512960   3.691   2.289   0.076  0.5914 -0.1399 -0.7716
  880MPD2     H12961   3.708   2.420   0.427  1.6416  2.4625 -1.1269
  880MPD2    H112962   3.743   2.097   0.157 -2.4029 -1.4654  1.0714
  880MPD2    H212963   3.645   2.482   0.006 -2.2466 -1.4438 -1.1689
  880MPD2    H312964   3.688   2.252  17.732  3.2802 -1.3928 -0.4069
  880MPD2     N12965   3.784   2.188   0.414  0.2144 -0.7919  0.0599
  880MPD2    H512966   3.782   2.228   0.508  1.0052 -0.9236  0.1346
  880MPD2    N112967   3.651   2.613   0.238 -0.3909 -0.1288  0.3413
  880MPD2    H712968   3.613   2.664   0.159  1.6538  1.4662  0.3794
  881MPD2     C12969   3.899   3.577   0.072 -0.1163  1.2849  0.3042
  881MPD2    C112970   3.976   3.463   0.053 -0.5631 -0.1439 -0.2589
  881MPD2    C212971   3.932   3.347   0.116 -0.7738  0.2231  0.4108
  881MPD2    C312972   3.826   3.354   0.212  0.2575  0.3640  0.3344
  881MPD2    C412973   3.760   3.468   0.224 -0.9830 -0.5060  0.1538
  881MPD2    C512974   3.793   3.579   0.151  0.1289 -0.2341 -0.1001
  881MPD2     H12975   3.980   3.250   0.107 -1.5293 -0.1780  0.7208
  881MPD2    H112976   3.672   3.482   0.286 -1.0012  0.3406 -0.0623
  881MPD2    H212977   3.911   3.665   0.010  3.3096  0.8958  0.3987
  881MPD2    H312978   3.737   3.671   0.162  2.1220  1.0096 -0.2002
  881MPD2     N12979   3.780   3.245   0.284  0.2969  0.7497  0.2812
  881MPD2    H512980   3.693   3.258   0.335 -0.3351  1.7323 -1.0427
  881MPD2    N112981   4.062   3.465  17.700 -0.6376  0.0240 -0.1262
  881MPD2    H712982   4.068   3.545  17.637  1.2127 -1.0945 -1.3656
  882MPD2     C12983   2.369   0.765  14.488 -0.0574  0.6204 -0.5701
  882MPD2    C112984   2.275   0.807  14.582  0.9497 -0.4528  0.2132
  882MPD2    C212985   2.142   0.825  14.544 -0.2996  0.7540 -0.3194
  882MPD2    C312986   2.101   0.785  14.417 -0.3276  0.2257  1.0076
  882MPD2    C412987   2.193   0.729  14.330  0.1969  0.5971  0.0954
  882MPD2    C512988   2.325   0.720  14.362  0.0681 -0.3231 -0.0731
  882MPD2     H12989   2.066   0.867  14.608 -1.1653  0.2116 -0.9898
  882MPD2    H112990   2.162   0.696  14.231 -2.1723  1.2746  0.6029
  882MPD2    H212991   2.472   0.759  14.523  0.6124  2.5399 -2.1766
  882MPD2    H312992   2.396   0.683  14.289  2.5350 -1.1618  2.7422
  882MPD2     N12993   1.963   0.795  14.374  0.2192  0.5151 -0.1408
  882MPD2    H512994   1.951   0.760  14.279 -0.3152 -1.3366  0.6271
  882MPD2    N112995   2.313   0.840  14.715  0.2680  0.0516  0.0895
  882MPD2    H712996   2.411   0.820  14.731 -0.5096 -2.8025  1.3557
  883MPD2     C12997   3.726   4.731  15.917  0.4049 -0.0731  0.5602
  883MPD2    C112998   3.776   0.111  15.957 -0.7998  0.1398  0.7392
  883MPD2    C212999   3.910   0.133  15.969 -0.1984  0.2495  0.8718
  883MPD2    C313000   3.999   0.029  15.925  0.5876  0.7415 -0.1350
  883MPD2    C413001   3.948   4.645  15.879  1.0400 -0.0334 -0.4694
  883MPD2    C513002   3.808   4.628  15.885 -0.2067 -0.4955 -0.1327
  883MPD2     H13003   3.941   0.221  16.024  0.8043 -0.5784  1.6255
  883MPD2    H113004   4.004   4.558  15.846 -0.9479 -0.6602 -2.1778
  883MPD2    H213005   3.619   4.715  15.924  0.0975  0.8212 -1.9559
  883MPD2    H313006   3.775   4.529  15.858  1.2532 -1.4289  1.4647
  883MPD2     N13007   4.141   0.057  15.937 -0.4217  0.2295 -0.1789
  883MPD2    H513008   4.163   0.145  15.982  0.5896 -0.7817  1.2814
  883MPD2    N113009   3.698   0.221  15.993  0.0931  0.5789  0.4859
  883MPD2    H713010   3.747   0.308  16.008  1.0347 -0.0018  0.7892
  884MPD2     C13011   1.362   1.234  15.352 -0.3692  0.4978 -0.2306
  884MPD2    C113012   1.311   1.264  15.231  0.0522 -0.2845 -0.8248
  884MPD2    C213013   1.184   1.320  15.216  0.3763 -0.3140  0.3938
  884MPD2    C313014   1.109   1.334  15.329  0.0209  0.1729 -0.0243
  884MPD2    C413015   1.162   1.303  15.459 -1.2185  0.6124 -0.2863
  884MPD2    C513016   1.289   1.258  15.467  0.3609 -0.3734 -0.1538
  884MPD2     H13017   1.145   1.356  15.122  1.9441  1.2223  0.3320
  884MPD2    H113018   1.109   1.323  15.552  2.2051  1.1721  1.5452
  884MPD2    H213019   1.458   1.186  15.369 -1.1819  0.3260  3.8091
  884MPD2    H313020   1.322   1.235  15.568  2.2634 -1.9970 -1.1534
  884MPD2     N13021   0.981   1.395  15.314 -0.2938 -0.1529 -0.0618
  884MPD2    H513022   0.953   1.409  15.218  0.1439  2.2369  0.1722
  884MPD2    N113023   1.390   1.260  15.110  0.6410 -0.2404 -0.0018
  884MPD2    H713024   1.349   1.287  15.022  1.4757 -1.0740 -0.6497
  885MPD2     C13025   4.362   1.058   0.143  0.2575 -1.1958  0.2347
  885MPD2    C113026   4.461   1.147   0.186 -0.7029 -0.6472 -0.1778
  885MPD2    C213027   4.497   1.253   0.102  0.4172 -0.2545 -0.2245
  885MPD2    C313028   4.438   1.269  17.735  0.3037  0.5192  0.3832
  885MPD2    C413029   4.345   1.177  17.694 -1.0958  0.3563  0.1447
  885MPD2    C513030   4.306   1.072   0.015 -0.2160  0.6398 -0.5572
  885MPD2     H13031   4.571   1.325   0.135  1.0058 -0.7340 -0.5129
  885MPD2    H113032   4.299   1.194  17.597 -2.0506 -0.9128  0.3758
  885MPD2    H213033   4.336   0.972   0.203 -1.6779 -2.2319 -2.1253
  885MPD2    H313034   4.232   1.003  17.733  2.5711 -2.2675 -0.6394
  885MPD2     N13035   4.462   1.394  17.668 -0.1676 -0.5445 -1.2337
  885MPD2    H513036   4.520   1.463  17.715 -2.3533  0.6951 -0.3612
  885MPD2    N113037   4.516   1.139   0.316 -0.1553  0.2038 -0.8002
  885MPD2    H713038   4.597   1.200   0.327 -0.7946  0.9368 -0.1421
  886MPD2     C13039   1.037   4.551  15.231 -0.3403 -0.2002 -0.5943
  886MPD2    C113040   1.055   4.622  15.353  0.4490  0.5766 -0.2486
  886MPD2    C213041   0.983   4.738  15.363 -1.1363 -0.3446  0.3345
  886MPD2    C313042   0.909   0.052  15.261 -0.1671 -0.1700 -0.3971
  886MPD2    C413043   0.898   4.724  15.142 -0.7176  0.4684 -0.1205
  886MPD2    C513044   0.962   4.607  15.127 -0.0184 -0.0241 -0.0207
  886MPD2     H13045   0.998   0.049  15.458  0.7582 -0.9630  0.3632
  886MPD2    H113046   0.842   0.017  15.055  1.0590  1.8547 -0.7368
  886MPD2    H213047   1.087   4.456  15.214  0.1062 -0.2989  1.3622
  886MPD2    H313048   0.952   4.555  15.033 -2.2772 -2.1615  1.3775
  886MPD2     N13049   0.855   0.176  15.263 -0.0678  0.3720  0.1626
  886MPD2    H513050   0.828   0.220  15.175  1.1391 -0.0791 -0.4317
  886MPD2    N113051   1.157   4.598  15.454 -0.1143  0.0860  0.6164
  886MPD2    H713052   1.154   4.651  15.540 -0.0373  1.2483 -0.1107
  887MPD2     C13053   1.518   0.142  16.025  0.3987 -0.5495 -0.2695
  887MPD2    C113054   1.496   0.192  15.903 -0.4929 -0.0300  1.1352
  887MPD2    C213055   1.479   0.331  15.894  0.1808 -0.3260 -0.1262
  887MPD2    C313056   1.492   0.412  16.006  0.1839 -0.0044  0.3316
  887MPD2    C413057   1.516   0.354  16.123  0.2074  0.0927  0.5173
  887MPD2    C513058   1.533   0.218  16.133  0.0101  0.2191  0.2573
  887MPD2     H13059   1.454   0.372  15.797  2.0802 -3.3197 -1.8725
  887MPD2    H113060   1.534   0.413  16.212 -1.4409  0.6147  0.4963
  887MPD2    H213061   1.540   0.037  16.043 -2.9176 -1.1576  0.2822
  887MPD2    H313062   1.568   0.168  16.223 -0.0611 -1.0877 -0.4357
  887MPD2     N13063   1.478   0.549  15.996 -0.1285 -1.2688 -0.7527
  887MPD2    H513064   1.449   0.580  15.904  2.2641  1.5908 -0.5549
  887MPD2    N113065   1.486   0.109  15.788 -0.0076  0.1139  0.1814
  887MPD2    H713066   1.486   0.154  15.697  1.6755  1.4022  0.8272
  888MPD2     C13067   3.185   0.178  14.725 -0.2922  0.3863 -0.0167
  888MPD2    C113068   3.206   0.169  14.862 -0.0724  0.0518 -1.1967
  888MPD2    C213069   3.270   0.275  14.923  0.4902  0.3061  0.1328
  888MPD2    C313070   3.296   0.393  14.853  0.4624 -0.3754 -0.0241
  888MPD2    C413071   3.265   0.399  14.718  0.5413 -0.0607 -0.4591
  888MPD2    C513072   3.214   0.290  14.660 -0.0061  0.0167  0.0294
  888MPD2     H13073   3.293   0.268  15.029  0.6083  0.3350  0.1100
  888MPD2    H113074   3.276   0.483  14.650  0.2277  0.2108 -0.1717
  888MPD2    H213075   3.119   0.111  14.671 -0.5443  0.7500 -0.1599
  888MPD2    H313076   3.181   0.311  14.559  0.6022 -0.8461 -0.3530
  888MPD2     N13077   3.353   0.507  14.923  0.7583 -0.6032 -0.0313
  888MPD2    H513078   3.354   0.490  15.023 -3.3492  1.6769  0.3655
  888MPD2    N113079   3.168   0.059  14.938 -0.2329 -0.0345 -0.0115
  888MPD2    H713080   3.188   0.068  15.038 -1.9628 -1.4875  0.4790
  889MPD2     C13081   2.610   4.391  13.091  0.1444 -0.2683 -0.4420
  889MPD2    C113082   2.682   4.376  13.204  0.3976 -0.3907  0.4243
  889MPD2    C213083   2.699   4.487  13.286  0.0017  0.1231  0.1562
  889MPD2    C313084   2.663   4.614  13.250 -0.2930  0.8467 -0.4440
  889MPD2    C413085   2.590   4.627  13.131 -0.3684 -0.1923 -0.8127
  889MPD2    C513086   2.566   4.516  13.053 -0.1686  0.5987 -0.0262
  889MPD2     H13087   2.753   4.471  13.378 -0.5084 -2.2997  0.0328
  889MPD2    H113088   2.548   4.721  13.097  0.6202  0.6440  0.2644
  889MPD2    H213089   2.559   4.305  13.047 -0.2243  0.1395 -0.8136
  889MPD2    H313090   2.491   4.533  12.977 -0.2763  1.2834  0.2314
  889MPD2     N13091   2.688   4.724  13.337 -0.1533  0.2117 -0.6998
  889MPD2    H513092   2.720   4.697  13.429 -1.6714  0.2292 -0.1692
  889MPD2    N113093   2.708   4.246  13.244 -0.2649 -0.1607  0.2469
  889MPD2    H713094   2.662   4.178  13.186 -1.8805  0.4604  0.8189
  890MPD2     C13095   2.190   1.322  14.629 -0.0790 -0.0641 -0.6948
  890MPD2    C113096   2.323   1.291  14.625 -0.3186 -0.4746 -0.1642
  890MPD2    C213097   2.385   1.256  14.739  0.0895 -0.6491 -0.1337
  890MPD2    C313098   2.318   1.239  14.857 -0.1193  0.7102 -0.2573
  890MPD2    C413099   2.182   1.259  14.861 -0.0800  0.0217  0.7178
  890MPD2    C513100   2.124   1.308  14.748 -0.1527  0.1256 -0.6966
  890MPD2     H13101   2.489   1.226  14.747 -0.6629 -2.9421  1.0543
  890MPD2    H113102   2.134   1.270  14.958 -0.2305  0.3623  0.6052
  890MPD2    H213103   2.118   1.343  14.551  1.4479 -0.8874 -2.3077
  890MPD2    H313104   2.020   1.337  14.760  0.3180  2.6204 -2.6470
  890MPD2     N13105   2.388   1.210  14.977  0.5379  0.3134 -0.8181
  890MPD2    H513106   2.488   1.209  14.963  0.8279 -0.6684  1.4108
  890MPD2    N113107   2.394   1.312  14.503 -0.0113 -0.2827  0.8381
  890MPD2    H713108   2.348   1.360  14.426 -1.7782 -0.7254  1.6010
  891MPD2     C13109   0.250   4.404  16.757 -0.3789  0.6658 -0.3649
  891MPD2    C113110   0.204   4.532  16.781 -0.4138  0.4573  0.1990
  891MPD2    C213111   0.259   4.596  16.891  0.0835 -0.5484  0.0879
  891MPD2    C313112   0.363   4.525  16.965  0.1453  0.2542 -0.3296
  891MPD2    C413113   0.398   4.395  16.945 -0.0775 -0.3588 -0.0538
  891MPD2    C513114   0.334   4.336  16.840 -0.4132  0.2861 -0.2359
  891MPD2     H13115   0.214   4.688  16.928 -2.0899 -1.4974 -0.1857
  891MPD2    H113116   0.472   4.341  17.003  0.5697  0.4327 -0.1523
  891MPD2    H213117   0.230   4.356  16.662  0.2496  1.2375 -0.7903
  891MPD2    H313118   0.360   4.236  16.808  1.7271  1.5384 -2.4329
  891MPD2     N13119   0.419   4.608  17.064  0.2813 -0.1309 -0.1238
  891MPD2    H513120   0.387   4.704  17.063 -2.9713 -1.1899  1.4548
  891MPD2    N113121   0.116   4.592  16.689 -0.5537  0.3985 -0.2769
  891MPD2    H713122   0.089   4.534  16.610  0.2434 -2.1867  1.3573
  892MPD2     C13123   1.304   0.881  15.042 -0.1466 -0.1727 -0.3665
  892MPD2    C113124   1.219   0.895  14.937  0.4464  0.8413  0.3982
  892MPD2    C213125   1.269   0.873  14.813 -0.4384  0.3798  0.1611
  892MPD2    C313126   1.400   0.826  14.794 -0.2199  0.1441  0.2319
  892MPD2    C413127   1.481   0.815  14.900  0.6700  0.4683 -0.0162
  892MPD2    C513128   1.434   0.840  15.022  0.2277  0.1906 -0.1120
  892MPD2     H13129   1.212   0.908  14.728  0.8367 -0.1498 -0.9103
  892MPD2    H113130   1.584   0.780  14.903 -0.4226 -3.0710 -3.3196
  892MPD2    H213131   1.278   0.896  15.146  1.6378 -0.1027  0.0740
  892MPD2    H313132   1.497   0.839  15.110 -1.0657  1.6845  0.8366
  892MPD2     N13133   1.461   0.807  14.668 -0.0306  0.2146 -0.9580
  892MPD2    H513134   1.554   0.766  14.672 -0.4987 -0.7835 -0.0704
  892MPD2    N113135   1.090   0.936  14.950 -0.0400  0.1938  0.1488
  892MPD2    H713136   1.037   0.955  14.866 -2.5377  2.3289  2.2252
  893MPD2     C13137   2.746   3.978   1.685  1.0667  0.7220  0.1739
  893MPD2    C113138   2.785   3.981   1.555  0.4553  0.4579  0.3524
  893MPD2    C213139   2.684   3.996   1.459  0.0749 -0.0365 -0.9702
  893MPD2    C313140   2.553   3.972   1.494  0.0021 -0.2924  0.4626
  893MPD2    C413141   2.517   3.952   1.628  0.1458  0.3772  0.2601
  893MPD2    C513142   2.614   3.964   1.726 -0.6015 -0.9859 -0.3376
  893MPD2     H13143   2.702   3.988   1.352 -0.2195  0.8675 -1.0888
  893MPD2    H113144   2.419   3.918   1.660  0.0294  0.2473 -0.2406
  893MPD2    H213145   2.830   3.985   1.754  0.8958  1.3700  0.3112
  893MPD2    H313146   2.585   3.955   1.830 -0.5670 -3.7596 -0.5793
  893MPD2     N13147   2.459   3.971   1.391 -0.2665 -0.2233  0.5196
  893MPD2    H513148   2.491   3.982   1.296 -2.9120 -0.4326 -0.3899
  893MPD2    N113149   2.925   3.999   1.534 -0.0244 -0.7349 -0.7865
  893MPD2    H713150   2.977   3.996   1.621  2.3468 -1.0651 -2.2057
  894MPD2     C13151   1.296   1.590   0.685  0.2205  0.0836  0.3703
  894MPD2    C113152   1.342   1.574   0.812 -0.4496 -0.3471 -0.3779
  894MPD2    C213153   1.403   1.682   0.870  0.1067 -1.0176  0.1835
  894MPD2    C313154   1.427   1.805   0.798 -0.1676 -0.7697 -0.5302
  894MPD2    C413155   1.373   1.818   0.670  0.3792  0.0431 -1.1297
  894MPD2    C513156   1.311   1.714   0.616  1.1462  0.2574  0.3104
  894MPD2     H13157   1.432   1.675   0.974  1.0488  2.4331  0.1602
  894MPD2    H113158   1.373   1.911   0.613 -0.2262  0.9615  0.3611
  894MPD2    H213159   1.254   1.510   0.625  0.0808 -1.0963  2.0190
  894MPD2    H313160   1.272   1.721   0.516 -0.2500  1.4488  0.9440
  894MPD2     N13161   1.481   1.914   0.867  0.0433 -0.3867 -0.0355
  894MPD2    H513162   1.513   1.895   0.962 -1.4545 -0.8647  0.3788
  894MPD2    N113163   1.329   1.462   0.890 -0.7953 -0.2219 -0.4508
  894MPD2    H713164   1.369   1.469   0.982  0.4521 -0.0339 -1.0104
  895MPD2     C13165   0.558   0.413  13.740 -0.5726  0.6603 -0.4193
  895MPD2    C113166   0.510   0.319  13.663 -0.3761  0.5244  0.1169
  895MPD2    C213167   0.597   0.237  13.595 -0.0514 -0.3328  0.4131
  895MPD2    C313168   0.729   0.231  13.623  0.5003 -0.1388 -0.0826
  895MPD2    C413169   0.782   0.328  13.709  0.4007 -0.0374 -0.1304
  895MPD2    C513170   0.695   0.422  13.766  0.1415 -0.5134 -0.1026
  895MPD2     H13171   0.551   0.163  13.530  0.3864 -1.1707  1.0605
  895MPD2    H113172   0.888   0.340  13.725  0.5609  0.4587 -1.5834
  895MPD2    H213173   0.489   0.477  13.793 -2.5056 -1.6720 -0.1710
  895MPD2    H313174   0.735   0.495  13.836  0.2590 -1.8250  1.1865
  895MPD2     N13175   0.802   0.116  13.579  0.2615 -0.7094 -0.4054
  895MPD2    H513176   0.739   0.053  13.531  0.8267 -1.2054 -0.4950
  895MPD2    N113177   0.375   0.293  13.630  0.2259  0.1799  0.2388
  895MPD2    H713178   0.351   0.212  13.573 -0.4989  0.3305  0.3228
  896MPD2     C13179   3.069   2.218   1.471 -0.3489  0.3240  0.7292
  896MPD2    C113180   3.027   2.189   1.343  0.1082 -0.6165 -0.0451
  896MPD2    C213181   2.889   2.172   1.328 -0.2046  0.3651 -0.0374
  896MPD2    C313182   2.801   2.163   1.439 -0.0490 -0.1085 -0.5262
  896MPD2    C413183   2.852   2.190   1.563 -0.1201 -1.6863  0.3146
  896MPD2    C513184   2.985   2.216   1.578  0.1852  0.1060 -0.0570
  896MPD2     H13185   2.847   2.143   1.232 -0.2935  1.4757 -0.3404
  896MPD2    H113186   2.793   2.185   1.653 -0.7809  1.5938  0.0440
  896MPD2    H213187   3.175   2.234   1.487 -0.2537  1.4621 -1.0652
  896MPD2    H313188   3.029   2.230   1.676  0.7113 -0.4980 -0.2062
  896MPD2     N13189   2.670   2.122   1.420  0.3074 -0.7553  0.6731
  896MPD2    H513190   2.648   2.078   1.331  0.6622 -1.1213  0.7655
  896MPD2    N113191   3.122   2.200   1.237 -0.4598 -0.1717  0.2526
  896MPD2    H713192   3.220   2.215   1.259 -0.2682 -2.6794  1.0813
  897MPD2     C13193   3.882   3.983  11.098 -0.0983  0.0714 -0.4316
  897MPD2    C113194   3.857   3.914  10.983 -0.2731 -0.0584 -0.5850
  897MPD2    C213195   3.764   3.808  10.991  0.0180  0.6880  0.1061
  897MPD2    C313196   3.676   3.799  11.094  0.1724  0.3980 -0.0345
  897MPD2    C413197   3.708   3.880  11.204 -0.2613  0.2250 -0.0388
  897MPD2    C513198   3.820   3.960  11.214  0.4435  0.1312 -0.1801
  897MPD2     H13199   3.728   3.763  10.900 -2.1112  0.2188  1.1821
  897MPD2    H113200   3.646   3.863  11.290 -0.1840  1.4066  0.2375
  897MPD2    H213201   3.956   4.062  11.101 -2.7351  2.4974  0.5190
  897MPD2    H313202   3.849   4.014  11.303  2.6169 -0.3366 -0.5858
  897MPD2     N13203   3.556   3.730  11.082 -0.2534 -0.0749 -0.1269
  897MPD2    H513204   3.541   3.677  10.997 -0.9697 -0.3632  0.1782
  897MPD2    N113205   3.912   3.962  10.859  0.3684 -0.4762  0.5158
  897MPD2    H713206   3.967   4.046  10.866 -0.0141 -0.1761 -0.0798
  898MPD2     C13207   0.445   0.292  17.611 -0.2169  0.5288 -0.5924
  898MPD2    C113208   0.581   0.263  17.582  0.3313  0.2463  0.2320
  898MPD2    C213209   0.661   0.362  17.532 -0.7249 -0.3789 -0.0359
  898MPD2    C313210   0.614   0.491  17.513 -0.7377  1.1245  0.3452
  898MPD2    C413211   0.482   0.520  17.535 -0.0531 -0.1635  0.7248
  898MPD2    C513212   0.400   0.428  17.593  0.1273 -0.4655  0.7686
  898MPD2     H13213   0.765   0.345  17.504 -0.9881 -1.1078 -0.5793
  898MPD2    H113214   0.428   0.613  17.521  1.9801  0.4524 -3.0188
  898MPD2    H213215   0.373   0.226  17.656 -1.5544  1.5177 -1.2729
  898MPD2    H313216   0.300   0.451  17.627 -1.0724 -3.0157 -1.1411
  898MPD2     N13217   0.699   0.589  17.463 -0.1111  0.5554  0.2835
  898MPD2    H513218   0.793   0.555  17.449 -0.1570  0.7005 -0.3552
  898MPD2    N113219   0.635   0.131  17.593 -0.4353 -0.8241 -0.0771
  898MPD2    H713220   0.731   0.113  17.563 -0.3873  1.6888 -1.4043
  899MPD2     C13221   2.333   0.898  17.226  0.5781  1.1327  0.4685
  899MPD2    C113222   2.197   0.930  17.202  0.1828 -0.1472  0.4438
  899MPD2    C213223   2.100   0.871  17.284  0.0664  0.2375 -0.4918
  899MPD2    C313224   2.140   0.782  17.386 -0.2827 -0.0382  0.2628
  899MPD2    C413225   2.269   0.749  17.404  0.0463 -0.2884  0.5940
  899MPD2    C513226   2.363   0.809  17.326 -0.2802 -0.1013 -0.1606
  899MPD2     H13227   1.996   0.894  17.267 -0.1117  0.8348  1.5064
  899MPD2    H113228   2.302   0.682  17.483 -1.0654 -1.0788  0.3851
  899MPD2    H213229   2.409   0.941  17.162  1.5411  0.2364  1.0013
  899MPD2    H313230   2.466   0.792  17.357 -0.5721 -1.5407 -0.0014
  899MPD2     N13231   2.051   0.716  17.474 -0.8216  0.0233 -0.1369
  899MPD2    H513232   2.102   0.665  17.546 -2.5757 -0.1959  0.9508
  899MPD2    N113233   2.174   1.023  17.099 -0.1331 -0.4868  0.3408
  899MPD2    H713234   2.258   1.051  17.049 -0.0667 -0.0484  0.6968
  900MPD2     C13235   1.925   2.371  12.477  0.0793 -1.0035  0.0480
  900MPD2    C113236   1.825   2.318  12.559  0.2522  0.0974  0.1862
  900MPD2    C213237   1.695   2.307  12.503  0.3474 -0.5681  0.1462
  900MPD2    C313238   1.666   2.335  12.370 -0.0433  0.1884  0.7920
  900MPD2    C413239   1.773   2.383  12.293  0.4515  0.0093  0.0053
  900MPD2    C513240   1.896   2.404  12.349 -0.2765  0.0871 -0.2537
  900MPD2     H13241   1.611   2.273  12.562  1.6448  1.3178  3.0713
  900MPD2    H113242   1.761   2.421  12.192 -0.1727  1.2015  0.5314
  900MPD2    H213243   2.025   2.394  12.510 -0.4768 -1.4610  2.0613
  900MPD2    H313244   1.975   2.448  12.289  0.3244 -0.1449  0.3646
  900MPD2     N13245   1.537   2.303  12.319  0.2150  1.1591  0.0246
  900MPD2    H513246   1.461   2.267  12.375  0.9748  0.6107  0.7028
  900MPD2    N113247   1.859   2.273  12.683  0.4050  0.3677 -0.0995
  900MPD2    H713248   1.957   2.289  12.707  0.8060 -1.1436 -0.7263
  901MPD2     C13249   1.811   1.631  13.565 -0.5232 -0.7550 -0.5312
  901MPD2    C113250   1.891   1.580  13.461  0.7047 -0.3872  0.2748
  901MPD2    C213251   1.921   1.669  13.355 -0.1013  0.5741 -0.8310
  901MPD2    C313252   1.865   1.796  13.345  0.3777  0.6558 -0.2361
  901MPD2    C413253   1.781   1.840  13.441 -0.1588  0.5303 -0.9048
  901MPD2    C513254   1.763   1.756  13.552  0.4399  0.2764 -0.2450
  901MPD2     H13255   1.970   1.628  13.267 -0.5451 -0.3436 -0.6576
  901MPD2    H113256   1.727   1.934  13.447 -1.9947 -0.4779 -1.5189
  901MPD2    H213257   1.779   1.570  13.649 -5.2486  0.4557 -1.4812
  901MPD2    H313258   1.691   1.789  13.626 -1.5373 -1.2453 -1.4944
  901MPD2     N13259   1.902   1.870  13.231 -0.3154  0.5085 -0.1313
  901MPD2    H513260   1.973   1.835  13.166 -0.2929 -2.1596  1.3373
  901MPD2    N113261   1.923   1.443  13.444 -0.0826 -0.1845  0.1897
  901MPD2    H713262   1.886   1.370  13.505  2.7209 -2.0141 -0.3217
  902MPD2     C13263   0.214   4.709  12.891  0.3116  0.2493 -0.7588
  902MPD2    C113264   0.324   0.048  12.891  0.5300 -0.5772  0.6003
  902MPD2    C213265   0.444   4.733  12.835  0.5208  0.8110  0.1561
  902MPD2    C313266   0.453   4.607  12.772 -0.3064  0.0665  0.6165
  902MPD2    C413267   0.342   4.523  12.793 -0.6174  0.1020 -0.8323
  902MPD2    C513268   0.226   4.580  12.841 -0.4789 -1.1506 -0.4494
  902MPD2     H13269   0.537   0.049  12.829  1.4574 -0.7558  0.0077
  902MPD2    H113270   0.326   4.433  12.734  1.2385 -1.2880  0.7868
  902MPD2    H213271   0.119   0.009  12.926  0.5220  0.3641 -0.3112
  902MPD2    H313272   0.140   4.516  12.856 -0.7490 -0.2829  1.6608
  902MPD2     N13273   0.567   4.557  12.702 -0.2878 -0.2398 -0.5110
  902MPD2    H513274   0.554   4.474  12.646 -1.4366 -0.4152  0.0215
  902MPD2    N113275   0.321   0.182  12.941  0.5228  0.8121 -0.5340
  902MPD2    H713276   0.231   0.200  12.985  0.3110 -1.9141  0.1240
  903MPD2     C13277   0.477   0.245  12.186 -0.5403  0.8112 -0.0533
  903MPD2    C113278   0.447   0.114  12.228  0.0283 -0.0231  0.5554
  903MPD2    C213279   0.310   0.078  12.236 -0.0658 -0.3794 -0.2093
  903MPD2    C313280   0.209   0.163  12.219  0.7512 -0.0228 -0.6232
  903MPD2    C413281   0.240   0.291  12.168 -0.7887  0.1424  0.0534
  903MPD2    C513282   0.371   0.327  12.146  0.1035 -0.2920 -0.5876
  903MPD2     H13283   0.289   4.715  12.265 -0.0495 -0.0352  1.0606
  903MPD2    H113284   0.160   0.363  12.151 -1.6078 -0.2064  2.3806
  903MPD2    H213285   0.581   0.276  12.186  0.1478 -1.4978  0.0773
  903MPD2    H313286   0.402   0.426  12.115 -0.4826 -0.0256 -0.3170
  903MPD2     N13287   0.078   0.120  12.254 -0.3999  0.1617 -0.1792
  903MPD2    H513288   4.735   0.155  12.207 -1.2344 -0.2291  0.9952
  903MPD2    N113289   0.540   0.013  12.267 -0.2283  0.3489 -0.3216
  903MPD2    H713290   0.498   4.663  12.287  1.5285 -0.4658 -0.2447
  904MPD2     C13291   0.530   4.673  13.936 -0.3875  1.5133 -0.3087
  904MPD2    C113292   0.492   4.576  14.024  1.1802 -0.5518 -0.2178
  904MPD2    C213293   0.579   4.528  14.123 -0.0756 -0.4145  0.3665
  904MPD2    C313294   0.711   4.562  14.103  0.4356 -0.8072  0.6402
  904MPD2    C413295   0.754   4.648  14.002  0.8053  0.0073  0.0866
  904MPD2    C513296   0.663   4.705  13.922 -0.5676  0.2255 -0.3007
  904MPD2     H13297   0.538   4.454  14.191 -0.8417  0.1893  0.5579
  904MPD2    H113298   0.859   4.674  13.990  0.2305  1.1216 -2.5944
  904MPD2    H213299   0.458   4.727  13.875 -2.9307 -1.4053  0.1294
  904MPD2    H313300   0.688   0.046  13.853 -0.0971 -0.3485 -0.7987
  904MPD2     N13301   0.806   4.499  14.190  0.3403  0.8717  0.9768
  904MPD2    H513302   0.775   4.414  14.237  0.3231  0.6666  0.5923
  904MPD2    N113303   0.363   4.518  13.999 -0.3487  0.2496  0.5695
  904MPD2    H713304   0.315   4.560  13.920  0.9766  0.4882 -0.0935
  905MPD2     C13305   0.200   4.248  13.501 -0.5551 -0.7230 -0.3248
  905MPD2    C113306   0.234   4.371  13.546  0.3319 -0.3739  0.1940
  905MPD2    C213307   0.360   4.419  13.526  0.5258  0.3048  0.1751
  905MPD2    C313308   0.452   4.344  13.452  0.7984  0.3230 -0.1784
  905MPD2    C413309   0.409   4.226  13.397  0.1742  0.8558  0.2612
  905MPD2    C513310   0.283   4.181  13.410 -0.5853 -0.3420 -0.3954
  905MPD2     H13311   0.394   4.511  13.574 -0.0573  1.1371 -1.0081
  905MPD2    H113312   0.489   4.178  13.342 -0.6229 -0.0196 -0.1230
  905MPD2    H213313   0.104   4.206  13.530 -0.1509 -2.4740 -1.5318
  905MPD2    H313314   0.265   4.079  13.377 -2.0693 -0.5001  0.8861
  905MPD2     N13315   0.588   4.385  13.432 -0.0859 -0.0141  0.0042
  905MPD2    H513316   0.655   4.311  13.413  0.6513  0.9233 -1.0550
  905MPD2    N113317   0.147   4.427  13.637 -0.2889  0.1224 -0.2069
  905MPD2    H713318   0.078   4.361  13.673  1.0654  0.2461  2.5949
  906MPD2     C13319   2.438   4.419  10.912  0.2214 -0.3338  0.2420
  906MPD2    C113320   2.412   4.297  10.835  0.2395  0.3697 -0.8241
  906MPD2    C213321   2.373   4.181  10.906 -0.6065 -0.2603 -0.2060
  906MPD2    C313322   2.367   4.180  11.044  0.0489 -0.5404  0.0576
  906MPD2    C413323   2.402   4.294  11.107 -0.3723 -0.2172  0.3648
  906MPD2    C513324   2.424   4.412  11.042 -1.0323 -0.1716  0.2634
  906MPD2     H13325   2.358   4.087  10.854  0.1041  0.5018 -1.7950
  906MPD2    H113326   2.415   4.300  11.214 -1.7247  1.2309  0.4534
  906MPD2    H213327   2.472   4.515  10.876  2.4532 -0.8020  1.1412
  906MPD2    H313328   2.451   4.503  11.093  0.8938  0.2900 -1.5814
  906MPD2     N13329   2.329   4.063  11.103  0.0587 -0.5416 -0.0130
  906MPD2    H513330   2.324   3.987  11.037  1.6688  0.4637 -1.3193
  906MPD2    N113331   2.416   4.292  10.698  0.3155 -0.5804 -0.2587
  906MPD2    H713332   2.374   4.201  10.682 -2.6744  1.3514 -3.3862
  907MPD2     C13333   1.378   3.583  15.753  0.3446  0.3086 -0.3106
  907MPD2    C113334   1.432   3.463  15.708 -0.9954  0.1845  0.5750
  907MPD2    C213335   1.484   3.375  15.808 -0.1920  0.5630  0.2485
  907MPD2    C313336   1.484   3.405  15.943  0.1715  0.2440 -0.0359
  907MPD2    C413337   1.425   3.527  15.985 -0.3947  0.0809 -0.1630
  907MPD2    C513338   1.371   3.612  15.888 -1.5411 -0.2495 -0.4478
  907MPD2     H13339   1.530   3.284  15.772  0.3439  0.4898  1.1344
  907MPD2    H113340   1.417   3.555  16.089  0.4432 -1.8403  0.4218
  907MPD2    H213341   1.331   3.655  15.688  0.5468 -0.2256 -1.0541
  907MPD2    H313342   1.320   3.704  15.910 -0.9212  0.3360 -1.4876
  907MPD2     N13343   1.539   3.306  16.031  0.4053 -0.9135  0.0263
  907MPD2    H513344   1.555   3.216  15.988  1.6201 -1.2724  1.2195
  907MPD2    N113345   1.428   3.429  15.570  0.4904  0.7019 -0.5545
  907MPD2    H713346   1.473   3.342  15.546  0.4988  1.1165 -2.0485
  908MPD2     C13347   3.822   3.451   9.971  0.0525  0.3279  0.5123
  908MPD2    C113348   3.832   3.413  10.101 -0.6471  0.6007 -1.0915
  908MPD2    C213349   3.842   3.506  10.197  0.0249 -0.3437 -0.2369
  908MPD2    C313350   3.842   3.643  10.168  0.0211 -0.9602  0.2680
  908MPD2    C413351   3.829   3.678  10.034 -0.2729 -0.1588 -0.3198
  908MPD2    C513352   3.826   3.578   9.933 -0.2837  0.8012 -0.9306
  908MPD2     H13353   3.840   3.473  10.300  1.7742  0.8479  0.1698
  908MPD2    H113354   3.843   3.781  10.002 -1.8628  0.4617  1.0562
  908MPD2    H213355   3.820   3.383   9.886 -1.4766  0.6396  0.2941
  908MPD2    H313356   3.824   3.602   9.827 -0.7005 -0.9537 -1.3223
  908MPD2     N13357   3.859   3.731  10.272  0.1124  0.2772  0.4526
  908MPD2    H513358   3.884   3.685  10.359  0.3551  0.5244  0.5152
  908MPD2    N113359   3.854   3.274  10.115 -0.0332 -0.3981 -0.8937
  908MPD2    H713360   3.838   3.218  10.032 -0.3647 -1.2778 -0.2408
  909MPD2     C13361   4.188   2.404  12.239  0.0372  0.1551 -0.1950
  909MPD2    C113362   4.156   2.444  12.115  0.4534 -0.0919  0.3043
  909MPD2    C213363   4.041   2.516  12.090 -0.2364 -0.0746  0.4641
  909MPD2    C313364   3.952   2.547  12.197  0.8317  0.1347  1.0249
  909MPD2    C413365   3.997   2.520  12.324 -0.2879  0.4182  0.1064
  909MPD2    C513366   4.100   2.432  12.336  0.0513 -0.3195  0.0509
  909MPD2     H13367   4.019   2.549  11.989  1.4025  0.5962  0.3209
  909MPD2    H113368   3.949   2.547  12.418  0.8885  0.5417  0.6778
  909MPD2    H213369   4.284   2.359  12.261 -0.4711 -0.5082  0.6579
  909MPD2    H313370   4.118   2.409  12.440  1.1459 -0.1882 -0.1103
  909MPD2     N13371   3.827   2.609  12.164 -0.3223 -0.0561  0.6271
  909MPD2    H513372   3.807   2.601  12.065  1.6877 -2.3187  0.3925
  909MPD2    N113373   4.246   2.414  12.010  0.0303 -0.2661  0.0400
  909MPD2    H713374   4.224   2.458  11.921  0.5192  0.9789  0.5288
  910MPD2     C13375   0.708   4.160  15.983  0.1291 -0.2330 -0.0538
  910MPD2    C113376   0.773   4.056  15.924 -0.0411 -0.3251  0.0661
  910MPD2    C213377   0.745   4.031  15.792 -0.1115 -0.1924 -0.5185
  910MPD2    C313378   0.659   4.106  15.717 -0.0254 -0.0149 -0.5216
  910MPD2    C413379   0.592   4.208  15.779  0.0653 -0.2645 -0.6385
  910MPD2    C513380   0.612   4.236  15.911 -0.1719  0.0613  0.0716
  910MPD2     H13381   0.808   3.956  15.745 -0.1245 -0.7249  0.3202
  910MPD2    H113382   0.523   4.276  15.731  0.3511  0.4396 -0.0523
  910MPD2    H213383   0.721   4.182  16.088  2.3446 -0.8607 -0.1876
  910MPD2    H313384   0.560   4.312  15.968  0.2125  1.3243 -1.2756
  910MPD2     N13385   0.628   4.087  15.581  0.0911 -0.0826  0.1859
  910MPD2    H513386   0.541   4.121  15.540  1.1771  2.7881  0.2928
  910MPD2    N113387   0.851   3.958  15.993 -0.0987  0.4173 -0.1146
  910MPD2    H713388   0.882   3.879  15.937 -2.0072  0.0896 -0.7041
  911MPD2     C13389   3.213   4.435  16.307 -0.4770  0.0888  0.1000
  911MPD2    C113390   3.225   4.534  16.413  0.0337 -0.9495 -0.3334
  911MPD2    C213391   3.118   4.621  16.438  0.3384 -0.5300  0.5748
  911MPD2    C313392   3.008   4.613  16.355 -0.5496 -0.4284 -0.5113
  911MPD2    C413393   2.992   4.512  16.262 -0.0627  0.3415  0.5099
  911MPD2    C513394   3.089   4.422  16.248 -0.1859 -0.3465 -0.1175
  911MPD2     H13395   3.130   4.688  16.522 -0.6644 -0.3993  0.6133
  911MPD2    H113396   2.897   4.496  16.212  0.0952 -0.7262  0.5417
  911MPD2    H213397   3.286   4.357  16.289  0.0274 -0.1044  2.9602
  911MPD2    H313398   3.073   4.342  16.177  0.7625 -0.7509  0.1239
  911MPD2     N13399   2.900   4.705  16.352  0.5747  0.2918 -0.0769
  911MPD2    H513400   2.821   4.687  16.291  1.8083  1.5395 -2.0694
  911MPD2    N113401   3.342   4.533  16.495 -0.0101  0.2062  0.0402
  911MPD2    H713402   3.409   4.459  16.476 -0.3375  0.2459 -1.2562
  912MPD2     C13403   2.634   4.507  15.805 -0.2192  0.5734 -0.4215
  912MPD2    C113404   2.633   4.522  15.944  0.0374 -0.1881  1.1024
  912MPD2    C213405   2.686   4.415  16.018 -0.0924  0.2697  0.1403
  912MPD2    C313406   2.737   4.300  15.966  0.0464 -0.4692  0.5665
  912MPD2    C413407   2.741   4.290  15.832 -0.0195  1.1744 -0.6149
  912MPD2    C513408   2.681   4.388  15.752  0.1302 -0.6358 -0.0076
  912MPD2     H13409   2.697   4.421  16.126 -3.5722  0.3088  0.4854
  912MPD2    H113410   2.774   4.203  15.777 -0.3339 -0.0112  1.0672
  912MPD2    H213411   2.589   4.594  15.757  0.6544  2.1940  1.7279
  912MPD2    H313412   2.684   4.369  15.646 -5.2853 -0.5591 -0.2090
  912MPD2     N13413   2.793   4.207  16.055 -0.1267 -0.1085 -0.6188
  912MPD2    H513414   2.767   4.227  16.151  0.0485 -3.6241  0.1390
  912MPD2    N113415   2.590   4.648  16.004  0.3919 -0.0163  0.1712
  912MPD2    H713416   2.550   4.718  15.942  1.7719  1.2274  0.7212
  913MPD2     C13417   3.224   1.219  11.180  0.2738  0.5056  0.4327
  913MPD2    C113418   3.317   1.143  11.112  0.4558 -0.2945 -0.3239
  913MPD2    C213419   3.330   1.159  10.976  0.0625  0.5618  0.1410
  913MPD2    C313420   3.228   1.225  10.905 -0.3410  0.0585 -0.5375
  913MPD2    C413421   3.125   1.285  10.982  0.6368  0.1827  0.2011
  913MPD2    C513422   3.132   1.288  11.114  0.1622  0.0906 -0.5343
  913MPD2     H13423   3.400   1.108  10.911 -1.3989  0.0900 -1.0703
  913MPD2    H113424   3.043   1.339  10.937  2.0303  2.3430  0.2426
  913MPD2    H213425   3.224   1.228  11.288 -1.7422 -0.5469  0.5265
  913MPD2    H313426   3.056   1.335  11.176 -0.6967 -1.9805 -0.0286
  913MPD2     N13427   3.230   1.249  10.769 -0.3361 -0.4333  0.0363
  913MPD2    H513428   3.150   1.292  10.724  1.2672  4.1162  1.5413
  913MPD2    N113429   3.400   1.058  11.191  0.9426 -0.2314  0.4346
  913MPD2    H713430   3.388   1.063  11.291  0.4349 -3.1250  0.5104
  914MPD2     C13431   1.645   1.357  12.652 -0.6488 -0.2720  0.3585
  914MPD2    C113432   1.692   1.458  12.736  0.1220 -0.1383 -0.2023
  914MPD2    C213433   1.760   1.430  12.853 -0.6379  0.5712 -0.2336
  914MPD2    C313434   1.775   1.295  12.883 -0.2270  0.3994  0.5656
  914MPD2    C413435   1.720   1.197  12.805  0.0213  0.4347 -0.5662
  914MPD2    C513436   1.657   1.229  12.688 -0.3018 -0.1865  0.4502
  914MPD2     H13437   1.811   1.508  12.908 -0.2437 -0.3035  0.6246
  914MPD2    H113438   1.725   1.094  12.839 -0.8286  0.7617  0.5229
  914MPD2    H213439   1.599   1.376  12.556  1.0410 -1.8755 -0.7811
  914MPD2    H313440   1.619   1.148  12.627  1.7003  0.1827 -1.2868
  914MPD2     N13441   1.845   1.265  13.006 -0.0500  0.0880 -0.8444
  914MPD2    H513442   1.865   1.344  13.066 -1.3869 -1.1911  1.2969
  914MPD2    N113443   1.669   1.586  12.686  0.0338  0.2800  0.0592
  914MPD2    H713444   1.612   1.584  12.602 -0.1676 -0.4472  0.2145
  915MPD2     C13445   4.667   1.294  15.592  0.1370  0.6494 -0.1054
  915MPD2    C113446   4.580   1.376  15.529 -0.1462 -0.5022  0.0425
  915MPD2    C213447   4.522   1.483  15.604 -0.3110  0.2884  1.1131
  915MPD2    C313448   4.556   1.505  15.741  0.0319  0.1195 -0.1060
  915MPD2    C413449   4.645   1.418  15.799  0.3629 -0.3424  0.0739
  915MPD2    C513450   4.697   1.310  15.725  0.2877 -0.0080  0.3994
  915MPD2     H13451   4.447   1.547  15.560 -0.4045 -1.6924 -1.5905
  915MPD2    H113452   4.661   1.417  15.906  1.3775  2.4195 -0.0549
  915MPD2    H213453   4.724   1.219  15.537 -0.7634 -0.5154  0.5713
  915MPD2    H313454   0.036   1.248  15.766 -0.6577 -1.3030  0.2846
  915MPD2     N13455   4.489   1.589  15.831 -0.1120 -0.1587 -0.4166
  915MPD2    H513456   4.513   1.574  15.929 -1.3774  0.0970 -0.0711
  915MPD2    N113457   4.569   1.357  15.390  0.1989  0.7453  0.4337
  915MPD2    H713458   4.617   1.280  15.345 -2.3083 -0.3548 -0.3845
  916MPD2     C13459   2.222   4.554  16.188  0.0187 -0.8021 -0.8415
  916MPD2    C113460   2.287   4.449  16.255  0.8590 -0.1442  0.4841
  916MPD2    C213461   2.318   4.337  16.182 -0.6182  0.0288  0.0930
  916MPD2    C313462   2.295   4.329  16.047  1.0738  0.6417 -0.0192
  916MPD2    C413463   2.230   4.439  15.984  0.4120  0.2276  0.0341
  916MPD2    C513464   2.195   4.550  16.055 -0.0881  0.4265  0.6001
  916MPD2     H13465   2.366   4.254  16.234  1.1925  0.6137 -0.6450
  916MPD2    H113466   2.212   4.437  15.878 -0.8610  1.9544  0.2275
  916MPD2    H213467   2.192   4.645  16.238  0.6945 -0.9657 -0.1388
  916MPD2    H313468   2.146   4.639  16.017  0.8123  1.9816  3.0741
  916MPD2     N13469   2.343   4.212  15.984  0.0020 -0.3112  0.3431
  916MPD2    H513470   2.402   4.147  16.035 -0.4554 -0.8734  0.1601
  916MPD2    N113471   2.320   4.472  16.389  0.1338  0.4493 -0.1048
  916MPD2    H713472   2.289   4.563  16.423  1.8111  0.7552  0.5783
  917MPD2     C13473   3.439   2.072  11.302  0.0107 -0.7056  0.4959
  917MPD2    C113474   3.304   2.094  11.290 -0.2408 -0.2323  0.1893
  917MPD2    C213475   3.259   2.141  11.164 -0.0996  0.3539  0.6017
  917MPD2    C313476   3.346   2.168  11.062 -0.4974 -0.2828  0.0336
  917MPD2    C413477   3.483   2.161  11.087  0.7115 -0.4785 -0.0519
  917MPD2    C513478   3.525   2.103  11.203 -0.3729 -0.1678  0.1732
  917MPD2     H13479   3.152   2.138  11.146 -0.1414 -0.6608  1.0056
  917MPD2    H113480   3.560   2.175  11.012  0.9854 -0.2478  0.2773
  917MPD2    H213481   3.475   2.018  11.389  3.8763  1.3312  0.1931
  917MPD2    H313482   3.632   2.085  11.205 -0.1726  0.7873 -1.8234
  917MPD2     N13483   3.299   2.207  10.934 -0.5550  0.4599  0.7816
  917MPD2    H513484   3.360   2.256  10.869 -0.9411 -0.0872  0.0092
  917MPD2    N113485   3.222   2.045  11.391  0.2737 -0.4444 -0.3242
  917MPD2    H713486   3.266   2.045  11.482  0.0644  0.1492 -0.2227
  918MPD2     C13487   3.216   2.307  12.216 -0.6681 -0.3937 -0.5183
  918MPD2    C113488   3.317   2.250  12.144  0.4111 -0.4662  0.6421
  918MPD2    C213489   3.287   2.175  12.025 -0.2399 -0.8749 -0.1831
  918MPD2    C313490   3.159   2.156  11.992  0.0969 -0.6423 -0.2486
  918MPD2    C413491   3.056   2.211  12.069  0.3944  0.2616 -0.3849
  918MPD2    C513492   3.090   2.295  12.172 -0.5652  0.1694 -0.5368
  918MPD2     H13493   3.368   2.123  11.976 -0.1358 -1.9156  1.0939
  918MPD2    H113494   2.954   2.180  12.051  0.0628  0.5736  0.9782
  918MPD2    H213495   3.229   2.371  12.303 -0.3499  1.2697 -1.7724
  918MPD2    H313496   3.021   2.342  12.241  0.4309  2.0609 -0.8234
  918MPD2     N13497   3.131   2.069  11.883 -0.1594  0.4093  0.2546
  918MPD2    H513498   3.204   2.067  11.812 -0.6835  2.0454 -0.3196
  918MPD2    N113499   3.452   2.259  12.188 -0.0344  0.0547  0.5969
  918MPD2    H713500   3.518   2.228  12.117 -1.4734  0.1012 -0.7623
  919MPD2     C13501   3.343   1.165  11.928  0.0448 -0.2020 -1.1062
  919MPD2    C113502   3.259   1.054  11.916  0.5818 -0.2147 -0.8823
  919MPD2    C213503   3.170   1.059  11.811 -0.3046  0.8884  0.9463
  919MPD2    C313504   3.151   1.164  11.726  0.1033  0.0347 -0.2486
  919MPD2    C413505   3.235   1.265  11.738 -0.5693  0.5395  0.2561
  919MPD2    C513506   3.338   1.264  11.830  0.4279 -1.0564  0.0216
  919MPD2     H13507   3.111   0.968  11.804  1.3292 -0.1443  0.5615
  919MPD2    H113508   3.238   1.348  11.668 -0.9705  0.1480 -0.2194
  919MPD2    H213509   3.408   1.181  12.013  0.2185  0.1112 -1.2980
  919MPD2    H313510   3.395   1.356  11.838 -0.4206 -0.5940  0.7370
  919MPD2     N13511   3.059   1.162  11.620  0.6410  0.4523  0.0892
  919MPD2    H513512   3.059   1.242  11.557  1.0667  0.0971 -0.3601
  919MPD2    N113513   3.258   0.941  12.000  0.0353 -0.1930  0.2552
  919MPD2    H713514   3.196   0.865  11.974 -2.4577  3.0727 -3.5409
  920MPD2     C13515   2.943   0.812  10.683 -0.2350  0.6161 -0.2731
  920MPD2    C113516   2.820   0.784  10.729 -0.1998 -1.0527  0.0137
  920MPD2    C213517   2.778   0.844  10.842 -0.7038  0.4310  0.2502
  920MPD2    C313518   2.867   0.909  10.928  0.8457 -0.0928 -0.0920
  920MPD2    C413519   2.995   0.930  10.889 -0.1385 -0.0120 -0.7185
  920MPD2    C513520   3.028   0.892  10.758 -0.4059 -0.2421 -0.3135
  920MPD2     H13521   2.676   0.837  10.879 -0.0772  0.0085  1.8947
  920MPD2    H113522   3.060   1.001  10.938  0.6851 -1.3652  0.1595
  920MPD2    H213523   2.971   0.783  10.583  0.1028 -0.8556  0.2590
  920MPD2    H313524   3.128   0.916  10.724 -2.1295  3.9722 -2.2988
  920MPD2     N13525   2.822   0.953  11.055 -0.0482  0.4327  0.1017
  920MPD2    H513526   2.722   0.953  11.074  0.1410 -2.0947  1.1163
  920MPD2    N113527   2.724   0.705  10.651 -0.4201  0.0968 -1.2307
  920MPD2    H713528   2.761   0.676  10.561  0.0532  0.6598 -1.2193
  921MPD2     C13529   4.180   0.327  16.807 -0.0099 -0.1289  1.0989
  921MPD2    C113530   4.211   0.212  16.732  0.0768 -0.5437 -0.2590
  921MPD2    C213531   4.111   0.118  16.711 -0.9348  0.2764 -0.5017
  921MPD2    C313532   3.995   0.119  16.778 -0.9740 -0.3391  0.4505
  921MPD2    C413533   3.965   0.229  16.852  0.5823 -0.1550 -0.1440
  921MPD2    C513534   4.055   0.340  16.862  0.1074  0.2222 -0.3996
  921MPD2     H13535   4.127   0.031  16.648 -0.3449 -0.2189  0.3393
  921MPD2    H113536   3.875   0.233  16.912 -0.0013  1.2243 -1.1278
  921MPD2    H213537   4.248   0.408  16.827 -1.6484  1.4141  0.4193
  921MPD2    H313538   4.026   0.425  16.922  2.0960 -0.0069  0.8916
  921MPD2     N13539   3.895   0.016  16.756  0.4789 -0.3054  0.5292
  921MPD2    H513540   3.911   4.705  16.669 -0.8957 -0.1850  0.1942
  921MPD2    N113541   4.335   0.209  16.662  0.6275 -0.4308 -0.0692
  921MPD2    H713542   4.403   0.283  16.675  2.3159 -2.2209  1.2670
  922MPD2     C13543   0.362   2.786  17.126  0.4854 -0.3221 -0.0873
  922MPD2    C113544   0.303   2.777  17.250 -0.0967  0.0511  0.1676
  922MPD2    C213545   0.252   2.655  17.287 -0.1025  0.9557  0.1087
  922MPD2    C313546   0.268   2.541  17.201 -0.2706  0.1559 -0.1849
  922MPD2    C413547   0.344   2.548  17.082 -0.1402 -0.7386 -0.2930
  922MPD2    C513548   0.377   2.676  17.048  0.1262 -0.6547 -0.2870
  922MPD2     H13549   0.202   2.636  17.382  2.8515 -1.0988  1.2370
  922MPD2    H113550   0.356   2.462  17.017  0.3672 -1.4168  0.7147
  922MPD2    H213551   0.389   2.884  17.088  0.7457 -0.4699 -0.2821
  922MPD2    H313552   0.419   2.701  16.952 -2.0082  1.7945 -0.6005
  922MPD2     N13553   0.219   2.424  17.250  0.1354  0.5343 -0.2796
  922MPD2    H513554   0.153   2.425  17.327 -0.2820  0.9929 -0.6379
  922MPD2    N113555   0.312   2.887  17.340  0.5873 -0.1070 -0.1284
  922MPD2    H713556   0.291   2.868  17.437  2.1158 -2.0754 -0.1836
  923MPD2     C13557   1.165   3.999   8.778 -0.0643  0.3339  0.6033
  923MPD2    C113558   1.132   3.974   8.904 -0.2741 -0.5060 -0.8383
  923MPD2    C213559   1.166   3.855   8.968  0.0617  0.0789 -0.8810
  923MPD2    C313560   1.240   3.762   8.898 -0.2445 -0.4714  0.4402
  923MPD2    C413561   1.286   3.795   8.774  0.5636 -0.4225 -1.0256
  923MPD2    C513562   1.241   3.908   8.706  0.5319 -0.6967  0.3696
  923MPD2     H13563   1.134   3.846   9.071 -0.8465  3.0662 -0.9181
  923MPD2    H113564   1.354   3.733   8.717 -1.3193 -3.5902  0.2075
  923MPD2    H213565   1.149   4.090   8.721 -2.2172  0.1080  0.8424
  923MPD2    H313566   1.278   3.922   8.605 -2.3885  1.4458 -0.3839
  923MPD2     N13567   1.287   3.642   8.960  0.2306  0.2202  0.2403
  923MPD2    H513568   1.357   3.585   8.914  1.2974  0.5629  1.4464
  923MPD2    N113569   1.055   4.073   8.978  0.0389 -0.2074  0.3001
  923MPD2    H713570   1.037   4.163   8.935  2.2299  0.2562  0.3299
  924MPD2     C13571   1.838   2.715  15.754 -0.3085  0.2822 -0.3427
  924MPD2    C113572   1.773   2.668  15.870  0.1656  0.1496  0.3012
  924MPD2    C213573   1.780   2.746  15.982 -0.3165  0.9638  0.0938
  924MPD2    C313574   1.848   2.868  15.989 -0.1001 -0.0577  0.3335
  924MPD2    C413575   1.880   2.924  15.867  0.1424  0.1633  0.4088
  924MPD2    C513576   1.886   2.844  15.748 -0.2189 -0.0746  0.7248
  924MPD2     H13577   1.743   2.707  16.076  0.6175  1.1187  0.5193
  924MPD2    H113578   1.909   3.027  15.854 -0.4523  0.0338 -1.9563
  924MPD2    H213579   1.822   2.668  15.658  1.2549 -2.6588  0.8421
  924MPD2    H313580   1.909   2.887  15.652 -1.0528  1.8674  1.3901
  924MPD2     N13581   1.854   2.950  16.109 -0.1580  0.5357 -1.0937
  924MPD2    H513582   1.889   3.045  16.108  1.1117  0.0735 -0.3478
  924MPD2    N113583   1.693   2.555  15.856 -0.2356 -0.1933 -0.3216
  924MPD2    H713584   1.719   2.496  15.778  0.4936 -0.4685  0.1249
  925MPD2     C13585   0.352   0.778  15.047  0.8952  0.0600 -0.3810
  925MPD2    C113586   0.236   0.738  14.985  0.0259  0.5984 -0.3034
  925MPD2    C213587   0.117   0.756  15.061  0.4789  0.7721 -0.0788
  925MPD2    C313588   0.115   0.802  15.193  0.3225  0.3974 -0.8595
  925MPD2    C413589   0.231   0.839  15.245 -0.1413  0.6564 -0.0653
  925MPD2    C513590   0.343   0.835  15.171  0.0454  0.2565  0.9105
  925MPD2     H13591   0.028   0.712  15.018  0.4782 -0.9963  1.7226
  925MPD2    H113592   0.243   0.859  15.351 -2.8006  1.7294  0.0180
  925MPD2    H213593   0.449   0.761  15.003  0.3919  0.7715 -1.7692
  925MPD2    H313594   0.437   0.865  15.216  0.6977 -1.1080  0.4579
  925MPD2     N13595   0.006   0.798  15.287 -0.1196  0.4948  0.2681
  925MPD2    H513596   0.024   0.806  15.386 -2.6859 -0.2103  0.8070
  925MPD2    N113597   0.225   0.687  14.853  0.0215 -0.2933  0.6229
  925MPD2    H713598   0.131   0.664  14.820  0.1761  1.2858 -0.9004
  926MPD2     C13599   4.135   3.727  13.707 -0.1152  0.1724 -0.4416
  926MPD2    C113600   4.019   3.792  13.675  0.7012 -0.1602 -0.5945
  926MPD2    C213601   3.995   3.855  13.557  0.1851  0.0641  0.1933
  926MPD2    C313602   4.095   3.850  13.459 -0.1785 -0.1702  0.6054
  926MPD2    C413603   4.219   3.790  13.487  0.8728  0.4802  0.1234
  926MPD2    C513604   4.236   3.728  13.612  0.1274 -0.2754  0.3362
  926MPD2     H13605   3.905   3.912  13.542  0.8205  1.1422  0.4619
  926MPD2    H113606   4.299   3.785  13.413  1.4480 -4.1757  1.0482
  926MPD2    H213607   4.170   3.703  13.806  0.7048  1.8864 -0.3190
  926MPD2    H313608   4.325   3.680  13.649 -1.4158 -2.2732  1.4195
  926MPD2     N13609   4.083   3.930  13.341  0.8130 -0.1615 -0.5678
  926MPD2    H513610   4.167   3.939  13.285 -0.2418 -1.3041 -2.2880
  926MPD2    N113611   3.911   3.805  13.768 -0.1901 -0.6807 -0.3217
  926MPD2    H713612   3.837   3.867  13.736  0.6759  0.3244 -0.3948
  927MPD2     C13613   3.468   1.305  17.690  0.6676  0.2785 -0.2914
  927MPD2    C113614   3.486   1.175  17.729  0.5952 -0.4648 -1.2624
  927MPD2    C213615   3.593   1.097  17.686  0.1415  0.8887  1.0546
  927MPD2    C313616   3.692   1.169  17.615  0.2289  0.2851 -0.3147
  927MPD2    C413617   3.684   1.305  17.591 -0.3022  0.1219  0.4413
  927MPD2    C513618   3.566   1.369  17.623 -0.7513 -1.0494  0.0846
  927MPD2     H13619   3.605   0.990  17.696  0.4859  0.8872  0.6333
  927MPD2    H113620   3.755   1.361  17.532 -0.7961  0.9631  0.6444
  927MPD2    H213621   3.390   1.372  17.722 -0.7413 -0.9466 -1.1528
  927MPD2    H313622   3.555   1.473  17.595 -0.2046 -1.2087 -0.7173
  927MPD2     N13623   3.806   1.098  17.577 -0.5825  0.7289  0.5586
  927MPD2    H513624   3.792   0.998  17.583  1.9565  0.4750  2.1674
  927MPD2    N113625   3.384   1.127   0.055  0.0039  0.3897  0.4009
  927MPD2    H713626   3.304   1.188   0.069 -0.0782  0.7081 -1.4833
  928MPD2     C13627   1.333   3.986   1.007  0.8094 -0.1192  0.6361
  928MPD2    C113628   1.429   4.083   0.971  0.7050 -0.2880  0.3396
  928MPD2    C213629   1.468   4.093   0.838  0.3247 -0.3910 -0.4747
  928MPD2    C313630   1.419   4.011   0.736 -0.1582  0.8692 -0.5477
  928MPD2    C413631   1.334   3.913   0.772 -0.2136  0.3718  0.5032
  928MPD2    C513632   1.299   3.897   0.904 -0.3135 -0.4602 -0.1190
  928MPD2     H13633   1.538   4.174   0.822 -0.5771  0.2714 -1.0674
  928MPD2    H113634   1.307   3.834   0.703 -1.1129  0.4581  0.7482
  928MPD2    H213635   1.300   3.973   1.109  0.3917 -1.8623  0.2716
  928MPD2    H313636   1.231   3.819   0.935 -2.0953  0.5062 -1.5301
  928MPD2     N13637   1.448   4.026   0.600  0.0660 -0.5577 -0.4525
  928MPD2    H513638   1.397   3.973   0.530  2.5783 -0.8188 -2.0885
  928MPD2    N113639   1.489   4.175   1.057  0.0150 -0.1420  0.9633
  928MPD2    H713640   1.579   4.220   1.041 -0.1665  0.3422  1.2894
  929MPD2     C13641   1.959   3.686  10.803  0.1265 -0.3480 -0.2062
  929MPD2    C113642   1.859   3.590  10.815 -0.0104  0.1844  0.0599
  929MPD2    C213643   1.773   3.577  10.704  1.0227 -0.0170 -0.2611
  929MPD2    C313644   1.778   3.668  10.597  0.4031 -1.1864  0.8437
  929MPD2    C413645   1.876   3.764  10.595  0.4056 -0.3332 -0.6066
  929MPD2    C513646   1.971   3.766  10.695 -0.6058 -0.0446  0.8033
  929MPD2     H13647   1.695   3.503  10.715 -0.2075  1.8680  3.6154
  929MPD2    H113648   1.890   3.838  10.516  3.3020 -0.5652 -0.3222
  929MPD2    H213649   2.027   3.698  10.886  1.1165 -2.2041 -0.7322
  929MPD2    H313650   2.051   3.839  10.695 -0.7946  0.1588  0.9542
  929MPD2     N13651   1.679   3.664  10.503  0.8366 -0.5973  0.3540
  929MPD2    H513652   1.693   3.727  10.424 -0.1855  0.6467  1.1532
  929MPD2    N113653   1.844   3.521  10.933  0.1378 -0.4979  0.4114
  929MPD2    H713654   1.908   3.554  11.005  0.7045  1.5857 -1.0426
  930MPD2     C13655   3.163   1.995  14.163 -0.5468  0.2387 -0.6752
  930MPD2    C113656   3.289   2.009  14.110 -0.2804 -0.1391 -0.1747
  930MPD2    C213657   3.337   1.926  14.007 -0.2218 -0.1120  0.0531
  930MPD2    C313658   3.248   1.841  13.946 -0.5491 -0.0589 -0.1894
  930MPD2    C413659   3.122   1.827  13.989 -0.2655 -0.0248 -0.3228
  930MPD2    C513660   3.077   1.908  14.096  0.3372  0.5895  0.2420
  930MPD2     H13661   3.433   1.950  13.962 -0.1062 -1.2236 -0.2889
  930MPD2    H113662   3.051   1.762  13.941 -0.1410 -2.3336  2.6336
  930MPD2    H213663   3.123   2.068  14.232 -2.2129 -0.4979 -0.8660
  930MPD2    H313664   2.971   1.917  14.116  0.1507 -1.9564  0.3602
  930MPD2     N13665   3.281   1.789  13.819 -0.0741 -0.2856 -0.4656
  930MPD2    H513666   3.208   1.747  13.763  1.1612 -0.9580 -1.5511
  930MPD2    N113667   3.380   2.105  14.164  0.0436 -0.3673 -0.5064
  930MPD2    H713668   3.344   2.176  14.228  1.5902  1.1638 -1.3434
  931MPD2     C13669   2.960   1.025   0.836 -0.2947 -0.4132 -0.0406
  931MPD2    C113670   3.092   0.999   0.798  0.0360 -0.0437 -0.0790
  931MPD2    C213671   3.166   0.912   0.878  0.6674  0.5957 -0.3394
  931MPD2    C313672   3.102   0.844   0.981  0.3584 -0.9021 -1.0144
  931MPD2    C413673   2.971   0.865   1.019  0.2563 -0.2544  0.1076
  931MPD2    C513674   2.907   0.957   0.946  0.1777 -0.0742 -0.0042
  931MPD2     H13675   3.264   0.876   0.849  0.2063 -0.7557 -0.1913
  931MPD2    H113676   2.932   0.821   1.110 -1.0063  2.1379  0.7483
  931MPD2    H213677   2.897   1.085   0.772  2.4920  1.7559 -0.7410
  931MPD2    H313678   2.810   0.985   0.985 -0.1786  0.2218 -1.0943
  931MPD2     N13679   3.180   0.759   1.067  0.0237  0.3889 -0.3102
  931MPD2    H513680   3.128   0.722   1.146  0.7655  0.6635  0.3006
  931MPD2    N113681   3.129   1.049   0.669 -0.2800  0.2269  0.9392
  931MPD2    H713682   3.060   1.108   0.623 -0.4849 -1.1539 -0.5344
  932MPD2     C13683   0.621   4.425  11.631  0.2923  0.1122  0.3817
  932MPD2    C113684   0.695   4.515  11.554 -0.5018  0.1347 -0.4718
  932MPD2    C213685   0.818   4.473  11.505  0.1195  0.1054 -0.6347
  932MPD2    C313686   0.870   4.350  11.542  0.3224 -0.1473 -0.3404
  932MPD2    C413687   0.792   4.266  11.614 -0.7743 -0.1124 -0.6060
  932MPD2    C513688   0.665   4.295  11.653 -0.3723 -0.2768  0.2160
  932MPD2     H13689   0.887   4.542  11.458 -0.5605  0.9184 -0.4228
  932MPD2    H113690   0.833   4.171  11.646 -0.0848  0.1113 -0.8445
  932MPD2    H213691   0.519   4.442  11.665 -0.2111 -0.7973 -0.6748
  932MPD2    H313692   0.619   4.232  11.728  1.2940 -0.1952  1.3206
  932MPD2     N13693   1.004   4.319  11.519 -0.6635 -0.0241  0.3327
  932MPD2    H513694   1.031   4.228  11.556  1.7918  1.8919  3.1607
  932MPD2    N113695   0.652   4.648  11.534  0.6482  0.3761  0.2982
  932MPD2    H713696   0.714   4.708  11.480  0.8586 -0.7809 -0.7410
  933MPD2     C13697   1.332   0.150   1.646  0.1847  0.0806 -0.0036
  933MPD2    C113698   1.309   0.095   1.525 -0.5497 -0.2327  0.5077
  933MPD2    C213699   1.218   0.159   1.446 -0.7529 -0.5188 -0.0402
  933MPD2    C313700   1.143   0.268   1.483  0.0138 -0.1091 -0.8751
  933MPD2    C413701   1.167   0.326   1.608  0.5186  0.4666  0.5316
  933MPD2    C513702   1.262   0.259   1.685 -0.1798 -0.7540  0.0685
  933MPD2     H13703   1.197   0.116   1.349 -0.1116 -2.5494  0.6954
  933MPD2    H113704   1.106   0.406   1.651  0.8811  0.0217  1.8857
  933MPD2    H213705   1.398   0.115   1.724  2.8178  0.9641 -1.8653
  933MPD2    H313706   1.271   0.289   1.789 -0.8403 -0.2753 -0.0132
  933MPD2     N13707   1.044   0.307   1.398  0.4371  0.3347  0.1702
  933MPD2    H513708   1.019   0.255   1.314  1.2706  0.8454 -0.3936
  933MPD2    N113709   1.389   4.720   1.483  0.2218 -0.1229 -0.4250
  933MPD2    H713710   1.470   4.695   1.539 -0.8986  0.3165  1.3984
  934MPD2     C13711   3.024   1.889   1.627 -0.3084  1.0804  0.0621
  934MPD2    C113712   3.020   1.813   1.509  0.2350  0.3543 -0.8032
  934MPD2    C213713   2.912   1.750   1.459  0.3841  0.1149  0.0001
  934MPD2    C313714   2.792   1.776   1.524  0.1949 -0.9221 -0.5208
  934MPD2    C413715   2.788   1.849   1.644 -0.2551 -0.6420  0.5669
  934MPD2    C513716   2.905   1.904   1.692 -0.5141  0.6459  0.3679
  934MPD2     H13717   2.920   1.708   1.359 -2.4221 -4.6325  1.7905
  934MPD2    H113718   2.703   1.857   1.710  0.3090  1.0355  1.0714
  934MPD2    H213719   3.111   1.943   1.665  0.8741 -0.7376 -0.0637
  934MPD2    H313720   2.909   1.959   1.785  1.7619 -0.6359  1.0169
  934MPD2     N13721   2.671   1.725   1.473  0.8679  0.7310 -0.1407
  934MPD2    H513722   2.588   1.754   1.524  1.3030  0.3533  0.7691
  934MPD2    N113723   3.136   1.797   1.426  0.5137  0.2239  0.2604
  934MPD2    H713724   3.118   1.754   1.335  0.4581  3.8270 -1.4174
  935MPD2     C13725   2.621   0.772   1.237  0.5334  0.3247 -0.0854
  935MPD2    C113726   2.590   0.844   1.128 -0.4777  0.6018 -1.0515
  935MPD2    C213727   2.539   0.976   1.141 -0.3221  0.4751 -0.4744
  935MPD2    C313728   2.539   1.039   1.264  0.3291 -0.2121 -0.5158
  935MPD2    C413729   2.583   0.973   1.374  0.7037  0.7604  0.0860
  935MPD2    C513730   2.616   0.835   1.365 -0.0387  0.2236 -0.6795
  935MPD2     H13731   2.499   1.023   1.052  0.6881  0.8157 -0.7572
  935MPD2    H113732   2.596   1.031   1.464  0.5522  0.6895  0.1545
  935MPD2    H213733   2.676   0.679   1.226 -0.4708 -0.1419 -1.1491
  935MPD2    H313734   2.650   0.783   1.454  0.3979  2.3287  0.3827
  935MPD2     N13735   2.501   1.176   1.288 -0.1525  1.0242  0.5375
  935MPD2    H513736   2.516   1.217   1.379 -0.7367  2.4812 -0.0237
  935MPD2    N113737   2.605   0.793   0.998 -0.6149  0.3472  0.8995
  935MPD2    H713738   2.586   0.846   0.913  2.3817  0.8141  0.4950
  936MPD2     C13739   1.424   4.175  12.994 -0.6183  0.1855  0.4362
  936MPD2    C113740   1.430   4.144  12.859 -0.5430  0.0452  0.0877
  936MPD2    C213741   1.535   4.186  12.787 -0.0821  0.7278 -1.3162
  936MPD2    C313742   1.644   4.256  12.832 -0.1024  0.8235  0.2765
  936MPD2    C413743   1.638   4.286  12.964  1.0354 -0.3898 -0.1547
  936MPD2    C513744   1.533   4.246  13.044 -0.1364 -0.5413  0.3012
  936MPD2     H13745   1.536   4.162  12.682 -0.3023 -0.4323 -1.0568
  936MPD2    H113746   1.720   4.321  13.025  1.4666  0.3708 -1.1747
  936MPD2    H213747   1.342   4.146  13.058 -0.9636  0.4401  0.1056
  936MPD2    H313748   1.534   4.260  13.151 -1.9692  1.5448  0.0414
  936MPD2     N13749   1.751   4.289  12.746  0.4917  0.4524 -0.5221
  936MPD2    H513750   1.742   4.264  12.648  0.7369 -1.0926 -0.1532
  936MPD2    N113751   1.342   4.061  12.786 -0.6540  0.4628 -0.4324
  936MPD2    H713752   1.356   4.053  12.686 -0.2472  0.9903 -0.4193
  937MPD2     C13753   3.271   0.191  11.878  0.1846 -0.5418 -0.2553
  937MPD2    C113754   3.363   0.298  11.868 -0.8253  0.2894 -0.6217
  937MPD2    C213755   3.463   0.280  11.777 -0.2123 -0.1323 -0.3118
  937MPD2    C313756   3.467   0.174  11.688  0.1058  0.9199 -0.0632
  937MPD2    C413757   3.371   0.076  11.690  0.0135 -0.8685  0.7259
  937MPD2    C513758   3.280   0.080  11.793 -0.1532  0.3679 -0.0141
  937MPD2     H13759   3.529   0.365  11.762 -0.1207 -0.2693 -0.6791
  937MPD2    H113760   3.364   4.734  11.619  2.7853 -0.5011  0.0417
  937MPD2    H213761   3.197   0.187  11.957  2.7441  0.5772  2.2249
  937MPD2    H313762   3.206   0.002  11.804 -0.9006  1.1077  0.2279
  937MPD2     N13763   3.571   0.174  11.593 -0.1825 -0.3700  0.8260
  937MPD2    H513764   3.642   0.245  11.610 -0.0487  0.0757 -1.5651
  937MPD2    N113765   3.372   0.411  11.952 -0.4041  0.2871  0.4488
  937MPD2    H713766   3.439   0.484  11.932 -2.5407  2.0160 -0.3661
  938MPD2     C13767   1.481   1.815   0.249 -0.3224  0.0153 -0.6604
  938MPD2    C113768   1.548   1.838   0.369 -0.2104 -0.3517 -0.1844
  938MPD2    C213769   1.587   1.728   0.441  0.2663  0.0851 -0.2116
  938MPD2    C313770   1.564   1.603   0.398 -1.0990  1.0375  0.0963
  938MPD2    C413771   1.501   1.579   0.280  0.0006 -0.1932 -0.4262
  938MPD2    C513772   1.454   1.682   0.209 -0.5335  0.8798 -0.0180
  938MPD2     H13773   1.632   1.747   0.538  0.2368  0.8501 -0.3496
  938MPD2    H113774   1.485   1.477   0.248  1.1610  0.0139 -1.6551
  938MPD2    H213775   1.469   1.898   0.180 -1.5960  0.6643  0.3515
  938MPD2    H313776   1.403   1.672   0.113 -0.9676 -2.3692  0.5615
  938MPD2     N13777   1.593   1.493   0.483 -0.2308 -0.0131  0.1915
  938MPD2    H513778   1.545   1.408   0.456  1.7006 -0.5383 -1.5861
  938MPD2    N113779   1.589   1.966   0.419 -0.1300  0.3310 -0.6113
  938MPD2    H713780   1.647   1.963   0.503 -0.4573 -0.0203 -0.3952
  939MPD2     C13781   2.833   2.564   0.503  0.2038  0.6317 -0.0545
  939MPD2    C113782   2.799   2.451   0.575 -0.0388  0.3005  0.2263
  939MPD2    C213783   2.783   2.338   0.498  0.4325 -0.3260  0.4748
  939MPD2    C313784   2.828   2.333   0.365 -0.4114  0.0219  0.4688
  939MPD2    C413785   2.866   2.448   0.292  0.3892 -0.1986  0.4571
  939MPD2    C513786   2.860   2.563   0.366  0.4334 -0.2322  0.1336
  939MPD2     H13787   2.757   2.250   0.554 -1.9250 -0.1398 -0.3130
  939MPD2    H113788   2.882   2.454   0.185  0.4941  0.1040  0.4892
  939MPD2    H213789   2.852   2.656   0.558  3.0177 -0.3407  0.5961
  939MPD2    H313790   2.907   2.652   0.325 -1.4335  1.6869  2.1719
  939MPD2     N13791   2.821   2.201   0.308  0.3669  0.1006 -0.1292
  939MPD2    H513792   2.788   2.128   0.371  1.5992  0.3385  0.7866
  939MPD2    N113793   2.775   2.464   0.715  0.3677  0.1370 -0.1397
  939MPD2    H713794   2.771   2.558   0.753  2.7525  0.4818 -0.7525
  940MPD2     C13795   1.871   4.069  13.100 -0.4452 -0.1169 -0.3486
  940MPD2    C113796   1.838   3.944  13.064 -0.1733 -0.3133 -0.0661
  940MPD2    C213797   1.934   3.873  12.988 -0.0220 -0.3158  0.5465
  940MPD2    C313798   2.061   3.933  12.971  0.1149 -0.5094 -0.1619
  940MPD2    C413799   2.095   4.058  13.014 -0.3636  0.2430  0.8603
  940MPD2    C513800   1.993   4.121  13.073 -0.3376 -0.5730  0.0430
  940MPD2     H13801   1.906   3.776  12.950 -0.4910  0.2000 -0.4339
  940MPD2    H113802   2.194   4.101  13.001 -0.4969 -0.5125 -2.4905
  940MPD2    H213803   1.806   4.131  13.161  2.1657  2.1650  0.0852
  940MPD2    H313804   2.018   4.217  13.114 -1.6041 -0.0733 -0.3582
  940MPD2     N13805   2.171   3.866  12.918  0.1491 -0.0723  0.2183
  940MPD2    H513806   2.257   3.915  12.896  0.2565  1.0260  3.0704
  940MPD2    N113807   1.712   3.884  13.081  0.5434  0.0997 -0.3532
  940MPD2    H713808   1.695   3.794  13.036 -0.3776  0.6733 -1.1518
  941MPD2     C13809   0.462   2.048  11.002  0.2804 -0.0974 -0.1922
  941MPD2    C113810   0.571   1.968  10.970 -0.1423 -0.7267 -0.6701
  941MPD2    C213811   0.563   1.832  10.993 -0.4190  0.5278  0.6862
  941MPD2    C313812   0.453   1.772  11.046 -0.7799  0.3115 -0.1645
  941MPD2    C413813   0.346   1.855  11.082 -0.2643  0.0809  0.1237
  941MPD2    C513814   0.356   1.989  11.062  0.1696 -0.4310 -0.1316
  941MPD2     H13815   0.647   1.769  10.969  0.7207  2.4290 -0.3255
  941MPD2    H113816   0.253   1.824  11.127  1.1703 -0.9458  2.4145
  941MPD2    H213817   0.460   2.154  10.978 -1.3439 -0.1469 -0.2998
  941MPD2    H313818   0.268   2.044  11.092  0.6561  0.0981  0.3116
  941MPD2     N13819   0.440   1.629  11.055 -0.0356 -0.4013  0.0245
  941MPD2    H513820   0.351   1.598  11.093 -1.8321  3.1110 -1.3250
  941MPD2    N113821   0.686   2.017  10.911  0.0360 -0.1093  0.7641
  941MPD2    H713822   0.755   1.943  10.903 -0.6611 -0.6730 -0.0250
  942MPD2     C13823   0.152   2.947   9.645 -1.0776  0.3112 -0.7124
  942MPD2    C113824   0.129   3.085   9.644  0.3339 -0.4391  0.5242
  942MPD2    C213825   0.195   3.170   9.556 -0.7350 -0.1160  0.1764
  942MPD2    C313826   0.299   3.116   9.480 -0.5231  0.6298  0.1236
  942MPD2    C413827   0.324   2.985   9.483 -0.0528 -1.1587 -0.0811
  942MPD2    C513828   0.250   2.897   9.559  0.3326  0.0321 -0.1587
  942MPD2     H13829   0.171   3.275   9.553 -1.2117 -0.2364 -0.1474
  942MPD2    H113830   0.402   2.943   9.421  0.0530 -0.7314 -0.2359
  942MPD2    H213831   0.110   2.873   9.713  0.8640 -1.9375 -1.9469
  942MPD2    H313832   0.269   2.793   9.539 -1.1983 -0.4795  1.0406
  942MPD2     N13833   0.372   3.188   9.379  0.5536 -0.1059  0.1057
  942MPD2    H513834   0.451   3.133   9.346  0.1451 -1.5385  1.4596
  942MPD2    N113835   0.026   3.138   9.717  0.0986 -0.1424 -0.4283
  942MPD2    H713836   0.038   3.238   9.731  0.7461 -0.4117  0.9380
  943MPD2     C13837   4.425   2.324   9.751 -0.0516  1.1760  0.8113
  943MPD2    C113838   4.382   2.250   9.855 -0.7227  0.3638 -0.1319
  943MPD2    C213839   4.453   2.251   9.971 -0.1118 -0.2222 -0.6919
  943MPD2    C313840   4.578   2.312   9.976 -0.0438  0.3604  0.5119
  943MPD2    C413841   4.626   2.372   9.870 -0.0195  0.3470  0.3368
  943MPD2    C513842   4.545   2.395   9.759  0.1134  0.1711 -0.3164
  943MPD2     H13843   4.429   2.185  10.054  2.1165  1.5457  1.3425
  943MPD2    H113844   4.721   2.423   9.879  0.4595 -0.6948  1.0635
  943MPD2    H213845   4.368   2.339   9.660  2.7043 -0.0343 -1.1208
  943MPD2    H313846   4.573   2.467   9.684  0.0040  0.1678 -0.3609
  943MPD2     N13847   4.658   2.295  10.092 -0.8400  0.2157  0.0315
  943MPD2    H513848   0.014   2.329  10.088 -0.5349 -0.7031 -0.3750
  943MPD2    N113849   4.257   2.181   9.837 -0.8302  0.0729  1.1531
  943MPD2    H713850   4.217   2.195   9.745 -1.7058 -1.8850  1.2322
  944MPD2     C13851   4.489   0.830  12.098  0.6002  0.0720 -0.0895
  944MPD2    C113852   4.481   0.880  11.971 -0.4071 -0.3142 -0.2650
  944MPD2    C213853   4.501   1.023  11.956 -0.0292 -0.3132 -0.4554
  944MPD2    C313854   4.509   1.103  12.068  0.3660 -0.1679  0.2994
  944MPD2    C413855   4.526   1.047  12.196  0.5318  0.0125  0.0676
  944MPD2    C513856   4.509   0.911  12.207  0.4140  0.4345  0.3232
  944MPD2     H13857   4.497   1.079  11.864 -1.6510  2.3553  1.2202
  944MPD2    H113858   4.543   1.103  12.287 -0.5957  0.6773 -0.1311
  944MPD2    H213859   4.465   0.727  12.122 -2.7629  1.0847  0.8648
  944MPD2    H313860   4.521   0.869  12.306  2.8929 -0.5486 -0.3916
  944MPD2     N13861   4.506   1.242  12.052  0.3585 -0.1141  0.3565
  944MPD2    H513862   4.514   1.285  11.960 -3.8846 -0.8407 -0.3734
  944MPD2    N113863   4.448   0.795  11.859 -0.2285  0.0811 -0.0192
  944MPD2    H713864   4.433   0.695  11.874 -0.1214  0.5970  3.5962
    1TMC1    C113865   2.465   2.348  14.450 -0.2366  0.1719 -0.5125
    1TMC1    C213866   2.332   2.333  14.417 -0.4492  0.3923  0.2497
    1TMC1    C313867   2.274   2.208  14.424  0.1966  0.1109 -0.2089
    1TMC1    C413868   2.541   2.242  14.479  0.3411 -0.0085  0.7985
    1TMC1    C513869   2.483   2.122  14.482 -0.5070 -0.2900  0.1114
    1TMC1    C613870   2.349   2.101  14.460  0.4070  0.2801  0.0465
    1TMC1     C13871   2.509   2.474  14.511  0.1690  0.2206  0.4539
    1TMC1     O13872   2.621   2.481  14.565 -0.0587 -0.5324 -0.2647
    1TMC1     H13873   2.268   2.418  14.400 -0.1020  0.1367 -2.3245
    1TMC1    H113874   2.642   2.258  14.516  0.5406  0.2302  0.1442
    1TMC1    H213875   2.305   2.002  14.463  3.2276 -1.0056 -1.7486
    1TMC1    C713876   2.571   2.009  14.511 -0.7004 -0.3829  0.1643
    1TMC1    C813877   2.131   2.207  14.451  0.2113  0.6972 -0.4093
    1TMC1    O113878   2.529   1.900  14.546 -0.4305  0.1953 -0.5055
    1TMC1    O213879   2.058   2.297  14.410 -0.6719  0.1338 -0.0212
    1TMC1    O313880   2.691   2.022  14.447 -0.4186  1.1407 -0.1940
    1TMC1    H313881   2.708   2.100  14.389  1.5015  0.3949 -0.6609
    1TMC1    O513882   2.098   2.101  14.528 -0.2892 -0.3129 -0.1261
    1TMC1    H513883   2.175   2.054  14.566  0.7472  0.4124 -1.3399
    2MPD2     C13884   2.452   2.974  14.628 -0.2533  0.2085 -0.4409
    2MPD2    C113885   2.346   2.932  14.544 -0.2928 -0.8590  1.2488
    2MPD2    C213886   2.334   2.802  14.497 -0.1671 -0.1489 -0.0643
    2MPD2    C313887   2.430   2.706  14.539 -0.2050 -0.5186 -0.4086
    2MPD2    C413888   2.538   2.745  14.622  0.7688  0.0607  0.2047
    2MPD2    C513889   2.540   2.877  14.669 -0.1679  0.4111  0.1440
    2MPD2     H13890   2.257   2.764  14.431 -2.4414  0.1104  2.4205
    2MPD2    H113891   2.625   2.683  14.637  1.5867  1.2873  0.5174
    2MPD2    H213892   2.475   3.075  14.661 -2.2407  0.5448 -0.0813
    2MPD2    H313893   2.628   2.909  14.722 -0.5006 -2.5404  2.4840
    2MPD2     N13894   2.426   2.578  14.483 -0.2024  1.1571 -0.4860
    2MPD2    H513895   2.345   2.556  14.425 -0.6235  0.3592  0.4036
    2MPD2    N113896   2.243   3.026  14.513  0.0779 -0.5610  0.5846
    2MPD2    H713897   2.275   3.121  14.531 -1.3946  0.3830 -1.8063
    3TMC2    C113898   2.082   3.132  14.368 -0.1212 -0.4392 -0.7994
    3TMC2    C213899   2.021   3.122  14.246  0.4317  0.6143 -0.3438
    3TMC2    C313900   2.010   3.225  14.162 -0.7820  0.0262 -0.5190
    3TMC2    C413901   2.130   3.256  14.414 -0.1664  0.0134 -0.2887
    3TMC2    C513902   2.113   3.363  14.329  1.0807  0.3166 -0.0889
    3TMC2    C613903   2.058   3.348  14.201  0.4691  0.4949  0.5515
    3TMC2     C13904   2.137   3.009  14.427  0.7944  0.8341 -0.2265
    3TMC2     O13905   2.077   2.908  14.393 -0.2093  0.2965  0.1196
    3TMC2     H13906   1.999   3.019  14.220  1.3704  0.1317  0.7248
    3TMC2    H113907   2.178   3.260  14.511  1.5906 -2.1392 -1.0813
    3TMC2    H213908   2.046   3.426  14.127  3.1585 -0.3338 -0.7241
    3TMC2    C713909   2.147   3.493  14.372 -0.2487 -0.5444  0.4704
    3TMC2    C813910   1.963   3.188  14.024 -0.7670  0.0325  0.3436
    3TMC2    O113911   2.245   3.507  14.441 -0.7713 -0.4313  0.0531
    3TMC2    O213912   1.922   3.074  14.015 -0.4071  0.3897  0.7558
    3TMC2    O513913   2.053   3.244  13.940  0.4027 -0.0081 -0.2152
    3TMC2    H513914   2.110   3.305  13.990  2.1273 -1.2004 -0.7396
    4TMC2    C113915   1.584   4.178  13.898  0.1610 -0.1469 -1.1198
    4TMC2    C213916   1.650   4.292  13.852 -0.8562  0.2476 -1.1077
    4TMC2    C313917   1.776   4.311  13.903  0.5572 -0.1113  0.2832
    4TMC2    C413918   1.644   4.090  13.988 -0.3567 -0.4976 -0.2381
    4TMC2    C513919   1.772   4.119  14.025 -0.7621 -0.3476  0.4335
    4TMC2    C613920   1.845   4.224  13.984  0.2528 -0.3075  0.8259
    4TMC2     C13921   1.446   4.166  13.870 -0.1592 -0.1172 -0.1958
    4TMC2     O13922   1.378   4.089  13.937  0.4233  0.0728  0.5717
    4TMC2     H13923   1.594   4.369  13.801 -0.3218  0.0902 -1.9309
    4TMC2    H113924   1.591   3.998  14.010 -0.6962 -0.3723 -0.5204
    4TMC2    H213925   1.947   4.249  14.011  1.1360 -2.5809 -0.4063
    4TMC2    C713926   1.838   4.000  14.096 -0.5874  0.0181 -0.2985
    4TMC2    C813927   1.857   4.422  13.852 -0.0570 -0.1183 -0.0189
    4TMC2    O113928   1.783   3.892  14.101 -0.4772 -0.4020 -0.4367
    4TMC2    O213929   1.959   4.462  13.904 -0.1191 -0.4021 -0.1979
    4TMC2    O513930   1.817   4.457  13.721  0.4044 -0.1120  0.5707
    4TMC2    H513931   1.736   4.412  13.691  1.2441 -1.1974 -0.0816
    5MPD2     C13932   1.058   4.180  13.537  1.2965  0.1755 -0.2788
    5MPD2    C113933   1.167   4.245  13.481 -0.1883  0.1099 -0.0575
    5MPD2    C213934   1.272   4.261  13.562  0.7753  0.1276  0.5590
    5MPD2    C313935   1.286   4.210  13.690 -0.2475 -0.1643 -0.1517
    5MPD2    C413936   1.176   4.145  13.741 -0.1294  1.0666 -0.5381
    5MPD2    C513937   1.065   4.134  13.666 -0.3619 -0.2616 -0.0212
    5MPD2     H13938   1.370   4.287  13.522  1.1773  0.8402  2.0040
    5MPD2    H113939   1.182   4.098  13.839 -3.0551 -0.8743 -1.3125
    5MPD2    H213940   0.967   4.166  13.479  0.5587  2.2784  0.3682
    5MPD2    H313941   0.989   4.066  13.703  0.1340 -0.4522  0.6429
    5MPD2     N13942   1.412   4.228  13.749 -0.2373 -0.2789  0.6177
    5MPD2    H513943   1.476   4.277  13.687 -1.5998  0.5846 -0.1249
    5MPD2    N113944   1.164   4.300  13.359  0.5855  0.2346 -1.1385
    5MPD2    H713945   1.076   4.297  13.308 -0.4869 -1.1231  0.8244
    6MPD1     C13946   0.613   1.466  13.351  0.3352 -0.2214 -0.2736
    6MPD1    C113947   0.748   1.437  13.366 -0.3087 -0.3410  0.4545
    6MPD1    C213948   0.788   1.308  13.362  0.2906 -0.2725 -0.2355
    6MPD1    C313949   0.704   1.205  13.323 -0.0868  0.1652  0.2792
    6MPD1    C413950   0.577   1.238  13.304  0.0110  0.2812 -0.0049
    6MPD1    C513951   0.536   1.363  13.316 -0.0674  0.2310  0.1573
    6MPD1     H13952   0.894   1.290  13.374  0.0008 -2.2994 -0.6910
    6MPD1    H113953   0.504   1.166  13.270  0.5074  0.1524 -0.8013
    6MPD1    H213954   0.569   1.565  13.348  1.1549  0.0706 -2.3059
    6MPD1    H313955   0.430   1.383  13.307 -0.1412 -0.2758 -0.1066
    6MPD1     N13956   0.744   1.069  13.308  0.2005 -0.4157  0.1579
    6MPD1    H513957   0.667   1.004  13.296  0.1812 -0.5241  0.8179
    6MPD1    N113958   0.836   1.532  13.419 -0.3797 -0.1434  0.1650
    6MPD1    H613959   0.793   1.620  13.391 -1.5479  0.2281  3.1283
    6MPD1    H713960   0.929   1.533  13.377  1.3208 -0.0519  3.9858
    7MPD2     C13961   0.595   0.279  13.240 -0.5614  0.3034  0.6444
    7MPD2    C113962   0.732   0.295  13.252 -0.2115 -0.3981 -0.2381
    7MPD2    C213963   0.813   0.185  13.242  0.0972 -0.8742 -0.8973
    7MPD2    C313964   0.757   0.064  13.201  0.5297 -0.0756  0.3292
    7MPD2    C413965   0.617   0.046  13.196  0.3175 -0.0260 -0.2791
    7MPD2    C513966   0.544   0.154  13.215 -0.1816  0.2242 -0.6040
    7MPD2     H13967   0.919   0.194  13.264 -0.6229  3.1090  0.8803
    7MPD2    H113968   0.564   4.698  13.160  2.0143 -0.5943 -1.3935
    7MPD2    H213969   0.525   0.362  13.246  0.7211  1.2231  2.8720
    7MPD2    H313970   0.438   0.152  13.195 -0.6171  0.9641  1.6638
    7MPD2     N13971   0.843   4.692  13.175 -0.7666  0.2914  0.1929
    7MPD2    H513972   0.794   4.606  13.149  0.3400 -0.2330 -0.1437
    7MPD2    N113973   0.794   0.419  13.275 -0.4120 -0.0782  0.2117
    7MPD2    H713974   0.895   0.419  13.276 -0.4209 -0.0161  0.9830
    8TMC3    C113975   1.021   4.578  13.100 -0.3198  0.2965 -0.4056
    8TMC3    C213976   1.070   4.493  13.193 -0.1059  0.3287 -0.5356
    8TMC3    C313977   1.201   4.444  13.183  0.0431 -1.2923 -0.1248
    8TMC3    C413978   1.104   4.620  13.001  0.0066 -0.4878 -0.2543
    8TMC3    C513979   1.237   4.590  13.003 -0.5423 -0.4015  0.3236
    8TMC3    C613980   1.289   4.500  13.095  0.4004  0.5737  0.3230
    8TMC3     C13981   0.980   4.690  13.173 -0.0531 -0.4195 -0.3986
    8TMC3     O13982   1.057   0.042  13.191 -0.5604 -0.2451 -0.3735
    8TMC3     H13983   1.007   4.455  13.272  0.1298  2.3530  0.6023
    8TMC3    H113984   1.072   4.689  12.923 -2.0502 -0.8961  0.2223
    8TMC3    H213985   1.398   4.498  13.096  0.3096 -2.2592  4.3655
    8TMC3    C713986   1.320   4.704  12.965 -0.0287 -0.4776 -0.0549
    8TMC3    C813987   1.260   4.359  13.284  0.9868 -0.4191 -0.2577
    8TMC3    O113988   1.425   4.685  12.912  0.6136 -0.5091  0.2235
    8TMC3    O213989   1.375   4.389  13.319  0.0499  0.4548  0.2407
    9TMC3    C113990   0.906   0.877  13.267 -0.2694  0.1242  0.2265
    9TMC3    C213991   1.034   0.837  13.221  0.2049  0.2647  0.8003
    9TMC3    C313992   1.058   0.708  13.185  0.6180 -0.2065  0.3647
    9TMC3    C413993   0.802   0.784  13.279  0.9019  0.3520  0.4016
    9TMC3    C513994   0.841   0.655  13.268  0.5647 -0.7479  0.3347
    9TMC3    C613995   0.960   0.612  13.208  0.5641  0.1750  0.1170
    9TMC3     C13996   0.874   1.023  13.284  0.0950  1.1112 -0.4621
    9TMC3     O13997   0.964   1.096  13.237 -0.2955 -0.0070  0.1263
    9TMC3     H13998   1.105   0.918  13.204 -0.0639  0.6098  1.3339
    9TMC3    H113999   0.714   0.816  13.334  1.7839 -0.8361  2.5061
    9TMC3    H214000   0.958   0.519  13.152  0.2392  1.9875 -2.8600
    9TMC3    C714001   0.738   0.547  13.266  0.1719 -0.1475 -0.3665
    9TMC3    C814002   1.190   0.665  13.136  0.3151  0.5052  0.0948
    9TMC3    O114003   0.620   0.583  13.250  0.4662 -0.1362  0.1884
    9TMC3    O214004   1.252   0.751  13.074  0.3240  0.6458  0.4620
   10MPD2     C14005   1.434   0.250  12.946 -0.0046 -0.3384  1.4178
   10MPD2    C114006   1.324   0.212  13.019 -0.4511 -0.0013  0.1438
   10MPD2    C214007   1.258   0.308  13.095  0.3455 -1.0756 -1.0594
   10MPD2    C314008   1.286   0.445  13.082 -0.3649 -0.6847 -0.6110
   10MPD2    C414009   1.402   0.488  13.007  0.0187 -0.3183  0.7143
   10MPD2    C514010   1.463   0.387  12.937  0.5165 -0.2815 -0.5311
   10MPD2     H14011   1.168   0.282  13.150  1.0340  0.5906  0.8519
   10MPD2    H114012   1.431   0.591  12.991 -1.9515  0.5718  2.9901
   10MPD2    H214013   1.494   0.183  12.886  0.4960  2.3539 -1.0934
   10MPD2    H314014   1.537   0.410  12.861  0.6003  2.5936  0.4404
   10MPD2     N14015   1.196   0.535  13.143  0.4634  0.3594 -0.2233
   10MPD2    H514016   1.120   0.496  13.198  1.3398 -0.3796  0.4577
   10MPD2    N114017   1.274   0.075  13.027 -0.0978  0.4874 -0.6259
   10MPD2    H714018   1.197   0.072  13.093  1.1953  3.4245  1.0262
   11MPD2     C14019   2.182   3.784  14.401 -0.2745  0.2341  0.5048
   11MPD2    C114020   2.087   3.723  14.319 -0.1656 -0.1836  0.4075
   11MPD2    C214021   2.015   3.809  14.247  0.4153  0.0684  0.0979
   11MPD2    C314022   2.032   3.949  14.248 -0.3293  0.3991  0.2988
   11MPD2    C414023   2.133   4.008  14.324 -1.0721 -0.3436 -0.7473
   11MPD2    C514024   2.206   3.921  14.403 -0.4655 -0.7080 -0.4481
   11MPD2     H14025   1.947   3.763  14.175  0.7904 -1.5822  0.7988
   11MPD2    H114026   2.140   4.116  14.332 -0.2725 -0.6167  1.9925
   11MPD2    H214027   2.252   3.728  14.462  0.8814  0.8562 -0.2594
   11MPD2    H314028   2.283   3.952  14.473  0.2936  0.4508 -1.7935
   11MPD2     N14029   1.954   4.040  14.171 -0.0111  0.1359  0.7066
   11MPD2    H514030   1.983   4.137  14.166  0.8362  0.0092  3.0358
   11MPD2    N114031   2.065   3.585  14.318  0.4057 -0.4628 -0.1412
   11MPD2    H714032   1.986   3.553  14.262  1.1409  1.0428 -2.0377
    1MPD1     C14033   4.259   0.042  17.018 -0.1356 -0.0414  0.5707
    1MPD1    C114034   4.279   0.168  17.070 -0.0615  0.3660 -0.1458
    1MPD1    C214035   4.404   0.217  17.083  0.2496  0.0464  0.2433
    1MPD1    C314036   4.510   0.156  17.022 -0.4104  0.1516 -0.4409
    1MPD1    C414037   4.494   0.026  16.980 -0.3511 -0.4514 -0.3774
    1MPD1    C514038   4.368   4.712  16.972  1.1809  0.2580  0.7446
    1MPD1     H14039   4.417   0.311  17.136 -0.4570  0.9667 -1.2330
    1MPD1    H114040   4.575   4.707  16.938  0.2941 -0.1955  0.5109
    1MPD1    H214041   4.158   0.006  17.010 -0.4448  0.5169  1.8811
    1MPD1    H314042   4.361   4.613  16.929 -0.0438 -0.0067  1.5686
    1MPD1     N14043   4.644   0.209  17.023 -0.5217 -0.4920 -0.5871
    1MPD1    H514044   4.716   0.149  16.983  1.1642 -0.2341  2.0430
    1MPD1    N114045   4.176   0.234  17.132 -0.1303  0.1393 -0.3278
    1MPD1    H614046   4.191   0.334  17.146  1.5306 -0.1507 -0.0507
    1MPD1    H714047   4.086   0.224  17.084 -0.2940  1.4410 -0.2840
    2MPD1     C14048   0.447   0.999  16.534  0.3375  0.5514 -0.0458
    2MPD1    C114049   0.537   0.921  16.603  0.0949  0.4376 -1.0618
    2MPD1    C214050   0.482   0.818  16.672 -0.1055 -0.7373  0.3868
    2MPD1    C314051   0.349   0.792  16.678 -0.7091  0.7180 -0.0447
    2MPD1    C414052   0.256   0.874  16.619  0.1386  0.8240 -0.3677
    2MPD1    C514053   0.310   0.976  16.544 -0.2320  0.7525  0.1266
    2MPD1     H14054   0.545   0.740  16.713 -0.8578  0.0130  2.9756
    2MPD1    H114055   0.149   0.857  16.618  0.2361  0.2812 -1.9611
    2MPD1    H214056   0.483   1.089  16.485 -0.2451  1.1043  0.5370
    2MPD1    H314057   0.242   1.042  16.491 -0.0962  1.5758  0.9708
    2MPD1     N14058   0.311   0.669  16.736  0.4851  0.0467 -0.6827
    2MPD1    H514059   0.389   0.607  16.756  0.6080  1.1229  2.0863
    2MPD1    N114060   0.676   0.959  16.615  0.0324 -0.7440 -0.0229
    2MPD1    H614061   0.712   1.001  16.530 -2.1137  1.6165  0.2412
    2MPD1    H714062   0.739   0.878  16.615  1.2395  0.1923  1.2477
    3TMC3    C114063   0.184   0.490  16.824 -0.1291  0.9962 -0.6193
    3TMC3    C214064   0.277   0.395  16.805 -0.3748  0.1228  0.5700
    3TMC3    C314065   0.253   0.279  16.874  0.1114  0.1636 -0.7321
    3TMC3    C414066   0.090   0.476  16.920 -0.0395  0.9884  0.1703
    3TMC3    C514067   0.081   0.367  17.004 -0.0677  0.3146 -0.4269
    3TMC3    C614068   0.157   0.260  16.978 -0.1122  0.4713  0.5949
    3TMC3     C14069   0.186   0.624  16.769 -0.2345 -0.0028 -0.3784
    3TMC3     O14070   0.073   0.682  16.757 -0.0624 -0.5260 -0.1081
    3TMC3     H14071   0.333   0.403  16.712 -1.6535  0.1023 -0.2016
    3TMC3    H114072   0.032   0.564  16.944 -2.0112  0.0644 -1.1525
    3TMC3    H214073   0.155   0.175  17.046  0.6378  0.3538  0.4757
    3TMC3    C714074   4.678   0.341  17.033  0.6010 -0.1092  0.4481
    3TMC3    C814075   0.358   0.182  16.859  0.4502  0.8201  0.3572
    3TMC3    O114076   4.602   0.437  17.042  0.3418 -0.5342  0.0075
    3TMC3    O214077   0.377   0.124  16.965 -0.4190 -0.1293 -0.2159
    4MPD1     C14078   0.666   4.637  16.571 -0.0464  1.0364  0.8079
    4MPD1    C114079   0.635   0.008  16.499 -0.7154 -0.0974  0.2053
    4MPD1    C214080   0.540   0.089  16.559  0.3650 -0.5632  0.7124
    4MPD1    C314081   0.507   0.078  16.691 -0.2473 -0.5362  1.5065
    4MPD1    C414082   0.561   4.718  16.770 -0.4823  0.5729 -0.1391
    4MPD1    C514083   0.645   4.627  16.706 -0.1695 -0.1051 -0.3727
    4MPD1     H14084   0.491   0.167  16.502 -2.7463 -1.4563  2.2017
    4MPD1    H114085   0.541   4.721  16.877 -0.2968 -0.5414 -0.0784
    4MPD1    H214086   0.724   4.556  16.528 -1.9930  1.1278 -1.9600
    4MPD1    H314087   0.678   4.536  16.754  1.2366  0.6452  0.0946
    4MPD1     N14088   0.408   0.171  16.732 -0.1388  0.2442  0.4436
    4MPD1    H514089   0.383   0.236  16.659 -2.7472 -0.7769  0.4258
    4MPD1    N114090   0.653   0.003  16.362  0.2479  0.2672 -0.3335
    4MPD1    H614091   0.674   0.096  16.324 -0.3811  0.9046  0.8936
    4MPD1    H714092   0.718   4.671  16.331 -0.1745  0.1444 -0.9356
    1TCq1    O114093   2.048   0.502  12.621  0.0782  0.0864 -0.0536
    1TCq1    C114094   1.942   0.438  12.672 -0.2579 -0.4931 -0.2291
    1TCq1    O214095   1.879   0.488  12.765 -0.8995 -1.0107  0.0573
    1TCq1    C214096   1.892   0.344  12.580 -0.7170 -0.4413 -0.6236
    1TCq1    C314097   1.980   0.273  12.501 -0.1396  0.2421 -0.2918
    1TCq1    C414098   1.937   0.147  12.462  0.0122  0.9656  0.3735
    1TCq1    C514099   1.810   0.109  12.465 -0.2157 -0.0163  0.9612
    1TCq1    C614100   1.723   0.195  12.537  1.3271  0.1859 -0.1935
    1TCq1    C714101   1.765   0.302  12.606  0.1223  0.2344 -0.0114
    1TCq1    C814102   1.571   0.159  12.529  0.4612  0.1849  0.3458
    1TCq1    O414103   1.533   0.048  12.491 -0.1785 -0.3409 -0.1164
    1TCq1    C914104   2.026   0.085  12.370  1.1143  0.5142  0.0658
    1TCq1    O514105   1.998   4.719  12.306  0.4412  0.1918  0.4613
    1TCq1    O614106   2.140   0.140  12.364 -0.4353 -0.1831  0.1432
    1TCq1    H114107   2.072   0.471  12.531  0.1665  0.7481 -0.2535
    1TCq1    H214108   2.086   0.293  12.503 -0.0808  0.1623 -2.2207
    1TCq1    H314109   1.775   0.019  12.415  2.7694 -0.2251 -0.7370
    1TCq1    H414110   1.695   0.362  12.664  0.1188 -1.7839  2.0841
    2MPD1     C14111   1.096   0.254  12.707 -0.6160 -0.4937 -0.3416
    2MPD1    C114112   1.178   0.361  12.730  0.1373  0.2723 -0.1303
    2MPD1    C214113   1.302   0.362  12.660  0.2924 -0.5224  0.4032
    2MPD1    C314114   1.355   0.254  12.601 -0.0006 -0.1224  0.2620
    2MPD1    C414115   1.276   0.140  12.599  0.1284  0.2759  0.1214
    2MPD1    C514116   1.152   0.142  12.654  0.7851  0.0976 -0.2628
    2MPD1     H14117   1.364   0.450  12.671 -1.1270  0.3753  1.1915
    2MPD1    H114118   1.316   0.053  12.548 -1.6275 -0.3351 -0.2170
    2MPD1    H214119   1.000   0.241  12.754 -0.1412 -1.7265  0.2785
    2MPD1    H314120   1.093   0.051  12.660 -0.3927  0.9317  0.7108
    2MPD1     N14121   1.489   0.263  12.560  0.5410 -0.0044 -0.1088
    2MPD1    H514122   1.527   0.357  12.562  1.6251 -0.4598  0.4461
    2MPD1    N114123   1.123   0.477  12.789 -0.4943  0.2454  0.2279
    2MPD1    H614124   1.055   0.448  12.859 -1.1217  0.2419 -0.3758
    2MPD1    H714125   1.195   0.529  12.838 -0.9217  0.4493  0.6383
    1TMC1    C114126   3.703   0.960   0.865  0.0061 -0.6518 -0.0064
    1TMC1    C214127   3.582   1.012   0.895 -0.2853  0.4515 -0.6476
    1TMC1    C314128   3.576   1.100   1.001 -0.0125 -0.5388  0.0893
    1TMC1    C414129   3.819   0.998   0.923 -0.9029  0.1462  0.4976
    1TMC1    C514130   3.811   1.095   1.022 -0.0648  0.3695  0.9107
    1TMC1    C614131   3.695   1.149   1.056 -0.2042 -0.0503 -0.5317
    1TMC1     C14132   3.722   0.835   0.794 -0.0300 -0.0942  0.4152
    1TMC1     O14133   3.824   0.815   0.736 -0.3412  0.4043 -0.1519
    1TMC1     H14134   3.492   0.979   0.845 -0.3360  2.2304 -1.7309
    1TMC1    H114135   3.912   0.954   0.887 -1.4415 -0.1486 -0.5255
    1TMC1    H214136   3.697   1.217   1.141  1.1010  0.2490 -0.7978
    1TMC1    C714137   3.919   1.122   1.117 -0.1623  0.1267 -0.3239
    1TMC1    C814138   3.453   1.174   1.027  0.3167  0.6848  0.4047
    1TMC1    O114139   3.910   1.177   1.227 -0.3342  0.6741  0.1605
    1TMC1    O214140   3.426   1.241   1.123  0.2318  0.1632 -0.5702
    1TMC1    O314141   4.037   1.084   1.059  0.2290  0.3444  0.1231
    1TMC1    H314142   4.037   1.064   0.963 -0.7034  2.1895 -0.2518
    1TMC1    O514143   3.380   1.160   0.915 -0.1870 -0.0666  0.4022
    1TMC1    H514144   3.437   1.154   0.835 -0.3256 -0.2719  0.3184
    2MPD1     C14145   3.535   0.383   0.618 -0.2426 -0.2976  0.0828
    2MPD1    C114146   3.442   0.431   0.702 -0.6068  0.4199 -0.1799
    2MPD1    C214147   3.471   0.556   0.755  0.3967 -0.4072  0.5595
    2MPD1    C314148   3.592   0.621   0.734 -0.1429 -0.4627  0.0571
    2MPD1    C414149   3.683   0.574   0.647 -0.5617  0.1681  0.4396
    2MPD1    C514150   3.655   0.449   0.593 -0.1273 -0.0318 -0.3910
    2MPD1     H14151   3.406   0.622   0.811 -0.0906 -0.1054 -0.3681
    2MPD1    H114152   3.772   0.625   0.613  0.0212 -0.1176  1.5689
    2MPD1    H214153   3.519   0.294   0.557  1.3209 -1.2737  1.0767
    2MPD1    H314154   3.716   0.404   0.516 -0.9248  1.3585 -1.8430
    2MPD1     N14155   3.612   0.747   0.804 -0.5030  0.0492 -0.0529
    2MPD1    H514156   3.535   0.780   0.862 -1.0189  1.9891 -1.8323
    2MPD1    N114157   3.308   0.379   0.699 -0.1864  0.1619  0.6076
    2MPD1    H614158   3.306   0.283   0.666 -1.9811 -0.0259  1.2280
    2MPD1    H714159   3.244   0.390   0.778 -2.8285 -1.5212 -1.3053
    1MPD1     C14160   2.709   0.764  12.237 -0.2275 -0.0460  0.8229
    1MPD1    C114161   2.842   0.719  12.216 -0.1024  0.6140  0.0875
    1MPD1    C214162   2.869   0.586  12.241  0.4965  0.9417 -0.1271
    1MPD1    C314163   2.770   0.493  12.276  0.2933 -0.6087 -0.3060
    1MPD1    C414164   2.645   0.540  12.275 -0.4992  0.1753 -0.2857
    1MPD1    C514165   2.610   0.668  12.250 -0.3732 -0.3288 -0.0808
    1MPD1     H14166   2.969   0.547  12.226 -0.3490 -1.7239  1.1185
    1MPD1    H114167   2.567   0.466  12.266  0.1766 -0.5753 -0.0367
    1MPD1    H214168   2.684   0.870  12.236 -1.5009 -0.3563  0.0356
    1MPD1    H314169   2.507   0.701  12.247  0.4354  2.3177  1.4768
    1MPD1     N14170   2.802   0.354  12.306 -0.3117 -0.4259 -0.3182
    1MPD1    H514171   2.900   0.328  12.309  0.5899  2.7085 -2.5269
    1MPD1    N114172   2.949   0.808  12.181 -0.1608 -0.1957 -0.0365
    1MPD1    H614173   2.920   0.905  12.191 -3.8378 -1.6764  3.2308
    1MPD1    H714174   3.027   0.794  12.245  1.2519  1.2508 -1.4336
    2MPD1     C14175   1.784   0.258  11.730  0.4211 -0.5655 -0.0512
    2MPD1    C114176   1.902   0.334  11.761 -0.5310  0.3004 -0.0418
    2MPD1    C214177   2.018   0.289  11.697 -0.5739  0.0108  0.0863
    2MPD1    C314178   2.020   0.178  11.616 -1.4163  0.1061 -0.3179
    2MPD1    C414179   1.903   0.121  11.580 -0.5226  0.0500 -0.3413
    2MPD1    C514180   1.790   0.168  11.632 -0.6417 -0.1281  0.2485
    2MPD1     H14181   2.103   0.337  11.744  0.2151 -0.6066 -0.7074
    2MPD1    H114182   1.902   0.035  11.514  0.9044  0.2385 -0.6155
    2MPD1    H214183   1.691   0.276  11.783  0.7526 -3.3216  1.4596
    2MPD1    H314184   1.694   0.129  11.600 -0.9167 -0.8605  1.9569
    2MPD1     N14185   2.143   0.130  11.559 -0.4995  0.0806 -0.0790
    2MPD1    H514186   2.137   0.040  11.513 -0.2581  0.0877 -0.1236
    2MPD1    N114187   1.901   0.410  11.879  0.7609 -0.6230  0.2598
    2MPD1    H614188   1.810   0.452  11.897  2.7622  3.4701  0.9789
    2MPD1    H714189   1.977   0.478  11.871 -0.1263  0.2307 -0.9447
    3MPD1     C14190   2.915   0.725  11.461  0.2066  0.6155 -0.5914
    3MPD1    C114191   2.842   0.682  11.568 -1.0872  0.1268  0.4954
    3MPD1    C214192   2.766   0.571  11.553  0.3474 -1.2852  0.2755
    3MPD1    C314193   2.757   0.505  11.436 -0.4237  0.0278 -0.6987
    3MPD1    C414194   2.819   0.549  11.325  0.4312 -0.0009  0.3081
    3MPD1    C514195   2.911   0.654  11.344  0.6352 -0.1875 -0.3527
    3MPD1     H14196   2.717   0.528  11.639  0.7364 -0.5035  0.8882
    3MPD1    H114197   2.812   0.506  11.226 -3.2299  0.2513  0.4636
    3MPD1    H214198   2.981   0.810  11.473  1.4837 -0.5801  0.9514
    3MPD1    H314199   2.967   0.691  11.259  0.4636  2.1268  0.5490
    3MPD1     N14200   2.667   0.399  11.435  0.4347 -0.5154  0.5980
    3MPD1    H514201   2.613   0.374  11.517 -0.7298  0.5972  0.1773
    3MPD1    N114202   2.874   0.735  11.697 -0.0146  0.0059 -0.6499
    3MPD1    H614203   2.910   0.830  11.696  0.7288 -0.2827 -1.6224
    3MPD1    H714204   2.799   0.707  11.760  0.4353 -2.5708 -1.2925
    4MPD2     C14205   3.215   4.548  12.025 -0.2976  0.3717  0.4466
    4MPD2    C114206   3.113   4.496  12.100 -0.4070 -0.4294  0.5788
    4MPD2    C214207   3.063   4.367  12.087 -0.2951 -0.0005 -0.1666
    4MPD2    C314208   3.113   4.288  11.988  0.0538  0.1492  0.0687
    4MPD2    C414209   3.201   4.346  11.896  0.8589 -0.1408  0.0141
    4MPD2    C514210   3.255   4.474  11.920 -0.3033  0.5119 -0.3185
    4MPD2     H14211   2.992   4.329  12.159  0.1432  1.8360  1.2271
    4MPD2    H114212   3.240   4.288  11.814  1.0137  0.0719 -0.0644
    4MPD2    H214213   3.259   4.642  12.058 -0.7145  0.3574  1.0351
    4MPD2    H314214   3.329   4.505  11.847  2.4203  0.0056  2.1967
    4MPD2     N14215   3.058   4.160  11.983 -0.2701  0.2238 -0.4193
    4MPD2    H514216   2.989   4.140  12.055  0.2890 -1.7743 -0.4325
    4MPD2    N114217   3.055   4.577  12.206  0.6786  0.2060 -0.0979
    4MPD2    H714218   2.980   4.535  12.259 -0.7090 -1.0116 -3.0328
    5TMC3    C114219   3.011   0.010  12.355 -0.2382 -0.4130 -0.0488
    5TMC3    C214220   2.931   0.110  12.317  0.8540  0.4750 -0.3213
    5TMC3    C314221   2.796   0.125  12.358  0.4236 -0.7327 -0.1074
    5TMC3    C414222   2.956   4.652  12.436 -0.3022  0.6743  0.3238
    5TMC3    C514223   2.820   4.646  12.465  0.0914 -0.1698  0.5574
    5TMC3    C614224   2.745   0.021  12.435  0.3399  0.4908  0.3194
    5TMC3     C14225   3.092   4.704  12.249  0.1166  0.2800 -0.2901
    5TMC3     O14226   3.177   0.045  12.213 -0.3399  0.5548  0.2608
    5TMC3     H14227   2.959   0.177  12.236 -0.3743 -1.2026 -2.1511
    5TMC3    H114228   3.028   4.571  12.450 -0.9881  0.1253  0.6781
    5TMC3    H214229   2.636   0.018  12.435  0.3547  0.0040  0.4505
    5TMC3    C714230   2.768   4.523  12.408 -0.0911 -0.2769  0.2335
    5TMC3    C814231   2.720   0.257  12.343 -0.8007  0.1389 -0.5665
    5TMC3    O114232   2.847   4.455  12.343 -0.5041 -0.2899 -0.0601
    5TMC3    O214233   2.599   0.256  12.346  0.0340 -0.6356  0.2538
    6TMC3    C114234   2.366   0.149  11.462  0.0415  0.0555 -0.6457
    6TMC3    C214235   2.453   0.242  11.425 -0.0574  0.3233  0.1250
    6TMC3    C314236   2.569   0.201  11.363  0.4742 -0.0509  0.1629
    6TMC3    C414237   2.379   0.016  11.437  0.1805 -0.1249 -0.2999
    6TMC3    C514238   2.496   4.720  11.377  0.0249 -0.4229 -0.0516
    6TMC3    C614239   2.593   0.070  11.339 -0.1293  0.2693  0.2998
    6TMC3     C14240   2.268   0.195  11.560  0.0645 -0.3212  0.1654
    6TMC3     O14241   2.287   0.303  11.614  0.5895  0.8427 -0.2288
    6TMC3     H14242   2.431   0.346  11.442 -1.1026  0.1660 -0.2446
    6TMC3    H114243   2.313   4.682  11.480 -0.1353 -0.0258 -0.6151
    6TMC3    H214244   2.685   0.042  11.290  0.5399 -1.9143  2.8394
    6TMC3    C714245   2.530   4.578  11.392  0.1705  0.1558 -0.5285
    6TMC3    C814246   2.670   0.297  11.342 -0.3029 -0.7075  0.7330
    6TMC3    O114247   2.477   4.513  11.480 -0.6863 -0.3914 -0.5447
    6TMC3    O214248   2.741   0.277  11.244 -0.1062  0.3920 -0.0467
    7MPD2     C14249   2.404   4.202  12.257  0.4428  0.5747 -0.6817
    7MPD2    C114250   2.534   4.212  12.221  0.4067 -0.8010  0.7560
    7MPD2    C214251   2.607   4.316  12.267  0.3787  0.2751 -0.0109
    7MPD2    C314252   2.556   4.402  12.367  0.6849  0.4352 -0.1400
    7MPD2    C414253   2.424   4.400  12.392 -0.3808  0.4986 -0.0627
    7MPD2    C514254   2.348   4.296  12.343  0.5114  0.2144 -0.1093
    7MPD2     H14255   2.710   4.320  12.234  0.4270  1.2784  0.2731
    7MPD2    H114256   2.383   4.457  12.474 -1.1889  1.3723 -1.0643
    7MPD2    H214257   2.344   4.116  12.228  2.3173 -0.3379 -1.9151
    7MPD2    H314258   2.247   4.297  12.382  0.6401  2.3299  0.1857
    7MPD2     N14259   2.636   4.504  12.431  0.2598 -0.5036  0.6092
    7MPD2    H514260   2.591   4.564  12.500  2.1678  0.8510  0.6610
    7MPD2    N114261   2.584   4.111  12.134 -0.1968 -1.1398  0.2332
    7MPD2    H714262   2.514   4.059  12.083  0.3784 -1.3746 -0.3200
    8TMC3    C114263   2.753   4.001  11.991 -0.3744  0.4167  0.6953
    8TMC3    C214264   2.693   4.030  11.868  0.1541  0.1219 -0.3948
    8TMC3    C314265   2.757   4.021  11.749 -0.3722  0.1431  0.3294
    8TMC3    C414266   2.889   3.981  11.985 -0.1084 -0.4112  0.5257
    8TMC3    C514267   2.963   3.983  11.871 -0.3738  0.0744  0.3685
    8TMC3    C614268   2.891   3.987  11.751  0.5174 -0.2604 -0.6967
    8TMC3     C14269   2.720   4.084  12.110 -0.4566  0.8896 -0.3140
    8TMC3     O14270   2.821   4.130  12.163  0.3372 -0.1235 -0.2949
    8TMC3     H14271   2.588   4.056  11.871  0.4049  1.0706  0.0949
    8TMC3    H114272   2.929   3.961  12.084 -0.5801 -2.5536  0.2857
    8TMC3    H214273   2.948   3.976  11.659  0.0693 -1.1437 -0.8701
    8TMC3    C714274   3.069   4.085  11.875  0.4351  0.2122 -0.7434
    8TMC3    C814275   2.718   4.129  11.659  0.1733 -0.1385  0.1298
    8TMC3    O114276   3.117   4.114  11.770  0.5761  0.1507 -0.3685
    8TMC3    O214277   2.636   4.211  11.705 -0.0684 -0.4043 -0.0651
    9MPD2     C14278   2.838   4.183  11.321 -0.8457  0.0993  0.3822
    9MPD2    C114279   2.779   4.220  11.435 -0.0996 -0.3296 -0.4124
    9MPD2    C214280   2.719   4.342  11.444 -0.2308  0.3689 -0.0817
    9MPD2    C314281   2.721   4.433  11.334 -0.5662 -0.2904 -0.1703
    9MPD2    C414282   2.792   4.396  11.217 -0.0637 -0.1758  0.4629
    9MPD2    C514283   2.854   4.272  11.216  0.4072  0.1478 -0.1982
    9MPD2     H14284   2.652   4.367  11.526  0.2646  2.5176 -0.3156
    9MPD2    H114285   2.793   4.460  11.130 -1.4214 -0.4250  0.2636
    9MPD2    H214286   2.883   4.085  11.322 -0.7977  0.1079 -0.5116
    9MPD2    H314287   2.890   4.228  11.124  0.7852 -0.8029  0.3963
    9MPD2     N14288   2.637   4.547  11.313 -0.4213  0.4673 -0.2183
    9MPD2    H514289   2.653   4.610  11.235 -0.3401  1.2655  0.4466
    9MPD2    N114290   2.785   4.125  11.539 -0.0060  0.6648 -0.3718
    9MPD2    H714291   2.844   4.045  11.518  1.1795  1.3446  0.3404
    1MPD1     C14292   1.815   2.876  15.176 -0.1578 -0.7630  0.7795
    1MPD1    C114293   1.737   2.902  15.287  0.3325  0.0881  0.4043
    1MPD1    C214294   1.752   3.026  15.354 -0.4426  0.0476 -0.1167
    1MPD1    C314295   1.835   3.122  15.300  0.0783  0.2393 -0.6810
    1MPD1    C414296   1.901   3.103  15.187 -0.3079 -0.4652 -0.6690
    1MPD1    C514297   1.894   2.977  15.128  0.5592  0.2450  0.2118
    1MPD1     H14298   1.694   3.040  15.445  0.0527 -2.0355  0.5300
    1MPD1    H114299   1.960   3.179  15.137  1.6978 -2.5368 -1.4264
    1MPD1    H214300   1.823   2.781  15.124  1.1102  0.9666 -2.2109
    1MPD1    H314301   1.951   2.947  15.041  4.2238  1.1107  2.3439
    1MPD1     N14302   1.849   3.256  15.360  0.1424  0.7247  0.2966
    1MPD1    H514303   1.931   3.309  15.334 -0.1529  1.0970  0.1329
    1MPD1    N114304   1.687   2.785  15.352 -0.3950 -0.3724 -0.0317
    1MPD1    H614305   1.648   2.722  15.283  0.4033 -1.3852  0.4514
    1MPD1    H714306   1.610   2.817  15.411  1.5450 -0.2128  2.4123
    2TMC2    C114307   1.833   3.667  15.386 -0.9596 -0.3017  0.0962
    2TMC2    C214308   1.812   3.725  15.507  0.4751  0.0841  0.6212
    2TMC2    C314309   1.781   3.645  15.614  0.4515 -0.4733 -0.5633
    2TMC2    C414310   1.832   3.533  15.375  0.0036  0.4399 -0.9915
    2TMC2    C514311   1.810   3.453  15.483  0.4222 -0.1384  0.2241
    2TMC2    C614312   1.779   3.508  15.606 -0.2474  0.1338 -0.5342
    2TMC2     C14313   1.870   3.735  15.258  0.2878  0.0578 -0.2339
    2TMC2     O14314   1.877   3.665  15.157  0.1691 -0.3776 -0.1121
    2TMC2     H14315   1.812   3.833  15.518 -1.9876  0.2095 -0.5464
    2TMC2    H114316   1.867   3.488  15.283  1.3734  2.7563 -1.6154
    2TMC2    H214317   1.781   3.450  15.698  3.4493  0.3100 -0.5162
    2TMC2    C714318   1.780   3.311  15.464 -0.5768  0.4894 -0.4961
    2TMC2    C814319   1.791   3.702  15.749 -1.2916  0.2993 -0.2823
    2TMC2    O114320   1.683   3.261  15.524 -0.3280 -0.1628 -0.0070
    2TMC2    O214321   1.866   3.652  15.831  0.0562 -0.4467  0.1992
    2TMC2    O514322   1.680   3.771  15.779  0.1508  0.8444 -0.1065
    2TMC2    H514323   1.628   3.792  15.698 -1.6696 -2.2971  0.2542
    3MPD1     C14324   1.799   4.169  14.967  0.0066 -0.8637 -0.4393
    3MPD1    C114325   1.838   4.200  15.092 -0.9535  0.5312 -0.7780
    3MPD1    C214326   1.842   4.102  15.192  0.1862  0.6040  0.3486
    3MPD1    C314327   1.838   3.966  15.163  0.2372  0.3144 -0.1120
    3MPD1    C414328   1.800   3.934  15.030 -0.5306  0.3877  0.5097
    3MPD1    C514329   1.784   4.039  14.930 -0.6899  0.2939  0.5902
    3MPD1     H14330   1.850   4.127  15.297  1.3537  2.2304 -0.1185
    3MPD1    H114331   1.780   3.834  14.991  2.5385  0.1366 -0.3870
    3MPD1    H214332   1.775   4.236  14.885  1.9784 -0.2924 -0.5360
    3MPD1    H314333   1.768   4.018  14.825  2.0573 -0.5060  0.3478
    3MPD1     N14334   1.847   3.870  15.270  0.0206  0.2312 -0.3501
    3MPD1    H514335   1.834   3.909  15.363  0.9433 -0.7313  0.1881
    3MPD1    N114336   1.837   4.336  15.124  0.6720  0.2433  0.2151
    3MPD1    H614337   1.892   4.364  15.205  1.1223  3.0005 -1.0333
    3MPD1    H714338   1.866   4.401  15.052  0.1210 -1.3074 -1.4043
    1TMC1    C114339   0.532   2.731  12.763  0.2229  0.0292  0.2984
    1TMC1    C214340   0.536   2.832  12.855 -0.1825 -0.5055  0.5086
    1TMC1    C314341   0.410   2.888  12.894  0.2611  0.4206 -0.1190
    1TMC1    C414342   0.419   2.694  12.706  0.3485 -0.7327  0.5146
    1TMC1    C514343   0.301   2.743  12.747  0.1815 -0.0084  0.0771
    1TMC1    C614344   0.297   2.842  12.839 -0.3060  0.3435 -0.7371
    1TMC1     C14345   0.653   2.710  12.678 -0.5470  0.2284  0.2012
    1TMC1     O14346   0.640   2.626  12.590  0.0311 -0.0256 -0.2825
    1TMC1     H14347   0.629   2.866  12.900 -0.2241  1.0992 -0.6136
    1TMC1    H114348   0.424   2.619  12.628 -1.0413  1.3718 -1.5838
    1TMC1    H214349   0.202   2.889  12.860 -0.2975 -0.9108  2.0635
    1TMC1    C714350   0.174   2.684  12.706 -0.6340  0.8117 -0.8520
    1TMC1    C814351   0.406   3.001  12.983  0.3476  0.1312  0.1223
    1TMC1    O114352   0.163   2.615  12.610  0.2729 -0.2866 -0.1953
    1TMC1    O214353   0.356   3.110  12.953  0.0773 -0.4101  0.1303
    1TMC1    O314354   0.103   2.666  12.817 -0.3518 -0.8214 -0.8081
    1TMC1    H314355   0.132   2.704  12.903 -2.3844  0.1018 -0.5310
    1TMC1    O514356   0.485   2.967  13.086 -0.2571 -0.3418 -0.2612
    1TMC1    H514357   0.504   2.872  13.069 -0.0695 -0.6807  1.8601
    2MPD2     C14358   0.911   2.724  12.534 -0.0308  0.3008 -0.8283
    2MPD2    C114359   0.896   2.772  12.661  0.3252 -0.2478 -0.5430
    2MPD2    C214360   1.005   2.841  12.718  1.1332 -0.3948 -0.7418
    2MPD2    C314361   1.126   2.865  12.648 -0.6681  0.5153  0.0284
    2MPD2    C414362   1.136   2.813  12.526 -0.6821  0.5876  0.2577
    2MPD2    C514363   1.037   2.733  12.477 -0.4165  0.0809 -0.8439
    2MPD2     H14364   0.984   2.883  12.815 -0.0085 -2.6416 -0.0108
    2MPD2    H114365   1.231   2.839  12.480 -1.8037  0.6258 -2.0306
    2MPD2    H214366   0.827   2.683  12.479  0.3216 -2.4167  0.6327
    2MPD2    H314367   1.039   2.697  12.375  1.5266  0.2804 -0.8760
    2MPD2     N14368   1.235   2.936  12.711 -0.5108  0.2971 -0.1430
    2MPD2    H514369   1.199   2.975  12.797  1.6327 -0.8933  1.3210
    2MPD2    N114370   0.767   2.770  12.725  0.0965 -0.1215  0.3361
    2MPD2    H714371   0.758   2.812  12.817  2.1036  0.4914  0.2658
    3TCq1    O114372   1.808   3.141  12.672 -0.5554 -0.0730  0.5161
    3TCq1    C114373   1.754   3.235  12.752 -0.6342  0.4495  0.1752
    3TCq1    O214374   1.819   3.314  12.822 -0.2091  0.0756 -0.3538
    3TCq1    C214375   1.625   3.196  12.795  0.1384 -0.2502 -0.9101
    3TCq1    C314376   1.589   3.213  12.928  0.1221 -0.2392 -0.3437
    3TCq1    C414377   1.470   3.159  12.970  0.9444  0.2528 -0.0188
    3TCq1    C514378   1.385   3.081  12.890 -0.0036  0.3306 -0.1040
    3TCq1    C614379   1.431   3.062  12.760  0.7096  0.1871  0.0973
    3TCq1    C714380   1.544   3.122  12.713  0.6262 -0.8695 -0.2784
    3TCq1    C814381   1.360   2.973  12.669  1.5162  0.3564  0.3314
    3TCq1    O414382   1.411   2.949  12.560 -0.2417  0.3631  0.4932
    3TCq1    C914383   1.440   3.149  13.107 -0.5450 -0.5486  1.0179
    3TCq1    O514384   1.511   3.217  13.188 -0.3443 -0.0760  0.0846
    3TCq1    O614385   1.383   3.047  13.150  0.1166  0.2738  0.5293
    3TCq1    H114386   1.741   3.081  12.635  0.3271 -0.7502  0.0066
    3TCq1    H214387   1.658   3.256  13.000 -0.7376  0.0365  0.3204
    3TCq1    H314388   1.302   3.027  12.934 -2.1885  0.9483 -3.4662
    3TCq1    H414389   1.567   3.117  12.608  0.3645  3.1823 -0.5056
    1MPD2     C14390   4.386   3.458  15.485  0.1118 -0.4745 -0.2709
    1MPD2    C114391   4.345   3.374  15.387  0.3783  0.1518 -0.1094
    1MPD2    C214392   4.433   3.347  15.283  0.4588  0.5771 -0.5798
    1MPD2    C314393   4.541   3.423  15.255  0.6527 -0.7468  0.6728
    1MPD2    C414394   4.584   3.515  15.357  0.4341  0.0213  0.0693
    1MPD2    C514395   4.501   3.527  15.462  0.1092  0.1574  0.1521
    1MPD2     H14396   4.416   3.276  15.202  0.6360  1.2365 -1.1926
    1MPD2    H114397   4.670   3.579  15.339 -0.8335  2.1671  1.7131
    1MPD2    H214398   4.317   3.484  15.564  0.5712 -2.2912  0.7191
    1MPD2    H314399   4.518   3.600  15.540  0.5087  1.7279 -1.4076
    1MPD2     N14400   4.607   3.401  15.130  0.9929 -0.6586  0.1427
    1MPD2    H514401   4.567   3.339  15.061  2.0444 -1.6348  0.4264
    1MPD2    N114402   4.215   3.322  15.385 -0.2936  0.4839 -0.3453
    1MPD2    H714403   4.157   3.329  15.468  0.3237  0.7425  0.0614
    2TMC3    C114404   4.015   3.230  15.289 -0.5360  0.1314 -0.2350
    2TMC3    C214405   3.981   3.140  15.197 -0.8707 -0.7116  0.1655
    2TMC3    C314406   3.887   3.181  15.102 -0.2803 -0.5608 -0.2154
    2TMC3    C414407   3.941   3.348  15.297  0.4986 -0.5012  0.4227
    2TMC3    C514408   3.833   3.375  15.217 -0.1689 -0.0462  0.3614
    2TMC3    C614409   3.808   3.291  15.114  0.7281  0.2016  0.2639
    2TMC3     C14410   4.160   3.251  15.282  0.0890  0.4889 -0.3779
    2TMC3     O14411   4.206   3.220  15.173 -0.3014  0.3028  0.2890
    2TMC3     H14412   4.021   3.040  15.192 -0.4799 -0.5858  0.7874
    2TMC3    H114413   3.974   3.432  15.356  0.7644  0.9303 -1.7539
    2TMC3    H214414   3.732   3.311  15.040  0.8848 -1.6967 -0.4048
    2TMC3    C714415   3.807   3.510  15.172  0.8916  0.0856  0.5172
    2TMC3    C814416   3.914   3.139  14.963 -0.4215  0.5371  0.7906
    2TMC3    O114417   3.701   3.560  15.209 -0.5170  0.1322  0.0220
    2TMC3    O214418   3.847   3.198  14.880 -0.6951  0.1965  0.5103
    3TCq1    O114419   0.041   3.801  14.731  0.0797  0.1200 -0.6691
    3TCq1    C114420   4.645   3.783  14.709  0.2561  0.1477 -1.4829
    3TCq1    O214421   4.589   3.676  14.677 -0.1191  0.9712 -0.2054
    3TCq1    C214422   4.573   3.909  14.720 -0.5636  0.3807  0.1402
    3TCq1    C314423   4.629   4.025  14.693 -0.3745 -0.2541 -0.7189
    3TCq1    C414424   4.551   4.139  14.703  0.0639 -0.0768 -0.0255
    3TCq1    C514425   4.423   4.131  14.750  0.4872 -0.2923 -0.4834
    3TCq1    C614426   4.370   4.011  14.765  0.4760 -0.9302  0.1256
    3TCq1    C714427   4.441   3.899  14.756  0.0535  0.3363  0.2127
    3TCq1    C814428   4.240   4.004  14.822 -0.4984 -0.0357  0.2770
    3TCq1    O414429   4.176   4.108  14.808  0.2047  0.6132 -0.0433
    3TCq1    C914430   4.608   4.267  14.682  0.0549 -0.3232 -0.3806
    3TCq1    O514431   4.730   4.266  14.659 -0.0218  0.3199 -0.4204
    3TCq1    O614432   4.543   4.362  14.733 -0.5155 -0.1494  0.0856
    3TCq1    H114433   0.060   3.891  14.766 -0.5438 -0.2965  0.7662
    3TCq1    H214434   4.729   4.033  14.653  0.0618  1.1725  0.7025
    3TCq1    H314435   4.369   4.222  14.777 -1.0251 -1.5011  0.5698
    3TCq1    H414436   4.405   3.803  14.792 -1.6128  1.3835  1.2981
    4MPD2     C14437   3.993   3.962  14.987  0.0290  0.3758 -0.3138
    4MPD2    C114438   4.076   3.855  14.938 -0.7628 -0.0327 -0.4843
    4MPD2    C214439   4.053   3.728  14.988  0.2455 -0.2101 -0.7078
    4MPD2    C314440   3.930   3.702  15.057  0.2938  0.4449  0.0285
    4MPD2    C414441   3.840   3.805  15.085  0.1272  0.0246  0.0658
    4MPD2    C514442   3.882   3.933  15.059 -0.2622  0.1358  0.6186
    4MPD2     H14443   4.117   3.642  14.970  0.6970  0.0987 -0.5731
    4MPD2    H114444   3.766   3.791  15.163  0.2318  0.1829  0.1941
    4MPD2    H214445   4.032   4.062  14.971 -2.0123  1.0879 -0.9104
    4MPD2    H314446   3.820   4.012  15.099 -0.8807  0.4639 -0.9723
    4MPD2     N14447   3.909   3.568  15.103 -0.4149 -0.7747  0.4484
    4MPD2    H514448   3.991   3.510  15.086  0.7514  2.2505 -4.3698
    4MPD2    N114449   4.194   3.877  14.860 -0.8111 -0.1807  0.8566
    4MPD2    H714450   4.257   3.801  14.840  1.1935  1.5912  0.4305
    5TMC2    C114451   4.642   3.305  14.786 -0.0428  0.3478 -0.4894
    5TMC2    C214452   0.018   3.237  14.749  0.0672 -0.2161  0.1218
    5TMC2    C314453   0.129   3.265  14.817  0.0722 -0.1259 -0.1851
    5TMC2    C414454   4.648   3.405  14.881 -0.2499 -0.0306 -0.8118
    5TMC2    C514455   0.018   3.421  14.956  0.5283  0.0278  0.6823
    5TMC2    C614456   0.135   3.351  14.926 -0.8757 -0.4095 -0.0184
    5TMC2     C14457   4.526   3.226  14.815 -1.1582  0.1923 -0.9346
    5TMC2     O14458   4.500   3.239  14.933 -0.5815  0.0848  0.5169
    5TMC2     H14459   0.020   3.154  14.680 -0.7682 -1.1450  1.2201
    5TMC2    H114460   4.557   3.460  14.903  0.5839  1.9484 -2.3460
    5TMC2    H214461   0.229   3.380  14.972 -0.7148  0.4386 -0.8845
    5TMC2    C714462   4.726   3.457  15.094 -0.0678  0.0079 -0.1071
    5TMC2    C814463   0.258   3.226  14.751 -0.4533 -0.4529 -0.1665
    5TMC2    O114464   0.078   3.501  15.162 -0.0534 -0.4264  0.6601
    5TMC2    O214465   0.279   3.104  14.716 -0.4023  0.4156 -0.6488
    5TMC2    O514466   0.351   3.317  14.779  0.5422 -0.2118  0.0835
    5TMC2    H514467   0.311   3.407  14.782 -0.4950 -0.6947  1.0412
    6MPD2     C14468   4.053   3.086  14.704  0.1769  0.7372  0.3441
    6MPD2    C114469   4.115   3.103  14.820  0.3339 -0.1224 -0.2996
    6MPD2    C214470   4.248   3.128  14.823 -0.0264  0.6172 -0.3988
    6MPD2    C314471   4.329   3.152  14.713 -0.5330  0.0779  0.0748
    6MPD2    C414472   4.254   3.132  14.595  0.1889  0.4069 -0.3746
    6MPD2    C514473   4.122   3.095  14.587  0.9004 -0.0371 -0.4715
    6MPD2     H14474   4.302   3.140  14.916 -2.0164  0.3192  0.8007
    6MPD2    H114475   4.301   3.168  14.505 -0.7496 -0.2107 -1.1169
    6MPD2    H214476   3.951   3.051  14.698  0.8674 -0.9138 -1.8567
    6MPD2    H314477   4.071   3.083  14.492  0.3878 -0.4025 -0.1513
    6MPD2     N14478   4.464   3.193  14.711 -0.5462 -0.1929 -0.4888
    6MPD2    H514479   4.503   3.217  14.620 -1.8901  1.8508 -0.5322
    6MPD2    N114480   4.043   3.093  14.948  0.1050 -0.5245  0.5288
    6MPD2    H714481   4.104   3.079  15.028 -0.9113 -0.3011  1.3509
  945NH4     N114482   4.351   4.520  14.680 -0.5955  0.3313  0.4019
  945NH4     H214483   4.359   4.615  14.720 -0.8753  0.0378  1.1523
  945NH4     H314484   4.438   4.469  14.705 -0.8595 -0.5635 -0.4714
  945NH4     H414485   4.331   4.535  14.579 -2.1646  2.8579  1.0668
  945NH4     H514486   4.269   4.481  14.731 -0.0736  1.0502  1.7927
  946SOD     NA14487   2.872   4.623  11.683 -0.1555 -0.1603 -0.0951
  947SOD     NA14488   1.632   1.914  16.579 -0.3725 -0.4412 -0.1862
  948SOD     NA14489   2.087   4.330  13.450  0.3656 -0.1241 -0.0926
  949SOD     NA14490   3.445   3.463  17.138 -0.6706  0.1709  0.1623
  950SOD     NA14491   1.462   1.741  11.004 -0.0630 -0.4203  0.3056
  951SOD     NA14492   1.692   2.509   8.907  0.4178 -0.1463  0.6212
  952SOD     NA14493   1.317   3.054  13.344 -0.0271  0.5249 -0.3899
  953SOL     OW14494   0.502   2.112   3.707  0.4576  0.3679  0.2859
  953SOL    HW114495   0.462   2.098   3.793  1.3728  0.8551  0.7845
  953SOL    HW214496   0.430   2.098   3.647  0.6475  2.0503 -0.3202
  954SOL     OW14497   3.064   4.731   6.833 -0.2050  0.3241 -0.2558
  954SOL    HW114498   3.139   0.046   6.809  0.6259 -0.6499  0.0607
  954SOL    HW214499   3.021   0.001   6.749  0.5574  1.8913 -0.4641
  955SOL     OW14500   1.870   0.049   1.542  0.1348  0.1062 -0.8529
  955SOL    HW114501   1.886   4.696   1.528 -0.0181 -0.0331 -0.0858
  955SOL    HW214502   1.779   0.053   1.569 -0.0776  0.1151 -1.5730
  956SOL     OW14503   2.063   0.916   1.657 -0.1875  0.4480 -0.5175
  956SOL    HW114504   1.989   0.974   1.640 -2.7063 -2.6779 -0.4035
  956SOL    HW214505   2.013   0.836   1.675 -2.3765  1.8566 -0.2764
  957SOL     OW14506   0.493   4.177   3.411  0.4077 -0.2709 -0.4117
  957SOL    HW114507   0.432   4.238   3.369  0.8277 -0.8194 -1.8058
  957SOL    HW214508   0.466   4.099   3.362  0.4145 -1.3044  1.2307
  958SOL     OW14509   1.968   3.847  14.717  0.3197 -0.0599  0.5593
  958SOL    HW114510   2.063   3.839  14.703  0.1736 -2.2002  0.8146
  958SOL    HW214511   1.966   3.801  14.801  0.6413  0.7649  1.0239
  959SOL     OW14512   4.660   4.184   5.325 -0.0589  0.0865  0.0303
  959SOL    HW114513   4.577   4.211   5.364 -1.8340 -2.7450 -1.8175
  959SOL    HW214514   4.693   4.143   5.405 -0.9531 -0.3574  0.1625
  960SOL     OW14515   2.853   3.949   6.722 -0.1631  0.0568 -0.3322
  960SOL    HW114516   2.786   4.016   6.731 -0.5752 -0.2641 -0.9861
  960SOL    HW214517   2.801   3.869   6.715  0.2592 -0.4345  2.1189
  961SOL     OW14518   2.834   0.673   6.938  0.0035  0.8500  0.4279
  961SOL    HW114519   2.837   0.739   6.869 -0.4680  0.3951 -0.0211
  961SOL    HW214520   2.908   0.708   6.989  1.3228  0.2613 -1.0848
  962SOL     OW14521   1.713   4.017  12.061  0.1057  0.2488 -0.1063
  962SOL    HW114522   1.767   3.943  12.032 -1.4531 -0.1012 -2.1398
  962SOL    HW214523   1.738   4.011  12.153  1.4140 -1.5602 -0.5731
  963SOL     OW14524   1.705   3.491   2.605 -0.1096  0.0191 -0.4025
  963SOL    HW114525   1.691   3.418   2.545  0.8726 -0.7595  0.3397
  963SOL    HW214526   1.749   3.458   2.683  2.3229  0.8033 -1.4252
  964SOL     OW14527   4.650   4.683  14.312 -0.6352  0.1704  0.0145
  964SOL    HW114528   4.621   4.734  14.236 -2.4576  0.9130  1.2006
  964SOL    HW214529   4.610   4.598  14.294 -1.0933  0.4340 -0.2182
  965SOL     OW14530   3.588   0.006   6.253  0.5214  0.6366 -0.2797
  965SOL    HW114531   3.526   4.719   6.321  0.3649 -0.7086 -0.9392
  965SOL    HW214532   3.589   4.657   6.216 -1.6126  1.5945 -2.5693
  966SOL     OW14533   2.840   4.415   0.850 -0.0210 -0.1726  0.0883
  966SOL    HW114534   2.747   4.409   0.874 -1.0675  1.4347 -3.6458
  966SOL    HW214535   2.840   4.479   0.779  0.5111  0.1012  0.3394
  967SOL     OW14536   1.183   3.909   0.455 -0.5056 -0.1989 -0.3679
  967SOL    HW114537   1.136   3.938   0.377 -0.1167  0.6852 -0.2688
  967SOL    HW214538   1.117   3.918   0.524  1.3471  0.0616  1.4021
  968SOL     OW14539   0.381   0.763   0.825  0.4408 -0.1754 -0.1566
  968SOL    HW114540   0.347   0.697   0.887 -1.2149  1.7909  1.0563
  968SOL    HW214541   0.317   0.835   0.832  0.7955 -0.0753  2.0340
  969SOL     OW14542   1.611   1.903  11.041 -0.2921  0.1269 -0.2814
  969SOL    HW114543   1.702   1.915  11.068 -1.1983  2.8973  1.5238
  969SOL    HW214544   1.599   1.983  10.989  0.8957 -0.4471 -1.4258
  970SOL     OW14545   2.247   1.032  16.756 -0.1663 -0.4013  0.5879
  970SOL    HW114546   2.289   0.980  16.825  0.4837 -0.6333  0.0155
  970SOL    HW214547   2.327   1.056  16.709 -1.6022 -0.4742 -1.8310
  971SOL     OW14548   1.876   2.964   9.063 -0.0755  0.6970 -0.3575
  971SOL    HW114549   1.953   2.907   9.068 -1.4475 -0.9624  2.0448
  971SOL    HW214550   1.839   2.972   9.151 -0.7902  1.3617 -0.7244
  972SOL     OW14551   1.172   2.171   7.403  0.2049  0.2666 -0.4947
  972SOL    HW114552   1.117   2.212   7.470  1.7160  0.3405  0.7041
  972SOL    HW214553   1.161   2.078   7.420  3.6311 -0.0521  0.0015
  973SOL     OW14554   1.654   2.274   4.601  0.0657  0.4816 -0.1519
  973SOL    HW114555   1.672   2.184   4.628  1.0777  0.7006 -0.0979
  973SOL    HW214556   1.738   2.292   4.558  0.6915  2.2154  1.7787
  974SOL     OW14557   3.698   2.663   6.286  0.1485 -0.0593 -0.1459
  974SOL    HW114558   3.687   2.675   6.380 -0.6619  2.4163 -0.5644
  974SOL    HW214559   3.660   2.576   6.276 -0.4051  0.2437 -0.6613
  975SOL     OW14560   0.573   0.103   5.308 -0.0515 -0.1379  0.1578
  975SOL    HW114561   0.660   0.065   5.308  0.1682  0.3469  1.1450
  975SOL    HW214562   0.548   0.108   5.216  1.3402  0.4423 -0.1850
  976SOL     OW14563   0.256   2.160   8.700  0.2007  0.2407 -0.0805
  976SOL    HW114564   0.168   2.133   8.726  0.3725 -0.4130 -0.1732
  976SOL    HW214565   0.282   2.220   8.770  1.9763  0.4044 -0.8767
  977SOL     OW14566   3.291   0.562   6.334  0.3959  0.0518 -0.4690
  977SOL    HW114567   3.356   0.632   6.340 -0.5464  0.8681  0.2047
  977SOL    HW214568   3.212   0.615   6.345 -0.4708 -1.1327 -0.9800
  978SOL     OW14569   2.104   1.720   8.050 -0.1802 -0.0981  0.1613
  978SOL    HW114570   2.159   1.799   8.052  1.1531 -1.0394  0.8272
  978SOL    HW214571   2.181   1.663   8.038 -0.4860 -1.0496  2.8171
  979SOL     OW14572   3.648   3.556  15.898  0.2694  0.1704  0.3474
  979SOL    HW114573   3.607   3.491  15.955  0.6332 -0.9174 -0.6471
  979SOL    HW214574   3.676   3.629  15.953  1.5198 -0.3012  0.3172
  980SOL     OW14575   0.996   0.671   5.356 -0.3300 -0.7437  0.3523
  980SOL    HW114576   0.981   0.719   5.274 -2.6948 -1.1118  0.5643
  980SOL    HW214577   0.917   0.700   5.400  0.7688  2.3443  0.2714
  981SOL     OW14578   4.530   1.932  10.285 -0.3319 -0.2638  0.3885
  981SOL    HW114579   4.575   1.954  10.204 -0.6729  1.3500  0.6449
  981SOL    HW214580   4.464   1.869  10.256 -0.2542 -0.4812  0.6746
  982SOL     OW14581   2.039   3.254   2.524 -0.0769  0.2540  0.0314
  982SOL    HW114582   2.030   3.228   2.432 -0.5346  3.2103 -0.7593
  982SOL    HW214583   2.110   3.318   2.521  0.8635 -0.8083 -0.4802
  983SOL     OW14584   0.517   4.604   4.464  0.0921 -0.2191 -0.2996
  983SOL    HW114585   0.429   4.587   4.428 -0.1229  1.7025 -0.6535
  983SOL    HW214586   0.525   4.698   4.452 -3.7194  0.2217  0.3995
  984SOL     OW14587   4.255   0.741   2.786 -0.1044 -0.1703 -0.1040
  984SOL    HW114588   4.233   0.704   2.700  3.3493 -1.1193 -0.5816
  984SOL    HW214589   4.181   0.795   2.815 -0.1633 -1.9218  2.9536
  985SOL     OW14590   4.074   3.626   9.691  0.3301 -0.0058  0.0811
  985SOL    HW114591   4.059   3.720   9.700  1.2822  0.0114  1.5155
  985SOL    HW214592   4.041   3.603   9.604  1.6293  0.4474 -0.5335
  986SOL     OW14593   3.391   3.075   2.616  0.3903  0.1700 -0.2268
  986SOL    HW114594   3.356   3.080   2.705 -2.1290 -0.3596 -1.1835
  986SOL    HW214595   3.468   3.017   2.620  0.2325 -0.0747 -0.7011
  987SOL     OW14596   3.039   0.459  11.703  0.1123  0.1181  0.3107
  987SOL    HW114597   2.997   0.545  11.704 -0.4105 -0.1615  1.7954
  987SOL    HW214598   3.121   0.474  11.657  0.7800  1.4545  1.9181
  988SOL     OW14599   3.363   3.788   0.110 -0.1137  0.1946 -0.3129
  988SOL    HW114600   3.390   3.879   0.123  1.4992 -0.2861 -0.2962
  988SOL    HW214601   3.441   3.750   0.069  0.0218  0.6879 -0.5099
  989SOL     OW14602   0.259   1.277   1.483  0.5440 -0.1783  0.4755
  989SOL    HW114603   0.204   1.280   1.561  0.3711 -0.8709  0.3809
  989SOL    HW214604   0.218   1.212   1.425 -0.9677  0.8524  0.3663
  990SOL     OW14605   3.714   4.234  11.778  0.2307 -0.3552 -0.4156
  990SOL    HW114606   3.689   4.189  11.698 -1.6516 -0.7161  0.3822
  990SOL    HW214607   3.807   4.245  11.757  0.1820 -0.6300 -0.7688
  991SOL     OW14608   4.638   2.488  10.584  0.9648  0.0432 -0.4492
  991SOL    HW114609   4.640   2.516  10.493 -0.0010  0.6544 -0.2835
  991SOL    HW214610   4.731   2.500  10.601  0.8367 -0.4313  0.6090
  992SOL     OW14611   4.421   2.955  10.994 -0.2229  0.4015 -0.1791
  992SOL    HW114612   4.395   2.976  11.083  0.1844 -4.6648  1.1341
  992SOL    HW214613   4.432   2.860  10.993  1.6868  0.6327 -1.0690
  993SOL     OW14614   0.944   1.500   1.352 -0.2708 -0.3567 -0.1491
  993SOL    HW114615   0.906   1.479   1.437  1.0576 -0.0007  0.5294
  993SOL    HW214616   0.873   1.504   1.287 -0.7876  0.9255  0.4952
  994SOL     OW14617   4.042   3.958   3.700  0.1140  0.8836  0.0433
  994SOL    HW114618   4.110   3.973   3.634  2.2140  1.1079  2.2674
  994SOL    HW214619   3.969   3.997   3.652  1.7220  0.3598 -2.8549
  995SOL     OW14620   3.065   0.555   5.000 -0.6113  0.3816  0.1574
  995SOL    HW114621   2.985   0.606   5.017 -0.3162  0.6817  0.6312
  995SOL    HW214622   3.102   0.614   4.934 -0.6673  0.2519  0.0087
  996SOL     OW14623   0.067   0.521   7.414  0.0473 -0.3393 -0.2607
  996SOL    HW114624   0.019   0.535   7.332 -0.8129 -0.2509  0.2570
  996SOL    HW214625   0.139   0.580   7.391 -1.2608  0.8144 -1.4021
  997SOL     OW14626   3.128   2.733  17.034 -0.2493 -0.4149 -0.1862
  997SOL    HW114627   3.085   2.816  17.057 -0.9426 -0.5724 -0.9182
  997SOL    HW214628   3.070   2.677  17.085  0.9307 -0.4415  1.1526
  998SOL     OW14629   2.679   0.162   3.025 -0.7277  0.1673  0.6630
  998SOL    HW114630   2.744   0.142   2.957 -1.9377 -1.2617 -0.0643
  998SOL    HW214631   2.635   0.079   3.046 -0.2592  0.3231  2.2857
  999SOL     OW14632   4.230   1.218   3.414  0.0389 -0.1145  0.3633
  999SOL    HW114633   4.240   1.262   3.498  1.7282 -1.3535  0.8114
  999SOL    HW214634   4.188   1.290   3.367  0.5384 -1.2377 -1.8088
 1000SOL     OW14635   2.944   1.681  13.464 -0.2329  0.5307 -0.4120
 1000SOL    HW114636   2.859   1.643  13.484  0.2386 -1.0274 -1.3749
 1000SOL    HW214637   2.919   1.756  13.411  1.8026  1.2536 -0.3609
 1001SOL     OW14638   2.170   2.347   7.972 -0.3101  1.0879 -0.3590
 1001SOL    HW114639   2.259   2.322   7.947 -1.3458 -1.4958 -1.4296
 1001SOL    HW214640   2.153   2.426   7.920  0.5315  1.5762  0.1031
 1002SOL     OW14641   1.425   0.541   7.584  0.0018  0.2014 -0.2703
 1002SOL    HW114642   1.412   0.497   7.500 -1.2972  0.0125  0.0340
 1002SOL    HW214643   1.333   0.549   7.611  0.7912 -0.2278  2.6081
 1003SOL     OW14644   1.599   1.785   1.099 -0.3123 -0.2557 -0.0395
 1003SOL    HW114645   1.584   1.771   1.193 -3.8901 -2.5165 -0.9427
 1003SOL    HW214646   1.659   1.712   1.086  0.4367  0.1088  1.3337
 1004SOL     OW14647   2.022   0.355   1.186  0.3354  0.0745 -0.6827
 1004SOL    HW114648   2.033   0.440   1.228  4.0648 -0.6257 -0.1983
 1004SOL    HW214649   1.931   0.356   1.158  1.2505 -2.0908 -3.7002
 1005SOL     OW14650   0.564   0.116   2.678  0.0799  0.6740 -0.1795
 1005SOL    HW114651   0.529   0.168   2.606 -2.9970  0.0052  0.8239
 1005SOL    HW214652   0.657   0.115   2.656  0.1466  2.1515  0.0196
 1006SOL     OW14653   1.300   2.380   4.041  0.1354 -0.9436 -0.4691
 1006SOL    HW114654   1.366   2.448   4.051  1.0639 -1.7302 -1.2039
 1006SOL    HW214655   1.232   2.411   4.100 -0.0433 -0.0774 -1.1431
 1007SOL     OW14656   4.620   4.240   6.310 -0.3312 -0.6364 -0.2976
 1007SOL    HW114657   4.620   4.145   6.328  1.8812 -0.2997  1.5706
 1007SOL    HW214658   4.590   4.282   6.391  0.0552 -1.2368  0.1614
 1008SOL     OW14659   2.729   2.593   6.791 -0.4533 -0.6819 -0.6525
 1008SOL    HW114660   2.820   2.598   6.764 -0.6057  0.0420 -1.0454
 1008SOL    HW214661   2.743   2.607   6.885  1.8627  1.8851 -1.3935
 1009SOL     OW14662   2.036   3.202  16.107  0.1929  0.1782  0.4586
 1009SOL    HW114663   2.030   3.284  16.059  2.1138  0.3588  0.5287
 1009SOL    HW214664   2.115   3.162  16.069 -0.4705 -0.1133 -0.6206
 1010SOL     OW14665   1.539   1.178  14.710  0.0611 -0.4682 -0.7442
 1010SOL    HW114666   1.467   1.117  14.694  0.6913 -1.6881  1.1021
 1010SOL    HW214667   1.602   1.110  14.734 -1.3290 -0.5022  2.7532
 1011SOL     OW14668   2.068   4.663   6.421 -0.1799  0.3586  0.6431
 1011SOL    HW114669   2.116   4.646   6.502  1.6040  0.7099 -0.3449
 1011SOL    HW214670   2.092   0.013   6.399  0.1979 -0.6834 -3.1753
 1012SOL     OW14671   2.487   3.928   4.822 -0.4747  0.2039  0.4967
 1012SOL    HW114672   2.404   3.975   4.833 -2.1860 -3.3310  2.6498
 1012SOL    HW214673   2.465   3.877   4.744 -0.6451 -1.0034  1.3401
 1013SOL     OW14674   0.984   2.207   2.615 -0.5462  0.7616  0.1000
 1013SOL    HW114675   1.008   2.116   2.597  0.0420  0.9399 -0.0093
 1013SOL    HW214676   1.066   2.255   2.604 -0.0094  0.0282  0.8761
 1014SOL     OW14677   0.165   2.746  13.077 -0.4430  0.0508  0.0844
 1014SOL    HW114678   0.211   2.696  13.145  0.7069 -0.5766 -1.1356
 1014SOL    HW214679   0.118   2.807  13.134  1.8409 -0.5180  2.6056
 1015SOL     OW14680   2.757   1.144  16.283 -0.3023 -0.4393 -0.0611
 1015SOL    HW114681   2.700   1.219  16.299 -0.2148 -0.5909  0.9880
 1015SOL    HW214682   2.690   1.075  16.274 -1.2892  0.3071  1.5810
 1016SOL     OW14683   2.520   1.767   7.302 -0.1500  0.0459  0.2136
 1016SOL    HW114684   2.598   1.716   7.277 -1.8321 -1.9306 -0.9805
 1016SOL    HW214685   2.526   1.781   7.396 -0.0314 -0.1667  0.2389
 1017SOL     OW14686   1.633   3.817   8.691  0.4747 -0.4723 -0.4262
 1017SOL    HW114687   1.723   3.849   8.695  0.3199 -0.1468  0.4324
 1017SOL    HW214688   1.608   3.868   8.613  2.1892 -2.0241 -1.9737
 1018SOL     OW14689   2.555   4.339   6.496 -0.2049  0.1410  0.4570
 1018SOL    HW114690   2.575   4.285   6.419 -1.4568 -0.7965  0.7971
 1018SOL    HW214691   2.505   4.278   6.549 -1.7231  0.8648 -0.1364
 1019SOL     OW14692   0.224   3.886   8.649 -0.0823  0.1494 -0.1815
 1019SOL    HW114693   0.161   3.817   8.634  0.0436  0.4233 -1.9092
 1019SOL    HW214694   0.212   3.897   8.744  2.0685  2.7782 -0.2156
 1020SOL     OW14695   1.009   0.115   0.183  0.0007 -0.0208  0.0022
 1020SOL    HW114696   1.092   0.094   0.225 -0.5295 -1.8170  0.1199
 1020SOL    HW214697   0.992   0.032   0.139 -1.1224  0.1576  0.1009
 1021SOL     OW14698   2.678   1.549   2.489 -0.2857 -0.0194 -0.3698
 1021SOL    HW114699   2.763   1.525   2.526  0.0104 -1.8725 -2.2645
 1021SOL    HW214700   2.698   1.551   2.396  3.4352 -0.7419  0.4112
 1022SOL     OW14701   3.461   4.292   8.199  0.6328 -0.1768 -0.3594
 1022SOL    HW114702   3.510   4.287   8.117  1.9714  1.1015  0.3599
 1022SOL    HW214703   3.390   4.352   8.176  1.9098  1.2936 -0.4858
 1023SOL     OW14704   4.663   1.844   9.037  0.8389  0.2552 -0.5541
 1023SOL    HW114705   4.581   1.832   8.990 -0.5406  0.7577  1.7372
 1023SOL    HW214706   4.623   1.907   9.097 -2.8477 -2.9693  0.3235
 1024SOL     OW14707   3.769   0.202   9.343 -0.0054 -0.8533  0.7289
 1024SOL    HW114708   3.726   0.242   9.419  1.7062 -0.4002  1.4534
 1024SOL    HW214709   3.767   0.107   9.355  2.5220 -0.6334  2.8494
 1025SOL     OW14710   1.863   3.398   4.387 -0.0893 -0.3734 -0.8317
 1025SOL    HW114711   1.936   3.424   4.331 -0.6692  2.2438 -0.3772
 1025SOL    HW214712   1.825   3.485   4.393  0.2393 -0.1858 -1.4240
 1026SOL     OW14713   2.522   3.890   3.286 -0.4701 -0.1575 -0.0199
 1026SOL    HW114714   2.470   3.862   3.210  1.1314 -0.2898 -1.0805
 1026SOL    HW214715   2.612   3.856   3.287 -0.6699 -0.7688 -2.6590
 1027SOL     OW14716   1.176   1.642   9.655 -0.5810 -0.0906  0.1988
 1027SOL    HW114717   1.215   1.587   9.722  0.6232  1.4167  0.7496
 1027SOL    HW214718   1.119   1.579   9.611  0.1278 -0.8661  0.3886
 1028SOL     OW14719   3.773   2.463  11.873  0.3005 -1.0105 -0.0930
 1028SOL    HW114720   3.729   2.385  11.907 -3.3925  0.9437 -0.3722
 1028SOL    HW214721   3.756   2.453  11.779  0.8457 -0.7161 -0.2282
 1029SOL     OW14722   2.956   4.351   9.999  0.3228 -0.2579 -0.0514
 1029SOL    HW114723   3.025   4.330  10.062 -0.2666  0.4535  0.8117
 1029SOL    HW214724   2.890   4.298  10.044  0.6958 -0.9662 -0.3285
 1030SOL     OW14725   0.514   3.318   6.420 -0.5786 -0.5165  0.4971
 1030SOL    HW114726   0.527   3.233   6.378 -0.6976 -1.2295  1.8954
 1030SOL    HW214727   0.582   3.306   6.486 -0.4392  1.0820  0.6493
 1031SOL     OW14728   3.585   4.134  10.887  0.2687  0.0716  0.3346
 1031SOL    HW114729   3.609   4.052  10.931  1.3951 -0.0379 -0.4553
 1031SOL    HW214730   3.594   4.096  10.799 -2.3371 -0.8608  0.4685
 1032SOL     OW14731   4.129   0.281   1.601  0.6756 -0.1185  0.2382
 1032SOL    HW114732   4.183   0.360   1.604  0.4706  0.0306 -0.0173
 1032SOL    HW214733   4.053   0.323   1.560  0.3200  0.1086  1.1398
 1033SOL     OW14734   0.843   1.995   7.412 -0.3194  0.0063 -0.5239
 1033SOL    HW114735   0.937   1.978   7.409 -0.4396 -0.8585  0.3719
 1033SOL    HW214736   0.821   1.931   7.481  0.5411 -0.0986 -0.3442
 1034SOL     OW14737   0.354   4.255  14.415 -0.5019  0.0017  0.5848
 1034SOL    HW114738   0.339   4.305  14.335 -1.3977  1.4911  1.6867
 1034SOL    HW214739   0.264   4.230  14.438 -0.6435 -1.1874 -1.2240
 1035SOL     OW14740   2.843   4.214  13.758 -0.2344 -0.3500  0.2889
 1035SOL    HW114741   2.760   4.177  13.786 -0.6130  0.5744  0.3741
 1035SOL    HW214742   2.813   4.289  13.707  2.8042  1.3566  0.9679
 1036SOL     OW14743   3.996   3.368   3.735  0.2777  0.0634 -0.1832
 1036SOL    HW114744   4.010   3.284   3.691  1.4925 -0.5312  1.3434
 1036SOL    HW214745   3.903   3.388   3.728  0.1739 -1.2042 -2.4425
 1037SOL     OW14746   4.360   3.553  14.676 -0.0282  0.7383  0.7537
 1037SOL    HW114747   4.331   3.580  14.764 -1.0968  3.1126 -0.3354
 1037SOL    HW214748   4.446   3.594  14.685  0.2952 -0.0499  1.2459
 1038SOL     OW14749   1.609   1.804   2.291 -0.1839 -0.1785  0.2785
 1038SOL    HW114750   1.534   1.858   2.318  2.6061  4.0613 -0.3829
 1038SOL    HW214751   1.629   1.751   2.368  3.3328 -2.1546 -2.0274
 1039SOL     OW14752   1.849   4.266   3.567  0.0980  0.4053 -0.5480
 1039SOL    HW114753   1.801   4.225   3.639  0.9660  0.3701  0.0107
 1039SOL    HW214754   1.886   4.348   3.599  3.9253 -1.5837  0.0699
 1040SOL     OW14755   3.340   1.494  16.743 -0.1924 -0.2422 -0.9189
 1040SOL    HW114756   3.346   1.436  16.667 -0.6630 -0.9253 -0.4450
 1040SOL    HW214757   3.394   1.452  16.810 -3.1548 -0.5166  1.3230
 1041SOL     OW14758   3.552   2.414   9.232  0.3090  0.2230  0.4320
 1041SOL    HW114759   3.542   2.504   9.203  0.8548  0.0889 -0.1861
 1041SOL    HW214760   3.643   2.424   9.261  0.2104  0.0371  0.8130
 1042SOL     OW14761   0.090   4.131   3.185 -0.4128 -0.3245  0.4118
 1042SOL    HW114762   0.168   4.076   3.195 -0.0504  0.1087 -0.0569
 1042SOL    HW214763   0.037   4.081   3.247  0.6944  0.1402  1.7340
 1043SOL     OW14764   0.051   2.917  12.543 -0.5662 -0.3004 -0.0733
 1043SOL    HW114765   0.027   2.905  12.635 -0.9160  1.9031  0.1144
 1043SOL    HW214766   4.737   2.843  12.515 -1.1976 -0.0118  0.3905
 1044SOL     OW14767   3.733   3.738   1.118 -0.2384  0.1905  0.2895
 1044SOL    HW114768   3.815   3.764   1.158  0.9656 -2.0840 -0.6961
 1044SOL    HW214769   3.752   3.723   1.025  2.3656 -3.5916  1.4392
 1045SOL     OW14770   4.602   3.132  14.073  0.6337 -0.1703 -0.3623
 1045SOL    HW114771   4.668   3.196  14.045  2.5830 -2.0196 -0.0095
 1045SOL    HW214772   4.640   3.122  14.161 -0.0288 -0.2855 -0.0940
 1046SOL     OW14773   3.633   2.486  11.104  0.0421 -0.0238 -0.4031
 1046SOL    HW114774   3.710   2.524  11.063 -0.0263  0.3497 -0.1816
 1046SOL    HW214775   3.671   2.425  11.167 -1.8339  1.2882  1.9607
 1047SOL     OW14776   1.365   2.853   8.679  0.0417 -0.0824  0.2042
 1047SOL    HW114777   1.450   2.872   8.718 -0.7977  1.5928  1.2205
 1047SOL    HW214778   1.396   2.802   8.604 -2.4073  0.6384 -1.2998
 1048SOL     OW14779   4.285   0.081  15.218  0.4437  0.3052  0.1137
 1048SOL    HW114780   4.354   0.132  15.176  0.9886  0.3313  1.0308
 1048SOL    HW214781   4.309   4.731  15.198 -2.2581 -0.6955  1.2957
 1049SOL     OW14782   3.135   2.471   3.291 -0.1095  0.1548  0.0735
 1049SOL    HW114783   3.099   2.549   3.332 -0.1057  0.6555 -0.8673
 1049SOL    HW214784   3.229   2.483   3.304  0.0644 -0.7204 -0.3988
 1050SOL     OW14785   4.228   1.153  16.887 -0.6606  0.2966 -0.6499
 1050SOL    HW114786   4.315   1.114  16.882  0.3711  2.4999 -0.1166
 1050SOL    HW214787   4.245   1.223  16.951  0.7969 -0.0028 -0.7140
 1051SOL     OW14788   3.073   0.727  11.939 -0.3768  0.1135  0.3828
 1051SOL    HW114789   3.004   0.735  11.873  0.1373 -1.6101 -0.3718
 1051SOL    HW214790   3.025   0.741  12.020 -0.4457  0.2352  0.3207
 1052SOL     OW14791   2.184   3.071   7.802 -0.6890  0.1102  0.0556
 1052SOL    HW114792   2.148   3.004   7.860  1.0896 -0.1832  0.8292
 1052SOL    HW214793   2.116   3.138   7.792  1.9782  2.7843 -0.1876
 1053SOL     OW14794   0.668   2.198   6.662  0.2503 -0.1360  0.2785
 1053SOL    HW114795   0.754   2.225   6.631  1.3887 -3.3973  0.5838
 1053SOL    HW214796   0.683   2.108   6.692  2.5603  0.0262 -0.4273
 1054SOL     OW14797   0.481   3.353   7.224 -0.2234  0.3585  0.3601
 1054SOL    HW114798   0.405   3.402   7.255 -0.9300 -0.5124 -0.0018
 1054SOL    HW214799   0.459   3.334   7.133 -0.9307  1.5210  0.2827
 1055SOL     OW14800   0.246   3.541   7.267  0.0290 -0.0351 -0.4114
 1055SOL    HW114801   0.178   3.525   7.202  1.1536 -0.6093 -1.4592
 1055SOL    HW214802   0.185   3.532   7.340  3.1950  0.2547  2.3017
 1056SOL     OW14803   3.050   3.755  10.600 -0.7806  0.1762 -0.0034
 1056SOL    HW114804   2.959   3.766  10.573 -0.4633  0.5051 -0.9388
 1056SOL    HW214805   3.040   3.691  10.671 -1.5382  0.8571  0.5031
 1057SOL     OW14806   4.510   0.101   1.944 -0.0193 -0.3406 -0.0863
 1057SOL    HW114807   4.449   0.049   1.997  0.3159  0.4389  1.0641
 1057SOL    HW214808   4.451   0.118   1.871  1.1654 -3.6786 -1.8352
 1058SOL     OW14809   2.361   1.528   5.308 -0.7004 -0.0392  0.5009
 1058SOL    HW114810   2.361   1.463   5.378 -1.5139 -0.6905 -0.1023
 1058SOL    HW214811   2.297   1.491   5.248  0.2419  1.1754 -1.2917
 1059SOL     OW14812   3.897   0.652   6.297  0.8227 -0.0835 -0.0735
 1059SOL    HW114813   3.916   0.558   6.293  1.6492  0.0101  1.5090
 1059SOL    HW214814   3.812   0.659   6.253  0.4045  1.0047  0.9210
 1060SOL     OW14815   2.349   1.436   5.761  0.1745  0.1707 -0.1572
 1060SOL    HW114816   2.268   1.445   5.711  0.5018  0.7503 -0.5814
 1060SOL    HW214817   2.320   1.449   5.851  1.9345  0.6275  0.3394
 1061SOL     OW14818   4.515   3.711   5.689 -0.7020  0.0383 -0.0290
 1061SOL    HW114819   4.448   3.773   5.658 -0.9846 -0.4956 -0.4876
 1061SOL    HW214820   4.579   3.775   5.721 -0.4673 -0.1207 -0.1758
 1062SOL     OW14821   1.782   1.290   8.177 -0.3066 -0.6066  0.7929
 1062SOL    HW114822   1.874   1.315   8.179 -0.6547  0.7981 -1.2802
 1062SOL    HW214823   1.744   1.329   8.099  0.1107  0.2506  1.0226
 1063SOL     OW14824   4.271   2.406  16.169 -0.0879 -0.0424 -0.7998
 1063SOL    HW114825   4.193   2.357  16.194 -0.9050  1.6606  0.0170
 1063SOL    HW214826   4.239   2.442  16.086 -1.3661 -0.8881 -0.6783
 1064SOL     OW14827   4.653   0.389   1.363  0.0140 -0.5805  0.3151
 1064SOL    HW114828   4.667   0.307   1.316  1.9088 -2.9570  4.9785
 1064SOL    HW214829   4.726   0.444   1.332 -1.0641  1.9050  2.1715
 1065SOL     OW14830   2.788   4.676  12.109  0.2032 -0.1051 -0.6579
 1065SOL    HW114831   2.761   0.027  12.122 -2.3982 -0.9351 -0.1235
 1065SOL    HW214832   2.717   4.634  12.158  0.4226 -0.5511 -0.7212
 1066SOL     OW14833   2.747   2.083   0.978 -0.3770  0.3015  0.0595
 1066SOL    HW114834   2.739   2.130   0.895 -2.6696 -0.8046 -0.3540
 1066SOL    HW214835   2.827   2.115   1.020  0.3802  2.3618 -2.9392
 1067SOL     OW14836   2.987   3.505   9.316  0.4333 -0.6607  0.3349
 1067SOL    HW114837   3.041   3.493   9.237  1.6844  1.2039  0.8941
 1067SOL    HW214838   2.908   3.488   9.265  0.4651 -0.2946  0.1597
 1068SOL     OW14839   4.132   0.619   3.821  0.3385 -0.0330  0.7428
 1068SOL    HW114840   4.214   0.659   3.851  0.1664  1.2023 -0.4097
 1068SOL    HW214841   4.077   0.632   3.898  1.0513  2.1696  0.8779
 1069SOL     OW14842   2.335   3.164   2.173  0.3545 -0.3680  0.5721
 1069SOL    HW114843   2.346   3.111   2.094  2.9655  0.5950  0.2658
 1069SOL    HW214844   2.244   3.186   2.154  0.0281 -0.4217  2.0519
 1070SOL     OW14845   0.889   3.230  17.146  0.2341 -0.0720  0.0100
 1070SOL    HW114846   0.811   3.277  17.117  1.1570  2.4096  1.5033
 1070SOL    HW214847   0.865   3.138  17.138  1.2401 -0.1470 -2.2991
 1071SOL     OW14848   4.243   4.704   4.685  0.1599 -0.4119 -0.3982
 1071SOL    HW114849   4.182   4.646   4.730 -1.6958  0.7273 -1.4822
 1071SOL    HW214850   4.193   0.044   4.668  1.4075  1.1977  3.5564
 1072SOL     OW14851   0.766   3.133   5.511 -0.0413  0.6307  0.3852
 1072SOL    HW114852   0.680   3.126   5.469  0.6062 -1.2788 -0.6140
 1072SOL    HW214853   0.774   3.045   5.547  0.2158  0.0009 -1.1946
 1073SOL     OW14854   1.192   1.319   2.812  0.4494 -0.2932 -0.0743
 1073SOL    HW114855   1.164   1.337   2.902  0.2460 -0.4365 -0.1094
 1073SOL    HW214856   1.252   1.394   2.813 -1.0823  0.9345 -0.7452
 1074SOL     OW14857   1.566   1.624   6.418  0.7835  0.6269 -0.3237
 1074SOL    HW114858   1.551   1.594   6.329  0.3734 -1.3725  0.4103
 1074SOL    HW214859   1.654   1.662   6.414  1.7974 -1.5846  0.8031
 1075SOL     OW14860   0.212   2.184   4.576  0.3368  0.0415 -0.1153
 1075SOL    HW114861   0.261   2.262   4.601 -1.0074  1.0286 -0.5773
 1075SOL    HW214862   0.124   2.217   4.590  0.3187 -0.8887  2.1052
 1076SOL     OW14863   0.431   2.323  14.445 -0.3554  0.1928  0.3046
 1076SOL    HW114864   0.458   2.241  14.404 -4.2574 -0.4994 -0.8063
 1076SOL    HW214865   0.479   2.300  14.525  3.2528 -1.2099 -2.2605
 1077SOL     OW14866   1.713   1.417   5.702  0.4961 -0.5479 -0.5225
 1077SOL    HW114867   1.716   1.364   5.782 -0.4919 -0.7266 -0.5911
 1077SOL    HW214868   1.648   1.366   5.653  0.2093  0.1373 -0.8457
 1078SOL     OW14869   2.024   1.831   9.390 -0.1900  0.2011 -0.5886
 1078SOL    HW114870   1.993   1.851   9.478  2.9536  1.7760  0.1761
 1078SOL    HW214871   2.119   1.836   9.404 -0.3427  0.2724  0.4686
 1079SOL     OW14872   0.889   1.585   1.675 -0.6021  0.4754  0.7955
 1079SOL    HW114873   0.897   1.531   1.754 -1.5416 -0.7769  0.0387
 1079SOL    HW214874   0.981   1.613   1.677 -0.3189 -0.2521 -1.5764
 1080SOL     OW14875   3.371   2.725   2.630  0.0661 -0.1686 -0.4857
 1080SOL    HW114876   3.332   2.722   2.718  1.1234 -0.5665 -0.0317
 1080SOL    HW214877   3.450   2.775   2.652  0.6227 -1.8006  1.2489
 1081SOL     OW14878   3.765   1.278   7.383  0.2558  0.7172 -0.5424
 1081SOL    HW114879   3.742   1.186   7.373 -1.4465  1.1364 -0.5701
 1081SOL    HW214880   3.688   1.319   7.343  0.3110 -0.8854 -2.2726
 1082SOL     OW14881   1.498   2.643   8.066  0.7420  0.2393  0.1738
 1082SOL    HW114882   1.464   2.569   8.116  1.8145 -0.2107  0.2485
 1082SOL    HW214883   1.417   2.690   8.046 -0.6617 -2.5916 -0.7173
 1083SOL     OW14884   2.030   0.230   8.885 -0.3642 -0.0601 -0.3454
 1083SOL    HW114885   2.037   0.157   8.947 -0.7746  0.8377  0.7479
 1083SOL    HW214886   2.027   0.186   8.799 -0.4975 -0.8120  0.0429
 1084SOL     OW14887   0.880   1.815   5.389 -0.4498 -0.1127  0.3486
 1084SOL    HW114888   0.791   1.836   5.360 -0.0241 -0.0455 -0.8807
 1084SOL    HW214889   0.926   1.893   5.357 -1.7537  0.8876  0.9079
 1085SOL     OW14890   2.536   1.950   5.300  0.1548  0.1398  0.1309
 1085SOL    HW114891   2.462   1.896   5.273  1.0590 -0.2537 -1.5253
 1085SOL    HW214892   2.560   1.907   5.382 -1.7106  0.3377  0.7977
 1086SOL     OW14893   4.587   3.569   5.308  0.1048  0.5563 -0.1838
 1086SOL    HW114894   4.585   3.534   5.397 -0.4455 -1.2872 -0.9213
 1086SOL    HW214895   4.647   3.642   5.321 -1.5016  1.5178  1.7766
 1087SOL     OW14896   2.845   2.795   6.090 -0.1159  0.8090  0.0884
 1087SOL    HW114897   2.825   2.784   5.997  0.5736 -1.1688  0.1780
 1087SOL    HW214898   2.830   2.887   6.112 -1.2273  0.8845 -1.0146
 1088SOL     OW14899   0.205   4.730   7.349 -0.4443 -0.4475  0.7122
 1088SOL    HW114900   0.261   0.034   7.414 -0.0808  0.7508 -0.3977
 1088SOL    HW214901   0.192   4.649   7.398 -0.2982  0.0756  1.6240
 1089SOL     OW14902   1.752   3.297   2.407  0.4787 -0.3290  0.5570
 1089SOL    HW114903   1.764   3.296   2.312 -0.0015 -2.0618  0.5189
 1089SOL    HW214904   1.839   3.281   2.442  0.8128  2.4578  1.0306
 1090SOL     OW14905   4.435   0.783   8.853 -0.3029  0.0696 -0.3400
 1090SOL    HW114906   4.367   0.716   8.850  0.1612 -0.4818  1.7149
 1090SOL    HW214907   4.509   0.735   8.891 -0.0757  0.7877  0.1215
 1091SOL     OW14908   0.309   2.693  12.377 -0.3792 -0.3965 -0.4100
 1091SOL    HW114909   0.236   2.744  12.341 -0.7017  0.5619  1.6249
 1091SOL    HW214910   0.260   2.642  12.441  1.0445 -0.7616  0.3901
 1092SOL     OW14911   3.191   3.313   6.433  0.5523  0.9809 -0.2090
 1092SOL    HW114912   3.137   3.382   6.394 -1.3244 -0.1924  0.3103
 1092SOL    HW214913   3.182   3.336   6.525 -0.8227  0.9580 -0.3374
 1093SOL     OW14914   1.194   0.356  11.782 -0.1646  0.3329 -0.0428
 1093SOL    HW114915   1.102   0.339  11.763 -0.3216  0.7976  0.3112
 1093SOL    HW214916   1.236   0.309  11.710 -0.5555  0.2498 -0.2192
 1094SOL     OW14917   1.632   0.660   4.896 -0.5738  0.1071 -0.3289
 1094SOL    HW114918   1.685   0.736   4.874  1.9759 -1.8824 -1.0185
 1094SOL    HW214919   1.668   0.626   4.977 -1.8912  0.2998  0.3409
 1095SOL     OW14920   0.410   1.255   8.370  0.4504 -0.4056  0.6589
 1095SOL    HW114921   0.437   1.165   8.386 -2.7820 -1.3718  0.7470
 1095SOL    HW214922   0.436   1.291   8.454 -3.2599 -0.8612  1.9987
 1096SOL     OW14923   1.064   1.609   7.320  0.1382  0.0804 -0.1315
 1096SOL    HW114924   1.018   1.527   7.304 -0.7442  0.8817 -1.7245
 1096SOL    HW214925   1.099   1.584   7.405 -0.9970  0.7484  0.5320
 1097SOL     OW14926   4.186   4.288   9.345 -0.0154 -0.2489 -0.0286
 1097SOL    HW114927   4.206   4.285   9.438  2.3730  0.2197 -0.5327
 1097SOL    HW214928   4.237   4.359   9.307 -0.0471 -0.0794  0.2463
 1098SOL     OW14929   0.597   1.512   7.943 -0.4674  0.4927  0.2843
 1098SOL    HW114930   0.591   1.521   8.038  1.5178 -0.5164  0.4961
 1098SOL    HW214931   0.596   1.417   7.933 -1.1189  0.6509 -1.1980
 1099SOL     OW14932   0.141   3.936   2.914  0.3153 -0.6003  1.0451
 1099SOL    HW114933   0.178   4.008   2.863  1.6697 -0.3139  2.4254
 1099SOL    HW214934   0.162   3.954   3.006  0.0146  0.1825  0.9617
 1100SOL     OW14935   3.621   2.230  11.950 -0.0350  0.0462 -0.1687
 1100SOL    HW114936   3.604   2.136  11.958 -0.8534  0.3485  1.7128
 1100SOL    HW214937   3.562   2.268  11.884 -0.3842  0.9248  0.6461
 1101SOL     OW14938   4.308   0.620   2.159  0.0485  0.0953  0.4220
 1101SOL    HW114939   4.345   0.575   2.083 -0.1283  0.7275 -0.0353
 1101SOL    HW214940   4.377   0.680   2.187 -0.6842  0.1206  2.2065
 1102SOL     OW14941   1.154   0.571   8.885  0.0796  0.8008  0.5895
 1102SOL    HW114942   1.224   0.628   8.917  0.4182 -0.9649  2.9999
 1102SOL    HW214943   1.119   0.537   8.968  1.4130 -1.3298  0.2773
 1103SOL     OW14944   2.010   3.439   6.428  0.0352 -0.3697 -0.0277
 1103SOL    HW114945   2.000   3.350   6.462 -1.8038 -0.7595 -1.6314
 1103SOL    HW214946   2.001   3.488   6.510 -0.4533 -0.2999 -0.1251
 1104SOL     OW14947   0.540   3.724   3.564 -0.3053 -0.1912 -0.1832
 1104SOL    HW114948   0.523   3.630   3.559 -0.3869 -0.3212  2.4564
 1104SOL    HW214949   0.574   3.728   3.653 -0.1945 -2.8960 -0.1047
 1105SOL     OW14950   4.511   2.679   5.128  0.7775 -0.0573  0.0211
 1105SOL    HW114951   4.516   2.698   5.035 -1.3108  0.0486 -0.0718
 1105SOL    HW214952   4.429   2.723   5.148  1.2562  0.4314  0.9046
 1106SOL     OW14953   4.360   4.532   9.187 -0.3433  0.0944  0.3229
 1106SOL    HW114954   4.407   4.599   9.236 -1.6606  0.9481  0.4069
 1106SOL    HW214955   4.307   4.581   9.124 -0.0537  0.3625  0.2854
 1107SOL     OW14956   3.253   1.482  12.370 -0.2342  0.4367  0.2019
 1107SOL    HW114957   3.159   1.467  12.359  0.1731 -1.4299 -0.8000
 1107SOL    HW214958   3.288   1.392  12.369  0.2139  0.5776  3.0882
 1108SOL     OW14959   3.244   0.131  17.605 -0.3640  0.5855  0.0260
 1108SOL    HW114960   3.286   0.074  17.541 -0.6982  0.4969 -0.1114
 1108SOL    HW214961   3.260   0.215  17.562 -0.9437  1.4323  1.4535
 1109SOL     OW14962   3.092   2.333   9.178  0.2733  0.2859 -0.7578
 1109SOL    HW114963   3.119   2.421   9.203  0.1432  0.2122 -0.3594
 1109SOL    HW214964   3.132   2.343   9.091  0.0210 -0.8535 -1.0114
 1110SOL     OW14965   0.832   3.085  11.972 -0.1781 -0.1865 -0.3954
 1110SOL    HW114966   0.791   3.164  12.006 -2.7700 -1.5626 -0.3638
 1110SOL    HW214967   0.809   3.032  12.049  2.2771 -2.4476 -1.2298
 1111SOL     OW14968   0.113   3.195   0.667  0.7428 -0.1197 -0.1810
 1111SOL    HW114969   0.100   3.285   0.694 -2.3287 -0.1666 -1.5060
 1111SOL    HW214970   0.194   3.196   0.616  1.8579 -2.6278  1.5414
 1112SOL     OW14971   0.794   2.768   8.060 -0.0135  0.0662  0.2180
 1112SOL    HW114972   0.782   2.803   8.148 -0.4618  2.1616 -0.6555
 1112SOL    HW214973   0.844   2.836   8.014 -1.0544  0.3427 -0.5127
 1113SOL     OW14974   1.191   0.485   8.620  0.3742  0.0913  0.2701
 1113SOL    HW114975   1.159   0.502   8.708  2.4656  2.6172  0.5565
 1113SOL    HW214976   1.245   0.406   8.628  1.2394  0.7183  0.7073
 1114SOL     OW14977   0.802   1.952   6.566  0.8259  0.0249 -0.1080
 1114SOL    HW114978   0.769   1.985   6.483  0.7403  1.6250  0.5627
 1114SOL    HW214979   0.723   1.908   6.597  0.6665  0.0508 -0.4790
 1115SOL     OW14980   3.107   2.507   7.820 -0.2609 -0.2326 -0.7578
 1115SOL    HW114981   3.158   2.452   7.880  0.1193 -0.6650 -1.4840
 1115SOL    HW214982   3.167   2.512   7.746  1.4786 -3.6179  0.4007
 1116SOL     OW14983   4.075   1.591   4.663  0.4755  0.1846  0.5187
 1116SOL    HW114984   4.077   1.597   4.759  1.6350 -0.7346  0.5617
 1116SOL    HW214985   4.000   1.534   4.643  0.3898  0.5847 -0.2855
 1117SOL     OW14986   3.989   3.394   6.760  0.3088 -0.2453  0.2867
 1117SOL    HW114987   3.910   3.365   6.714 -0.6157  0.8231  1.2214
 1117SOL    HW214988   4.028   3.450   6.693  0.1217  0.5798  0.8611
 1118SOL     OW14989   2.324   0.389   3.765 -0.5943  0.2428 -0.1807
 1118SOL    HW114990   2.264   0.319   3.738 -0.7545  0.5094 -0.5024
 1118SOL    HW214991   2.401   0.369   3.711  1.2165  0.9377  2.1328
 1119SOL     OW14992   3.466   4.474   7.262  0.2668  0.0444 -0.0171
 1119SOL    HW114993   3.374   4.501   7.272  1.1549  2.9313  0.5458
 1119SOL    HW214994   3.475   4.463   7.168  0.6099 -2.7568  0.3501
 1120SOL     OW14995   1.705   1.164   7.618  0.0445  0.3065  0.0937
 1120SOL    HW114996   1.728   1.204   7.702  0.7380 -0.7829  0.4267
 1120SOL    HW214997   1.627   1.112   7.635  1.9270 -1.8219  2.2099
 1121SOL     OW14998   0.621   3.720   8.030 -0.2888 -0.4004  0.7816
 1121SOL    HW114999   0.596   3.684   8.115  1.1630 -1.2502  0.8498
 1121SOL    HW215000   0.622   3.640   7.978 -0.8684  0.3844 -0.4319
 1122SOL     OW15001   0.907   1.756   3.566  0.3491 -0.4818  0.0044
 1122SOL    HW115002   0.836   1.820   3.570 -0.5108 -1.4482 -0.0287
 1122SOL    HW215003   0.974   1.813   3.606  1.0027 -1.3019  0.0754
 1123SOL     OW15004   1.492   0.626  15.639 -0.1302 -0.2174  0.2029
 1123SOL    HW115005   1.401   0.603  15.621 -0.0767 -0.6405  0.4572
 1123SOL    HW215006   1.473   0.719  15.634  1.2607  0.0265 -0.5575
 1124SOL     OW15007   0.455   3.270   2.496  0.4986  0.2587 -0.2184
 1124SOL    HW115008   0.456   3.181   2.462 -2.7289 -0.1359  0.7376
 1124SOL    HW215009   0.547   3.271   2.524  0.0610  0.1677  1.1841
 1125SOL     OW15010   4.714   4.167   8.666  0.0024 -0.4236 -0.5689
 1125SOL    HW115011   4.696   4.232   8.734  1.6897 -0.3701 -0.1775
 1125SOL    HW215012   0.054   4.206   8.629  0.4229  1.1254  2.0097
 1126SOL     OW15013   1.680   3.862   0.808 -0.0064 -0.2316 -0.2269
 1126SOL    HW115014   1.730   3.827   0.735  0.9382 -1.7674  1.1685
 1126SOL    HW215015   1.594   3.892   0.777 -0.2433 -0.3573  0.3001
 1127SOL     OW15016   3.221   4.096  11.159 -0.5904  0.0832  0.6515
 1127SOL    HW115017   3.295   4.104  11.220 -0.4866  3.0191  0.1064
 1127SOL    HW215018   3.166   4.030  11.201 -1.0646 -0.1457 -0.3431
 1128SOL     OW15019   1.638   1.039   5.958  0.2789 -0.2574 -0.0738
 1128SOL    HW115020   1.546   1.049   5.933  0.7323  1.3936 -1.0989
 1128SOL    HW215021   1.659   0.957   5.913 -2.9340 -0.7302 -0.7112
 1129SOL     OW15022   1.356   0.283   2.486  0.1158 -0.5485 -0.4552
 1129SOL    HW115023   1.331   0.375   2.486  2.0434 -0.0127 -0.5732
 1129SOL    HW215024   1.413   0.292   2.410  0.9062 -1.3173  0.0490
 1130SOL     OW15025   1.187   1.485   0.081  0.7785  0.1250 -0.6201
 1130SOL    HW115026   1.149   1.530   0.157  0.4181 -2.3287  0.6503
 1130SOL    HW215027   1.235   1.560   0.044  1.8373 -0.0829  0.3119
 1131SOL     OW15028   3.472   2.250  15.509 -0.1725 -0.1941  0.0050
 1131SOL    HW115029   3.440   2.182  15.567 -0.3875  0.3564  0.5302
 1131SOL    HW215030   3.396   2.300  15.481  1.6717  2.5187 -0.1572
 1132SOL     OW15031   4.419   1.252   7.620  0.0517  0.1869 -0.0752
 1132SOL    HW115032   4.331   1.290   7.622  0.2220  0.5258  0.8038
 1132SOL    HW215033   4.462   1.298   7.549  0.3560  2.0022  1.2869
 1133SOL     OW15034   0.479   1.745  14.248  0.0070 -0.3413 -0.1690
 1133SOL    HW115035   0.467   1.652  14.263 -1.3864  0.0420  1.0885
 1133SOL    HW215036   0.503   1.746  14.155  2.0612 -0.6771  0.3687
 1134SOL     OW15037   4.722   0.921   9.426  0.0214 -0.1657  0.7620
 1134SOL    HW115038   0.064   0.873   9.444 -1.2783 -2.3200  0.8945
 1134SOL    HW215039   4.693   0.945   9.514 -2.0331 -1.1176  0.3314
 1135SOL     OW15040   3.579   0.219   1.884  0.0609  0.0395 -0.1324
 1135SOL    HW115041   3.622   0.166   1.951 -1.7772 -0.2687  0.8091
 1135SOL    HW215042   3.549   0.290   1.941  0.5851  0.1057  0.0669
 1136SOL     OW15043   0.892   2.027   2.042 -0.3877  0.5063 -0.5033
 1136SOL    HW115044   0.912   1.943   2.083  1.0725  0.5755 -1.0870
 1136SOL    HW215045   0.847   2.077   2.110 -1.4334  0.8843 -1.4595
 1137SOL     OW15046   0.113   0.671   4.430 -0.2467 -0.4723  0.6967
 1137SOL    HW115047   0.161   0.594   4.399 -1.8870 -0.4821 -1.9040
 1137SOL    HW215048   0.156   0.684   4.514  2.3636 -0.5827 -0.6394
 1138SOL     OW15049   2.238   2.050   4.948 -0.1767 -0.0206  0.3548
 1138SOL    HW115050   2.301   2.119   4.965 -0.9938  0.0005  3.1811
 1138SOL    HW215051   2.257   2.043   4.854 -2.4012 -1.8525  0.0367
 1139SOL     OW15052   1.056   2.919   1.048  0.3371 -0.0078 -0.2409
 1139SOL    HW115053   1.006   2.922   0.966 -0.2883 -2.0990  0.0669
 1139SOL    HW215054   1.126   2.860   1.018  0.7031  0.3331 -0.0676
 1140SOL     OW15055   0.226   4.319  14.782  0.0897  0.2907 -0.4244
 1140SOL    HW115056   0.208   4.247  14.844  1.0660 -0.9406 -1.5735
 1140SOL    HW215057   0.146   4.312  14.729 -2.1955 -2.5455  3.3605
 1141SOL     OW15058   4.201   3.797  16.955 -0.1652  0.3308 -0.4907
 1141SOL    HW115059   4.206   3.766  17.046  0.6443 -0.1234 -0.6898
 1141SOL    HW215060   4.227   3.719  16.906  1.9268  1.4872 -1.2321
 1142SOL     OW15061   2.982   0.526   2.501 -0.0251 -0.2402  0.1721
 1142SOL    HW115062   2.909   0.494   2.448  0.8055 -1.8947  0.0180
 1142SOL    HW215063   3.061   0.488   2.463 -0.2014 -1.6218  1.2008
 1143SOL     OW15064   0.092   3.708   6.444  0.0631 -0.0582  0.5050
 1143SOL    HW115065   0.111   3.726   6.536 -2.8215  1.6522  0.7784
 1143SOL    HW215066   0.178   3.698   6.404  0.0536 -0.0037  0.4709
 1144SOL     OW15067   1.354   1.899   3.391 -0.5586  0.5133 -0.4842
 1144SOL    HW115068   1.276   1.845   3.377 -0.1577 -0.5260  1.3174
 1144SOL    HW215069   1.316   1.979   3.428 -0.3611  1.2707 -1.9223
 1145SOL     OW15070   0.947   3.145   1.146  0.0380  0.0962  0.4097
 1145SOL    HW115071   0.995   3.064   1.163  0.6731  0.4022  0.0882
 1145SOL    HW215072   0.949   3.152   1.051  3.7824 -1.2250  0.3825
 1146SOL     OW15073   4.141   4.082   6.219  0.3413  0.7538 -0.4698
 1146SOL    HW115074   4.203   4.124   6.160  0.8985 -2.5378 -2.1977
 1146SOL    HW215075   4.087   4.039   6.153  2.7499 -1.8525 -0.7491
 1147SOL     OW15076   1.393   1.918   4.679 -0.4487  0.2977 -0.3582
 1147SOL    HW115077   1.298   1.926   4.681 -0.4417  0.6501 -1.3824
 1147SOL    HW215078   1.406   1.856   4.608  2.0991  1.6355 -1.0897
 1148SOL     OW15079   1.168   2.545   6.764  0.1460  0.1874  0.4222
 1148SOL    HW115080   1.107   2.574   6.696  1.7541  2.8428  0.0951
 1148SOL    HW215081   1.107   2.503   6.824 -0.4071  1.5088  0.8042
 1149SOL     OW15082   3.577   3.009   2.387  0.1511  0.8449 -0.5890
 1149SOL    HW115083   3.652   3.050   2.430  1.8207 -2.8283 -0.0343
 1149SOL    HW215084   3.510   3.065   2.426  0.3088  0.3864  0.3364
 1150SOL     OW15085   0.165   0.424   1.518  0.8065  0.2550  0.1796
 1150SOL    HW115086   0.207   0.476   1.586 -1.1595  0.5616  1.1677
 1150SOL    HW215087   0.070   0.421   1.530  0.9757  1.5644  1.8540
 1151SOL     OW15088   3.892   1.403   2.728 -0.9323  0.3698 -0.2614
 1151SOL    HW115089   3.879   1.346   2.804 -0.6644 -0.8350 -1.1101
 1151SOL    HW215090   3.888   1.349   2.649  0.9571 -0.0963 -0.0172
 1152SOL     OW15091   1.699   0.651  14.708 -1.0501 -0.0101  0.4410
 1152SOL    HW115092   1.731   0.580  14.652  0.6911  1.0919  0.0349
 1152SOL    HW215093   1.774   0.670  14.765 -0.2675  1.3976 -1.0799
 1153SOL     OW15094   0.634   4.323   3.077  0.0898 -0.1085  0.2869
 1153SOL    HW115095   0.619   4.234   3.044  1.9421 -0.3310  0.0065
 1153SOL    HW215096   0.729   4.315   3.083  0.1044  0.8256  1.2675
 1154SOL     OW15097   1.474   2.348  15.399  0.1914 -0.3125  0.0866
 1154SOL    HW115098   1.520   2.394  15.329 -0.9001 -2.0035 -1.7567
 1154SOL    HW215099   1.417   2.286  15.354  1.1478 -0.7616 -0.5050
 1155SOL     OW15100   2.210   2.894  12.979  0.0047 -0.2736  0.2196
 1155SOL    HW115101   2.193   2.984  13.007  2.4394  0.1581  0.3351
 1155SOL    HW215102   2.155   2.842  13.038  1.9181 -0.0984  2.1540
 1156SOL     OW15103   2.105   2.117   2.512  0.1406 -0.2580  0.4708
 1156SOL    HW115104   2.147   2.097   2.429 -0.2539  3.1516 -0.5778
 1156SOL    HW215105   2.025   2.163   2.483  0.6770  0.6227  0.3735
 1157SOL     OW15106   0.177   2.799  11.799  0.1713  0.1884  0.1015
 1157SOL    HW115107   0.106   2.763  11.852  0.4261 -0.6413 -0.1356
 1157SOL    HW215108   0.227   2.831  11.874 -0.9074 -0.0457  0.9234
 1158SOL     OW15109   3.257   0.355   8.167 -0.2071 -0.1215 -1.2381
 1158SOL    HW115110   3.267   0.449   8.153 -1.1750  0.1774 -0.0098
 1158SOL    HW215111   3.323   0.342   8.235 -2.2760 -0.0290  0.8084
 1159SOL     OW15112   4.540   0.783   2.169 -0.1393 -0.9769 -0.1743
 1159SOL    HW115113   4.530   0.854   2.105  0.0760  1.6727  2.7407
 1159SOL    HW215114   4.604   0.729   2.123  0.1767 -0.8613  0.1345
 1160SOL     OW15115   4.732   1.220   3.878  0.3782  0.2160  0.6071
 1160SOL    HW115116   0.040   1.210   3.960  1.0302 -0.3600  0.1540
 1160SOL    HW215117   4.713   1.127   3.868  0.7139 -0.1595  3.6126
 1161SOL     OW15118   4.647   0.069   7.353 -0.4821  0.1861  0.0771
 1161SOL    HW115119   4.738   0.085   7.375 -0.5029 -0.2755  0.4876
 1161SOL    HW215120   4.601   0.094   7.434 -2.6782  0.0808 -1.1199
 1162SOL     OW15121   2.104   2.849   4.020 -0.3161  0.0550 -0.3693
 1162SOL    HW115122   2.153   2.825   3.942  0.9056  1.9510 -0.1742
 1162SOL    HW215123   2.064   2.770   4.058 -1.8911  0.5779 -0.9447
 1163SOL     OW15124   1.507   4.137   9.573 -0.5549 -0.1463 -0.3087
 1163SOL    HW115125   1.523   4.181   9.657  0.0669 -0.0808 -0.4625
 1163SOL    HW215126   1.573   4.068   9.574  0.8093  1.1494 -0.1416
 1164SOL     OW15127   2.905   1.636   9.414 -0.4206  0.4700 -0.3392
 1164SOL    HW115128   2.998   1.645   9.435  0.1408 -3.1917 -1.2229
 1164SOL    HW215129   2.879   1.628   9.506 -2.1560 -3.1493 -1.1407
 1165SOL     OW15130   0.782   3.075  13.693 -0.0918 -0.1199  0.4776
 1165SOL    HW115131   0.784   3.150  13.753  1.0834 -0.7323  1.1887
 1165SOL    HW215132   0.841   3.020  13.744  0.1508 -0.9324 -0.6749
 1166SOL     OW15133   2.850   1.993   7.650  0.6152  0.0575 -0.2846
 1166SOL    HW115134   2.769   1.947   7.670 -0.1587  1.0496 -1.1441
 1166SOL    HW215135   2.842   2.073   7.702 -0.1236  0.4582 -1.0150
 1167SOL     OW15136   3.505   1.600   9.899  0.0196 -0.5213 -0.2643
 1167SOL    HW115137   3.466   1.622   9.984  0.2302 -0.4171 -0.1940
 1167SOL    HW215138   3.590   1.644   9.890 -0.2134 -0.0461 -0.1828
 1168SOL     OW15139   4.255   0.749  10.002  0.2109 -0.0446  0.0747
 1168SOL    HW115140   4.276   0.792   9.919  0.3157 -1.2336 -0.5109
 1168SOL    HW215141   4.252   0.663   9.960 -0.1181  1.0323 -2.1005
 1169SOL     OW15142   0.632   2.011  17.113 -0.2050 -0.0195 -0.0525
 1169SOL    HW115143   0.661   2.051  17.195  3.1923 -1.3620 -0.6103
 1169SOL    HW215144   0.657   2.071  17.043  2.3798  1.0116  1.7497
 1170SOL     OW15145   2.600   2.923   7.210  0.3986 -0.2792 -0.1727
 1170SOL    HW115146   2.577   2.832   7.192  1.0166 -0.3856 -0.4211
 1170SOL    HW215147   2.650   2.909   7.291  1.5370 -2.1362 -1.2062
 1171SOL     OW15148   2.619   2.755   2.274  0.1953 -0.1553 -0.5563
 1171SOL    HW115149   2.647   2.843   2.300 -0.8368  0.0274 -0.0773
 1171SOL    HW215150   2.561   2.738   2.348  1.3827  0.8401  0.6015
 1172SOL     OW15151   2.067   3.087  12.737 -0.3637 -0.8828  0.0428
 1172SOL    HW115152   1.975   3.106  12.719  0.7444  3.0241 -1.5940
 1172SOL    HW215153   2.103   3.100  12.649  2.3885  1.0697  1.4314
 1173SOL     OW15154   0.587   3.080   7.870  0.1161 -0.3302 -0.1408
 1173SOL    HW115155   0.512   3.021   7.862  0.3988 -0.9710  1.7764
 1173SOL    HW215156   0.615   3.088   7.779  0.3540 -0.7849 -0.1080
 1174SOL     OW15157   2.879   0.261   9.308 -0.2753  0.2881 -0.2111
 1174SOL    HW115158   2.842   0.327   9.366 -0.8289  0.0098 -0.2453
 1174SOL    HW215159   2.844   0.179   9.344 -1.5521  0.8856 -0.0949
 1175SOL     OW15160   2.343   1.049   8.563 -0.5313  0.0852  1.1918
 1175SOL    HW115161   2.319   0.995   8.488  1.1341  0.6125  0.2729
 1175SOL    HW215162   2.385   0.990   8.625 -1.2964 -0.4060  1.2378
 1176SOL     OW15163   0.680   3.449   7.641 -0.6658  0.1455  0.3391
 1176SOL    HW115164   0.598   3.420   7.602  1.0486 -4.1721 -0.0699
 1176SOL    HW215165   0.703   3.526   7.588 -3.1067  1.6740  1.5626
 1177SOL     OW15166   1.045   1.345   3.033 -0.4266  0.1596  0.3939
 1177SOL    HW115167   0.972   1.309   3.083  0.3577 -0.8722  0.8008
 1177SOL    HW215168   1.100   1.386   3.100  2.0245  1.1685 -2.2027
 1178SOL     OW15169   0.313   1.172  13.587 -0.5116 -0.0162 -0.0022
 1178SOL    HW115170   0.287   1.119  13.512  1.4184 -3.6963  1.9525
 1178SOL    HW215171   0.358   1.109  13.642 -1.6432 -0.6912  0.1547
 1179SOL     OW15172   3.131   3.664   5.605 -0.2664  0.3226  0.7089
 1179SOL    HW115173   3.160   3.577   5.577 -2.1013 -0.2001  0.4004
 1179SOL    HW215174   3.186   3.677   5.683  0.7386  0.1344  0.0261
 1180SOL     OW15175   1.850   2.037   6.328  0.0128  0.6093  0.7694
 1180SOL    HW115176   1.773   2.094   6.332 -1.9077 -2.1404  3.2021
 1180SOL    HW215177   1.914   2.095   6.287  0.1994 -0.4234 -0.4429
 1181SOL     OW15178   1.044   1.263   8.093 -1.0361 -0.4438  0.1648
 1181SOL    HW115179   1.117   1.237   8.038 -0.0135 -0.4133  1.4919
 1181SOL    HW215180   0.967   1.274   8.037 -1.5455  0.2484  0.9771
 1182SOL     OW15181   0.974   2.645   8.290  0.7536  0.4087  0.0658
 1182SOL    HW115182   1.032   2.698   8.344 -0.1139  0.5684  0.8382
 1182SOL    HW215183   0.906   2.712   8.293 -0.9080 -1.3181  0.5851
 1183SOL     OW15184   2.121   4.329   9.988 -0.3012 -0.0960  0.8748
 1183SOL    HW115185   2.128   4.422   9.968  0.5754 -0.1332  0.9869
 1183SOL    HW215186   2.040   4.315   9.939  0.3838  2.0252 -0.8618
 1184SOL     OW15187   4.575   1.604   8.106  0.2932 -0.1932 -0.5730
 1184SOL    HW115188   4.558   1.645   8.191  3.0662  0.9489 -0.5387
 1184SOL    HW215189   4.667   1.575   8.104  0.9228  1.6730  2.0294
 1185SOL     OW15190   1.679   2.085   7.517 -0.5316 -0.0234  0.4719
 1185SOL    HW115191   1.676   1.990   7.531 -0.9335  0.1950  1.9080
 1185SOL    HW215192   1.612   2.088   7.449  0.8377  0.2710 -0.8617
 1186SOL     OW15193   1.487   1.154  12.362  0.2212 -0.6515  0.2875
 1186SOL    HW115194   1.432   1.104  12.422 -1.2960 -0.3601 -0.8493
 1186SOL    HW215195   1.467   1.107  12.282  0.6529 -1.7486  0.8302
 1187SOL     OW15196   2.775   2.976   0.461  0.7818 -0.0528  0.1240
 1187SOL    HW115197   2.795   3.069   0.462 -3.3350  0.8451 -1.1988
 1187SOL    HW215198   2.817   2.947   0.542 -0.3350  1.6677  1.3161
 1188SOL     OW15199   1.854   2.989   0.517  0.0107 -0.8627  0.3595
 1188SOL    HW115200   1.794   2.953   0.583 -0.5021 -0.1673  0.2750
 1188SOL    HW215201   1.931   2.947   0.555  0.1106 -0.8288  0.1934
 1189SOL     OW15202   3.340   4.661   4.906  0.4861 -0.6281  0.1511
 1189SOL    HW115203   3.261   4.715   4.902  0.6082 -0.4929 -0.5281
 1189SOL    HW215204   3.357   4.668   4.999  1.9750  1.2068 -0.2778
 1190SOL     OW15205   1.540   1.883   8.878 -0.2265  0.4081  0.3494
 1190SOL    HW115206   1.570   1.948   8.814  0.6970 -0.6381 -0.2892
 1190SOL    HW215207   1.599   1.901   8.951 -1.6611  0.1441  1.5708
 1191SOL     OW15208   0.870   1.241   7.565  0.3432  0.1780  0.8110
 1191SOL    HW115209   0.840   1.150   7.563  0.1359  0.3235 -2.6928
 1191SOL    HW215210   0.783   1.278   7.583  0.6187  1.8007 -1.1760
 1192SOL     OW15211   1.394   2.719  17.277 -0.3671 -0.1238  0.0315
 1192SOL    HW115212   1.440   2.801  17.261 -1.6467  0.4954 -0.4723
 1192SOL    HW215213   1.372   2.697  17.187  2.7064 -0.8052 -0.5523
 1193SOL     OW15214   3.263   2.537   8.467 -0.0335  0.0434 -0.0892
 1193SOL    HW115215   3.215   2.584   8.535  0.6485 -1.5644  1.5256
 1193SOL    HW215216   3.230   2.595   8.399  0.3940  2.0640  1.4135
 1194SOL     OW15217   1.532   2.349   7.345  0.5953  0.0686 -0.1461
 1194SOL    HW115218   1.522   2.318   7.435  1.3753  0.1847 -0.0218
 1194SOL    HW215219   1.453   2.404   7.344 -0.9812 -2.1859  1.2338
 1195SOL     OW15220   3.875   3.778  12.047  0.5293  0.0708 -0.5082
 1195SOL    HW115221   3.842   3.807  12.133  1.0500  1.1238 -0.6587
 1195SOL    HW215222   3.965   3.808  12.064  0.5116  0.1638 -0.5812
 1196SOL     OW15223   2.023   3.209  16.749 -0.1838 -0.2488 -0.3268
 1196SOL    HW115224   2.104   3.253  16.723 -0.5254 -0.9482 -2.5588
 1196SOL    HW215225   1.960   3.278  16.768  2.1259  1.0719  2.5948
 1197SOL     OW15226   1.686   3.064   7.390 -0.1156 -0.7136 -0.0028
 1197SOL    HW115227   1.709   2.973   7.371  3.6708  0.2327 -0.0291
 1197SOL    HW215228   1.768   3.099   7.355 -0.6333  0.8399  0.3135
 1198SOL     OW15229   3.818   3.064   2.512  0.1702 -0.0437  0.1164
 1198SOL    HW115230   3.862   2.987   2.475 -0.2097 -0.1935 -0.0283
 1198SOL    HW215231   3.833   3.139   2.454  1.6212 -0.5691 -0.1975
 1199SOL     OW15232   0.339   2.945   6.629  0.1733  0.0135 -0.1886
 1199SOL    HW115233   0.349   3.024   6.683  0.2507 -0.0276 -0.1429
 1199SOL    HW215234   0.325   2.966   6.537  3.1421  0.7861 -0.4678
 1200SOL     OW15235   0.957   3.507   6.521  0.2669  0.5702 -0.6807
 1200SOL    HW115236   0.941   3.592   6.479  2.9657  2.3674  1.8900
 1200SOL    HW215237   1.052   3.510   6.525  0.3479 -0.4161 -1.8752
 1201SOL     OW15238   3.512   3.677  17.074  0.0783  0.3169 -0.3051
 1201SOL    HW115239   3.440   3.736  17.098 -1.1060 -0.9386 -0.7921
 1201SOL    HW215240   3.549   3.729  17.002  0.3092  1.2750  0.5014
 1202SOL     OW15241   2.659   0.937   9.289 -0.4624  0.1528 -0.1534
 1202SOL    HW115242   2.710   0.934   9.370  0.7367 -0.4510 -0.9331
 1202SOL    HW215243   2.631   1.027   9.306  0.0906  0.8108 -2.7081
 1203SOL     OW15244   0.572   2.376   3.291  0.7165  0.2293  0.3592
 1203SOL    HW115245   0.640   2.333   3.341  2.0031  0.7149 -0.9456
 1203SOL    HW215246   0.568   2.454   3.346  2.3884  0.0243  0.7480
 1204SOL     OW15247   3.955   4.178   7.385  0.3346 -0.1575  0.0807
 1204SOL    HW115248   3.891   4.200   7.318  2.1359 -0.9587 -1.9370
 1204SOL    HW215249   3.906   4.168   7.466  0.4808  1.0848  0.3106
 1205SOL     OW15250   4.429   1.761   8.929 -0.4018 -0.0255 -0.8718
 1205SOL    HW115251   4.467   1.682   8.890 -0.9125 -1.1736  0.9361
 1205SOL    HW215252   4.335   1.741   8.935 -0.8253  1.2143 -3.2096
 1206SOL     OW15253   3.974   1.890   4.242  0.7346 -0.1784 -0.1746
 1206SOL    HW115254   4.039   1.937   4.295  0.4815 -2.4884  2.1327
 1206SOL    HW215255   3.934   1.970   4.206 -0.4158 -0.5865  0.2117
 1207SOL     OW15256   3.348   1.230   5.458  0.3786 -0.1454 -0.3426
 1207SOL    HW115257   3.370   1.309   5.409 -1.7631 -0.7464 -2.2394
 1207SOL    HW215258   3.277   1.264   5.512 -1.4607 -0.7939 -2.3426
 1208SOL     OW15259   0.119   2.740   4.813  0.0544  0.1864  0.2432
 1208SOL    HW115260   0.123   2.714   4.905  1.3276  1.0882  0.4456
 1208SOL    HW215261   0.025   2.728   4.796  0.6980 -2.3915 -1.3608
 1209SOL     OW15262   3.929   3.035   5.782 -0.2320  0.4497 -0.1212
 1209SOL    HW115263   3.847   3.009   5.739 -0.1683 -1.3790  0.8312
 1209SOL    HW215264   3.948   3.115   5.734 -0.7103  0.5509 -0.1443
 1210SOL     OW15265   2.112   1.496  14.277  0.6131 -0.1781 -0.3467
 1210SOL    HW115266   2.186   1.548  14.246  0.2276 -0.4795 -1.7445
 1210SOL    HW215267   2.083   1.553  14.348  0.1387 -1.5032  0.5344
 1211SOL     OW15268   3.251   4.229   6.844  0.2784  0.3652  0.3186
 1211SOL    HW115269   3.238   4.323   6.837 -0.8060  0.3040  1.5368
 1211SOL    HW215270   3.211   4.199   6.763  0.6641 -3.0628  1.3772
 1212SOL     OW15271   4.589   3.901   7.615 -0.6806  0.1293  0.2178
 1212SOL    HW115272   4.538   3.839   7.563  0.6643 -2.1648  1.6959
 1212SOL    HW215273   4.523   3.970   7.626 -1.1688 -0.3852  0.4707
 1213SOL     OW15274   0.296   3.458   3.724  0.0530 -0.4405  0.0810
 1213SOL    HW115275   0.237   3.495   3.790 -1.2838 -1.5424 -0.4974
 1213SOL    HW215276   0.354   3.411   3.783  1.5940  0.3985 -0.7775
 1214SOL     OW15277   1.224   3.918   8.216 -0.2210 -0.2620 -0.3594
 1214SOL    HW115278   1.169   3.970   8.158  0.5729 -0.6806 -1.4832
 1214SOL    HW215279   1.277   3.854   8.169 -0.8836 -1.1103  0.0448
 1215SOL     OW15280   1.873   4.272   4.828  0.1956  0.1338  0.0854
 1215SOL    HW115281   1.926   4.338   4.871  1.2431 -0.3431 -0.4715
 1215SOL    HW215282   1.916   4.259   4.744 -1.3181  0.4394 -0.7364
 1216SOL     OW15283   4.222   4.679   1.603 -0.0922  0.0545 -0.0219
 1216SOL    HW115284   4.293   4.678   1.539 -1.0026  2.0993 -1.0608
 1216SOL    HW215285   4.152   4.654   1.542  0.7320 -1.1421 -0.4826
 1217SOL     OW15286   2.326   1.787   5.186 -0.0480  0.0831  0.0748
 1217SOL    HW115287   2.345   1.768   5.094 -4.1311  0.4606 -0.8088
 1217SOL    HW215288   2.338   1.700   5.223  1.0995 -0.3548 -1.2973
 1218SOL     OW15289   0.979   3.744   6.762 -0.2735 -0.0060  0.4763
 1218SOL    HW115290   1.032   3.665   6.762 -0.4142 -0.0929  2.9032
 1218SOL    HW215291   0.888   3.720   6.746 -0.6140 -0.9165  3.8636
 1219SOL     OW15292   0.931   3.837   4.562 -0.0940 -0.4996 -0.1426
 1219SOL    HW115293   0.908   3.771   4.496 -1.9460 -0.1325  0.1401
 1219SOL    HW215294   0.845   3.871   4.587  1.0631  1.8793  0.4733
 1220SOL     OW15295   4.158   1.312   5.479  0.2122 -0.5047 -0.5485
 1220SOL    HW115296   4.103   1.269   5.413 -0.2528 -1.6320  0.5748
 1220SOL    HW215297   4.085   1.350   5.527  0.3364 -0.5578 -0.3169
 1221SOL     OW15298   0.496   0.996   8.138 -0.2371  0.2935  0.2907
 1221SOL    HW115299   0.411   1.010   8.180 -0.2830 -1.2205  0.6819
 1221SOL    HW215300   0.559   0.967   8.204  1.7749  2.5673 -0.6331
 1222SOL     OW15301   2.985   1.905   9.949  0.9881 -0.6207 -0.2047
 1222SOL    HW115302   3.070   1.949   9.955  0.7810 -0.1968 -0.3247
 1222SOL    HW215303   2.923   1.971   9.919 -1.5159 -3.0821 -0.4396
 1223SOL     OW15304   3.367   2.895   5.878 -0.0150  0.2122 -0.2559
 1223SOL    HW115305   3.299   2.837   5.911  0.4549 -0.8014 -1.0762
 1223SOL    HW215306   3.332   2.981   5.901  1.7734  1.2966 -1.6044
 1224SOL     OW15307   0.157   3.144   1.626 -0.1925  0.0017 -0.1355
 1224SOL    HW115308   0.241   3.105   1.602 -1.2015 -0.5051 -2.8904
 1224SOL    HW215309   0.119   3.074   1.678  0.0331 -1.0019 -1.3167
 1225SOL     OW15310   3.440   3.774   2.652  0.0439 -0.0300  0.2031
 1225SOL    HW115311   3.508   3.835   2.681 -0.4132  0.1059  1.0137
 1225SOL    HW215312   3.396   3.817   2.578 -1.8897  1.5633  2.2508
 1226SOL     OW15313   1.428   4.571  14.830  0.0407 -0.2416  0.4948
 1226SOL    HW115314   1.403   4.562  14.922 -0.1950 -1.7156  0.2866
 1226SOL    HW215315   1.500   4.633  14.841  0.2940 -0.3789 -0.3946
 1227SOL     OW15316   2.980   4.284   8.226 -0.0769 -0.4569  0.1139
 1227SOL    HW115317   2.924   4.334   8.285  1.5947  0.3255  1.0422
 1227SOL    HW215318   2.942   4.323   8.147 -1.0989 -1.5918  0.0487
 1228SOL     OW15319   3.080   2.619   4.304 -0.3957 -0.6056 -0.7467
 1228SOL    HW115320   3.112   2.708   4.294 -1.3200 -0.1774  0.1664
 1228SOL    HW215321   3.034   2.608   4.220  0.6143 -3.2091 -0.9550
 1229SOL     OW15322   3.841   3.195   1.550  0.0114 -0.1845 -0.3160
 1229SOL    HW115323   3.903   3.134   1.510 -1.3043 -0.8609 -1.3357
 1229SOL    HW215324   3.803   3.229   1.469 -0.3124  1.0946  0.3812
 1230SOL     OW15325   0.588   0.515   6.576  0.6766  0.4231 -0.3273
 1230SOL    HW115326   0.560   0.589   6.522 -2.6761 -0.2247  0.4881
 1230SOL    HW215327   0.597   0.448   6.509  4.5048 -1.1711  1.8135
 1231SOL     OW15328   1.764   4.138   5.708 -0.1525 -0.1048 -0.3854
 1231SOL    HW115329   1.807   4.173   5.786  0.9358  1.5060 -1.6972
 1231SOL    HW215330   1.832   4.122   5.643  0.8039  1.3596  0.2392
 1232SOL     OW15331   3.655   0.810   4.086  0.3213  0.3639  0.1048
 1232SOL    HW115332   3.599   0.838   4.014  2.3093  2.2451 -0.6919
 1232SOL    HW215333   3.633   0.717   4.082 -0.7021  0.6884 -1.7408
 1233SOL     OW15334   4.581   4.373   6.535 -0.0503  0.2120 -0.2327
 1233SOL    HW115335   4.566   4.283   6.564  0.0240  0.2468 -0.0866
 1233SOL    HW215336   4.514   4.419   6.586 -1.5930  0.1985 -2.2180
 1234SOL     OW15337   3.060   0.424  10.772  0.2669  0.2983  0.7511
 1234SOL    HW115338   3.007   0.344  10.771  0.7079 -0.0102  3.1053
 1234SOL    HW215339   3.007   0.475  10.832 -0.3855  0.5093 -0.0007
 1235SOL     OW15340   4.115   0.288  15.684  0.1576  0.5240 -0.2210
 1235SOL    HW115341   4.166   0.294  15.603  0.9914 -0.1740  0.2528
 1235SOL    HW215342   4.053   0.222  15.652  1.0121 -0.6981  0.6372
 1236SOL     OW15343   3.335   4.719   6.361 -0.3148  0.1878  0.5830
 1236SOL    HW115344   3.270   0.047   6.340 -0.6673 -0.0647  0.8404
 1236SOL    HW215345   3.383   0.013   6.437  0.1196  0.5809  0.1277
 1237SOL     OW15346   1.322   2.274   3.450  0.1282 -0.6548  0.0349
 1237SOL    HW115347   1.237   2.290   3.491  0.7462  0.3265  0.9030
 1237SOL    HW215348   1.298   2.263   3.358  0.6248  0.8659 -0.2735
 1238SOL     OW15349   2.038   2.171   9.144 -0.0716  0.1603  0.3640
 1238SOL    HW115350   2.037   2.076   9.150  2.9501  0.2293  2.0640
 1238SOL    HW215351   2.011   2.182   9.053 -0.8762  0.0283  0.5819
 1239SOL     OW15352   3.629   3.653  14.487  0.0311  0.2228  0.7542
 1239SOL    HW115353   3.679   3.724  14.528 -0.7397 -0.5071  2.9355
 1239SOL    HW215354   3.547   3.702  14.474  0.1138 -0.1350 -1.0328
 1240SOL     OW15355   1.078   4.518   2.523 -0.3086  0.0949 -0.8164
 1240SOL    HW115356   1.121   4.473   2.596 -0.5988 -0.3373 -0.9059
 1240SOL    HW215357   1.104   4.609   2.530  0.2601 -0.2446  1.5441
 1241SOL     OW15358   3.125   3.596   0.820 -0.8112  0.2198 -0.1158
 1241SOL    HW115359   3.190   3.660   0.791 -0.7063 -0.2152 -0.8557
 1241SOL    HW215360   3.043   3.623   0.779 -0.5162 -0.4974 -1.1856
 1242SOL     OW15361   4.668   2.635  16.467 -0.7240 -0.8091  0.2999
 1242SOL    HW115362   4.612   2.588  16.406 -2.4083 -0.9027  1.9382
 1242SOL    HW215363   4.655   2.726  16.437 -0.8777 -1.4728 -1.6473
 1243SOL     OW15364   1.418   1.157   8.181  0.7393  0.6166  0.2883
 1243SOL    HW115365   1.415   1.218   8.107 -0.7883 -0.2224 -0.3645
 1243SOL    HW215366   1.350   1.192   8.239  0.4174 -2.2675  1.6858
 1244SOL     OW15367   0.539   4.216   3.727 -0.1049 -0.4427 -0.0246
 1244SOL    HW115368   0.500   4.206   3.640  0.7339 -0.8435 -0.3503
 1244SOL    HW215369   0.478   4.170   3.784  1.5295 -0.3902  1.7591
 1245SOL     OW15370   3.869   3.268   5.606 -0.4561  0.3625 -0.0011
 1245SOL    HW115371   3.794   3.244   5.551  0.2439 -2.6525  0.3719
 1245SOL    HW215372   3.829   3.333   5.664  2.0700  1.9390 -0.0349
 1246SOL     OW15373   3.945   4.279   8.002 -0.5130  0.5829  0.8542
 1246SOL    HW115374   3.906   4.365   7.985 -2.3619  0.0358  2.3217
 1246SOL    HW215375   3.932   4.278   8.097 -1.1589 -0.9274  0.7470
 1247SOL     OW15376   1.730   0.466   7.694  0.1646  0.2188  0.1428
 1247SOL    HW115377   1.715   0.403   7.624 -0.5303 -0.8649  1.2618
 1247SOL    HW215378   1.640   0.494   7.711  0.7682  0.1622  3.5365
 1248SOL     OW15379   0.003   1.519   2.120 -0.0673  0.0141  0.8965
 1248SOL    HW115380   4.693   1.503   2.200 -1.5744  1.4134  0.2207
 1248SOL    HW215381   0.089   1.528   2.161  0.9474 -0.3468 -1.1519
 1249SOL     OW15382   2.068   1.803   6.607  0.1879  0.3870  0.2535
 1249SOL    HW115383   2.025   1.737   6.661 -1.6826  1.4316  0.0363
 1249SOL    HW215384   1.993   1.816   6.550 -0.7155  0.6021  1.4848
 1250SOL     OW15385   3.524   2.411  10.857 -0.0253  0.1789  0.1282
 1250SOL    HW115386   3.571   2.438  10.935 -1.2493 -1.0236  1.2904
 1250SOL    HW215387   3.564   2.472  10.795  0.5575 -0.6406 -0.3016
 1251SOL     OW15388   2.016   1.492   9.239 -0.5071  0.4714  0.4288
 1251SOL    HW115389   2.101   1.517   9.201  0.7743 -2.2927  1.5251
 1251SOL    HW215390   2.005   1.402   9.209  1.4674  0.6357 -0.8648
 1252SOL     OW15391   3.470   3.143   8.243  0.1294  0.2112 -0.2485
 1252SOL    HW115392   3.538   3.211   8.238 -0.8599  1.3234  1.3931
 1252SOL    HW215393   3.406   3.175   8.306 -0.4556 -1.1006 -0.1772
 1253SOL     OW15394   1.797   3.042   9.341  0.0428  0.0033 -0.4603
 1253SOL    HW115395   1.747   3.008   9.415  2.3792 -0.7825  0.7756
 1253SOL    HW215396   1.751   3.126   9.335  1.1534  0.5630 -1.1385
 1254SOL     OW15397   4.417   0.246  12.542  0.1847  0.4569 -0.3773
 1254SOL    HW115398   4.512   0.243  12.549  0.2259  0.1298 -1.0844
 1254SOL    HW215399   4.402   0.233  12.635 -1.2937  4.8945  0.0402
 1255SOL     OW15400   4.353   1.084   1.777  0.0013  0.1963  0.0223
 1255SOL    HW115401   4.439   1.095   1.736 -0.0143 -1.9082 -0.5983
 1255SOL    HW215402   4.345   1.149   1.847 -2.2553  1.1180 -1.1225
 1256SOL     OW15403   4.085   3.652   5.161 -0.5393 -0.7751  0.1180
 1256SOL    HW115404   4.017   3.689   5.105  0.9542 -2.4242 -2.7900
 1256SOL    HW215405   4.052   3.666   5.249 -1.5741  1.8655 -0.6995
 1257SOL     OW15406   1.062   4.068   2.056  0.2862  0.1827  0.2536
 1257SOL    HW115407   1.022   3.981   2.052 -0.6600  0.6737 -1.0119
 1257SOL    HW215408   1.057   4.096   1.965 -1.1063  1.6750  0.7940
 1258SOL     OW15409   2.552   1.582  14.756  0.2702 -0.0397  0.0190
 1258SOL    HW115410   2.629   1.528  14.771  1.3907  0.9180 -2.4539
 1258SOL    HW215411   2.570   1.665  14.800  0.1859  0.2662 -0.5293
 1259SOL     OW15412   2.952   1.280   8.344  0.8432  0.0846  0.0691
 1259SOL    HW115413   2.968   1.294   8.437 -0.5677  0.2706  0.2815
 1259SOL    HW215414   2.897   1.202   8.350  0.4504  0.7336  4.4608
 1260SOL     OW15415   1.591   1.059  14.211 -0.0083  0.0201 -0.2442
 1260SOL    HW115416   1.591   0.994  14.141 -0.9122 -1.7397  1.4070
 1260SOL    HW215417   1.539   1.131  14.173  0.4251  0.8856  0.8151
 1261SOL     OW15418   2.527   3.035   5.729 -0.1771 -0.1418 -0.2111
 1261SOL    HW115419   2.593   3.090   5.771  0.9350 -1.1497 -0.6280
 1261SOL    HW215420   2.444   3.071   5.758 -0.9828 -2.7788  0.7547
 1262SOL     OW15421   3.762   4.733   4.743  0.1662 -0.1708  0.2741
 1262SOL    HW115422   3.739   0.011   4.652  0.9148  0.9396  0.2955
 1262SOL    HW215423   3.733   4.642   4.746 -0.0797 -0.1296 -0.7541
 1263SOL     OW15424   1.187   2.326   2.865 -0.0898  0.5386  0.0230
 1263SOL    HW115425   1.269   2.367   2.891 -1.2647  2.2244  1.1264
 1263SOL    HW215426   1.134   2.404   2.846 -0.7321 -0.2296 -1.2727
 1264SOL     OW15427   4.156   2.855   0.609  0.3894  0.1309 -0.2574
 1264SOL    HW115428   4.236   2.830   0.656 -0.0423 -1.5036 -0.4112
 1264SOL    HW215429   4.187   2.901   0.532  0.8567  0.4837  0.1394
 1265SOL     OW15430   4.684   2.592  10.324  0.0363 -0.1242 -0.1269
 1265SOL    HW115431   0.033   2.629  10.326  0.0420 -0.1548  0.1838
 1265SOL    HW215432   4.637   2.644  10.260  0.0194  0.9775  0.7866
 1266SOL     OW15433   1.248   3.243   8.874 -0.0527 -0.4069 -0.1189
 1266SOL    HW115434   1.171   3.299   8.885  2.7303  2.9679  1.8690
 1266SOL    HW215435   1.323   3.302   8.874 -0.1492 -0.2803 -1.8359
 1267SOL     OW15436   3.125   3.803   1.850  0.0978  0.0756  0.1760
 1267SOL    HW115437   3.195   3.763   1.798  0.8463  0.4555  0.9067
 1267SOL    HW215438   3.058   3.734   1.845  0.0992  0.0599  0.3645
 1268SOL     OW15439   3.747   2.327   0.660 -0.4006  0.2755  0.4723
 1268SOL    HW115440   3.813   2.309   0.726  0.1928  0.0593 -0.1851
 1268SOL    HW215441   3.679   2.374   0.709  0.3649  1.5015  0.3627
 1269SOL     OW15442   3.931   4.178   2.136  0.1825 -0.0136 -0.0495
 1269SOL    HW115443   3.849   4.157   2.092  1.4738 -1.8475 -1.5785
 1269SOL    HW215444   3.915   4.133   2.219  1.7973  0.8489  0.7415
 1270SOL     OW15445   4.265   3.986   8.576  0.2031  0.0719 -0.4160
 1270SOL    HW115446   4.291   3.947   8.659 -0.1469  2.4769  0.8367
 1270SOL    HW215447   4.184   3.936   8.564 -1.0507  1.9050  0.2513
 1271SOL     OW15448   3.799   3.426   7.561 -0.1261 -0.0488  0.5397
 1271SOL    HW115449   3.830   3.513   7.584 -1.3144  0.7834 -1.0667
 1271SOL    HW215450   3.824   3.364   7.631 -0.3719  1.9449  2.3925
 1272SOL     OW15451   0.117   4.103   7.173 -0.0369 -0.3906  0.2387
 1272SOL    HW115452   0.150   4.013   7.174  2.9964  0.7431  3.3187
 1272SOL    HW215453   0.043   4.095   7.114  0.1592 -0.3255 -0.0162
 1273SOL     OW15454   0.656   0.891  15.596  0.5931 -0.2733 -0.2815
 1273SOL    HW115455   0.745   0.871  15.569  0.0076 -1.7666 -1.1277
 1273SOL    HW215456   0.637   0.953  15.525 -2.1883 -0.4669  0.2680
 1274SOL     OW15457   0.077   4.208   6.672  1.2195  0.2013 -0.2697
 1274SOL    HW115458   0.131   4.197   6.750  0.5821  2.0965  0.4324
 1274SOL    HW215459   4.729   4.214   6.710  0.9470 -2.5241 -0.4809
 1275SOL     OW15460   0.492   3.504   2.314  0.3030  0.3375 -0.2072
 1275SOL    HW115461   0.569   3.509   2.257  0.2800 -0.4361 -0.2939
 1275SOL    HW215462   0.521   3.565   2.382  0.9419  0.2898 -0.4277
 1276SOL     OW15463   3.732   3.355   2.080 -0.2492  0.0082 -0.0175
 1276SOL    HW115464   3.694   3.436   2.047  1.1581  1.2962  1.5218
 1276SOL    HW215465   3.709   3.292   2.012  0.2788  1.0066 -1.1278
 1277SOL     OW15466   3.629   3.593   5.957  0.1738  0.0184  0.2160
 1277SOL    HW115467   3.662   3.683   5.955  0.1989  0.0199  0.7778
 1277SOL    HW215468   3.582   3.580   6.040 -1.2506  0.4837 -0.5173
 1278SOL     OW15469   1.741   3.822   7.381 -0.1243 -0.3445 -0.3685
 1278SOL    HW115470   1.669   3.761   7.395  0.6725 -1.0633  0.5523
 1278SOL    HW215471   1.708   3.870   7.305 -0.4961  0.8779  0.5549
 1279SOL     OW15472   2.864   4.431   9.340  0.0080  0.3054  0.1779
 1279SOL    HW115473   2.832   4.451   9.252  0.7826  0.0046 -0.1725
 1279SOL    HW215474   2.904   4.344   9.328 -0.8799 -0.3043  1.6615
 1280SOL     OW15475   1.909   0.175   9.897  0.2394 -0.1283 -0.2803
 1280SOL    HW115476   1.865   0.196   9.979 -0.0603  0.6046 -0.6366
 1280SOL    HW215477   1.990   0.225   9.890  1.2131 -1.6681 -0.0807
 1281SOL     OW15478   2.287   2.958   8.160  0.1050  0.2849 -0.7891
 1281SOL    HW115479   2.233   3.008   8.221 -1.4079 -2.0723 -0.2369
 1281SOL    HW215480   2.227   2.925   8.094 -0.9626  1.3063 -0.3322
 1282SOL     OW15481   1.550   3.958  10.544 -0.2367 -0.5023 -0.3806
 1282SOL    HW115482   1.586   3.916  10.623  0.6902  1.5282  0.2625
 1282SOL    HW215483   1.465   3.988  10.574  0.4509  0.0986  0.9832
 1283SOL     OW15484   3.483   2.178   4.629  0.0995 -0.5011 -0.2390
 1283SOL    HW115485   3.408   2.119   4.624  0.2732 -0.9183  1.8629
 1283SOL    HW215486   3.548   2.121   4.588  0.8802  0.5852 -0.4910
 1284SOL     OW15487   3.574   0.681  13.168 -0.2438  0.3373 -0.0740
 1284SOL    HW115488   3.582   0.749  13.234  1.9842  0.1192 -0.1252
 1284SOL    HW215489   3.531   0.736  13.103  1.8895 -0.6792 -2.3739
 1285SOL     OW15490   4.176   0.193   8.375  0.4118 -0.3849  0.1615
 1285SOL    HW115491   4.257   0.148   8.399  0.5815  0.5973  1.4192
 1285SOL    HW215492   4.113   0.150   8.433 -1.0270 -0.2610 -1.3379
 1286SOL     OW15493   4.572   0.312   4.464 -0.0530  0.1645 -0.5212
 1286SOL    HW115494   4.555   0.395   4.418  1.9066  1.9097  1.8906
 1286SOL    HW215495   4.574   0.330   4.558  0.1176 -2.0475 -0.1106
 1287SOL     OW15496   4.606   2.210   1.597 -0.4014 -0.3659  0.1096
 1287SOL    HW115497   4.695   2.217   1.561 -1.0988  2.7057 -1.0096
 1287SOL    HW215498   4.624   2.151   1.670 -0.5681 -1.1131 -0.4549
 1288SOL     OW15499   3.870   0.239   4.314 -0.2587 -0.5697  0.3711
 1288SOL    HW115500   3.852   0.152   4.278 -1.5968  0.0730 -0.5072
 1288SOL    HW215501   3.856   0.212   4.405  2.3462  0.9872  1.2339
 1289SOL     OW15502   1.065   1.039   1.515 -0.7026  0.3047  0.5280
 1289SOL    HW115503   1.032   1.029   1.426 -1.5387  3.0400  0.5297
 1289SOL    HW215504   1.015   0.974   1.563  0.2043 -1.0531 -0.3751
 1290SOL     OW15505   0.878   0.572   3.525 -0.2005 -0.4695 -0.0198
 1290SOL    HW115506   0.851   0.560   3.434  0.8488 -1.6361 -0.1759
 1290SOL    HW215507   0.812   0.629   3.563  0.0936 -0.2040  0.0938
 1291SOL     OW15508   3.296   3.592   3.109  0.0732  0.2266  0.0547
 1291SOL    HW115509   3.304   3.574   3.015 -1.5638 -1.2709  0.1879
 1291SOL    HW215510   3.295   3.687   3.102 -1.3919  0.1932 -0.2178
 1292SOL     OW15511   0.681   0.359   8.332 -0.1728 -0.1649  0.1733
 1292SOL    HW115512   0.729   0.410   8.267  0.6101  0.3448  1.1375
 1292SOL    HW215513   0.715   0.399   8.412 -0.6210  0.9098 -0.1743
 1293SOL     OW15514   4.025   1.214   8.424 -0.2843  0.3076  0.4989
 1293SOL    HW115515   3.984   1.196   8.339  0.4516 -1.9951  0.6324
 1293SOL    HW215516   3.950   1.240   8.477 -0.7497 -0.5797  0.2794
 1294SOL     OW15517   1.961   0.690  14.833 -0.4306  0.1097  0.2771
 1294SOL    HW115518   2.027   0.756  14.811 -2.8045  1.7860 -1.7720
 1294SOL    HW215519   2.009   0.613  14.801  1.5326  0.5870  2.0528
 1295SOL     OW15520   3.252   0.461   5.462 -0.0415 -0.0065  0.0944
 1295SOL    HW115521   3.300   0.485   5.383 -1.0535  2.1719  0.1533
 1295SOL    HW215522   3.177   0.415   5.426  0.0976 -0.0996 -0.0773
 1296SOL     OW15523   4.653   0.213   4.088 -0.3598  0.6488  0.0510
 1296SOL    HW115524   4.628   0.137   4.141  1.0787 -1.1374 -1.8705
 1296SOL    HW215525   4.572   0.240   4.045  0.0592 -0.8030 -1.6099
 1297SOL     OW15526   3.310   2.759   7.180 -0.2446  0.7162  0.0230
 1297SOL    HW115527   3.321   2.827   7.113  1.3818  0.3770 -0.0613
 1297SOL    HW215528   3.241   2.795   7.236 -0.0188  2.6463 -0.9359
 1298SOL     OW15529   4.357   1.859   2.602  0.0300 -0.0856  0.1102
 1298SOL    HW115530   4.334   1.770   2.627  1.0887 -0.4615 -0.2494
 1298SOL    HW215531   4.289   1.908   2.649  0.8851  0.4027  0.8256
 1299SOL     OW15532   3.980   3.606   5.824  0.4939 -0.7126 -0.1493
 1299SOL    HW115533   3.949   3.534   5.879 -0.6155 -1.3042 -1.5632
 1299SOL    HW215534   4.071   3.619   5.853 -0.6629 -1.1714  3.7617
 1300SOL     OW15535   0.858   3.135  17.490  0.0776 -0.0079  0.3259
 1300SOL    HW115536   0.805   3.141  17.570  0.2485  0.3448  0.4155
 1300SOL    HW215537   0.948   3.155  17.514  0.0412  0.3663  0.1468
 1301SOL     OW15538   3.256   3.273   7.573  0.4857  0.9704 -0.1344
 1301SOL    HW115539   3.256   3.178   7.564  2.7539  0.7951  1.5390
 1301SOL    HW215540   3.349   3.293   7.585  0.5686  0.6171 -0.2006
 1302SOL     OW15541   3.736   3.698   4.646  0.0190 -0.1130  0.6023
 1302SOL    HW115542   3.788   3.708   4.567 -0.6188  2.8178  0.5548
 1302SOL    HW215543   3.806   3.678   4.708 -0.3927 -1.6153  0.5867
 1303SOL     OW15544   1.577   3.199   8.361 -0.1704  0.4271 -0.1976
 1303SOL    HW115545   1.657   3.224   8.314  1.0066 -1.7648  0.6027
 1303SOL    HW215546   1.524   3.278   8.366  1.7552  1.7886 -1.1089
 1304SOL     OW15547   0.338   3.952   6.408 -0.1441 -0.7921  0.1586
 1304SOL    HW115548   0.249   3.985   6.416 -0.9474 -2.6679 -1.2145
 1304SOL    HW215549   0.331   3.863   6.443  1.0896 -0.6817  0.6972
 1305SOL     OW15550   1.525   2.209  14.037 -0.3842 -0.5090 -0.0277
 1305SOL    HW115551   1.589   2.195  13.968  0.4046 -2.2331  1.0317
 1305SOL    HW215552   1.526   2.304  14.048 -1.9162 -0.4213 -0.6946
 1306SOL     OW15553   0.518   4.389   8.227 -0.6022  0.6453  0.2108
 1306SOL    HW115554   0.440   4.430   8.265 -1.5280 -0.2399 -0.7407
 1306SOL    HW215555   0.505   4.408   8.134 -0.4102  1.9421  0.4567
 1307SOL     OW15556   1.506   3.914  11.805  0.0986 -0.0411  0.1734
 1307SOL    HW115557   1.597   3.894  11.783 -0.0973  1.2706 -1.8429
 1307SOL    HW215558   1.470   3.956  11.726 -0.9230  0.8950  1.1413
 1308SOL     OW15559   1.760   3.644   1.626 -0.4950 -0.4524 -0.2960
 1308SOL    HW115560   1.846   3.635   1.667  0.4618 -0.7848 -2.3809
 1308SOL    HW215561   1.699   3.651   1.699  0.2883 -0.7131  0.3866
 1309SOL     OW15562   1.674   0.769   2.618 -0.6024 -0.3447 -0.4518
 1309SOL    HW115563   1.707   0.790   2.531  0.9685  2.2959  0.7768
 1309SOL    HW215564   1.683   0.674   2.627  2.3749  0.2589  3.2695
 1310SOL     OW15565   2.168   1.467   6.025 -0.1713 -0.6515  0.0554
 1310SOL    HW115566   2.134   1.425   5.946 -2.0225 -1.7272  1.4254
 1310SOL    HW215567   2.179   1.396   6.088  1.1567  1.1444  1.8217
 1311SOL     OW15568   0.931   3.515  11.791 -0.1835 -0.5763 -0.4002
 1311SOL    HW115569   0.910   3.475  11.706  0.2846 -1.1232 -0.2586
 1311SOL    HW215570   0.884   3.596  11.772  1.5595  0.2249 -1.2711
 1312SOL     OW15571   2.272   4.211   1.787 -0.4336  0.5926  0.0753
 1312SOL    HW115572   2.181   4.235   1.770 -0.8760 -0.0561  1.5344
 1312SOL    HW215573   2.324   4.248   1.715  0.5725  0.2192  0.5994
 1313SOL     OW15574   4.320   1.501   8.298  1.0193  0.1473  0.0010
 1313SOL    HW115575   4.414   1.520   8.299  1.3760 -1.6626  0.9714
 1313SOL    HW215576   4.319   1.456   8.383  0.3074  1.3729  0.6355
 1314SOL     OW15577   4.048   4.557   5.041  0.1462 -0.1335  0.3399
 1314SOL    HW115578   4.132   4.531   5.078 -0.4339 -0.3466  1.5214
 1314SOL    HW215579   3.981   4.520   5.098  1.2767  2.2968  3.2336
 1315SOL     OW15580   3.348   3.107   0.235  0.2232  0.5038 -0.2756
 1315SOL    HW115581   3.402   3.096   0.157  1.1145 -1.2171  0.5736
 1315SOL    HW215582   3.318   3.016   0.239 -0.3132  0.5936 -2.5506
 1316SOL     OW15583   0.518   3.857  13.331 -0.0391  0.3138  0.0765
 1316SOL    HW115584   0.538   3.885  13.421 -0.0808 -0.0047  0.1858
 1316SOL    HW215585   0.608   3.854  13.301 -1.0533 -0.6922 -2.8168
 1317SOL     OW15586   4.020   0.350   3.582  0.2076 -0.6295  0.1807
 1317SOL    HW115587   4.056   0.298   3.510 -1.0432 -2.5260  0.9268
 1317SOL    HW215588   4.103   0.362   3.628 -0.6405 -0.6012  1.7278
 1318SOL     OW15589   0.555   1.038  10.414  0.0883 -0.2504  0.3632
 1318SOL    HW115590   0.635   0.999  10.378  0.6324  0.3493  0.9546
 1318SOL    HW215591   0.554   0.974  10.485  1.6489  0.5949  1.1300
 1319SOL     OW15592   4.223   2.413   7.571 -0.2812  0.2659 -0.0860
 1319SOL    HW115593   4.147   2.461   7.603 -0.4891  0.5802 -1.0486
 1319SOL    HW215594   4.298   2.469   7.589  0.5880 -0.4874 -1.3403
 1320SOL     OW15595   3.646   2.726   6.544 -0.6019 -0.2590 -0.0607
 1320SOL    HW115596   3.620   2.664   6.612 -0.5735  0.0842  0.2653
 1320SOL    HW215597   3.606   2.804   6.582  1.0978  0.2914  0.6216
 1321SOL     OW15598   3.772   0.492  10.135 -0.1570 -0.2661  0.5288
 1321SOL    HW115599   3.862   0.495  10.169 -0.3651  0.4213  1.0236
 1321SOL    HW215600   3.733   0.408  10.158 -1.4939  0.0963 -0.4376
 1322SOL     OW15601   3.888   3.760   4.420  0.3777  0.0560 -0.2926
 1322SOL    HW115602   3.863   3.695   4.355  2.5572  0.2804 -1.3886
 1322SOL    HW215603   3.956   3.812   4.376  0.1780  0.9125  0.4117
 1323SOL     OW15604   0.088   4.200   1.078  0.0615 -0.6028  0.1281
 1323SOL    HW115605   0.025   4.153   1.024  0.5451  0.3564 -1.2677
 1323SOL    HW215606   0.138   4.126   1.115  1.4701 -0.6420 -1.8980
 1324SOL     OW15607   1.450   0.520   7.895 -0.2262  1.0208  0.0885
 1324SOL    HW115608   1.402   0.511   7.812  0.8030 -1.1619 -0.2424
 1324SOL    HW215609   1.384   0.567   7.946  0.9197  2.1851  0.5113
 1325SOL     OW15610   0.758   4.164   3.416  0.0912 -0.5546 -0.0956
 1325SOL    HW115611   0.663   4.169   3.417  0.1591  0.8296 -0.0718
 1325SOL    HW215612   0.763   4.091   3.355  0.5727  0.9978 -1.9062
 1326SOL     OW15613   3.289   2.747  16.816  0.2522  0.4355  0.0240
 1326SOL    HW115614   3.231   2.730  16.890  0.9760 -1.4956  0.1415
 1326SOL    HW215615   3.273   2.677  16.753  0.2162  0.2400  0.2514
 1327SOL     OW15616   3.650   3.602   1.811  0.1688  0.2579  0.4939
 1327SOL    HW115617   3.659   3.665   1.740  3.9022 -1.8551 -0.9003
 1327SOL    HW215618   3.740   3.577   1.830 -0.3872 -1.9348  0.2613
 1328SOL     OW15619   2.630   0.328   8.224 -0.0072  0.1793 -0.3374
 1328SOL    HW115620   2.648   0.363   8.312 -0.2332 -0.8171  0.1035
 1328SOL    HW215621   2.539   0.358   8.223 -0.1967 -0.3773  0.3229
 1329SOL     OW15622   2.796   0.880   7.967  0.4148  0.6381  0.5456
 1329SOL    HW115623   2.818   0.833   7.887 -1.4442 -1.3679  1.2205
 1329SOL    HW215624   2.809   0.821   8.042 -1.3337 -0.3537  0.0703
 1330SOL     OW15625   2.487   2.733   3.304 -0.2810 -0.1844 -0.2854
 1330SOL    HW115626   2.468   2.827   3.304 -1.1636 -0.3725 -0.6677
 1330SOL    HW215627   2.509   2.730   3.397 -0.8987  2.2523 -0.0628
 1331SOL     OW15628   1.024   0.010   1.669  0.4639  0.3903  0.4643
 1331SOL    HW115629   1.057   0.092   1.705  0.2120  0.6898  0.0102
 1331SOL    HW215630   1.035   0.020   1.575  0.8014 -0.9845  0.3590
 1332SOL     OW15631   2.300   1.761   5.636  0.0201  0.1346  0.0531
 1332SOL    HW115632   2.229   1.822   5.657  0.9339  1.3578 -0.4091
 1332SOL    HW215633   2.264   1.731   5.552  0.3037  0.7250 -0.2796
 1333SOL     OW15634   4.673   3.411   3.723  0.7176  0.2721  0.7893
 1333SOL    HW115635   4.593   3.462   3.708 -0.4385 -1.6999  0.2273
 1333SOL    HW215636   4.728   3.461   3.783 -0.6820  1.0176  1.4495
 1334SOL     OW15637   3.114   1.483   3.046  0.1258  0.6595  0.3140
 1334SOL    HW115638   3.095   1.529   2.965  0.6357 -2.0214 -1.3448
 1334SOL    HW215639   3.034   1.503   3.095  0.3438 -0.1576  1.0073
 1335SOL     OW15640   0.387   3.316   7.980 -0.4662 -0.3198  0.1185
 1335SOL    HW115641   0.469   3.346   7.942 -1.0354 -0.9843 -1.6732
 1335SOL    HW215642   0.384   3.359   8.065 -0.1344 -0.1250  0.0301
 1336SOL     OW15643   3.585   4.205   3.613 -0.4461 -0.0204  0.1701
 1336SOL    HW115644   3.507   4.156   3.638  1.7834 -2.9106  1.4851
 1336SOL    HW215645   3.652   4.183   3.678  0.4536 -0.2449 -0.8147
 1337SOL     OW15646   1.105   1.776   7.100  0.0348  0.2429  0.1458
 1337SOL    HW115647   1.068   1.738   7.180  0.4756 -1.3298 -0.3870
 1337SOL    HW215648   1.043   1.749   7.033 -1.5728  0.2757  1.6222
 1338SOL     OW15649   3.465   3.464  13.690 -0.3794  0.1161 -0.3579
 1338SOL    HW115650   3.543   3.519  13.690  0.1139 -0.6107  1.4383
 1338SOL    HW215651   3.394   3.527  13.707 -0.8242 -1.2387  2.7069
 1339SOL     OW15652   0.117   1.247   3.017  0.1637  0.2309 -0.6881
 1339SOL    HW115653   0.169   1.327   3.017 -0.1114  0.4113 -1.1886
 1339SOL    HW215654   0.169   1.190   2.960  2.2665  3.2156 -1.7437
 1340SOL     OW15655   2.542   1.284   4.298 -0.6525 -0.5124  0.5145
 1340SOL    HW115656   2.618   1.234   4.329 -1.5151 -1.3247  1.3107
 1340SOL    HW215657   2.538   1.357   4.359  1.9949 -0.2356  0.3678
 1341SOL     OW15658   2.296   3.278  15.973  0.4576 -0.2547 -0.3439
 1341SOL    HW115659   2.319   3.292  15.881  0.5319 -0.6709 -0.3875
 1341SOL    HW215660   2.284   3.366  16.010 -2.4413 -0.5890 -0.5181
 1342SOL     OW15661   2.099   0.081   3.426  0.1708 -0.0780 -0.8678
 1342SOL    HW115662   2.073   4.733   3.399  2.0675 -1.4102  1.5736
 1342SOL    HW215663   2.166   0.117   3.369 -1.7809  1.0325 -2.4497
 1343SOL     OW15664   0.645   3.914  10.643 -0.3234 -0.7310 -0.3931
 1343SOL    HW115665   0.566   3.865  10.667 -0.1423 -0.8140  0.0394
 1343SOL    HW215666   0.678   3.851  10.580  0.4786 -0.6611 -0.0427
 1344SOL     OW15667   0.431   3.359   3.209  0.5955 -0.1674 -0.2019
 1344SOL    HW115668   0.522   3.347   3.237  0.4599 -4.0175 -1.4232
 1344SOL    HW215669   0.395   3.311   3.284 -2.2846 -0.4517 -1.7503
 1345SOL     OW15670   4.520   1.393  10.563 -0.1947  0.4139 -0.0645
 1345SOL    HW115671   4.528   1.450  10.486  1.7152 -0.1521 -0.2746
 1345SOL    HW215672   4.449   1.338  10.528 -0.0426  0.9636 -1.2611
 1346SOL     OW15673   4.341   0.804  10.298  0.0118 -0.0277  0.0755
 1346SOL    HW115674   4.406   0.854  10.347  0.7925  0.6796 -1.6754
 1346SOL    HW215675   4.340   0.844  10.210  0.5252 -0.4024 -0.0963
 1347SOL     OW15676   0.705   3.028   9.503  0.4776  0.4378 -0.4878
 1347SOL    HW115677   0.731   2.947   9.549 -2.8956 -0.3448 -0.0064
 1347SOL    HW215678   0.705   3.092   9.574 -0.8052  0.5155 -0.5620
 1348SOL     OW15679   1.747   3.172  11.623 -0.3597  0.4282  0.1387
 1348SOL    HW115680   1.785   3.135  11.703 -0.5959 -1.4082 -0.6225
 1348SOL    HW215681   1.668   3.210  11.661  0.6839 -0.6070  3.3591
 1349SOL     OW15682   2.651   1.758  13.463  0.0886  0.2918 -0.2798
 1349SOL    HW115683   2.556   1.757  13.476  0.2131 -0.9898  0.5604
 1349SOL    HW215684   2.663   1.688  13.400 -1.0317  0.1310 -0.3201
 1350SOL     OW15685   1.922   4.149   4.120  0.3036  0.4365 -0.3462
 1350SOL    HW115686   1.984   4.085   4.086 -2.0390 -2.1865  0.3589
 1350SOL    HW215687   1.932   4.142   4.215  2.4340 -0.6143 -0.6376
 1351SOL     OW15688   1.004   4.683   4.254  0.0167 -0.4677  0.1055
 1351SOL    HW115689   0.957   4.713   4.176  1.1805  1.9800  0.3114
 1351SOL    HW215690   0.948   4.608   4.272 -0.1816 -0.5792 -1.0107
 1352SOL     OW15691   0.289   2.929   3.993 -0.6856  0.0801 -0.6717
 1352SOL    HW115692   0.318   2.930   4.084  0.8019  1.5759 -1.1510
 1352SOL    HW215693   0.200   2.897   4.007 -0.5277  0.1973  0.6401
 1353SOL     OW15694   1.685   4.104  13.499 -0.0066  0.5884 -0.2260
 1353SOL    HW115695   1.669   4.059  13.415  1.0109  0.5084 -0.3741
 1353SOL    HW215696   1.666   4.030  13.557  0.2119 -0.3947 -1.3829
 1354SOL     OW15697   1.730   2.918  11.995 -0.0841  0.1794 -0.1512
 1354SOL    HW115698   1.734   2.832  12.035 -0.7899  0.4053  0.4102
 1354SOL    HW215699   1.642   2.918  11.957  0.6645 -0.9438 -1.8868
 1355SOL     OW15700   4.692   1.026   4.876  0.8927  0.6924 -0.2156
 1355SOL    HW115701   0.018   0.963   4.904 -0.4186 -0.8654 -0.5775
 1355SOL    HW215702   4.622   1.001   4.937  3.0081 -0.0914  1.8848
 1356SOL     OW15703   1.074   0.110   5.760 -0.1316  0.0107 -0.1908
 1356SOL    HW115704   1.011   0.094   5.690  0.8572 -0.3330 -0.9965
 1356SOL    HW215705   1.149   0.062   5.726  2.1509  2.8083  0.8966
 1357SOL     OW15706   4.500   3.345  13.872  0.1922  0.4475 -0.5984
 1357SOL    HW115707   4.538   3.336  13.959  1.2607  1.7831 -0.9442
 1357SOL    HW215708   4.453   3.427  13.884 -0.3924  0.1909 -1.1404
 1358SOL     OW15709   3.149   1.286  17.707 -0.9458 -0.3651 -0.1472
 1358SOL    HW115710   3.061   1.258  17.679 -2.1659  0.1257  3.2169
 1358SOL    HW215711   3.183   1.290  17.617 -0.7201  0.5633 -0.0179
 1359SOL     OW15712   3.669   2.031   7.924 -0.1906 -0.1639  0.8466
 1359SOL    HW115713   3.714   2.092   7.983  3.3696 -1.2038 -0.8294
 1359SOL    HW215714   3.659   1.948   7.970 -1.2771 -0.0449  0.8378
 1360SOL     OW15715   1.568   1.006  16.356 -0.2222  0.1855 -0.1736
 1360SOL    HW115716   1.629   1.027  16.426  1.9221  0.9738 -2.2668
 1360SOL    HW215717   1.611   1.058  16.289 -0.5374 -1.3748 -1.5908
 1361SOL     OW15718   3.239   0.989   5.989 -0.4243 -0.1887  0.2589
 1361SOL    HW115719   3.322   0.980   6.035 -0.2459  2.0211  0.3761
 1361SOL    HW215720   3.278   0.965   5.905 -2.0951 -1.2931 -0.2063
 1362SOL     OW15721   3.217   0.362   5.190  0.3360 -1.2021 -0.0595
 1362SOL    HW115722   3.134   0.336   5.232  0.4662 -1.1353  0.2376
 1362SOL    HW215723   3.172   0.415   5.123 -2.0366  1.2269  3.4630
 1363SOL     OW15724   0.952   2.663   0.224 -0.6330 -0.2174  0.1131
 1363SOL    HW115725   0.876   2.674   0.166 -0.1465  1.5960 -0.1954
 1363SOL    HW215726   0.907   2.665   0.309 -0.9826 -1.8837 -0.0422
 1364SOL     OW15727   0.280   1.880  16.181  0.4884 -0.4363  0.0989
 1364SOL    HW115728   0.218   1.952  16.193  1.7476  0.5923  0.3437
 1364SOL    HW215729   0.259   1.838  16.098 -1.7493 -1.3238  1.1116
 1365SOL     OW15730   0.232   4.214   7.765  0.3643  0.0105 -0.1859
 1365SOL    HW115731   0.137   4.221   7.779  0.5821 -0.0831  1.3360
 1365SOL    HW215732   0.242   4.134   7.714  0.4418  0.1061 -0.3194
 1366SOL     OW15733   4.641   1.765  16.800  0.2027  0.1367 -0.1686
 1366SOL    HW115734   4.627   1.848  16.847  0.9983 -0.0010  0.3116
 1366SOL    HW215735   4.648   1.689  16.858 -2.9542  0.8127  1.1113
 1367SOL     OW15736   1.547   2.195   1.938 -0.0239  0.1645  0.2197
 1367SOL    HW115737   1.534   2.144   1.857 -0.7389  0.4555  0.1479
 1367SOL    HW215738   1.581   2.277   1.904  1.1348  0.0962  1.2417
 1368SOL     OW15739   1.456   0.656   5.386 -0.2234  0.3124  0.4061
 1368SOL    HW115740   1.446   0.710   5.308  1.1724 -2.6207 -1.8417
 1368SOL    HW215741   1.545   0.632   5.360 -0.4719  0.3597 -0.5054
 1369SOL     OW15742   4.690   1.046   2.646 -0.2889 -0.1896 -0.0783
 1369SOL    HW115743   4.722   1.000   2.568 -0.7238  0.7072 -0.7890
 1369SOL    HW215744   4.659   0.963   2.684  0.5095  0.3128  1.6558
 1370SOL     OW15745   3.390   2.199   7.688 -0.2737 -0.2929  0.1228
 1370SOL    HW115746   3.373   2.289   7.661 -0.3667 -1.1423 -2.6469
 1370SOL    HW215747   3.378   2.157   7.603  1.6129 -0.2043 -0.1878
 1371SOL     OW15748   4.361   4.471   5.855  0.3241  0.1393 -0.2695
 1371SOL    HW115749   4.428   4.533   5.883  0.2197 -0.2529  0.8615
 1371SOL    HW215750   4.410   4.389   5.867  0.4115  0.4310  1.4501
 1372SOL     OW15751   2.729   0.802   7.196  0.3192  0.3534  0.6737
 1372SOL    HW115752   2.701   0.735   7.134 -0.5320  0.3655  1.0467
 1372SOL    HW215753   2.726   0.881   7.141 -1.6315 -1.6661 -2.1118
 1373SOL     OW15754   1.990   1.366   7.148  0.4476  0.0536  0.6067
 1373SOL    HW115755   1.921   1.309   7.113  0.7601  1.9389 -3.1388
 1373SOL    HW215756   1.962   1.357   7.239  2.4911  1.1276  1.3469
 1374SOL     OW15757   4.420   0.146   5.460 -0.2304  0.0254 -0.1704
 1374SOL    HW115758   4.496   0.143   5.519 -0.0814  1.4441 -0.2984
 1374SOL    HW215759   4.451   0.211   5.397 -2.3299  0.9566 -0.2354
 1375SOL     OW15760   2.598   2.896  14.045  0.5574  0.0102  0.2257
 1375SOL    HW115761   2.602   2.969  13.984  0.9707 -0.1110  0.1022
 1375SOL    HW215762   2.508   2.902  14.075 -0.2551  0.1942 -2.3400
 1376SOL     OW15763   2.543   0.714   5.214  0.0854  0.2161 -0.2804
 1376SOL    HW115764   2.534   0.619   5.211  2.1872  0.0877 -2.1754
 1376SOL    HW215765   2.516   0.737   5.303  0.5386  2.1707 -0.6427
 1377SOL     OW15766   3.114   2.856   5.021 -0.0130 -0.2660 -0.8747
 1377SOL    HW115767   3.170   2.925   5.057  0.0537 -0.9626  0.3631
 1377SOL    HW215768   3.134   2.857   4.927  0.9375 -1.8752 -0.6867
 1378SOL     OW15769   1.442   0.901   4.675  0.3622 -0.5290 -0.3369
 1378SOL    HW115770   1.535   0.879   4.670  0.2351 -0.8865 -1.1395
 1378SOL    HW215771   1.456   0.996   4.674  1.3232 -0.6549  0.6028
 1379SOL     OW15772   2.780   2.304   6.259  0.1313 -0.6837 -0.5924
 1379SOL    HW115773   2.802   2.396   6.274  3.8151 -1.6953  0.2382
 1379SOL    HW215774   2.788   2.299   6.164  0.4963  1.6716 -0.6730
 1380SOL     OW15775   0.807   4.478   2.500  0.1259 -0.0275 -0.3562
 1380SOL    HW115776   0.827   4.530   2.578  0.2010  0.0449 -0.4233
 1380SOL    HW215777   0.890   4.496   2.456  1.2300 -0.4892  1.5677
 1381SOL     OW15778   0.930   0.074   5.529  0.8762 -0.2779  0.6060
 1381SOL    HW115779   0.890   0.159   5.509 -1.9184 -1.6263  0.3920
 1381SOL    HW215780   0.927   0.037   5.441  2.2139 -0.5362  0.6734
 1382SOL     OW15781   1.011   3.828  15.167 -0.5601 -0.5136 -0.0515
 1382SOL    HW115782   0.968   3.798  15.247  0.6194 -1.6581  0.1442
 1382SOL    HW215783   1.022   3.740  15.130  1.2459  0.2172 -1.2130
 1383SOL     OW15784   2.855   0.548   2.737  0.2192  0.3287  0.7905
 1383SOL    HW115785   2.880   0.636   2.765  1.1184  0.3949 -0.2278
 1383SOL    HW215786   2.886   0.548   2.646 -2.5839 -3.0591 -0.2024
 1384SOL     OW15787   1.219   4.579   7.323  0.0516 -0.4673 -0.2543
 1384SOL    HW115788   1.267   4.570   7.241 -0.0328  2.5298 -0.6130
 1384SOL    HW215789   1.273   4.642   7.372  0.9972 -1.5978  0.1567
 1385SOL     OW15790   1.261   2.072   2.774 -0.2247 -0.1012 -0.5840
 1385SOL    HW115791   1.208   2.069   2.695 -1.3473  0.1213  0.1704
 1385SOL    HW215792   1.233   2.156   2.808  1.6060  0.3821 -0.2359
 1386SOL     OW15793   2.234   2.447   5.842 -0.1772  0.0278 -0.2978
 1386SOL    HW115794   2.222   2.478   5.932 -0.2097 -0.9967  0.0458
 1386SOL    HW215795   2.177   2.371   5.846  0.4514 -0.4999 -1.1703
 1387SOL     OW15796   1.272   4.012  15.358  0.4210 -0.0356 -0.0659
 1387SOL    HW115797   1.231   3.934  15.323  1.1458 -0.0707 -0.8452
 1387SOL    HW215798   1.278   3.999  15.452 -1.5945 -0.3253  0.0217
 1388SOL     OW15799   0.564   3.265  11.761 -0.2027 -0.5005 -0.1680
 1388SOL    HW115800   0.604   3.306  11.838  0.7878 -1.1189 -0.3571
 1388SOL    HW215801   0.642   3.223  11.724  0.5999  2.5724 -1.9886
 1389SOL     OW15802   0.087   2.075   0.655  0.0548  0.1909  0.0056
 1389SOL    HW115803   0.125   2.017   0.722  2.1081  0.5077 -0.8774
 1389SOL    HW215804   0.127   2.157   0.684 -1.4557  0.8659  0.1579
 1390SOL     OW15805   2.949   4.367  10.609  0.4508 -0.1022  0.3943
 1390SOL    HW115806   2.970   4.298  10.546  2.1441 -0.0790  0.9306
 1390SOL    HW215807   2.976   4.324  10.690 -0.4014 -1.9996 -0.3308
 1391SOL     OW15808   3.969   3.409  13.021  0.0649  0.0596 -0.0777
 1391SOL    HW115809   3.908   3.476  12.989 -0.0149  1.0502  2.1181
 1391SOL    HW215810   3.936   3.389  13.109  1.1618  1.1014  0.5688
 1392SOL     OW15811   1.072   1.746   5.899 -0.1076 -0.0808  0.4122
 1392SOL    HW115812   1.074   1.803   5.823 -0.5846 -2.6714 -1.5540
 1392SOL    HW215813   1.024   1.669   5.869 -0.4085 -0.1659  1.1022
 1393SOL     OW15814   2.614   0.521   3.742  0.4991  0.3678 -0.4998
 1393SOL    HW115815   2.551   0.496   3.675 -1.6167 -1.4754  2.1466
 1393SOL    HW215816   2.587   0.611   3.762 -0.3685  0.0657 -0.3234
 1394SOL     OW15817   3.634   2.154  17.506 -0.5597  0.8304 -0.5822
 1394SOL    HW115818   3.649   2.083  17.568  0.4277  3.4372  2.1803
 1394SOL    HW215819   3.577   2.103  17.449  1.0900 -0.4374 -1.0951
 1395SOL     OW15820   4.213   3.522  16.891  0.5595 -0.0852 -0.1304
 1395SOL    HW115821   4.129   3.479  16.874  0.4777 -0.7097  1.8474
 1395SOL    HW215822   4.257   3.495  16.810  0.4208  1.6271 -0.7817
 1396SOL     OW15823   3.934   2.638   4.630 -0.1566 -0.2248  0.2918
 1396SOL    HW115824   3.946   2.669   4.720  0.2677  3.3064 -0.9898
 1396SOL    HW215825   4.023   2.637   4.595  0.0009  2.1054  0.6423
 1397SOL     OW15826   0.805   2.529   3.288 -0.7691 -0.2385  0.3614
 1397SOL    HW115827   0.780   2.515   3.197  2.1529 -1.2021 -0.2915
 1397SOL    HW215828   0.832   2.620   3.276  1.6810 -0.5435  3.4391
 1398SOL     OW15829   2.169   2.503  15.740 -0.3270 -0.2937  0.2290
 1398SOL    HW115830   2.145   2.491  15.832  1.6138 -2.5042  0.4539
 1398SOL    HW215831   2.203   2.592  15.748  2.2563 -1.1996 -0.6888
 1399SOL     OW15832   4.457   2.259   7.235  0.2333  0.3449 -0.4686
 1399SOL    HW115833   4.451   2.190   7.169  0.4572  1.8437 -2.0677
 1399SOL    HW215834   4.536   2.237   7.285 -0.1422 -0.1842 -0.1152
 1400SOL     OW15835   1.723   2.539   3.103  0.6451 -0.3818  0.1326
 1400SOL    HW115836   1.768   2.456   3.089  1.3860  0.1235 -0.5095
 1400SOL    HW215837   1.779   2.566   3.175 -0.5670 -0.6027  1.1627
 1401SOL     OW15838   1.291   3.372  10.619 -0.2677 -0.4407  0.4924
 1401SOL    HW115839   1.367   3.425  10.594  1.2135 -1.4556  2.8812
 1401SOL    HW215840   1.274   3.403  10.708 -0.0674 -0.8265  0.6661
 1402SOL     OW15841   3.775   4.247  14.316 -0.9964 -0.4388  0.6359
 1402SOL    HW115842   3.864   4.268  14.346 -0.3626 -1.8816 -0.2654
 1402SOL    HW215843   3.735   4.331  14.293 -0.3815 -0.3903 -0.2425
 1403SOL     OW15844   1.395   4.437   4.267 -0.4732 -0.2661  0.1840
 1403SOL    HW115845   1.394   4.518   4.216 -0.0948 -0.6077 -0.3638
 1403SOL    HW215846   1.473   4.441   4.322 -2.7718  0.7562  3.3290
 1404SOL     OW15847   1.480   0.076  10.731  0.0250  0.0415 -0.5544
 1404SOL    HW115848   1.536   0.119  10.796  0.2341  1.0058 -1.3628
 1404SOL    HW215849   1.399   0.122  10.752 -0.6185 -3.5073  4.5633
 1405SOL     OW15850   4.161   3.394  14.988  0.3684  0.7789 -0.1699
 1405SOL    HW115851   4.176   3.336  15.063 -1.3188  1.1543  0.4607
 1405SOL    HW215852   4.155   3.332  14.915  1.2625  0.4228  0.0612
 1406SOL     OW15853   0.326   4.332   8.027  0.0492  0.1257 -0.5272
 1406SOL    HW115854   0.315   4.319   7.933  0.2961  0.2753 -0.5755
 1406SOL    HW215855   0.287   4.250   8.060  2.2162 -0.6755  0.0182
 1407SOL     OW15856   3.974   2.965  13.182 -0.4151 -0.0016  0.1163
 1407SOL    HW115857   4.038   3.000  13.244 -1.7504  0.7436  1.0827
 1407SOL    HW215858   3.901   2.999  13.234 -2.2241 -0.4649 -2.0965
 1408SOL     OW15859   0.005   0.903   6.674  0.0346  0.2218 -0.0953
 1408SOL    HW115860   4.655   0.932   6.658  0.0775  0.8791  0.8797
 1408SOL    HW215861   0.053   0.982   6.698  0.6656  0.1397 -1.0774
 1409SOL     OW15862   1.690   2.472   4.291  0.0058 -0.4269  0.1222
 1409SOL    HW115863   1.754   2.542   4.301 -1.2424  1.1136 -2.6459
 1409SOL    HW215864   1.607   2.519   4.291 -0.9199 -2.0536 -2.1090
 1410SOL     OW15865   3.261   1.983   4.561  0.1551 -0.0523  0.7465
 1410SOL    HW115866   3.248   1.928   4.639  0.6585 -1.6661 -0.2951
 1410SOL    HW215867   3.334   1.929   4.530  1.9711  1.8352  1.7605
 1411SOL     OW15868   3.461   2.444   2.371  0.3936  0.4614  0.2271
 1411SOL    HW115869   3.452   2.539   2.375 -3.0841  0.1575 -0.0771
 1411SOL    HW215870   3.488   2.424   2.461  1.2656 -2.8704 -0.7566
 1412SOL     OW15871   2.831   3.893   0.821 -0.4535  0.1271  0.3223
 1412SOL    HW115872   2.768   3.829   0.855  0.9527 -0.7411  1.3088
 1412SOL    HW215873   2.818   3.946   0.900 -2.1840 -1.5681  1.1793
 1413SOL     OW15874   3.794   0.665   5.729  0.2989 -0.1637  0.4096
 1413SOL    HW115875   3.800   0.631   5.818  0.4478  0.7619  0.7581
 1413SOL    HW215876   3.748   0.747   5.749  0.2130 -0.5148  1.6506
 1414SOL     OW15877   1.851   2.046  17.233  0.2360 -0.2954 -0.0409
 1414SOL    HW115878   1.817   1.968  17.278 -0.9847  1.2703  1.7978
 1414SOL    HW215879   1.838   2.019  17.142  0.4727 -1.4240  0.2591
 1415SOL     OW15880   2.886   1.680   6.989 -0.3739 -0.4214 -0.0123
 1415SOL    HW115881   2.793   1.670   6.969  0.1045 -5.2531  0.2680
 1415SOL    HW215882   2.867   1.762   7.034  1.0490  0.1949 -0.5170
 1416SOL     OW15883   4.470   2.382  16.721 -0.2452 -0.9678 -0.4315
 1416SOL    HW115884   4.377   2.370  16.701 -0.2598  0.2643 -1.0796
 1416SOL    HW215885   4.497   2.344  16.637  0.8781 -1.0423 -0.0364
 1417SOL     OW15886   2.922   2.292   1.907  0.5005  0.7886  0.4559
 1417SOL    HW115887   2.976   2.366   1.934 -0.9793  2.2587 -0.5750
 1417SOL    HW215888   2.957   2.210   1.941  2.1629  0.9846 -0.7560
 1418SOL     OW15889   2.188   1.874   6.962  0.2925 -0.0283  0.0496
 1418SOL    HW115890   2.185   1.809   7.032 -0.1028 -1.9573 -1.7647
 1418SOL    HW215891   2.228   1.827   6.889 -0.5315 -3.2339  1.6795
 1419SOL     OW15892   2.324   0.090   5.709  0.0870  0.2630  0.0281
 1419SOL    HW115893   2.405   0.044   5.685 -0.2283 -0.7919  1.0420
 1419SOL    HW215894   2.265   0.037   5.655 -0.0822  0.2625  0.2131
 1420SOL     OW15895   2.466   2.921   6.044 -0.1902  0.1329  0.0532
 1420SOL    HW115896   2.490   2.957   6.129 -0.2956 -0.3754  0.2955
 1420SOL    HW215897   2.421   2.993   6.000 -0.6188 -0.2062 -0.0627
 1421SOL     OW15898   2.873   1.936   9.423 -0.3305 -0.3090  0.1430
 1421SOL    HW115899   2.837   1.848   9.410  1.2121 -0.9573  0.1904
 1421SOL    HW215900   2.863   1.977   9.338 -1.5249  0.6601  0.7507
 1422SOL     OW15901   2.066   1.586   2.975  0.5039  0.0347  0.0832
 1422SOL    HW115902   2.045   1.662   2.921  0.2176  0.6293  1.0372
 1422SOL    HW215903   2.126   1.540   2.916  0.8915 -2.6980  2.6384
 1423SOL     OW15904   3.916   4.477   6.762 -0.2088  0.1107 -0.0930
 1423SOL    HW115905   3.840   4.420   6.774 -1.5621  1.8921 -0.2374
 1423SOL    HW215906   3.895   4.555   6.813  1.3755  1.3130 -1.2831
 1424SOL     OW15907   2.716   0.024   9.081  0.6176 -0.1612 -0.3187
 1424SOL    HW115908   2.770   0.091   9.040  1.1495 -0.4183 -0.0365
 1424SOL    HW215909   2.650   0.072   9.131 -1.1492 -2.2835 -0.6018
 1425SOL     OW15910   3.502   3.532   5.130 -0.3396  0.1076 -0.1539
 1425SOL    HW115911   3.464   3.601   5.184  0.6288  0.3691  0.1960
 1425SOL    HW215912   3.577   3.574   5.087 -3.0285  2.0252 -2.9422
 1426SOL     OW15913   0.202   4.552   1.013 -0.5255 -0.4532  0.4456
 1426SOL    HW115914   0.199   4.463   0.977  0.3256  0.0547 -0.8476
 1426SOL    HW215915   0.120   4.549   1.062 -2.0922  1.5999 -2.0459
 1427SOL     OW15916   4.502   3.248   8.176 -0.1231 -0.1552 -0.2035
 1427SOL    HW115917   4.558   3.174   8.199 -1.9567 -1.9521 -1.4877
 1427SOL    HW215918   4.561   3.311   8.135  0.2561 -0.7012 -0.4985
 1428SOL     OW15919   3.276   0.429   4.787 -0.1982 -0.0946  0.5126
 1428SOL    HW115920   3.204   0.370   4.763 -1.6223  1.9392 -0.1805
 1428SOL    HW215921   3.342   0.376   4.742 -0.8384  0.7128 -1.3589
 1429SOL     OW15922   0.834   2.627   1.058  0.8482 -0.4174 -0.4000
 1429SOL    HW115923   0.821   2.551   1.114  1.2029  0.0137  0.2629
 1429SOL    HW215924   0.761   2.684   1.085 -0.0558 -1.9587  0.3632
 1430SOL     OW15925   4.624   0.580   9.503  0.2896  0.0169 -0.3406
 1430SOL    HW115926   4.610   0.498   9.456  0.1778  1.1799 -2.3224
 1430SOL    HW215927   4.553   0.634   9.469  1.7387  1.8129 -0.5451
 1431SOL     OW15928   3.331   2.409  15.118 -0.2437 -0.0119  0.1038
 1431SOL    HW115929   3.318   2.428  15.025  0.5056  0.4220  0.0893
 1431SOL    HW215930   3.359   2.318  15.113  2.4380  0.8961 -1.4944
 1432SOL     OW15931   3.468   4.598   9.362  0.0474 -0.4000 -0.0263
 1432SOL    HW115932   3.404   4.660   9.327 -0.7301 -1.0173  0.2989
 1432SOL    HW215933   3.539   4.598   9.298  2.1133 -1.2990  2.2603
 1433SOL     OW15934   0.852   3.348  15.479 -0.0263 -0.3458  0.7409
 1433SOL    HW115935   0.823   3.360  15.569 -1.0641 -0.2354  0.3872
 1433SOL    HW215936   0.781   3.396  15.436 -1.2280 -1.0849  1.9188
 1434SOL     OW15937   0.955   0.778  11.259  0.2168 -0.1037 -0.4176
 1434SOL    HW115938   1.009   0.774  11.180 -0.4836 -0.2625 -0.8913
 1434SOL    HW215939   1.017   0.770  11.331  1.9346  1.2969 -1.7445
 1435SOL     OW15940   3.407   2.523  16.072  0.1002  0.3756  0.0770
 1435SOL    HW115941   3.315   2.546  16.056 -0.3516 -2.0953 -0.8015
 1435SOL    HW215942   3.436   2.506  15.983  0.3357  0.2320  0.1817
 1436SOL     OW15943   0.444   0.447   7.257 -0.2402  0.1450  0.3052
 1436SOL    HW115944   0.477   0.460   7.168 -0.5593 -1.1839 -0.0055
 1436SOL    HW215945   0.442   0.537   7.289 -0.4110  0.0160  0.6622
 1437SOL     OW15946   2.546   3.403   2.124  0.1474  0.7758 -0.0558
 1437SOL    HW115947   2.559   3.419   2.217  1.2085 -0.3929 -0.0091
 1437SOL    HW215948   2.621   3.353   2.092 -0.7513 -0.5733 -0.0833
 1438SOL     OW15949   4.654   3.270   8.924 -0.1117  0.6367 -0.5406
 1438SOL    HW115950   4.683   3.197   8.870  3.5125  1.8162 -0.1631
 1438SOL    HW215951   4.622   3.229   9.005  0.6385  2.2400  0.5717
 1439SOL     OW15952   3.743   2.726   8.009 -0.1820  0.3697 -0.6040
 1439SOL    HW115953   3.680   2.794   7.986 -1.5340  0.3782  3.0040
 1439SOL    HW215954   3.678   2.658   8.026  0.3066 -0.7213 -3.0947
 1440SOL     OW15955   1.322   2.205   3.168 -0.3731  0.5795 -0.6880
 1440SOL    HW115956   1.321   2.186   3.074 -1.8374  2.1184 -0.9683
 1440SOL    HW215957   1.368   2.288   3.172 -1.1066  0.9966 -0.9240
 1441SOL     OW15958   1.557   1.019   9.241  0.1376 -0.0676 -0.8184
 1441SOL    HW115959   1.614   0.944   9.259 -0.0105  0.4474  1.8271
 1441SOL    HW215960   1.586   1.030   9.150  0.7414 -0.0002 -0.6209
 1442SOL     OW15961   1.907   1.660   2.699 -0.3481 -0.7503  0.3101
 1442SOL    HW115962   1.853   1.647   2.621  0.3064  0.2355 -0.3132
 1442SOL    HW215963   1.913   1.575   2.741  2.9517 -0.1782  0.9976
 1443SOL     OW15964   1.865   3.954   8.252  0.3706  0.0675 -0.5167
 1443SOL    HW115965   1.951   3.948   8.293 -0.2628  0.7304  0.9164
 1443SOL    HW215966   1.894   4.007   8.178  1.9321  1.8945  1.4150
 1444SOL     OW15967   3.757   2.079   3.376  0.1240  0.3442 -0.4499
 1444SOL    HW115968   3.760   2.117   3.463 -1.3029  0.7181 -0.5729
 1444SOL    HW215969   3.789   1.991   3.395 -0.2161  0.2446 -0.3460
 1445SOL     OW15970   4.708   4.223   2.631 -0.4402 -0.4798 -0.3252
 1445SOL    HW115971   0.008   4.257   2.551 -1.0828 -1.3300 -1.0072
 1445SOL    HW215972   4.620   4.195   2.606  0.0088 -1.4104 -0.8744
 1446SOL     OW15973   3.458   1.307   7.197  0.1865  0.1371  0.1591
 1446SOL    HW115974   3.429   1.245   7.264 -1.3319  0.8710  0.1892
 1446SOL    HW215975   3.500   1.250   7.133  0.5016 -1.2819  1.6526
 1447SOL     OW15976   0.657   3.110   7.622 -0.2962  0.2375 -0.3454
 1447SOL    HW115977   0.648   3.028   7.573  1.9739 -0.3702  0.2479
 1447SOL    HW215978   0.660   3.169   7.546 -2.1697  1.5111  0.5768
 1448SOL     OW15979   2.894   1.556   1.812  0.3117  0.7646  0.1818
 1448SOL    HW115980   2.959   1.626   1.810  0.9954  0.0716 -1.8254
 1448SOL    HW215981   2.905   1.518   1.725  2.2979  0.0674  0.7318
 1449SOL     OW15982   4.358   4.126   3.572 -0.1066  0.0665  0.4345
 1449SOL    HW115983   4.450   4.113   3.596 -0.4593  0.7462  2.1942
 1449SOL    HW215984   4.339   4.097   3.483  0.1691  0.9946  0.0728
 1450SOL     OW15985   4.204   0.249  15.417 -0.6936 -0.7377 -0.4471
 1450SOL    HW115986   4.241   0.184  15.357  2.6731 -0.9457  1.8402
 1450SOL    HW215987   4.148   0.298  15.357 -0.7677  0.2784  0.4473
 1451SOL     OW15988   1.338   1.113   6.453  0.0003 -0.3105 -0.6536
 1451SOL    HW115989   1.335   1.208   6.458 -0.6246 -0.4164  0.7771
 1451SOL    HW215990   1.423   1.097   6.412  1.3348 -1.1329  2.4202
 1452SOL     OW15991   1.526   2.949   8.429 -0.3783  0.0928  0.1226
 1452SOL    HW115992   1.540   3.042   8.408  0.2962  0.7339  3.3979
 1452SOL    HW215993   1.532   2.955   8.525 -1.5823  0.2021  0.1981
 1453SOL     OW15994   3.786   4.157   4.678 -0.3110 -0.2031  0.1691
 1453SOL    HW115995   3.839   4.096   4.627  0.1932  0.0099  0.4361
 1453SOL    HW215996   3.696   4.125   4.677  0.3250 -2.0696  0.9072
 1454SOL     OW15997   1.386   2.508   6.558  0.3244 -0.0242 -0.0573
 1454SOL    HW115998   1.320   2.527   6.624  1.5044 -0.1304  1.1436
 1454SOL    HW215999   1.451   2.478   6.621 -1.8075 -1.2439  1.5613
 1455SOL     OW16000   2.483   4.690   4.027  0.2671  0.0617  0.3646
 1455SOL    HW116001   2.396   4.728   4.037  0.0381 -0.5767  0.8111
 1455SOL    HW216002   2.504   0.005   3.951 -1.5695  0.3950  0.0911
 1456SOL     OW16003   4.084   0.383   7.925 -0.3856 -0.2591  0.1683
 1456SOL    HW116004   4.112   0.391   7.834  1.7304 -0.4850  0.7973
 1456SOL    HW216005   4.126   0.462   7.959 -1.1615 -0.2290  1.0564
 1457SOL     OW16006   1.677   0.410  15.635  0.8207  0.2497  0.1264
 1457SOL    HW116007   1.616   0.363  15.579 -1.3541  2.3948  0.6478
 1457SOL    HW216008   1.626   0.491  15.649 -1.0850 -0.5867 -2.0802
 1458SOL     OW16009   1.834   1.899   3.115  1.1714 -0.4044  0.2151
 1458SOL    HW116010   1.786   1.863   3.041  1.5360  0.9024 -0.6590
 1458SOL    HW216011   1.763   1.935   3.167  1.2378  0.5913 -0.3751
 1459SOL     OW16012   2.069   3.776  13.814 -0.6500 -0.1854 -0.1074
 1459SOL    HW116013   2.118   3.695  13.799 -1.7130 -0.9238  0.4831
 1459SOL    HW216014   2.136   3.819  13.867 -0.2412 -1.5209  0.4674
 1460SOL     OW16015   3.489   2.843   5.476 -0.3901  0.8457 -0.2410
 1460SOL    HW116016   3.446   2.758   5.473  0.5043  0.3750  0.1910
 1460SOL    HW216017   3.423   2.910   5.458 -2.2838 -0.7060  1.0602
 1461SOL     OW16018   0.514   0.711   2.111 -0.4764  0.0230  0.3565
 1461SOL    HW116019   0.570   0.786   2.130  0.4065 -0.2184 -1.2975
 1461SOL    HW216020   0.446   0.718   2.178 -0.6186 -1.7520  0.3784
 1462SOL     OW16021   4.567   0.159   7.598 -0.3895 -0.1387  0.3668
 1462SOL    HW116022   4.594   0.140   7.688 -0.0087  1.2012  0.5269
 1462SOL    HW216023   4.568   0.255   7.595  0.9327 -0.0612  2.8833
 1463SOL     OW16024   0.320   1.055   2.438 -0.8155 -0.3303 -0.2241
 1463SOL    HW116025   0.411   1.055   2.410 -0.9472  1.7746 -0.6321
 1463SOL    HW216026   0.281   1.134   2.400 -0.4389 -0.3635 -0.6670
 1464SOL     OW16027   2.800   4.706   5.857 -0.3710 -0.2247 -0.7356
 1464SOL    HW116028   2.815   4.648   5.783  0.2175  1.5135 -1.9943
 1464SOL    HW216029   2.800   4.639   5.925 -2.1847  1.8598  1.3404
 1465SOL     OW16030   3.704   1.826   9.589 -0.5019 -0.0215  0.0811
 1465SOL    HW116031   3.716   1.736   9.559 -1.2452  0.0790 -0.5201
 1465SOL    HW216032   3.609   1.829   9.600 -0.7078  0.6915 -1.9609
 1466SOL     OW16033   1.030   4.493   1.694  0.0630 -0.8026  0.4624
 1466SOL    HW116034   1.007   4.578   1.657  1.4277 -0.5510  0.1734
 1466SOL    HW216035   0.959   4.487   1.758 -0.7641  1.0203 -0.2818
 1467SOL     OW16036   0.872   1.847   2.730 -0.2665 -0.2291 -0.2800
 1467SOL    HW116037   0.837   1.843   2.819  1.9048 -1.1294  0.5343
 1467SOL    HW216038   0.851   1.758   2.702  2.3934 -1.0230  0.2682
 1468SOL     OW16039   4.108   0.560   3.221 -0.0058  0.1607  0.4046
 1468SOL    HW116040   4.155   0.486   3.260  0.5375  0.2909  0.0065
 1468SOL    HW216041   4.117   0.630   3.285  0.3221  1.8136 -1.4338
 1469SOL     OW16042   0.376   3.738   5.231 -0.1461 -0.4390  0.1141
 1469SOL    HW116043   0.439   3.716   5.163 -0.5276 -1.5972  0.1376
 1469SOL    HW216044   0.305   3.771   5.176 -0.2527 -1.3140 -0.2707
 1470SOL     OW16045   3.530   4.637   5.368 -0.4296  0.0840  0.2004
 1470SOL    HW116046   3.522   4.707   5.303  2.3342  1.5842  1.5001
 1470SOL    HW216047   3.619   4.632   5.402 -0.2695 -2.5421 -0.6343
 1471SOL     OW16048   1.334   2.041  10.459  0.3550 -0.0795 -0.4384
 1471SOL    HW116049   1.334   2.045  10.554 -1.2269 -0.2710 -0.4172
 1471SOL    HW216050   1.425   2.046  10.432  1.4992 -1.2785  3.3413
 1472SOL     OW16051   0.631   2.573  11.183  0.5668 -0.5693 -0.3018
 1472SOL    HW116052   0.555   2.565  11.241  0.7759  0.2004  0.0879
 1472SOL    HW216053   0.601   2.515  11.113 -0.4954 -0.8854  0.4155
 1473SOL     OW16054   0.395   4.436   7.451  0.5309 -0.1689 -0.3234
 1473SOL    HW116055   0.301   4.451   7.459 -0.0183 -2.9553 -1.6084
 1473SOL    HW216056   0.415   4.475   7.366 -1.2275  1.7714  0.1507
 1474SOL     OW16057   0.074   4.342   5.175  0.4023 -0.0825  0.4123
 1474SOL    HW116058   0.019   4.281   5.224  0.1447  1.9722  2.6470
 1474SOL    HW216059   0.015   4.375   5.108 -0.1923 -0.5752  0.6939
 1475SOL     OW16060   2.430   3.315   1.014 -0.0381  0.3520 -0.3502
 1475SOL    HW116061   2.361   3.264   0.972 -1.1091  0.0860  1.6975
 1475SOL    HW216062   2.474   3.349   0.936 -1.2734  2.4953 -0.1081
 1476SOL     OW16063   3.102   2.300  15.950 -0.0206 -0.2826  0.1843
 1476SOL    HW116064   3.007   2.306  15.956 -0.1239 -1.5817 -0.1521
 1476SOL    HW216065   3.117   2.274  15.859 -0.7709 -0.5380  0.1347
 1477SOL     OW16066   0.281   0.141   5.224  0.5031  0.7494  0.1695
 1477SOL    HW116067   0.365   0.123   5.265  1.6124  1.3743 -1.8214
 1477SOL    HW216068   0.257   0.053   5.195  1.2246  0.5898  0.0670
 1478SOL     OW16069   1.772   3.590  14.843 -0.4271 -0.3623  0.3449
 1478SOL    HW116070   1.710   3.641  14.791 -0.4128  0.1204  0.7955
 1478SOL    HW216071   1.709   3.548  14.902 -0.5126 -1.2645 -0.3896
 1479SOL     OW16072   3.740   3.961   3.617 -0.4628 -0.1145  0.4888
 1479SOL    HW116073   3.730   3.910   3.536  1.4756  1.9795 -1.0694
 1479SOL    HW216074   3.669   3.928   3.672 -1.4098  0.2765 -0.5042
 1480SOL     OW16075   2.921   3.963   8.192 -0.3357 -0.2741 -0.0800
 1480SOL    HW116076   2.930   4.054   8.220  0.7598 -0.9378  1.6999
 1480SOL    HW216077   2.990   3.959   8.126 -0.2667  2.0586 -0.1712
 1481SOL     OW16078   1.068   2.708   1.956 -1.0066 -0.3298  0.3351
 1481SOL    HW116079   1.044   2.635   1.899 -2.3076  0.8783 -0.6628
 1481SOL    HW216080   1.024   2.778   1.908  3.2011  0.6850 -2.0921
 1482SOL     OW16081   0.775   4.499   4.384 -0.2721  0.6072  0.2159
 1482SOL    HW116082   0.693   4.543   4.406 -1.6544 -0.8882 -2.0202
 1482SOL    HW216083   0.748   4.425   4.330  1.3561 -1.5449  2.3607
 1483SOL     OW16084   1.332   1.282   7.514  0.5450  0.0279 -0.4009
 1483SOL    HW116085   1.362   1.328   7.435  0.4300 -0.9895 -1.0401
 1483SOL    HW216086   1.274   1.351   7.544  1.2776  0.1096  0.8457
 1484SOL     OW16087   4.186   3.597   8.511 -0.0434  0.4077 -0.2756
 1484SOL    HW116088   4.189   3.646   8.429  1.1957  1.3572  0.3442
 1484SOL    HW216089   4.267   3.546   8.506  0.0774  0.6532 -0.8469
 1485SOL     OW16090   1.530   1.762   1.709 -0.2314  0.6282  0.1625
 1485SOL    HW116091   1.613   1.714   1.705  0.2635  1.3889  1.3922
 1485SOL    HW216092   1.499   1.744   1.798  0.7378 -2.6225 -0.1309
 1486SOL     OW16093   0.483   3.332   0.298  0.2340  0.6901  0.3203
 1486SOL    HW116094   0.467   3.260   0.358 -2.5305  2.8989  2.2168
 1486SOL    HW216095   0.578   3.327   0.288  0.3281  2.8897 -0.0668
 1487SOL     OW16096   4.606   0.340   6.046  0.8610 -0.7584 -0.3534
 1487SOL    HW116097   4.514   0.321   6.027  1.4980 -1.8870 -2.2187
 1487SOL    HW216098   4.603   0.367   6.138  1.1167 -2.1133  0.0481
 1488SOL     OW16099   0.439   1.010   7.490  0.1229  0.3501  0.1349
 1488SOL    HW116100   0.462   0.999   7.398 -0.2644 -1.0832  0.2114
 1488SOL    HW216101   0.346   0.989   7.496 -0.4987  3.5035  1.6391
 1489SOL     OW16102   3.684   1.786   8.060 -0.7034 -0.4460 -0.0871
 1489SOL    HW116103   3.721   1.698   8.051  3.0131  1.0910  0.0622
 1489SOL    HW216104   3.704   1.805   8.152 -0.6995  1.3165 -0.4449
 1490SOL     OW16105   0.270   1.752   4.063  0.2530  0.8768 -0.7231
 1490SOL    HW116106   0.338   1.813   4.033 -0.1034  0.8501 -1.5667
 1490SOL    HW216107   0.222   1.814   4.119 -1.4581 -1.0774 -0.0527
 1491SOL     OW16108   1.646   0.701  16.438  0.2692  0.1471 -0.0372
 1491SOL    HW116109   1.635   0.643  16.362  0.4135  2.5537 -1.8828
 1491SOL    HW216110   1.606   0.783  16.409 -1.8492 -1.0012 -0.3162
 1492SOL     OW16111   2.799   4.533   5.627  0.0893  0.5681  0.3254
 1492SOL    HW116112   2.882   4.494   5.653  0.6612  1.2976 -0.4167
 1492SOL    HW216113   2.816   4.535   5.533 -0.3558  1.7562  0.2706
 1493SOL     OW16114   4.296   3.473   9.554 -0.9406 -0.1749 -0.3105
 1493SOL    HW116115   4.240   3.435   9.486  0.2655  0.5698 -1.7220
 1493SOL    HW216116   4.239   3.535   9.599  0.2701  0.8922 -0.2535
 1494SOL     OW16117   4.697   2.790  11.986  0.1500  0.1221 -0.1656
 1494SOL    HW116118   4.667   2.712  12.032 -2.5561  0.1911 -1.8371
 1494SOL    HW216119   4.619   2.799  11.930  0.3626 -0.0754 -0.4962
 1495SOL     OW16120   3.739   0.196   2.712  0.3615  0.5471  0.0376
 1495SOL    HW116121   3.669   0.229   2.657 -1.3538 -2.2820  0.5290
 1495SOL    HW216122   3.719   0.102   2.715  3.3939 -0.1201 -0.5173
 1496SOL     OW16123   4.310   2.234   8.471  0.3897 -0.2433  0.2189
 1496SOL    HW116124   4.283   2.238   8.379 -0.8691 -0.6771  0.5812
 1496SOL    HW216125   4.229   2.203   8.510  0.4203 -0.9401 -0.2608
 1497SOL     OW16126   1.218   4.019   5.417  0.5571 -0.3383 -0.1346
 1497SOL    HW116127   1.249   4.110   5.419  0.2319 -0.2157 -0.7496
 1497SOL    HW216128   1.297   3.971   5.441  0.7467  0.2930  0.5074
 1498SOL     OW16129   4.532   3.042   1.573 -0.2682  0.2864 -0.5880
 1498SOL    HW116130   4.457   3.070   1.519 -0.5221 -0.2295 -0.5042
 1498SOL    HW216131   4.567   3.129   1.592 -0.5324  0.5603 -1.3246
 1499SOL     OW16132   1.124   2.716   4.093  0.3706 -0.0705 -0.5384
 1499SOL    HW116133   1.147   2.802   4.056 -1.2020 -0.0917 -1.5397
 1499SOL    HW216134   1.044   2.702   4.043  1.7656  0.4162 -2.9070
 1500SOL     OW16135   3.051   0.433  17.412 -0.1331  0.1552 -0.1899
 1500SOL    HW116136   3.059   0.519  17.370  3.1344 -0.0594  0.0201
 1500SOL    HW216137   3.124   0.442  17.473 -0.3602  1.4909 -0.1014
 1501SOL     OW16138   4.310   3.333  10.375 -0.0553 -0.2532  0.3815
 1501SOL    HW116139   4.252   3.409  10.387  1.0449  0.4437  1.2933
 1501SOL    HW216140   4.269   3.275  10.439 -1.9180  1.7172  0.9925
 1502SOL     OW16141   1.537   1.707   9.620  0.3382 -0.3356  0.6903
 1502SOL    HW116142   1.528   1.632   9.679 -1.2579 -1.7839 -1.3852
 1502SOL    HW216143   1.585   1.669   9.547 -0.7487 -2.4338  1.0859
 1503SOL     OW16144   2.147   1.234   8.477  0.2263  0.1099  0.1414
 1503SOL    HW116145   2.079   1.172   8.502  2.4908 -2.2962  0.3008
 1503SOL    HW216146   2.226   1.190   8.507 -0.9327 -0.6258  2.1400
 1504SOL     OW16147   0.876   4.628   3.390  0.1856  0.5914 -0.2788
 1504SOL    HW116148   0.848   4.554   3.444  1.5609  1.9501  2.3063
 1504SOL    HW216149   0.797   4.681   3.397 -1.0502 -1.3308  0.1474
 1505SOL     OW16150   1.782   0.551   6.040  0.2154 -0.4592 -0.0179
 1505SOL    HW116151   1.809   0.509   5.958  0.0569 -0.8811  0.1469
 1505SOL    HW216152   1.865   0.556   6.087 -0.5966  1.2297  1.2493
 1506SOL     OW16153   3.076   1.522   5.120 -0.1059  0.3521 -0.2744
 1506SOL    HW116154   3.036   1.563   5.196 -0.7098  1.6803 -1.3028
 1506SOL    HW216155   3.165   1.549   5.142  0.2099 -0.5507 -0.4096
 1507SOL     OW16156   3.421   3.180   2.064 -0.0518 -0.6860 -0.2721
 1507SOL    HW116157   3.418   3.246   1.996  0.2169 -1.0262 -0.6179
 1507SOL    HW216158   3.472   3.111   2.021 -0.0405 -0.7993 -0.0817
 1508SOL     OW16159   4.010   4.501   5.670 -0.5738  0.2593 -0.0521
 1508SOL    HW116160   4.024   4.454   5.752  1.2439  1.3002  0.2322
 1508SOL    HW216161   3.998   4.593   5.693 -0.1149  0.9177 -2.4365
 1509SOL     OW16162   1.257   3.775   4.077 -0.2466  0.7799 -0.2244
 1509SOL    HW116163   1.291   3.688   4.100 -1.9224 -0.8489 -3.9893
 1509SOL    HW216164   1.223   3.809   4.160  0.6503  1.0929  0.0158
 1510SOL     OW16165   1.214   3.604   6.483  0.2568 -0.1849  0.1133
 1510SOL    HW116166   1.277   3.677   6.490  0.3921 -0.2201 -0.7143
 1510SOL    HW216167   1.219   3.579   6.575  2.0168 -1.4516 -0.3281
 1511SOL     OW16168   2.863   2.746   3.182  0.1093 -0.2093  0.3067
 1511SOL    HW116169   2.843   2.655   3.163  2.2777 -0.3661 -1.2364
 1511SOL    HW216170   2.801   2.787   3.122 -0.6523 -1.5761  0.1734
 1512SOL     OW16171   3.654   0.865   1.892 -0.5928 -0.0468  0.0343
 1512SOL    HW116172   3.633   0.780   1.854  0.0171  0.5058 -1.5269
 1512SOL    HW216173   3.738   0.884   1.850 -1.9262  0.6998 -2.2740
 1513SOL     OW16174   1.943   4.328  12.076  0.1094 -0.2173 -0.3423
 1513SOL    HW116175   1.953   4.401  12.016 -1.2086  1.2458  1.2277
 1513SOL    HW216176   1.923   4.381  12.152  0.2716  1.0845 -1.2134
 1514SOL     OW16177   1.351   2.195  12.523  0.4971 -0.1447  0.2072
 1514SOL    HW116178   1.275   2.214  12.577 -1.0808 -0.9801 -1.7402
 1514SOL    HW216179   1.358   2.101  12.537 -1.7066 -0.4332 -0.7549
 1515SOL     OW16180   4.196   0.720   6.209 -0.2555  0.1139  0.2473
 1515SOL    HW116181   4.164   0.810   6.204  0.1393  0.3192  1.5211
 1515SOL    HW216182   4.110   0.679   6.198 -0.6770  0.9641  0.3345
 1516SOL     OW16183   4.685   0.019   8.571  0.5124  0.1501  0.0090
 1516SOL    HW116184   4.719   0.047   8.486  1.7934 -1.2104  0.0752
 1516SOL    HW216185   4.664   0.105   8.610 -2.0395 -1.1441  1.4700
 1517SOL     OW16186   3.261   4.050   7.526 -0.9362  0.7354  0.2755
 1517SOL    HW116187   3.322   4.124   7.522 -1.6680  1.3161 -0.1715
 1517SOL    HW216188   3.287   4.001   7.448  2.3008  1.3940  0.9292
 1518SOL     OW16189   4.201   3.578   7.442 -0.4441 -0.6753  0.2934
 1518SOL    HW116190   4.169   3.566   7.353 -0.9264  2.0574  0.0767
 1518SOL    HW216191   4.180   3.491   7.476 -2.4015 -0.4953 -0.4234
 1519SOL     OW16192   2.322   2.982   1.981  0.5616 -0.1518 -0.0751
 1519SOL    HW116193   2.360   2.983   1.893 -0.8518 -0.9732 -0.6964
 1519SOL    HW216194   2.361   2.907   2.026  2.7474  1.1353  0.2031
 1520SOL     OW16195   0.344   1.137   4.917  0.0706  0.2048 -1.0519
 1520SOL    HW116196   0.289   1.197   4.867 -2.0302 -0.8445 -0.0205
 1520SOL    HW216197   0.433   1.171   4.911  0.0093  0.0176 -3.0894
 1521SOL     OW16198   0.774   1.965   7.146  0.0055 -0.4281 -0.4231
 1521SOL    HW116199   0.716   1.889   7.145  1.3433 -1.4459 -1.8915
 1521SOL    HW216200   0.804   1.963   7.236 -1.6501 -1.0911  0.1014
 1522SOL     OW16201   3.775   1.932  16.388  0.0171 -0.1877 -0.5549
 1522SOL    HW116202   3.711   1.861  16.389 -0.5100  0.3253  1.1262
 1522SOL    HW216203   3.744   1.985  16.461  1.4911  0.9135 -0.7287
 1523SOL     OW16204   0.663   3.718   6.711  0.2791  0.2485  0.2277
 1523SOL    HW116205   0.701   3.631   6.724  1.2036  0.3946 -1.4913
 1523SOL    HW216206   0.609   3.727   6.789  1.7503 -0.1577  1.2849
 1524SOL     OW16207   2.100   3.961   5.836 -0.0154 -0.3147  0.2480
 1524SOL    HW116208   2.124   3.969   5.928 -0.3372  1.6120  0.1461
 1524SOL    HW216209   2.084   4.052   5.812 -0.7404 -0.4742  0.1338
 1525SOL     OW16210   4.682   3.313   2.564  0.7491  0.4975  0.4382
 1525SOL    HW116211   0.008   3.383   2.566 -0.2883  1.4913 -0.3870
 1525SOL    HW216212   4.719   3.238   2.611 -0.7442 -0.1675  0.5534
 1526SOL     OW16213   3.608   4.663   9.047 -0.3812 -0.2633  0.0086
 1526SOL    HW116214   3.520   4.691   9.022 -0.2833  1.6902  1.8024
 1526SOL    HW216215   3.643   0.011   9.060  0.1176 -0.7666  2.1570
 1527SOL     OW16216   3.732   2.626  12.645 -0.5159  0.2682 -0.2383
 1527SOL    HW116217   3.743   2.641  12.551 -1.0225 -0.4051 -0.4038
 1527SOL    HW216218   3.644   2.665  12.649 -1.0247 -1.0525  1.1132
 1528SOL     OW16219   0.784   1.210   3.281 -0.4426 -0.2598 -0.1401
 1528SOL    HW116220   0.691   1.222   3.300 -0.6683  0.8269 -1.9573
 1528SOL    HW216221   0.817   1.182   3.366  0.8006  0.2210 -0.4691
 1529SOL     OW16222   2.444   1.316  12.992  0.4432 -0.0417  0.1737
 1529SOL    HW116223   2.348   1.318  12.994  0.4232  0.2061 -0.7610
 1529SOL    HW216224   2.480   1.404  12.998  1.3187 -0.3768 -0.1735
 1530SOL     OW16225   2.534   4.227  15.215 -0.0563 -0.0533 -0.3644
 1530SOL    HW116226   2.622   4.221  15.179 -0.5469  2.3726 -1.9750
 1530SOL    HW216227   2.540   4.183  15.300 -1.7764  0.2089 -0.1047
 1531SOL     OW16228   2.416   3.833   3.529 -1.0045  0.3869  0.7557
 1531SOL    HW116229   2.327   3.853   3.500 -0.2645  0.6776 -1.3617
 1531SOL    HW216230   2.465   3.878   3.460  0.4821  0.3751  1.8054
 1532SOL     OW16231   4.021   3.363   8.402 -0.2434 -0.3905 -0.4867
 1532SOL    HW116232   4.105   3.365   8.448  0.9615 -0.7837 -2.6765
 1532SOL    HW216233   3.976   3.304   8.462  2.3463 -2.8192 -0.9515
 1533SOL     OW16234   2.365   1.518   6.922  0.3398  0.1305  0.3963
 1533SOL    HW116235   2.341   1.583   6.855 -0.2998 -0.5695 -0.0514
 1533SOL    HW216236   2.320   1.559   6.996  1.2539 -1.1707  1.6744
 1534SOL     OW16237   0.558   3.084  17.057 -0.3862 -0.0556 -0.4131
 1534SOL    HW116238   0.606   3.069  17.138  0.6173  1.0299 -0.7972
 1534SOL    HW216239   0.469   3.071  17.089  0.4446  1.2191  2.4343
 1535SOL     OW16240   3.626   0.451   7.539 -0.2519  0.2791  0.3022
 1535SOL    HW116241   3.548   0.397   7.557 -1.0156  2.1555  2.5483
 1535SOL    HW216242   3.591   0.540   7.542  0.1157  0.3795  1.6278
 1536SOL     OW16243   4.442   2.236   5.846  0.0769  0.2958 -0.1594
 1536SOL    HW116244   4.393   2.286   5.911  0.9731  1.4905 -0.3896
 1536SOL    HW216245   4.464   2.305   5.784 -1.7113 -0.5538 -1.7152
 1537SOL     OW16246   4.705   1.058   2.238 -0.1959  0.4428  0.0971
 1537SOL    HW116247   0.013   1.131   2.277 -0.0417  0.7434 -0.6502
 1537SOL    HW216248   0.001   0.990   2.296  0.7641  0.6165 -0.2904
 1538SOL     OW16249   0.030   4.077  16.939  0.0011  0.1640  0.4451
 1538SOL    HW116250   0.072   4.057  16.856 -1.2354  0.9717 -0.3685
 1538SOL    HW216251   0.010   3.991  16.976  0.7713 -0.3345 -0.2946
 1539SOL     OW16252   1.178   2.581   0.101 -0.4473  0.0675  0.4348
 1539SOL    HW116253   1.093   2.612   0.134  0.2333  2.7897 -0.3404
 1539SOL    HW216254   1.152   2.502   0.055 -0.3880  0.1592  0.2443
 1540SOL     OW16255   2.301   3.350  15.707 -0.7312 -0.3580  0.1786
 1540SOL    HW116256   2.225   3.407  15.694 -1.5070 -1.4433 -0.0789
 1540SOL    HW216257   2.299   3.292  15.631  0.0545  0.5969 -0.5585
 1541SOL     OW16258   2.628   2.942  10.049  0.3860 -0.3249  0.1574
 1541SOL    HW116259   2.542   2.909  10.024  0.2353 -1.0290  1.6177
 1541SOL    HW216260   2.635   3.015   9.986  0.3658 -1.8484 -1.6051
 1542SOL     OW16261   1.997   2.784   9.748 -0.7000 -0.6232 -0.2303
 1542SOL    HW116262   1.940   2.737   9.688 -2.0173  1.4001 -0.5998
 1542SOL    HW216263   1.961   2.741   9.826  0.6222 -0.2294  0.6030
 1543SOL     OW16264   0.430   1.123   5.705  0.3848 -0.4418 -0.3036
 1543SOL    HW116265   0.404   1.195   5.647 -0.7932  0.3139  1.1388
 1543SOL    HW216266   0.347   1.118   5.752  1.7251  1.4377  2.3128
 1544SOL     OW16267   1.958   2.542   8.150 -0.3204  0.1945  0.0549
 1544SOL    HW116268   1.889   2.606   8.134 -0.1230  0.5479  0.6509
 1544SOL    HW216269   2.030   2.576   8.098 -0.0382  1.3620  1.2174
 1545SOL     OW16270   3.886   1.477   2.047  0.3368  0.1490 -0.5176
 1545SOL    HW116271   3.887   1.570   2.070  1.0876 -0.4265  1.7106
 1545SOL    HW216272   3.837   1.431   2.114 -0.2875 -0.2876 -1.2750
 1546SOL     OW16273   1.081   4.586   3.191 -0.0140 -0.0857  0.1083
 1546SOL    HW116274   0.999   4.613   3.233 -0.2752  0.2737 -0.6307
 1546SOL    HW216275   1.101   4.517   3.254  2.6439 -0.7070 -1.3998
 1547SOL     OW16276   0.666   0.721  15.323 -0.2854 -0.4807  0.7652
 1547SOL    HW116277   0.744   0.751  15.369 -0.9711 -0.4594  1.9050
 1547SOL    HW216278   0.697   0.693  15.237  0.5208  1.1848  0.5166
 1548SOL     OW16279   4.423   3.469   1.870  0.5669  0.3744  0.4153
 1548SOL    HW116280   4.331   3.466   1.897  0.2186 -1.7129 -0.9975
 1548SOL    HW216281   4.448   3.379   1.850  0.0240  0.8196 -2.1433
 1549SOL     OW16282   2.188   2.043  11.267  0.1705  0.9210 -1.3665
 1549SOL    HW116283   2.131   2.112  11.302  1.5755  1.5856 -0.3843
 1549SOL    HW216284   2.262   2.096  11.239  1.0891  1.4039  1.9329
 1550SOL     OW16285   4.153   2.636   0.364 -0.7557 -0.5000  0.7661
 1550SOL    HW116286   4.086   2.633   0.433 -0.1503 -1.4665  1.3068
 1550SOL    HW216287   4.172   2.729   0.361 -0.3165 -0.6440 -0.5826
 1551SOL     OW16288   2.358   3.562   7.877  0.6088 -0.7719  0.1977
 1551SOL    HW116289   2.431   3.511   7.912  0.5745 -1.2159 -0.3882
 1551SOL    HW216290   2.321   3.510   7.805 -2.3008  0.4225  0.7954
 1552SOL     OW16291   3.823   1.788  11.841 -0.1600  0.0534 -0.2245
 1552SOL    HW116292   3.835   1.767  11.748  0.6313 -0.0186 -0.1124
 1552SOL    HW216293   3.909   1.765  11.878 -0.1208  0.0076 -0.3449
 1553SOL     OW16294   3.681   4.317   9.282  0.4513 -0.4139 -0.0158
 1553SOL    HW116295   3.673   4.222   9.268 -0.5055 -0.4175  0.5961
 1553SOL    HW216296   3.760   4.307   9.335 -0.1539  0.2395  1.0027
 1554SOL     OW16297   0.117   0.896   6.332  0.3245  0.2137 -0.5314
 1554SOL    HW116298   0.063   0.829   6.371  0.8394 -0.1857 -0.5016
 1554SOL    HW216299   0.204   0.862   6.354 -0.0022 -0.3792 -0.1659
 1555SOL     OW16300   4.525   0.606   3.388 -1.1313 -0.6474  0.2994
 1555SOL    HW116301   4.475   0.638   3.463 -1.2034  0.9765 -0.4539
 1555SOL    HW216302   4.494   0.675   3.330  0.5672  0.9807  1.3669
 1556SOL     OW16303   3.702   1.683   4.418 -0.1972  1.2046 -0.3399
 1556SOL    HW116304   3.787   1.727   4.419  0.0077  0.7989  0.1941
 1556SOL    HW216305   3.730   1.592   4.404 -2.0268  0.5174  0.3877
 1557SOL     OW16306   1.589   2.195   1.463 -0.0965 -0.2901  0.5947
 1557SOL    HW116307   1.578   2.177   1.557 -2.6818  0.0902  0.3616
 1557SOL    HW216308   1.499   2.214   1.439 -0.3467 -0.2147  1.5912
 1558SOL     OW16309   3.761   1.123   8.921  0.1402  0.1691  0.2236
 1558SOL    HW116310   3.711   1.204   8.912  1.6560  1.1871  1.0176
 1558SOL    HW216311   3.774   1.122   9.016  3.7606  1.3127 -0.2667
 1559SOL     OW16312   0.032   4.559   3.858 -0.3232  0.2771 -0.5016
 1559SOL    HW116313   4.701   4.579   3.796 -0.0228 -0.0616 -0.9542
 1559SOL    HW216314   0.110   4.554   3.803 -1.3160 -1.5020 -1.7672
 1560SOL     OW16315   3.381   0.976   2.295 -0.0592 -0.1797  0.3122
 1560SOL    HW116316   3.293   0.969   2.331 -0.4752 -1.9768 -1.0436
 1560SOL    HW216317   3.433   0.992   2.374  0.3271  0.8647 -0.1453
 1561SOL     OW16318   3.997   1.225   5.748  0.1376  0.2361 -0.2031
 1561SOL    HW116319   3.951   1.163   5.690 -2.2102  1.1204  0.7239
 1561SOL    HW216320   3.931   1.285   5.782 -2.8032 -1.2058 -3.3003
 1562SOL     OW16321   0.962   0.893   4.823  0.0647  0.4342 -0.4860
 1562SOL    HW116322   1.036   0.842   4.854  0.1921  0.3397 -0.9415
 1562SOL    HW216323   1.004   0.971   4.785  2.1542  0.1258  1.2014
 1563SOL     OW16324   3.358   1.274  16.566  0.3044 -0.2662  0.3960
 1563SOL    HW116325   3.345   1.235  16.480  0.0925  0.1535  0.2346
 1563SOL    HW216326   3.427   1.217  16.600  1.2454  0.5922 -0.0626
 1564SOL     OW16327   2.862   2.708   4.445 -0.2340  0.3978  0.2431
 1564SOL    HW116328   2.920   2.649   4.396 -2.0814 -2.1814  1.1790
 1564SOL    HW216329   2.904   2.700   4.531  2.1814  0.0125 -0.9619
 1565SOL     OW16330   4.261   1.004   7.209  0.1172  0.1965  0.2035
 1565SOL    HW116331   4.248   0.937   7.276 -0.5962 -0.7573 -0.8913
 1565SOL    HW216332   4.183   1.057   7.225  0.5178  1.1429 -1.0196
 1566SOL     OW16333   2.595   3.763   8.413  0.2364 -0.1666 -0.9003
 1566SOL    HW116334   2.507   3.725   8.417 -0.1120  0.6883 -0.3890
 1566SOL    HW216335   2.661   3.695   8.428  0.4291  0.1373 -0.3432
 1567SOL     OW16336   4.595   2.598   7.711 -0.2201  0.1416  0.8053
 1567SOL    HW116337   4.658   2.573   7.643  1.5317 -0.1268  2.4986
 1567SOL    HW216338   4.594   2.516   7.762  0.2158 -1.0481 -1.1071
 1568SOL     OW16339   1.227   0.113   5.999  0.0610 -0.7562 -0.0722
 1568SOL    HW116340   1.233   0.017   5.992 -0.1546 -0.8937  1.5800
 1568SOL    HW216341   1.170   0.135   5.926 -0.0896 -3.6036 -0.8399
 1569SOL     OW16342   1.774   2.427   5.932 -0.7609  0.1175 -0.2383
 1569SOL    HW116343   1.759   2.463   5.845  0.8413  1.3510  0.0065
 1569SOL    HW216344   1.838   2.479   5.980 -2.0689  0.9353  0.6075
 1570SOL     OW16345   4.165   3.083  12.141 -0.0404  0.0530  0.1008
 1570SOL    HW116346   4.229   3.097  12.211 -0.3982  0.9091  0.2444
 1570SOL    HW216347   4.195   3.146  12.076 -1.9196  0.2596 -0.5530
 1571SOL     OW16348   3.100   2.887   6.281 -0.2431  0.4060 -0.2817
 1571SOL    HW116349   3.103   2.892   6.376 -1.9865  0.9618 -0.2497
 1571SOL    HW216350   3.013   2.916   6.255 -0.4223  0.9673  0.9693
 1572SOL     OW16351   1.429   3.058   5.575 -0.6770 -0.0510 -0.2903
 1572SOL    HW116352   1.396   3.137   5.618 -0.0942  1.8139 -3.1839
 1572SOL    HW216353   1.353   3.027   5.527 -3.2278  0.8058  3.2736
 1573SOL     OW16354   4.684   3.553   8.798  0.4422  0.2409 -0.0716
 1573SOL    HW116355   0.038   3.558   8.780  0.8522 -1.7979  1.5355
 1573SOL    HW216356   4.686   3.598   8.883 -0.8256 -0.5499  0.3778
 1574SOL     OW16357   2.009   3.668   7.701  0.0091 -0.9466 -0.6015
 1574SOL    HW116358   2.000   3.574   7.691  0.1992 -0.8034 -2.1127
 1574SOL    HW216359   2.022   3.704   7.613 -1.8735 -0.2096 -0.5679
 1575SOL     OW16360   0.413   3.372   0.612  0.3862 -0.5552  0.3749
 1575SOL    HW116361   0.423   3.310   0.540 -2.8778 -0.9336  0.2817
 1575SOL    HW216362   0.414   3.311   0.686 -0.8394 -0.6362  0.3152
 1576SOL     OW16363   1.295   3.526   2.148  0.3834 -0.5546 -0.0814
 1576SOL    HW116364   1.208   3.495   2.123 -0.2778  1.8365 -0.6729
 1576SOL    HW216365   1.341   3.512   2.065 -0.6138 -0.7383 -0.5928
 1577SOL     OW16366   0.126   0.347   9.367 -0.0422  0.5317  0.2820
 1577SOL    HW116367   0.090   0.307   9.288 -0.7388  3.2501 -0.7558
 1577SOL    HW216368   0.144   0.433   9.329 -0.4352  0.6588  0.3877
 1578SOL     OW16369   4.127   0.095   3.885 -0.3510  0.3744  0.4388
 1578SOL    HW116370   4.097   0.085   3.794 -0.9180 -2.0747  0.8974
 1578SOL    HW216371   4.040   0.089   3.923 -0.6872  2.4370 -0.0147
 1579SOL     OW16372   1.038   2.182   5.974 -0.2745  0.2020 -0.1000
 1579SOL    HW116373   1.074   2.184   6.063  2.3852 -0.7577 -1.1885
 1579SOL    HW216374   0.947   2.210   5.989  0.0221  1.3210 -0.4556
 1580SOL     OW16375   3.549   1.146   9.833  0.1947  0.0054  0.1438
 1580SOL    HW116376   3.477   1.086   9.854 -0.7998  1.2123  0.1315
 1580SOL    HW216377   3.559   1.203   9.909  0.5590 -0.3747  0.3881
 1581SOL     OW16378   4.016   2.432  13.844  0.6581  0.0366 -0.7875
 1581SOL    HW116379   4.084   2.365  13.839 -1.2748 -1.8082 -2.2546
 1581SOL    HW216380   4.034   2.503  13.783 -1.2126  0.1538 -1.1995
 1582SOL     OW16381   0.928   4.130   7.573 -0.0927  0.1461  0.3923
 1582SOL    HW116382   0.980   4.185   7.632 -1.9022  1.8210  0.4037
 1582SOL    HW216383   0.849   4.104   7.620  1.0111 -1.5731  1.3231
 1583SOL     OW16384   4.271   4.031   5.440 -0.5850 -0.9392 -0.3508
 1583SOL    HW116385   4.187   4.075   5.430 -0.3509 -0.6186 -0.8802
 1583SOL    HW216386   4.332   4.105   5.433 -2.3187  0.1397 -4.1447
 1584SOL     OW16387   3.485   2.025   6.264 -0.3641 -0.6457  0.1022
 1584SOL    HW116388   3.412   1.980   6.221  0.1198 -1.5910  0.2682
 1584SOL    HW216389   3.518   2.078   6.192  0.0935  1.5596  1.9692
 1585SOL     OW16390   2.145   3.077   1.019  0.1400  0.0109 -0.4214
 1585SOL    HW116391   2.188   3.044   0.940  0.1545  0.5177 -0.6276
 1585SOL    HW216392   2.139   2.997   1.072  2.9839 -0.2025 -0.4169
 1586SOL     OW16393   1.299   0.087   8.111 -0.5640  0.6111  0.0547
 1586SOL    HW116394   1.252   0.075   8.194 -0.5780 -0.0545 -0.0467
 1586SOL    HW216395   1.353   0.008   8.120 -0.1950  0.7203 -1.1612
 1587SOL     OW16396   0.611   3.957  12.691  0.3557  0.2220 -0.2188
 1587SOL    HW116397   0.594   3.864  12.708  2.4921 -0.3050 -0.9713
 1587SOL    HW216398   0.562   3.990  12.767  1.7245  1.8886 -0.0534
 1588SOL     OW16399   0.291   1.420  10.635 -0.0298 -0.3703  0.0427
 1588SOL    HW116400   0.280   1.509  10.670 -0.1425 -0.5141  0.3698
 1588SOL    HW216401   0.208   1.410  10.589  1.0194  0.3644 -2.0117
 1589SOL     OW16402   4.233   2.622   8.732  0.1663  0.0586  0.1241
 1589SOL    HW116403   4.251   2.715   8.721 -2.6482  0.3152 -2.3662
 1589SOL    HW216404   4.294   2.575   8.675  0.2940 -2.3459  2.2290
 1590SOL     OW16405   1.927   1.201  12.484 -0.1708 -0.2990  0.3380
 1590SOL    HW116406   1.950   1.288  12.518 -0.4230 -0.8943  1.9976
 1590SOL    HW216407   1.864   1.221  12.415  1.0540 -0.8700 -0.9333
 1591SOL     OW16408   1.564   4.726   7.553 -0.3769  0.1104 -0.2996
 1591SOL    HW116409   1.482   0.003   7.507 -0.2619 -0.9941 -0.9039
 1591SOL    HW216410   1.610   0.069   7.548 -2.2721  1.0752 -1.7404
 1592SOL     OW16411   1.547   1.297   4.584 -0.4690 -0.3094  0.0569
 1592SOL    HW116412   1.533   1.391   4.587 -1.7918 -0.5423  1.1437
 1592SOL    HW216413   1.571   1.282   4.492 -1.2627 -1.9618  0.1133
 1593SOL     OW16414   0.076   0.640   3.361  0.2022  0.2643  0.2440
 1593SOL    HW116415   0.051   0.693   3.285  0.3153 -0.4251 -0.2742
 1593SOL    HW216416   4.726   0.610   3.375 -0.0238 -0.0612 -1.8471
 1594SOL     OW16417   1.563   3.938   3.587 -0.0074  0.2784 -0.0796
 1594SOL    HW116418   1.490   3.969   3.533 -0.6453 -1.2385 -0.0847
 1594SOL    HW216419   1.522   3.861   3.625 -1.2100  0.1114 -1.6975
 1595SOL     OW16420   3.105   0.537  10.050  0.2285 -0.5119  0.5169
 1595SOL    HW116421   3.142   0.487   9.978 -1.0942 -1.0909  0.2428
 1595SOL    HW216422   3.026   0.485  10.064 -0.6813  0.4651 -1.1632
 1596SOL     OW16423   0.531   1.350   9.704  0.3889  0.7193 -0.4084
 1596SOL    HW116424   0.493   1.333   9.618  0.0558 -0.8805  0.0538
 1596SOL    HW216425   0.511   1.273   9.757  0.0769  0.8913 -0.2823
 1597SOL     OW16426   0.677   1.078  16.874 -0.6708 -0.4645  0.0947
 1597SOL    HW116427   0.743   1.141  16.846 -1.8323 -0.0834 -1.8172
 1597SOL    HW216428   0.673   1.016  16.801  2.4918 -2.1409  1.3463
 1598SOL     OW16429   1.866   2.388   8.872  0.3938  0.4818 -0.3237
 1598SOL    HW116430   1.867   2.310   8.816  1.1925  0.4262 -0.2381
 1598SOL    HW216431   1.949   2.376   8.919 -1.0128 -0.2565  1.9804
 1599SOL     OW16432   0.679   4.719  10.056 -0.1807  0.3164  0.1998
 1599SOL    HW116433   0.653   4.685  10.142 -0.6412 -2.5601 -1.0559
 1599SOL    HW216434   0.736   4.648  10.027 -0.1675 -0.1369  1.2980
 1600SOL     OW16435   1.684   2.195   4.233  0.1511 -0.3365  0.5621
 1600SOL    HW116436   1.677   2.285   4.266  1.6672 -0.0218  0.0284
 1600SOL    HW216437   1.597   2.164   4.208  0.8549 -1.0058 -1.0790
 1601SOL     OW16438   4.248   1.959   8.194  0.0955 -0.5781  0.0505
 1601SOL    HW116439   4.251   1.877   8.144 -1.4355  0.3957 -1.6378
 1601SOL    HW216440   4.287   2.018   8.131 -2.5408 -0.9229 -1.9138
 1602SOL     OW16441   1.466   2.089   8.036  0.0953 -0.0840  0.2101
 1602SOL    HW116442   1.555   2.121   8.045 -1.3905  3.1731  3.4791
 1602SOL    HW216443   1.424   2.175   8.040  0.9527  0.4242 -1.9772
 1603SOL     OW16444   1.755   2.501   7.229 -0.0065  0.3200  0.2033
 1603SOL    HW116445   1.706   2.495   7.147 -1.6730 -1.3471  1.3191
 1603SOL    HW216446   1.697   2.446   7.282  0.9252 -0.0630  0.8263
 1604SOL     OW16447   0.193   0.158   2.151  0.3745  0.2230 -0.3828
 1604SOL    HW116448   0.246   0.102   2.208 -2.4517 -0.5592  1.4464
 1604SOL    HW216449   0.263   0.216   2.120  3.2743 -2.3317  1.2860
 1605SOL     OW16450   4.275   0.486   1.671  0.3592 -0.2448  0.2628
 1605SOL    HW116451   4.201   0.518   1.723  0.9803 -1.6817  2.0333
 1605SOL    HW216452   4.340   0.481   1.742 -0.9395 -1.9431  1.3354
 1606SOL     OW16453   1.918   3.840   1.523  0.4994  0.6444 -0.0079
 1606SOL    HW116454   1.856   3.767   1.525  1.0676  0.1550 -0.0943
 1606SOL    HW216455   1.991   3.797   1.567  0.7646 -0.0409 -1.1305
 1607SOL     OW16456   2.815   1.931   7.072  0.8420 -0.0946 -0.4627
 1607SOL    HW116457   2.743   1.986   7.042  1.3359  0.4663 -0.6162
 1607SOL    HW216458   2.820   1.955   7.165 -1.5829 -1.7841  0.1183
 1608SOL     OW16459   3.668   1.457   7.665  0.0410 -0.3837  0.3342
 1608SOL    HW116460   3.626   1.502   7.591 -1.3198 -0.2959  1.1587
 1608SOL    HW216461   3.747   1.430   7.617  0.2018  0.9483 -0.1509
 1609SOL     OW16462   3.812   3.637   6.600  0.2883 -0.2076  0.4204
 1609SOL    HW116463   3.874   3.687   6.546  0.1025 -1.2437 -0.7314
 1609SOL    HW216464   3.769   3.708   6.648  1.9875  1.6867 -0.8352
 1610SOL     OW16465   4.698   3.056   4.288  0.5543 -0.1337 -0.1273
 1610SOL    HW116466   0.003   3.035   4.370 -2.4807  0.8460  1.7750
 1610SOL    HW216467   4.706   3.151   4.291  1.7873 -0.2489  0.2904
 1611SOL     OW16468   4.661   0.905   9.691 -1.0087 -0.2749 -0.4325
 1611SOL    HW116469   4.667   0.990   9.734  0.1300 -0.5220 -0.0954
 1611SOL    HW216470   0.010   0.875   9.712 -0.8945 -0.5994 -1.3531
 1612SOL     OW16471   4.599   1.590  14.436  0.0103  0.3182  0.0295
 1612SOL    HW116472   4.651   1.630  14.506  0.5130 -1.0298  0.4153
 1612SOL    HW216473   4.526   1.556  14.489 -0.2393  0.9342  0.0843
 1613SOL     OW16474   1.383   1.011   9.486  0.1006 -0.7194  0.3604
 1613SOL    HW116475   1.424   1.097   9.499  0.1823 -0.3039 -2.6318
 1613SOL    HW216476   1.425   0.992   9.403 -0.2995  0.8122 -0.2095
 1614SOL     OW16477   2.255   3.770   2.945  0.0022 -0.3217  0.2664
 1614SOL    HW116478   2.206   3.803   2.869  2.3341  1.2544 -0.5774
 1614SOL    HW216479   2.344   3.777   2.911  0.2692  2.4472  1.4529
 1615SOL     OW16480   3.774   0.907   0.221 -0.3141 -0.3203  0.1448
 1615SOL    HW116481   3.693   0.955   0.205 -0.6069 -0.5202  1.0270
 1615SOL    HW216482   3.761   0.902   0.316 -2.1585 -0.7613 -0.1382
 1616SOL     OW16483   4.254   1.053   8.546  0.3429  0.0036 -0.2688
 1616SOL    HW116484   4.161   1.072   8.534  0.2867 -0.0948  0.0017
 1616SOL    HW216485   4.270   1.014   8.460 -0.7802 -0.9760 -0.0384
 1617SOL     OW16486   4.376   3.118  12.616 -0.1447 -0.2625  0.3408
 1617SOL    HW116487   4.364   3.211  12.596 -0.1790 -0.8062 -2.1629
 1617SOL    HW216488   4.328   3.116  12.699  0.6451 -1.0139  0.7754
 1618SOL     OW16489   1.323   0.193   0.100  0.3753 -0.3727  0.1012
 1618SOL    HW116490   1.302   0.102   0.122  0.6093  0.0184  1.9091
 1618SOL    HW216491   1.318   0.191   0.004 -1.9646 -2.6765  0.2601
 1619SOL     OW16492   3.479   2.148   7.318  0.2907  0.3919  0.3862
 1619SOL    HW116493   3.404   2.158   7.377 -0.7215  1.8222 -1.1275
 1619SOL    HW216494   3.558   2.180   7.361  0.3905  0.6088  0.0364
 1620SOL     OW16495   4.550   2.344   9.315 -0.1394 -0.5914  0.2175
 1620SOL    HW116496   4.584   2.421   9.361  0.8087 -0.4676 -0.6872
 1620SOL    HW216497   4.567   2.273   9.378  0.5884 -0.7148 -0.1186
 1621SOL     OW16498   3.941   0.449   1.524  0.3103  0.5948 -0.4757
 1621SOL    HW116499   3.954   0.539   1.492  0.2464  0.6132 -0.4510
 1621SOL    HW216500   3.895   0.475   1.604 -0.2750  1.1028 -0.9703
 1622SOL     OW16501   1.844   1.099   7.174  0.4755 -0.3137  0.4888
 1622SOL    HW116502   1.836   1.008   7.202  0.0417 -0.5383 -0.3729
 1622SOL    HW216503   1.779   1.136   7.233  0.1239 -0.4095  0.1667
 1623SOL     OW16504   2.499   2.282   2.646 -0.5160 -0.4518 -0.2517
 1623SOL    HW116505   2.475   2.349   2.710  1.5683 -0.7083  0.8234
 1623SOL    HW216506   2.534   2.219   2.709 -3.8879 -0.2056  1.8647
 1624SOL     OW16507   1.993   3.451  14.990 -0.5145 -0.3059  0.2759
 1624SOL    HW116508   2.064   3.442  14.926 -1.8427  0.1062 -1.2390
 1624SOL    HW216509   1.970   3.542  14.971 -1.1454 -0.0368  2.3426
 1625SOL     OW16510   0.919   4.148  16.896 -0.1003 -0.0600 -0.4421
 1625SOL    HW116511   0.979   4.164  16.823 -0.6511  2.4062 -0.3382
 1625SOL    HW216512   0.979   4.135  16.970 -0.1857 -1.6705 -0.6647
 1626SOL     OW16513   0.288   2.376   6.700 -0.1294  0.2128 -0.6269
 1626SOL    HW116514   0.330   2.320   6.634  0.0190  0.8437 -1.0637
 1626SOL    HW216515   0.213   2.407   6.649  0.4382 -0.4638 -1.8752
 1627SOL     OW16516   3.199   4.204   9.269 -0.1149 -0.5375 -0.8228
 1627SOL    HW116517   3.272   4.250   9.310 -0.2986  0.3713 -1.5106
 1627SOL    HW216518   3.234   4.206   9.180 -0.5781  1.7178 -0.9516
 1628SOL     OW16519   2.229   1.960   8.015 -0.2180  0.4255 -0.2073
 1628SOL    HW116520   2.235   1.957   7.919  0.8680 -2.4614 -0.0410
 1628SOL    HW216521   2.322   1.952   8.038 -0.4357 -3.0285 -0.6235
 1629SOL     OW16522   2.988   1.512   6.499 -0.6091 -0.3061 -0.1523
 1629SOL    HW116523   3.019   1.564   6.574  1.4236 -2.6436  0.6144
 1629SOL    HW216524   2.921   1.567   6.458 -0.0931  0.4370 -0.0049
 1630SOL     OW16525   1.929   0.043   7.641 -0.3189  0.5384  0.5315
 1630SOL    HW116526   1.898   0.069   7.727  0.1131  1.3220  0.4528
 1630SOL    HW216527   1.873   0.092   7.580 -1.5838 -1.3959  0.1424
 1631SOL     OW16528   4.201   4.179   2.138 -0.0593 -0.8045  0.1193
 1631SOL    HW116529   4.197   4.126   2.218  1.2995 -1.2251 -0.0964
 1631SOL    HW216530   4.106   4.185   2.126  0.0302 -1.3648 -0.8398
 1632SOL     OW16531   2.295   2.632   5.134 -0.3674  0.2261 -0.5164
 1632SOL    HW116532   2.325   2.646   5.223 -1.7588 -0.2992  0.0394
 1632SOL    HW216533   2.359   2.573   5.094 -0.1101 -0.8197  1.4454
 1633SOL     OW16534   3.678   4.688   2.351 -0.2544  0.5234 -0.6358
 1633SOL    HW116535   3.632   4.730   2.278 -0.0605 -0.2729 -1.2290
 1633SOL    HW216536   3.708   4.614   2.297 -0.1512 -0.5926  0.9569
 1634SOL     OW16537   2.507   3.632  15.606 -0.2398  0.5917  0.4312
 1634SOL    HW116538   2.418   3.617  15.638  0.4468 -1.5701  1.3577
 1634SOL    HW216539   2.532   3.554  15.557 -1.9056 -0.6362  1.5250
 1635SOL     OW16540   4.623   4.060   3.539  0.0889  0.3605  0.4725
 1635SOL    HW116541   4.650   4.032   3.451 -0.3626 -1.5804  0.9435
 1635SOL    HW216542   4.685   4.012   3.593  2.1133  2.3948 -0.0730
 1636SOL     OW16543   2.342   2.536   8.173  0.0097 -0.0953 -0.5663
 1636SOL    HW116544   2.326   2.499   8.087 -1.3933  0.8889 -0.7429
 1636SOL    HW216545   2.289   2.476   8.225  0.3484 -0.5424 -0.7410
 1637SOL     OW16546   2.261   1.893  15.516  0.5792  0.3239  0.5579
 1637SOL    HW116547   2.206   1.972  15.519  1.7953  1.1344  1.5251
 1637SOL    HW216548   2.228   1.849  15.594 -0.6087  0.1842 -0.0265
 1638SOL     OW16549   0.639   3.199   6.701 -0.0941 -0.3947  0.2274
 1638SOL    HW116550   0.693   3.151   6.764  0.6676  1.8891  1.3208
 1638SOL    HW216551   0.552   3.198   6.740 -0.4072 -0.1906 -0.4728
 1639SOL     OW16552   2.840   1.335   1.989 -0.0841  0.1003 -0.7524
 1639SOL    HW116553   2.909   1.278   1.954 -0.9027 -3.2706  3.1764
 1639SOL    HW216554   2.866   1.416   1.944  1.7710  0.3710  0.7897
 1640SOL     OW16555   0.519   1.416   5.986 -0.1151 -0.5065 -0.7465
 1640SOL    HW116556   0.435   1.372   5.974 -1.1180  1.6988 -1.8284
 1640SOL    HW216557   0.528   1.461   5.902 -0.1413  1.6348  0.3943
 1641SOL     OW16558   3.036   0.847   3.027  0.2741  0.3352  0.1882
 1641SOL    HW116559   2.964   0.873   3.084  0.1510  1.9236 -0.6932
 1641SOL    HW216560   2.996   0.863   2.941 -1.7034 -0.6765  0.9260
 1642SOL     OW16561   0.096   2.998   4.504 -0.0813  0.6607  0.5437
 1642SOL    HW116562   0.125   3.080   4.543  1.7881 -0.1268  0.7637
 1642SOL    HW216563   0.107   2.929   4.569 -0.2072 -0.2447 -0.3959
 1643SOL     OW16564   3.589   3.593   3.856 -0.1639 -0.8754  0.8414
 1643SOL    HW116565   3.637   3.526   3.904  0.3799 -1.8097 -1.0155
 1643SOL    HW216566   3.596   3.564   3.765  2.0563 -0.3284  0.8416
 1644SOL     OW16567   3.470   3.500   7.737  0.3126  0.0403 -0.3886
 1644SOL    HW116568   3.483   3.449   7.657 -1.0003  2.2999 -2.0498
 1644SOL    HW216569   3.497   3.589   7.713 -0.9178  0.4913 -0.0967
 1645SOL     OW16570   0.938   1.638   8.554  0.0767  0.1801 -0.0792
 1645SOL    HW116571   1.031   1.650   8.572  0.4126 -3.2043  0.4582
 1645SOL    HW216572   0.924   1.727   8.523 -1.5350 -0.0468  0.0087
 1646SOL     OW16573   1.802   3.236   3.201  0.4401  0.1068  0.1119
 1646SOL    HW116574   1.793   3.141   3.190  2.2616  0.2461 -2.6458
 1646SOL    HW216575   1.734   3.248   3.134 -0.6324 -1.3225  0.9652
 1647SOL     OW16576   3.939   0.199   1.747  0.1608 -0.4784 -0.1936
 1647SOL    HW116577   4.016   0.226   1.698  0.2510  0.2604  0.3663
 1647SOL    HW216578   3.982   0.123   1.787 -0.2692  0.5072  2.1385
 1648SOL     OW16579   3.005   3.471   4.129  0.0487  0.6432 -0.3960
 1648SOL    HW116580   2.951   3.541   4.092 -2.8594 -0.6817  1.2980
 1648SOL    HW216581   3.095   3.500   4.114  0.6082 -0.7113  0.3645
 1649SOL     OW16582   4.664   4.311  16.230 -0.8198  0.5695 -0.4589
 1649SOL    HW116583   4.679   4.394  16.186  1.0290  1.5392  2.0176
 1649SOL    HW216584   4.571   4.317  16.254 -0.3650 -2.0445  1.9158
 1650SOL     OW16585   4.249   2.906   8.012  0.2694  0.1101 -0.0223
 1650SOL    HW116586   4.245   2.985   8.066  0.1647  0.6431 -0.8228
 1650SOL    HW216587   4.274   2.940   7.926  0.0053  1.0806  0.2888
 1651SOL     OW16588   1.823   0.574   8.130  0.5329 -0.5023  0.0870
 1651SOL    HW116589   1.769   0.504   8.092  1.0897 -0.1348 -1.4162
 1651SOL    HW216590   1.816   0.549   8.222 -1.8920 -0.9428 -0.2311
 1652SOL     OW16591   2.286   0.736   8.005  0.2387  0.3209 -0.2246
 1652SOL    HW116592   2.317   0.646   7.998 -2.3560 -0.5966  0.2467
 1652SOL    HW216593   2.204   0.720   8.051 -0.9862  0.5655 -2.3037
 1653SOL     OW16594   0.091   4.737  14.990  0.4350 -0.8061 -0.1429
 1653SOL    HW116595   0.073   0.024  14.899 -2.2862  0.3296  0.7219
 1653SOL    HW216596   0.158   4.671  14.972  2.4382  0.7783  1.4983
 1654SOL     OW16597   3.973   1.133   4.382  0.2580 -0.6303  0.2743
 1654SOL    HW116598   4.046   1.170   4.332 -0.5459 -2.8325 -2.5143
 1654SOL    HW216599   4.017   1.072   4.442  1.1308 -1.5762 -1.3209
 1655SOL     OW16600   2.814   2.318   2.585 -0.4875  0.2238  0.4163
 1655SOL    HW116601   2.749   2.377   2.623 -0.6181  1.2625 -1.4321
 1655SOL    HW216602   2.836   2.364   2.504  0.5925 -0.4871  0.2936
 1656SOL     OW16603   0.839   0.909   8.085 -0.4605 -0.0114 -0.1843
 1656SOL    HW116604   0.906   0.966   8.122  0.2404 -1.8047  1.2908
 1656SOL    HW216605   0.800   0.964   8.017  4.0481  1.5752 -1.4899
 1657SOL     OW16606   1.768   1.107   1.274  0.0049 -0.5872 -0.6539
 1657SOL    HW116607   1.716   1.069   1.344  1.0502 -2.0040 -0.6371
 1657SOL    HW216608   1.759   1.202   1.279  1.4318 -0.4250 -0.9110
 1658SOL     OW16609   1.033   3.066   3.256 -0.7232 -0.7637  0.0115
 1658SOL    HW116610   1.049   3.057   3.162 -0.1225 -0.0195  0.0449
 1658SOL    HW216611   1.092   2.998   3.287  1.6534  0.9486 -0.7972
 1659SOL     OW16612   3.660   3.196  14.352  0.2667 -0.1230  0.0089
 1659SOL    HW116613   3.690   3.274  14.304  0.4695  0.3133  0.8463
 1659SOL    HW216614   3.691   3.207  14.442  0.3254 -1.7222  0.1763
 1660SOL     OW16615   1.287   4.667   8.660  0.1451 -0.7218  0.2087
 1660SOL    HW116616   1.329   4.606   8.720 -1.7652  0.6108  2.8675
 1660SOL    HW216617   1.218   4.615   8.619  1.5239 -0.7099 -2.1711
 1661SOL     OW16618   1.757   4.715   6.192  0.1926 -0.5514  0.2242
 1661SOL    HW116619   1.841   4.685   6.157 -0.2202 -1.0043 -0.3721
 1661SOL    HW216620   1.753   0.070   6.179 -0.4386 -0.7205 -0.8140
 1662SOL     OW16621   2.840   3.700   2.934  0.4647  0.3478 -0.0198
 1662SOL    HW116622   2.838   3.790   2.966  0.2369 -0.2853  1.7942
 1662SOL    HW216623   2.860   3.657   3.018 -1.7462 -1.4464 -0.4151
 1663SOL     OW16624   3.935   1.461   0.201 -0.1424  0.3505 -0.2369
 1663SOL    HW116625   3.943   1.554   0.224  1.5476  0.0369  0.4641
 1663SOL    HW216626   3.942   1.454   0.106 -0.4505 -2.0614 -0.0790
 1664SOL     OW16627   2.352   4.650   7.371  0.4497  0.5412 -0.0672
 1664SOL    HW116628   2.335   4.709   7.444 -0.9116 -0.3145  0.3051
 1664SOL    HW216629   2.300   4.574   7.397 -1.3378  0.1924 -4.6595
 1665SOL     OW16630   0.372   2.028   3.462  0.2830  0.1687 -0.3280
 1665SOL    HW116631   0.402   1.983   3.383  0.4512 -1.5231  0.7146
 1665SOL    HW216632   0.316   2.099   3.431 -0.9339  0.0090  1.5189
 1666SOL     OW16633   2.186   4.617  12.176 -0.2023  0.9845 -0.4217
 1666SOL    HW116634   2.141   4.633  12.093 -0.8523  1.5577  0.0473
 1666SOL    HW216635   2.127   4.670  12.229 -3.3908 -3.2994  0.3562
 1667SOL     OW16636   2.950   1.589  14.199 -0.3503 -0.1645  0.2061
 1667SOL    HW116637   3.045   1.587  14.195 -0.2961  0.3132  1.2834
 1667SOL    HW216638   2.925   1.497  14.208 -1.2535 -0.0554 -1.1760
 1668SOL     OW16639   0.886   2.737   2.923 -0.5116  0.4719  0.1905
 1668SOL    HW116640   0.872   2.782   3.007  1.1637 -1.2030  1.3602
 1668SOL    HW216641   0.824   2.665   2.935  1.6849 -1.3303  0.6753
 1669SOL     OW16642   3.910   1.732   9.216  0.2565  0.3933 -0.0470
 1669SOL    HW116643   3.866   1.815   9.236  1.3691  0.6075  1.5436
 1669SOL    HW216644   3.876   1.664   9.275  2.1226 -0.4485  0.0625
 1670SOL     OW16645   2.572   0.914   2.941  0.1514  0.0843 -0.0462
 1670SOL    HW116646   2.605   1.003   2.948  2.5071 -0.7709 -0.1508
 1670SOL    HW216647   2.593   0.903   2.848 -0.4492  0.5373 -0.2283
 1671SOL     OW16648   3.252   2.393   7.137 -0.5665  0.2261 -0.0846
 1671SOL    HW116649   3.216   2.305   7.146  0.5189 -0.2484 -0.3219
 1671SOL    HW216650   3.319   2.380   7.070  0.9225  1.7366  1.1000
 1672SOL     OW16651   4.534   1.301   2.240 -0.3609 -0.4561 -0.6494
 1672SOL    HW116652   4.600   1.236   2.218  2.2332  1.4958  1.4182
 1672SOL    HW216653   4.510   1.276   2.329  1.0594  0.1757 -0.0882
 1673SOL     OW16654   3.502   1.078  13.127  0.4938 -0.3147 -0.2629
 1673SOL    HW116655   3.411   1.085  13.155  0.3324 -0.1114 -0.8272
 1673SOL    HW216656   3.536   1.001  13.171 -0.2845 -1.3216 -1.3883
 1674SOL     OW16657   2.787   2.704   2.048 -0.1805 -0.5545  0.6989
 1674SOL    HW116658   2.774   2.741   2.135  0.4003  2.6538 -0.5412
 1674SOL    HW216659   2.763   2.613   2.059 -0.7558 -0.1889  2.4088
 1675SOL     OW16660   0.870   1.787   8.929  0.0705  0.0821 -0.0081
 1675SOL    HW116661   0.929   1.820   8.862 -0.3612  0.6591 -0.1023
 1675SOL    HW216662   0.915   1.719   8.980 -1.3739 -0.8435  0.0289
 1676SOL     OW16663   3.103   1.643   7.879 -0.1125  0.3065 -0.3659
 1676SOL    HW116664   3.105   1.673   7.970  1.0603 -1.4763  0.1897
 1676SOL    HW216665   3.170   1.575   7.882 -0.3217  0.1154 -0.0376
 1677SOL     OW16666   0.410   0.905   2.745  0.2067  0.3397  0.3669
 1677SOL    HW116667   0.378   0.843   2.679 -0.3161 -0.3942  1.3161
 1677SOL    HW216668   0.387   0.840   2.812  2.9799  0.0732  1.0871
 1678SOL     OW16669   2.133   0.911   4.181  0.2902  0.4096 -0.0911
 1678SOL    HW116670   2.195   0.975   4.145  0.4908 -0.3587 -1.1314
 1678SOL    HW216671   2.193   0.867   4.241 -1.1342  0.5747  1.4477
 1679SOL     OW16672   0.799   0.269   2.921 -0.2956 -0.0908 -0.1550
 1679SOL    HW116673   0.747   0.218   2.859  0.2995 -0.3594 -0.4282
 1679SOL    HW216674   0.846   0.326   2.860  0.0490  0.0404  0.2364
 1680SOL     OW16675   1.928   2.307  17.227  0.1917  0.0476  0.8672
 1680SOL    HW116676   1.839   2.339  17.241  0.9595  2.2657  0.7974
 1680SOL    HW216677   1.918   2.212  17.236 -0.3131 -0.0444 -0.6282
 1681SOL     OW16678   3.877   2.886   6.639 -0.4534  0.2924  0.0661
 1681SOL    HW116679   3.916   2.808   6.679 -0.5922 -0.6690 -1.6738
 1681SOL    HW216680   3.817   2.841   6.581 -0.8197  1.7390 -0.6763
 1682SOL     OW16681   3.601   2.898   6.267 -0.7464 -0.1290  0.4657
 1682SOL    HW116682   3.513   2.860   6.272 -0.8900 -0.0183 -1.1640
 1682SOL    HW216683   3.657   2.821   6.271  0.5686  0.6958 -1.8334
 1683SOL     OW16684   2.742   3.303   3.869  0.0882  0.6441 -0.0709
 1683SOL    HW116685   2.713   3.262   3.951 -0.7971  1.2609 -0.0742
 1683SOL    HW216686   2.748   3.227   3.811 -1.1079 -0.5787  1.4074
 1684SOL     OW16687   4.604   1.621  10.029  0.5454  0.5421  0.5002
 1684SOL    HW116688   4.597   1.693  10.092 -0.3320  0.8917 -0.0098
 1684SOL    HW216689   4.554   1.664   9.960 -0.1521  0.4750  0.9704
 1685SOL     OW16690   0.295   2.633   1.671 -0.8416  0.3433 -0.2871
 1685SOL    HW116691   0.375   2.643   1.722 -1.3093 -0.5888  0.6450
 1685SOL    HW216692   0.336   2.660   1.589 -0.0918 -1.6431 -0.5658
 1686SOL     OW16693   4.173   3.193  11.195  0.0699  0.3932 -0.0108
 1686SOL    HW116694   4.148   3.226  11.109 -0.9394 -1.0138 -0.2437
 1686SOL    HW216695   4.208   3.268  11.244  1.2550  0.0165 -0.2667
 1687SOL     OW16696   4.716   4.337   5.641  0.4890  0.3427 -0.0130
 1687SOL    HW116697   0.064   4.305   5.618  0.7961  1.2088 -0.0461
 1687SOL    HW216698   4.715   4.400   5.570 -1.5550  0.5570  0.2192
 1688SOL     OW16699   0.531   0.942  17.074  0.2905  0.4341 -0.4206
 1688SOL    HW116700   0.438   0.958  17.060 -0.4285 -1.9675  1.4956
 1688SOL    HW216701   0.574   0.968  16.993  0.0684  2.0603 -0.0172
 1689SOL     OW16702   1.139   3.585   0.967  0.0950  1.0647 -0.4816
 1689SOL    HW116703   1.226   3.550   0.987  0.5229  1.5949 -1.4013
 1689SOL    HW216704   1.103   3.568   1.054 -0.0781 -0.9506 -0.9434
 1690SOL     OW16705   3.178   0.506  13.396 -0.5718  0.0812 -0.0312
 1690SOL    HW116706   3.235   0.442  13.438  0.0697  1.0287  0.5444
 1690SOL    HW216707   3.103   0.509  13.455 -0.0180 -0.6380  0.7136
 1691SOL     OW16708   4.495   0.848   8.046  0.2975  0.1691  0.1583
 1691SOL    HW116709   4.554   0.923   8.049 -1.0315  1.1449  1.8433
 1691SOL    HW216710   4.541   0.796   7.980  0.5254  0.4814  0.0695
 1692SOL     OW16711   0.333   4.642   6.307  0.4103 -0.1728  0.2713
 1692SOL    HW116712   0.406   4.611   6.360 -0.0403  1.0027  1.5755
 1692SOL    HW216713   0.265   4.646   6.374  0.7029  1.0347  0.4902
 1693SOL     OW16714   4.579   2.342  16.460 -0.7076  0.2853 -0.8150
 1693SOL    HW116715   4.546   2.397  16.389 -0.8965  0.9810 -0.1907
 1693SOL    HW216716   4.578   2.252  16.430 -1.5826 -0.8326  2.5084
 1694SOL     OW16717   1.729   2.266   9.558  0.3020  0.0215  0.6135
 1694SOL    HW116718   1.745   2.277   9.465  0.3917  0.5728  0.6955
 1694SOL    HW216719   1.641   2.303   9.562 -0.1958 -1.3111  2.2914
 1695SOL     OW16720   2.860   1.106   5.999 -0.1924  0.3450 -0.1517
 1695SOL    HW116721   2.843   1.090   6.092 -0.0682  0.4906 -0.1024
 1695SOL    HW216722   2.782   1.072   5.956 -0.9795  1.6525  0.2235
 1696SOL     OW16723   0.602   0.878   2.533 -0.4158  0.0987 -0.1030
 1696SOL    HW116724   0.619   0.940   2.604  0.1413 -0.6281  0.3894
 1696SOL    HW216725   0.577   0.942   2.466  2.4331  1.3459  0.0487
 1697SOL     OW16726   1.322   0.384   2.913 -0.4047 -0.6939 -0.5540
 1697SOL    HW116727   1.355   0.462   2.957  0.2772 -3.2324  3.4247
 1697SOL    HW216728   1.266   0.432   2.851 -1.5929 -0.9509  0.3213
 1698SOL     OW16729   2.242   3.837  14.735 -0.0943 -0.2699  0.1892
 1698SOL    HW116730   2.317   3.778  14.747 -0.8307 -1.2351  0.1135
 1698SOL    HW216731   2.228   3.861  14.826  0.6436 -1.7953  0.7030
 1699SOL     OW16732   3.049   3.002   3.144  0.2653 -0.2667 -0.2501
 1699SOL    HW116733   3.072   3.094   3.131  0.1358 -0.0056  1.2768
 1699SOL    HW216734   2.958   3.009   3.175  0.2931  1.3443 -0.4939
 1700SOL     OW16735   4.067   2.419   0.230  0.0515 -0.0152  0.0525
 1700SOL    HW116736   3.973   2.413   0.244 -0.0302  1.6325  0.2308
 1700SOL    HW216737   4.087   2.504   0.268 -1.9737  0.6430 -0.3565
 1701SOL     OW16738   2.770   2.586   6.293  0.0216 -0.5651 -0.3024
 1701SOL    HW116739   2.705   2.576   6.224 -0.2845  1.3447 -0.2849
 1701SOL    HW216740   2.825   2.656   6.258  1.0373 -1.0959  0.2256
 1702SOL     OW16741   0.228   2.959   5.198  0.5235  0.4957  0.1665
 1702SOL    HW116742   0.250   3.036   5.251 -0.3825  1.0733 -0.3080
 1702SOL    HW216743   0.150   2.986   5.150  1.4783 -0.1249 -1.7252
 1703SOL     OW16744   1.091   4.312  12.822 -0.3225  0.2124  0.2874
 1703SOL    HW116745   1.186   4.319  12.834  0.3214 -1.3142 -4.1619
 1703SOL    HW216746   1.080   4.231  12.772  0.1221 -0.9846  2.1140
 1704SOL     OW16747   3.878   0.791   2.737  0.5109  0.1813  0.7340
 1704SOL    HW116748   3.903   0.844   2.812 -0.0582  2.7901 -0.9116
 1704SOL    HW216749   3.789   0.776   2.770  0.1562  1.4914  0.3841
 1705SOL     OW16750   1.681   1.944   9.109 -0.1915 -0.1290 -0.6933
 1705SOL    HW116751   1.774   1.920   9.103  0.2641  1.3963  0.1738
 1705SOL    HW216752   1.670   1.934   9.203 -0.9451  0.8912 -0.6826
 1706SOL     OW16753   0.626   0.064   4.776 -0.0133 -0.2930  0.4578
 1706SOL    HW116754   0.556   4.738   4.769 -2.6094  2.5601 -0.1702
 1706SOL    HW216755   0.681   0.057   4.698 -2.3087  0.2656 -1.2260
 1707SOL     OW16756   4.230   2.649   4.966 -0.0771 -0.1023  0.0335
 1707SOL    HW116757   4.250   2.659   4.873  1.3878 -1.0044  0.2425
 1707SOL    HW216758   4.184   2.565   4.965  0.1229 -0.2277  1.3933
 1708SOL     OW16759   3.129   0.934  16.190 -0.0619  0.4787 -0.7226
 1708SOL    HW116760   3.053   0.927  16.248  0.3349 -3.1249 -0.6052
 1708SOL    HW216761   3.098   0.885  16.113 -0.6120  0.7171 -0.6553
 1709SOL     OW16762   1.709   2.459   7.614  0.0838  0.1240  0.8459
 1709SOL    HW116763   1.696   2.548   7.583 -0.5896  0.3609  1.8239
 1709SOL    HW216764   1.628   2.439   7.661 -2.2363  0.4794 -2.9416
 1710SOL     OW16765   0.922   3.297   8.543  0.0208  0.4091 -0.2101
 1710SOL    HW116766   1.012   3.270   8.525  0.2461 -0.0490  1.6088
 1710SOL    HW216767   0.914   3.248   8.625 -1.4045  0.9668 -0.0293
 1711SOL     OW16768   3.141   2.580   5.610 -0.1798  0.3899 -0.0219
 1711SOL    HW116769   3.128   2.605   5.701 -0.8374  1.5227 -0.4319
 1711SOL    HW216770   3.088   2.645   5.565 -1.4990 -0.8380 -0.2289
 1712SOL     OW16771   4.484   4.567   3.289 -0.1785 -0.1169  0.0657
 1712SOL    HW116772   4.566   4.616   3.288 -1.0717  1.3562 -1.0318
 1712SOL    HW216773   4.426   4.633   3.327  0.0249  2.2904 -3.8146
 1713SOL     OW16774   4.194   4.105   7.308 -0.8604  0.3002 -0.1939
 1713SOL    HW116775   4.110   4.137   7.339 -0.1453  2.9552 -0.9372
 1713SOL    HW216776   4.253   4.150   7.368 -0.2135  0.4073 -0.8970
 1714SOL     OW16777   3.496   0.886   4.701 -0.1923  0.7340 -0.0393
 1714SOL    HW116778   3.423   0.832   4.730  1.5120 -1.4346  0.2260
 1714SOL    HW216779   3.561   0.817   4.690 -0.3568  0.8297 -1.5972
 1715SOL     OW16780   1.435   3.847   5.463 -0.1816 -0.1505 -0.3476
 1715SOL    HW116781   1.405   3.787   5.530  0.6000 -1.3556 -1.0668
 1715SOL    HW216782   1.486   3.911   5.514 -1.0083  0.8338 -0.7510
 1716SOL     OW16783   4.184   2.632   6.013  0.2540 -0.2165  0.3743
 1716SOL    HW116784   4.181   2.713   5.962 -1.3818 -0.6529 -0.2131
 1716SOL    HW216785   4.114   2.660   6.072  0.2754  2.0817 -0.7301
 1717SOL     OW16786   1.367   4.562  15.120  0.2448 -0.2234 -0.0422
 1717SOL    HW116787   1.431   4.491  15.115  0.7897  0.1698  1.4508
 1717SOL    HW216788   1.300   4.526  15.178  2.4789 -0.5071  2.3858
 1718SOL     OW16789   0.940   1.836   9.830 -0.2089 -0.4267  0.3100
 1718SOL    HW116790   0.846   1.818   9.822 -0.1564 -1.4164  1.8423
 1718SOL    HW216791   0.967   1.850   9.740  0.5332  2.4119  0.9706
 1719SOL     OW16792   1.419   1.536  11.109 -0.8041 -0.4937  0.0753
 1719SOL    HW116793   1.465   1.536  11.193  0.9820  3.7788 -0.8996
 1719SOL    HW216794   1.420   1.448  11.071  1.4973 -0.6560  0.5327
 1720SOL     OW16795   1.277   0.805   5.873  0.2297  0.1668  0.5072
 1720SOL    HW116796   1.265   0.765   5.787  0.9381  0.0754  0.4502
 1720SOL    HW216797   1.300   0.732   5.931 -1.1120 -0.5414  0.1369
 1721SOL     OW16798   2.189   2.749   3.544 -0.0909 -0.3984  0.3133
 1721SOL    HW116799   2.273   2.703   3.538  0.1483 -0.1788  1.7607
 1721SOL    HW216800   2.149   2.698   3.474  1.7285 -1.1337 -0.1784
 1722SOL     OW16801   1.873   3.545   8.533  0.2441  0.3287  0.5573
 1722SOL    HW116802   1.819   3.613   8.492 -0.9306 -0.0641  1.4754
 1722SOL    HW216803   1.917   3.498   8.463  0.3520  2.6012 -0.9036
 1723SOL     OW16804   3.607   4.418   4.570  0.1944  0.1528 -0.8102
 1723SOL    HW116805   3.569   4.501   4.599 -0.0012 -0.4465  0.6686
 1723SOL    HW216806   3.564   4.406   4.486  1.5677 -2.3865 -1.1571
 1724SOL     OW16807   0.319   4.721   1.978 -0.5043 -0.4230 -0.6882
 1724SOL    HW116808   0.382   0.007   1.910 -0.9748  1.7944 -0.2884
 1724SOL    HW216809   0.269   0.063   1.987  0.6355  0.2021 -0.1006
 1725SOL     OW16810   3.920   0.719   8.115  0.2065  0.1403 -0.5704
 1725SOL    HW116811   3.904   0.738   8.208  0.2137  0.7719 -0.7001
 1725SOL    HW216812   3.833   0.687   8.090 -0.6182 -0.3244  2.8977
 1726SOL     OW16813   2.828   1.813   2.248 -0.6829  0.6808 -0.3442
 1726SOL    HW116814   2.882   1.882   2.287 -0.4242  0.3164 -0.0591
 1726SOL    HW216815   2.859   1.744   2.307 -0.1916 -1.0167 -2.5643
 1727SOL     OW16816   2.008   4.127   8.948 -0.0847 -0.1080  0.1113
 1727SOL    HW116817   2.031   4.108   8.858  2.1528  0.8854  0.4801
 1727SOL    HW216818   1.915   4.138   8.928 -0.3407 -1.2797  0.6842
 1728SOL     OW16819   1.309   0.742   9.895 -0.3238 -0.0182  0.4693
 1728SOL    HW116820   1.344   0.791   9.821 -2.4171 -0.2773 -0.7033
 1728SOL    HW216821   1.368   0.770   9.966  0.9761 -2.2464  0.2382
 1729SOL     OW16822   2.465   3.088   7.825  0.0490  0.1646  0.0553
 1729SOL    HW116823   2.504   3.033   7.756  0.4374 -2.6220  2.4628
 1729SOL    HW216824   2.372   3.088   7.804  0.2419  1.3591 -0.7651
 1730SOL     OW16825   4.329   0.130   9.794 -0.5363  0.6851 -0.3730
 1730SOL    HW116826   4.373   0.102   9.714  1.1637  2.8015 -0.2006
 1730SOL    HW216827   4.360   0.219   9.813  0.1235  0.3265  0.2259
 1731SOL     OW16828   0.024   0.802   3.680 -0.1097  0.1669 -0.1766
 1731SOL    HW116829   4.682   0.814   3.631  0.0002  3.2223  0.3651
 1731SOL    HW216830   0.090   0.826   3.615 -1.3574  0.8611 -1.1880
 1732SOL     OW16831   3.997   3.327  16.341 -0.3393  0.3090  0.7058
 1732SOL    HW116832   3.998   3.356  16.250 -1.1479 -1.4075  0.1597
 1732SOL    HW216833   3.985   3.233  16.329 -0.1589  0.5859 -1.5697
 1733SOL     OW16834   2.950   4.060  17.454  0.5782 -0.1231  0.0631
 1733SOL    HW116835   2.936   3.974  17.493  0.3789 -0.4680 -0.7658
 1733SOL    HW216836   2.894   4.052  17.377  0.8884  1.3475 -0.3297
 1734SOL     OW16837   3.872   1.992   2.950  0.4369 -0.3895 -0.1995
 1734SOL    HW116838   3.956   1.966   2.986  0.0109 -1.5127 -0.0320
 1734SOL    HW216839   3.858   1.916   2.894 -0.0536  0.3719 -1.1133
 1735SOL     OW16840   0.183   3.266  11.974 -1.2372  0.3735 -0.1950
 1735SOL    HW116841   0.146   3.268  11.885  1.4056 -2.0552 -1.3567
 1735SOL    HW216842   0.123   3.332  12.009 -1.6835 -0.2126  0.1421
 1736SOL     OW16843   4.119   0.550   5.083  0.4109  0.2429 -0.3849
 1736SOL    HW116844   4.134   0.487   5.154 -3.0198 -0.0017  0.1338
 1736SOL    HW216845   4.118   0.487   5.010 -2.5479  2.0918 -1.9418
 1737SOL     OW16846   0.014   4.171   6.062  0.4426  0.1841  0.5075
 1737SOL    HW116847   4.730   4.214   6.143 -0.7170  1.2279 -0.3993
 1737SOL    HW216848   0.089   4.224   6.036 -1.6704  2.4190 -1.0172
 1738SOL     OW16849   3.966   3.802   1.263 -0.4292 -0.0717 -0.0867
 1738SOL    HW116850   4.003   3.714   1.275  1.5559  0.6635 -0.6932
 1738SOL    HW216851   4.049   3.847   1.247 -1.0180  0.1402 -2.5438
 1739SOL     OW16852   1.754   0.937   8.504 -0.2645 -0.5876  0.1132
 1739SOL    HW116853   1.678   0.913   8.557  0.1257  2.2309  2.0024
 1739SOL    HW216854   1.718   1.010   8.454 -1.1756 -0.1191  1.4342
 1740SOL     OW16855   3.191   1.846   3.939 -0.4855  0.4721  0.5505
 1740SOL    HW116856   3.165   1.801   4.019  0.4266  0.8160  1.0443
 1740SOL    HW216857   3.100   1.872   3.921 -0.5394 -0.9157 -1.2168
 1741SOL     OW16858   0.113   1.024   4.639  0.0554 -0.0842  0.5052
 1741SOL    HW116859   0.067   1.030   4.723  0.7364 -0.1501  0.8843
 1741SOL    HW216860   0.038   1.030   4.581 -0.3232  1.7319  1.2073
 1742SOL     OW16861   4.593   4.239   6.859  0.3281 -0.4270  0.6162
 1742SOL    HW116862   4.632   4.323   6.883 -0.1265  1.0017 -3.6987
 1742SOL    HW216863   4.502   4.265   6.845  0.4324  0.2086  1.1380
 1743SOL     OW16864   3.733   0.225  10.163  0.0069 -0.3786 -0.6106
 1743SOL    HW116865   3.680   0.264  10.233 -0.3379 -1.8316 -0.0619
 1743SOL    HW216866   3.744   0.134  10.192 -1.0457 -0.7715 -1.4243
 1744SOL     OW16867   3.885   4.458   6.372 -0.1261 -0.0334 -0.2879
 1744SOL    HW116868   3.927   4.493   6.293  2.3403  0.6941  1.3329
 1744SOL    HW216869   3.955   4.471   6.436  0.5953 -0.6007 -0.9580
 1745SOL     OW16870   1.856   3.274   5.206  0.0015 -0.4666 -0.1651
 1745SOL    HW116871   1.861   3.200   5.267  0.2008 -0.3078  0.0092
 1745SOL    HW216872   1.773   3.257   5.162  0.5900 -1.6987 -0.7990
 1746SOL     OW16873   3.202   3.947  10.389 -0.1730 -0.7730  0.2893
 1746SOL    HW116874   3.109   3.937  10.368 -0.8829  3.6918  1.1872
 1746SOL    HW216875   3.192   3.964  10.483 -2.2620 -1.6771  0.2373
 1747SOL     OW16876   2.437   0.328   5.914 -0.1488  0.2612 -0.2354
 1747SOL    HW116877   2.465   0.287   5.832 -2.6743 -2.4048  0.2771
 1747SOL    HW216878   2.344   0.308   5.918  0.2359 -1.5908 -0.4647
 1748SOL     OW16879   2.929   4.618   3.659  0.1469  0.8406 -0.2317
 1748SOL    HW116880   2.976   4.701   3.649  1.7891  0.0661  1.1079
 1748SOL    HW216881   2.851   4.642   3.708 -0.6488 -1.4290 -0.3832
 1749SOL     OW16882   3.511   2.096   1.504 -0.1739  0.2050 -0.0162
 1749SOL    HW116883   3.437   2.036   1.514 -0.6530  1.0329  1.4070
 1749SOL    HW216884   3.501   2.145   1.585 -0.3910 -0.8866  0.6266
 1750SOL     OW16885   1.313   2.655   3.803  0.3917 -0.4782  0.3233
 1750SOL    HW116886   1.366   2.703   3.866  0.6541 -1.1199  0.5790
 1750SOL    HW216887   1.344   2.565   3.814  1.3767 -0.3095 -1.0693
 1751SOL     OW16888   3.976   3.771  16.045  0.4830  0.0391  0.4394
 1751SOL    HW116889   3.988   3.787  15.951  1.2111  1.5332  0.7894
 1751SOL    HW216890   3.884   3.793  16.057  0.2118 -0.9218  0.1698
 1752SOL     OW16891   0.142   4.499  17.170  0.5812  0.9635  0.1068
 1752SOL    HW116892   0.144   4.403  17.168 -0.3478  0.9943 -2.0922
 1752SOL    HW216893   0.216   4.516  17.112  0.5966 -3.0339 -1.0836
 1753SOL     OW16894   3.677   2.205   4.109  0.1842 -0.2461 -0.2437
 1753SOL    HW116895   3.669   2.297   4.085 -0.4834 -0.2238  0.0863
 1753SOL    HW216896   3.646   2.211   4.199 -1.4863 -1.6418 -0.7311
 1754SOL     OW16897   2.680   1.550  13.292 -0.4480 -0.0045  0.2397
 1754SOL    HW116898   2.690   1.578  13.201 -0.8061  0.7440  0.4323
 1754SOL    HW216899   2.654   1.458  13.288  0.2265 -0.1366 -1.2193
 1755SOL     OW16900   0.017   1.747   3.137  0.6217 -0.4506  0.7999
 1755SOL    HW116901   4.719   1.835   3.146  0.7922 -0.2202 -0.6993
 1755SOL    HW216902   4.694   1.702   3.194  0.3342  0.9325  1.5650
 1756SOL     OW16903   2.177   4.668   7.128 -0.4709 -0.1633 -0.3563
 1756SOL    HW116904   2.236   4.708   7.063 -0.2318  0.8632  0.4911
 1756SOL    HW216905   2.241   4.650   7.198 -0.8329  0.5897  0.1648
 1757SOL     OW16906   3.456   0.643  10.175  0.5424 -0.1098  0.5864
 1757SOL    HW116907   3.369   0.677  10.195  1.5908  1.4638  2.4278
 1757SOL    HW216908   3.502   0.720  10.142  0.4412 -0.1545  0.3366
 1758SOL     OW16909   4.264   1.742   2.110  0.2093 -0.0695 -0.3394
 1758SOL    HW116910   4.343   1.724   2.160  0.4232 -0.8770 -0.9712
 1758SOL    HW216911   4.282   1.720   2.019 -0.1837 -3.2091  0.3281
 1759SOL     OW16912   0.533   2.370   8.732  0.0529 -0.2866  0.1871
 1759SOL    HW116913   0.507   2.427   8.804  0.4227 -1.5917  1.3621
 1759SOL    HW216914   0.515   2.287   8.776  1.0635  0.3294  1.7672
 1760SOL     OW16915   3.908   1.978   7.285  0.7165 -0.6584  0.3932
 1760SOL    HW116916   3.935   2.064   7.319  2.6002 -1.1969  0.2629
 1760SOL    HW216917   3.895   1.927   7.365  3.6922  2.5694  2.9342
 1761SOL     OW16918   1.830   1.643   8.736 -0.2473  0.0560 -0.1317
 1761SOL    HW116919   1.833   1.628   8.830  0.0326 -1.1578 -0.3318
 1761SOL    HW216920   1.908   1.593   8.712  0.5145  2.0869 -1.8832
 1762SOL     OW16921   2.681   4.122   8.953 -0.3233 -0.0610 -0.3072
 1762SOL    HW116922   2.611   4.152   9.012  0.4854 -1.4164  1.3328
 1762SOL    HW216923   2.758   4.167   8.990 -0.2707  0.9814 -1.6924
 1763SOL     OW16924   2.668   3.849   8.142  0.4843 -0.2236  0.5572
 1763SOL    HW116925   2.599   3.886   8.196  1.2630  1.7659  0.2073
 1763SOL    HW216926   2.747   3.902   8.153  0.4658 -0.6764  2.8187
 1764SOL     OW16927   0.909   4.274  10.410 -0.5163  0.2916 -0.1698
 1764SOL    HW116928   0.881   4.228  10.489 -0.1398  2.9367  1.4722
 1764SOL    HW216929   0.844   4.342  10.393  0.1778  0.4862 -2.0105
 1765SOL     OW16930   2.657   1.518   3.911  0.8619 -0.0129  0.4264
 1765SOL    HW116931   2.744   1.557   3.896 -0.6971  3.2542 -0.2239
 1765SOL    HW216932   2.625   1.515   3.822 -0.4225  0.9703  0.8626
 1766SOL     OW16933   1.578   3.918   5.725 -0.3378 -0.1863  0.0880
 1766SOL    HW116934   1.629   3.997   5.745  1.2714 -1.3671  0.5932
 1766SOL    HW216935   1.523   3.916   5.804 -1.8597  0.7251 -0.9542
 1767SOL     OW16936   4.017   1.703  15.407  0.6049  0.4592 -0.5728
 1767SOL    HW116937   4.004   1.791  15.442  1.3109  0.1484  0.4483
 1767SOL    HW216938   4.107   1.700  15.375  0.7627 -1.3394  0.0599
 1768SOL     OW16939   0.934   0.084   5.195 -0.1713 -0.1371  0.1791
 1768SOL    HW116940   0.857   0.077   5.139 -0.4889 -2.2191  0.8618
 1768SOL    HW216941   0.977   0.168   5.180 -0.3973  0.0056  0.3399
 1769SOL     OW16942   3.895   3.364   8.808 -0.1561 -0.0212 -0.5138
 1769SOL    HW116943   3.864   3.365   8.898 -1.4706  3.0613 -1.0227
 1769SOL    HW216944   3.983   3.399   8.822 -0.4550  0.4906  0.0818
 1770SOL     OW16945   4.653   1.117  16.008  0.2949  0.1631 -0.2198
 1770SOL    HW116946   4.634   1.188  16.069  1.6523  1.5244 -1.3699
 1770SOL    HW216947   4.565   1.082  15.992 -0.5351  1.4087  1.6570
 1771SOL     OW16948   1.678   4.736   8.041 -0.1024  0.2154  0.6647
 1771SOL    HW116949   1.717   0.080   8.017  0.1826 -0.3354 -0.7994
 1771SOL    HW216950   1.669   4.688   7.959  0.3899  0.3531  0.5284
 1772SOL     OW16951   1.404   0.255   4.725 -0.3330  0.0518  0.3052
 1772SOL    HW116952   1.463   0.267   4.800  0.3112  2.5946 -0.6003
 1772SOL    HW216953   1.343   0.193   4.763 -1.0838  0.2802 -0.5303
 1773SOL     OW16954   0.268   2.314  11.271  0.5017 -0.2931 -0.3972
 1773SOL    HW116955   0.284   2.400  11.309 -2.4656 -0.2409  0.7158
 1773SOL    HW216956   0.351   2.273  11.296 -0.2868 -1.9459 -0.4766
 1774SOL     OW16957   0.246   4.109   8.156  0.4498 -0.1566  0.3042
 1774SOL    HW116958   0.219   4.056   8.231  1.2083 -0.8420  0.0886
 1774SOL    HW216959   0.261   4.032   8.100  2.2774  0.1566  0.3630
 1775SOL     OW16960   0.544   3.684  10.244  0.3339 -0.1387  0.1263
 1775SOL    HW116961   0.471   3.736  10.277 -0.0620 -0.1820 -0.6929
 1775SOL    HW216962   0.615   3.706  10.305 -0.1185 -0.8732  0.9163
 1776SOL     OW16963   0.256   0.636  10.876  0.1487 -0.0543  0.0050
 1776SOL    HW116964   0.329   0.657  10.934  0.0285  0.2681  0.0396
 1776SOL    HW216965   0.295   0.676  10.799 -0.3204 -0.3917 -0.4058
 1777SOL     OW16966   1.453   1.231   4.116 -0.1002 -0.4501  0.5561
 1777SOL    HW116967   1.421   1.189   4.196 -0.3569  2.4859  2.0019
 1777SOL    HW216968   1.370   1.251   4.074 -0.3972 -0.5571  1.0971
 1778SOL     OW16969   0.794   4.500   1.424  0.2776  0.2841  0.6953
 1778SOL    HW116970   0.734   4.560   1.381 -0.9473 -2.3600 -1.2548
 1778SOL    HW216971   0.881   4.531   1.398  0.1292 -0.1558 -0.3241
 1779SOL     OW16972   0.944   2.621   7.067  0.0790  0.1081 -0.0238
 1779SOL    HW116973   1.018   2.659   7.114  1.2534 -2.4791  0.1985
 1779SOL    HW216974   0.926   2.692   7.004 -2.4219 -0.0823  0.4738
 1780SOL     OW16975   1.116   2.513   8.047  0.2677  1.0014 -0.2444
 1780SOL    HW116976   1.080   2.549   8.128 -0.1533  0.8200 -0.3503
 1780SOL    HW216977   1.151   2.583   7.992 -1.7002  1.9490 -0.2829
 1781SOL     OW16978   3.552   4.560   1.171  0.5395 -0.9332  0.2420
 1781SOL    HW116979   3.515   4.648   1.174 -0.8026 -1.5219  0.7291
 1781SOL    HW216980   3.511   4.515   1.246  1.5629 -0.5652  1.0295
 1782SOL     OW16981   1.435   2.558   4.241  0.3647  0.3445 -0.7412
 1782SOL    HW116982   1.354   2.600   4.272 -0.2022 -2.3281  1.4583
 1782SOL    HW216983   1.422   2.475   4.288 -1.8044  1.4079  0.5624
 1783SOL     OW16984   4.381   0.235   6.960  0.2427  0.1449  0.2503
 1783SOL    HW116985   4.333   0.194   7.032 -0.9473  2.4760  0.7831
 1783SOL    HW216986   4.342   0.322   6.965 -2.1948 -0.9319  0.0294
 1784SOL     OW16987   3.823   0.828   2.122  0.1720  0.2066  0.5554
 1784SOL    HW116988   3.752   0.838   2.059 -0.1976 -1.7811  0.6584
 1784SOL    HW216989   3.899   0.796   2.074  1.5744  0.5616  2.5526
 1785SOL     OW16990   4.535   4.650  17.326 -0.1326 -0.4727  0.0966
 1785SOL    HW116991   4.459   4.605  17.362 -1.0249  0.2951 -0.8365
 1785SOL    HW216992   4.503   4.711  17.259 -0.7686 -2.9649 -1.8658
 1786SOL     OW16993   1.376   1.154   1.939  0.0032 -0.7788  0.2443
 1786SOL    HW116994   1.345   1.081   1.992  0.2837 -0.2990  1.0696
 1786SOL    HW216995   1.424   1.105   1.873 -0.0570 -0.9278  0.3118
 1787SOL     OW16996   4.609   1.783  14.875  0.0591  0.2915  0.0790
 1787SOL    HW116997   4.606   1.761  14.968 -1.3949  1.4446  0.2924
 1787SOL    HW216998   4.524   1.826  14.867  0.1150  0.1125 -1.4103
 1788SOL     OW16999   3.744   4.088   1.964  0.2362  0.0474  0.0305
 1788SOL    HW117000   3.674   4.065   2.024 -0.5810 -0.1549 -1.0120
 1788SOL    HW217001   3.705   4.098   1.878 -1.3611  0.3776  0.8028
 1789SOL     OW17002   3.579   4.465  11.647 -0.4453  0.1764 -0.6347
 1789SOL    HW117003   3.668   4.485  11.619 -0.3555 -0.1072 -0.5534
 1789SOL    HW217004   3.587   4.389  11.704  0.2043 -1.4383 -2.9270
 1790SOL     OW17005   0.538   1.681   5.776 -0.3879  0.8770  0.0920
 1790SOL    HW117006   0.606   1.617   5.755  0.3210  1.6980 -0.1284
 1790SOL    HW217007   0.560   1.757   5.722  1.6398 -1.8871 -2.9968
 1791SOL     OW17008   4.543   3.935   5.063 -0.2240  0.2807  0.5185
 1791SOL    HW117009   4.568   3.897   5.147 -1.3011  1.0683  1.2069
 1791SOL    HW217010   4.470   3.875   5.048 -0.5978  0.6842  0.6998
 1792SOL     OW17011   0.939   3.286   7.264 -0.0700 -0.1774  0.3275
 1792SOL    HW117012   0.943   3.344   7.188 -2.7926 -0.8981 -0.3634
 1792SOL    HW217013   0.999   3.319   7.331 -0.8792  3.0851 -0.5462
 1793SOL     OW17014   3.429   2.167   9.714 -0.7228  0.4506  0.6148
 1793SOL    HW117015   3.454   2.084   9.753  1.2992  0.0566 -1.4949
 1793SOL    HW217016   3.489   2.185   9.641 -1.1851  1.6956  0.5293
 1794SOL     OW17017   2.636   1.162   8.592 -0.1468  0.4321  0.4504
 1794SOL    HW117018   2.649   1.195   8.681  2.9600  0.5611 -0.0683
 1794SOL    HW217019   2.543   1.185   8.585 -1.1661 -3.4461  0.7592
 1795SOL     OW17020   3.824   1.709   6.381  0.0736  0.7772 -0.4126
 1795SOL    HW117021   3.818   1.754   6.297 -0.5343  1.1133 -0.1905
 1795SOL    HW217022   3.912   1.672   6.378 -0.6585 -1.0407  0.7708
 1796SOL     OW17023   3.132   2.099   3.770 -0.2783 -0.0453  0.5367
 1796SOL    HW117024   3.073   2.094   3.695 -0.3045  3.9893  0.2606
 1796SOL    HW217025   3.083   2.051   3.837 -0.5597 -0.3347  0.1205
 1797SOL     OW17026   0.145   2.352   1.595  0.0246  0.3974 -0.1952
 1797SOL    HW117027   0.188   2.417   1.651 -0.1721  1.1969 -0.9842
 1797SOL    HW217028   0.132   2.410   1.520  1.1222  3.6907  2.1491
 1798SOL     OW17029   2.722   1.535   2.183 -0.4643 -0.6187 -0.1557
 1798SOL    HW117030   2.785   1.483   2.133  0.0617 -1.1561  1.0560
 1798SOL    HW217031   2.681   1.590   2.116 -0.5699  0.1500  0.5371
 1799SOL     OW17032   4.445   1.839   2.920 -0.2193  0.8055  0.4496
 1799SOL    HW117033   4.396   1.879   2.993 -2.2488 -1.0320  0.0941
 1799SOL    HW217034   4.417   1.748   2.915 -0.6321  1.0421 -1.5922
 1800SOL     OW17035   1.312   3.179   2.227 -0.4905  0.3100 -0.0234
 1800SOL    HW117036   1.372   3.115   2.189 -2.5409 -1.8346  0.3221
 1800SOL    HW217037   1.305   3.239   2.153  0.9385 -0.1681 -0.5509
 1801SOL     OW17038   1.557   2.379  15.640 -0.4449  0.8000  0.3818
 1801SOL    HW117039   1.549   2.353  15.548 -1.1229  0.7190  0.4663
 1801SOL    HW217040   1.648   2.353  15.656 -0.1865  1.7813  0.4969
 1802SOL     OW17041   0.031   1.671   3.873 -0.7664 -0.4074  0.0961
 1802SOL    HW117042   0.036   1.766   3.862 -1.3319 -0.0509  2.9601
 1802SOL    HW217043   0.119   1.641   3.848  0.2460  1.2770  1.6639
 1803SOL     OW17044   4.681   1.288  14.343 -0.3003 -0.0628 -0.3938
 1803SOL    HW117045   4.622   1.331  14.282  1.0369  2.3999  0.0430
 1803SOL    HW217046   4.627   1.275  14.421 -2.9990  1.7245 -1.9955
 1804SOL     OW17047   4.110   0.681  16.966  0.2541  0.2651  0.0660
 1804SOL    HW117048   4.089   0.674  16.873  0.9158  0.4989 -0.0954
 1804SOL    HW217049   4.057   0.754  16.998  1.5633  1.7981 -1.3061
 1805SOL     OW17050   4.502   4.571   2.794  0.0773  0.1225 -0.0277
 1805SOL    HW117051   4.436   4.616   2.847 -1.8762 -1.9104 -0.7416
 1805SOL    HW217052   4.479   4.482   2.821  2.0692 -1.1456 -2.6288
 1806SOL     OW17053   0.160   3.375  12.272 -0.4035 -0.0907  0.0859
 1806SOL    HW117054   0.241   3.395  12.320 -0.9861  0.8800  0.6728
 1806SOL    HW217055   0.118   3.310  12.329  0.2527 -0.3277  0.3019
 1807SOL     OW17056   0.935   4.242   3.049  0.0426 -0.0221 -0.7589
 1807SOL    HW117057   0.958   4.283   3.132  3.2518 -1.3951 -0.9702
 1807SOL    HW217058   1.011   4.249   2.991  0.5925 -3.7452 -0.5350
 1808SOL     OW17059   4.475   2.111   8.075  0.2987 -0.5490  0.6180
 1808SOL    HW117060   4.554   2.059   8.074  1.6910  1.5639  0.7183
 1808SOL    HW217061   4.502   2.189   8.124 -0.0205 -0.7629  1.1373
 1809SOL     OW17062   0.732   4.506   5.762 -0.3360  0.3117  0.4468
 1809SOL    HW117063   0.696   4.468   5.682  0.2651  2.6673 -0.9372
 1809SOL    HW217064   0.695   4.462   5.839  0.4603  0.4504  0.9060
 1810SOL     OW17065   0.809   3.542  10.687 -0.7827 -0.1595 -0.1504
 1810SOL    HW117066   0.831   3.463  10.637 -0.3484 -0.9474  1.2825
 1810SOL    HW217067   0.761   3.587  10.618 -0.9121  1.3718  0.9249
 1811SOL     OW17068   0.648   1.904   5.232  0.4465  0.2529  0.2607
 1811SOL    HW117069   0.715   1.934   5.170 -0.3798  1.4559 -0.0587
 1811SOL    HW217070   0.594   1.983   5.236  0.9717  0.7365 -1.9491
 1812SOL     OW17071   0.113   0.555   2.954  0.0401  0.3364  0.0117
 1812SOL    HW117072   0.053   0.522   2.887  1.8449 -2.6929 -0.1496
 1812SOL    HW217073   0.150   0.475   2.993 -1.4029  0.0887  0.8603
 1813SOL     OW17074   3.077   3.868  14.049  0.6373  0.1466 -0.2623
 1813SOL    HW117075   3.069   3.814  13.970 -0.5771  0.7397 -0.5358
 1813SOL    HW217076   3.144   3.930  14.020 -0.4213  0.9077 -1.0881
 1814SOL     OW17077   0.915   3.152   8.809  0.1542 -0.0589 -0.2633
 1814SOL    HW117078   0.982   3.209   8.849 -0.5146  0.4955  0.0646
 1814SOL    HW217079   0.868   3.123   8.886 -0.2506 -1.1326 -0.9270
 1815SOL     OW17080   0.485   4.707   5.061  0.6997 -0.4298  0.3733
 1815SOL    HW117081   0.430   4.720   4.985  1.6707  1.2472 -0.0453
 1815SOL    HW217082   0.471   4.615   5.080  1.1905 -0.6858 -0.4958
 1816SOL     OW17083   2.850   0.063   2.805  0.1854 -0.2786 -0.1425
 1816SOL    HW117084   2.811   0.015   2.732  3.2454  0.3746 -2.2192
 1816SOL    HW217085   2.922   0.112   2.765 -1.1602  1.1762 -0.7881
 1817SOL     OW17086   0.851   0.938   3.738 -0.0130 -0.3172 -0.7061
 1817SOL    HW117087   0.785   0.959   3.804  0.6576 -0.0807 -0.1184
 1817SOL    HW217088   0.867   1.020   3.693  1.7585 -0.9206 -1.1836
 1818SOL     OW17089   1.645   1.439   1.052  0.0939 -0.0807  0.5311
 1818SOL    HW117090   1.674   1.516   1.003 -1.5854  0.8304  0.9706
 1818SOL    HW217091   1.730   1.405   1.081 -0.3007 -2.3700 -1.0199
 1819SOL     OW17092   4.476   4.404   9.542 -0.4350 -0.1485  0.2046
 1819SOL    HW117093   4.571   4.412   9.551 -0.3956 -0.2892 -0.0717
 1819SOL    HW217094   4.458   4.459   9.465  0.8195  0.0803  0.0724
 1820SOL     OW17095   1.757   3.807   6.386 -0.2741 -0.0662 -0.0229
 1820SOL    HW117096   1.721   3.754   6.457 -3.5218  2.0806 -0.0937
 1820SOL    HW217097   1.773   3.751   6.310 -0.3445  0.3802 -0.3688
 1821SOL     OW17098   2.612   1.619  12.708  0.0868 -0.0613 -0.4042
 1821SOL    HW117099   2.706   1.600  12.705  0.2148  0.7066 -1.4450
 1821SOL    HW217100   2.589   1.575  12.790  0.1618  0.4961 -0.0871
 1822SOL     OW17101   0.169   2.306   6.166  0.4116  0.0062 -0.4044
 1822SOL    HW117102   0.225   2.384   6.165  0.5093 -0.0667 -0.9809
 1822SOL    HW217103   0.160   2.293   6.071  2.4332  0.9603 -0.7394
 1823SOL     OW17104   0.899   2.984   2.240  0.1465  0.4835 -0.5861
 1823SOL    HW117105   0.841   2.928   2.290  0.5811  2.1013  1.7248
 1823SOL    HW217106   0.984   2.951   2.269 -0.0879  0.9259  0.5812
 1824SOL     OW17107   1.758   3.051   4.364 -0.0259 -0.2225  0.2511
 1824SOL    HW117108   1.783   3.137   4.330 -1.2073  0.5973  1.4519
 1824SOL    HW217109   1.712   3.022   4.286 -1.3919 -0.7843  1.2623
 1825SOL     OW17110   4.167   4.537   1.162  0.5625 -0.0775  0.0704
 1825SOL    HW117111   4.135   4.596   1.094  1.2673 -0.2143 -0.3735
 1825SOL    HW217112   4.225   4.588   1.219  0.8393  0.1761 -0.4375
 1826SOL     OW17113   2.941   3.397   0.663 -0.6193 -0.3296 -0.1382
 1826SOL    HW117114   2.928   3.490   0.682 -0.0548  0.1362 -2.0570
 1826SOL    HW217115   3.031   3.394   0.630 -0.4606  2.8584 -0.0207
 1827SOL     OW17116   0.893   1.026   4.463 -0.0715 -0.0178 -0.6194
 1827SOL    HW117117   0.880   0.981   4.380  1.8419  0.9718 -1.4454
 1827SOL    HW217118   0.967   0.981   4.504  0.5970  0.6636 -1.0767
 1828SOL     OW17119   1.846   4.343   8.793  0.1575 -0.0225 -0.3988
 1828SOL    HW117120   1.780   4.396   8.748  1.9600  1.0124 -1.7921
 1828SOL    HW217121   1.793   4.300   8.861 -0.4162  2.4461  0.7239
 1829SOL     OW17122   0.895   2.172  13.604  0.4937 -0.5481 -0.5105
 1829SOL    HW117123   0.836   2.139  13.535  1.8499 -0.3929 -1.7508
 1829SOL    HW217124   0.922   2.087  13.638  1.7124  0.3519  0.7306
 1830SOL     OW17125   2.514   1.894   4.633  0.0784  0.3571 -0.0236
 1830SOL    HW117126   2.536   1.972   4.583  0.1999  1.0779  1.1534
 1830SOL    HW217127   2.572   1.908   4.708 -0.9146  1.3404  0.5730
 1831SOL     OW17128   2.373   3.464  15.281  0.4270 -0.1809 -0.2970
 1831SOL    HW117129   2.416   3.449  15.365  0.5432  0.2039 -0.2884
 1831SOL    HW217130   2.450   3.457  15.225 -0.0742 -4.6224 -0.4057
 1832SOL     OW17131   4.019   0.968   5.603 -0.4511  0.0633  0.4093
 1832SOL    HW117132   4.105   0.945   5.566 -0.6950  0.2665 -0.2790
 1832SOL    HW217133   3.985   0.889   5.644 -0.4693  0.0571  0.3816
 1833SOL     OW17134   2.736   1.197   4.507 -0.3764  0.3906 -0.1515
 1833SOL    HW117135   2.767   1.273   4.557  2.3515 -0.6352 -0.2735
 1833SOL    HW217136   2.809   1.196   4.444 -0.9730 -1.6774 -0.8080
 1834SOL     OW17137   2.915   0.864   8.758  0.1514  0.1217  0.4344
 1834SOL    HW117138   2.845   0.801   8.741 -0.9291  1.4689 -0.0777
 1834SOL    HW217139   2.866   0.946   8.767  1.3552  0.5008  3.6231
 1835SOL     OW17140   1.644   4.624  10.032  0.0660 -0.0800  0.5170
 1835SOL    HW117141   1.636   4.690  10.100  0.9030  0.2793  0.2696
 1835SOL    HW217142   1.552   4.604  10.019  0.2618 -0.9917  0.5116
 1836SOL     OW17143   3.149   1.267   7.712  0.8314 -0.6815 -0.3655
 1836SOL    HW117144   3.106   1.295   7.793  0.3000 -3.6681  0.3736
 1836SOL    HW217145   3.232   1.244   7.755  1.3590  2.5086  0.3134
 1837SOL     OW17146   4.724   1.294   4.156 -0.5777  0.4178 -0.1201
 1837SOL    HW117147   0.052   1.361   4.161 -1.6167  1.4360  0.2545
 1837SOL    HW217148   4.661   1.344   4.104  0.2938  0.3391 -1.2433
 1838SOL     OW17149   0.779   3.750  10.422 -0.4553 -0.1752 -0.3975
 1838SOL    HW117150   0.862   3.773  10.463 -1.1195 -0.1824  0.9341
 1838SOL    HW217151   0.815   3.733  10.335 -0.5966 -0.2817 -0.4361
 1839SOL     OW17152   2.413   3.081   2.763  0.3642  0.0095  0.0312
 1839SOL    HW117153   2.356   3.158   2.758 -1.3421 -1.2204  0.3584
 1839SOL    HW217154   2.496   3.126   2.777  0.0826  0.3085  0.7037
 1840SOL     OW17155   2.615   4.342   6.122  0.3324  0.4682 -0.3478
 1840SOL    HW117156   2.673   4.378   6.189 -0.9390  1.1784  0.3791
 1840SOL    HW217157   2.657   4.259   6.099 -0.0914 -0.0914  0.8840
 1841SOL     OW17158   3.632   0.036   3.058  0.1025 -0.0961  0.1557
 1841SOL    HW117159   3.641   0.020   2.964  1.6828  1.1664  0.0880
 1841SOL    HW217160   3.543   0.071   3.065  0.2341  0.4889 -1.1740
 1842SOL     OW17161   3.326   3.927   2.442  0.1359 -0.4202  0.5754
 1842SOL    HW117162   3.235   3.955   2.454 -0.5608 -0.9692 -3.5324
 1842SOL    HW217163   3.316   3.844   2.395  1.4634  0.2897 -0.9547
 1843SOL     OW17164   4.367   0.549  16.105  0.2474 -0.0515  0.6392
 1843SOL    HW117165   4.391   0.459  16.126  1.6037  0.0445 -0.5255
 1843SOL    HW217166   4.397   0.589  16.187  0.1339  0.7007  0.3134
 1844SOL     OW17167   1.303   3.106  10.564 -0.4498  0.4173  0.1942
 1844SOL    HW117168   1.275   3.197  10.576 -2.5474 -0.1464 -0.3194
 1844SOL    HW217169   1.396   3.111  10.544 -0.6428  1.7496 -0.3493
 1845SOL     OW17170   2.410   0.533   9.255  0.4679  0.6054  0.4718
 1845SOL    HW117171   2.328   0.529   9.304  0.0179 -1.1277 -0.4129
 1845SOL    HW217172   2.475   0.479   9.300 -1.2881 -0.4322  1.7206
 1846SOL     OW17173   3.932   3.582   1.836  0.0104  0.1298  0.0793
 1846SOL    HW117174   3.932   3.673   1.805  0.2190 -0.0454 -0.4383
 1846SOL    HW217175   4.003   3.581   1.900  1.2041  0.5250 -1.2491
 1847SOL     OW17176   1.346   4.692   3.571 -0.2049 -0.1748  0.1470
 1847SOL    HW117177   1.372   4.640   3.647 -0.8278 -1.8657 -0.7994
 1847SOL    HW217178   1.252   4.674   3.565 -0.4033 -0.1010  2.9223
 1848SOL     OW17179   2.145   0.022   1.568  0.1680  0.1919  0.1695
 1848SOL    HW117180   2.050   0.011   1.564  0.2426  0.8165 -3.0457
 1848SOL    HW217181   2.146   0.116   1.550  1.6481 -0.3201 -2.4565
 1849SOL     OW17182   2.111   1.013   4.962 -0.5706 -0.1709 -0.3614
 1849SOL    HW117183   2.179   1.021   5.029  0.0883 -0.1336 -1.0370
 1849SOL    HW217184   2.099   0.919   4.974  0.1820 -0.0337  1.4661
 1850SOL     OW17185   2.619   4.320  17.389 -0.2018 -0.4062  0.1809
 1850SOL    HW117186   2.623   4.231  17.425  0.3843 -1.0131 -1.4188
 1850SOL    HW217187   2.682   4.369  17.442 -0.3263 -2.0230  1.8513
 1851SOL     OW17188   3.922   1.163   7.810 -0.0542  0.8895  0.3068
 1851SOL    HW117189   3.893   1.077   7.841  1.8243 -0.3776 -1.4260
 1851SOL    HW217190   4.007   1.175   7.851 -0.2504 -0.3355  1.0716
 1852SOL     OW17191   3.375   2.706   2.319 -0.2173  0.1848  0.4240
 1852SOL    HW117192   3.338   2.748   2.396 -1.1246  1.2936 -0.6311
 1852SOL    HW217193   3.310   2.729   2.253  1.3500  1.8969 -0.5006
 1853SOL     OW17194   0.383   3.189  11.285  0.8133 -0.0345 -0.4190
 1853SOL    HW117195   0.400   3.119  11.348 -0.7714 -0.9794 -1.0258
 1853SOL    HW217196   0.459   3.246  11.299  0.5589 -0.0772  1.1150
 1854SOL     OW17197   1.423   4.515   8.837  0.3038  0.2066  0.6764
 1854SOL    HW117198   1.379   4.444   8.885 -1.4255  0.5479 -0.4240
 1854SOL    HW217199   1.481   4.562   8.897  0.2036 -0.8479  1.6146
 1855SOL     OW17200   0.926   0.009   6.224 -0.5283  0.1194 -0.3544
 1855SOL    HW117201   0.975   4.673   6.253  1.1926  1.4762  0.2870
 1855SOL    HW217202   0.987   0.031   6.154 -1.1430  2.0722 -0.2941
 1856SOL     OW17203   1.330   1.854   5.029  0.2255 -0.0363 -0.3035
 1856SOL    HW117204   1.317   1.825   5.119  0.9712 -1.2338 -0.5761
 1856SOL    HW217205   1.263   1.800   4.986 -1.0606  0.9508  0.4628
 1857SOL     OW17206   2.106   0.788  13.010  0.1703  0.0356 -0.0285
 1857SOL    HW117207   2.096   0.799  12.915  2.0400  0.5683 -0.1655
 1857SOL    HW217208   2.030   0.735  13.035 -0.7463  0.5699 -1.7011
 1858SOL     OW17209   3.861   0.997   5.153  0.3989 -0.0688  0.4558
 1858SOL    HW117210   3.881   0.905   5.174  0.0018 -0.3593 -0.4170
 1858SOL    HW217211   3.884   1.037   5.236  0.3498 -1.2788  1.0591
 1859SOL     OW17212   1.611   0.711   4.069  0.7729 -0.0588 -0.8144
 1859SOL    HW117213   1.575   0.636   4.022 -0.3437  0.1091 -0.2351
 1859SOL    HW217214   1.664   0.669   4.136 -0.2895 -0.4501 -0.2180
 1860SOL     OW17215   2.143   3.013   1.358  0.3520 -0.0013 -0.1142
 1860SOL    HW117216   2.198   3.086   1.328 -1.0575  0.9760 -0.3223
 1860SOL    HW217217   2.213   2.948   1.356  1.9624  1.7715 -1.1238
 1861SOL     OW17218   3.440   2.430   2.879  0.0192 -0.2530  0.0928
 1861SOL    HW117219   3.347   2.439   2.901  0.6856  2.0803  1.8592
 1861SOL    HW217220   3.430   2.394   2.791  3.1683 -0.8614 -0.0191
 1862SOL     OW17221   2.611   3.960  16.497 -0.1543 -0.2646  0.0973
 1862SOL    HW117222   2.516   3.949  16.505 -0.1723  0.0117  0.2662
 1862SOL    HW217223   2.641   3.903  16.426  0.7737 -0.7368  0.8675
 1863SOL     OW17224   2.008   3.700   7.427 -0.1520  0.1337 -0.8908
 1863SOL    HW117225   2.056   3.752   7.363  2.4533 -1.9375 -0.5826
 1863SOL    HW217226   1.922   3.741   7.411 -0.7471  0.0296  2.0362
 1864SOL     OW17227   0.829   3.025  12.964 -0.0025 -0.4406  0.1842
 1864SOL    HW117228   0.840   3.034  13.059  1.7870 -0.4111 -0.0335
 1864SOL    HW217229   0.799   3.111  12.935  0.0983 -1.2688 -2.2952
 1865SOL     OW17230   1.905   1.188   9.564  0.5864  0.1769 -0.3217
 1865SOL    HW117231   1.917   1.128   9.491  0.5658 -0.3827  0.1345
 1865SOL    HW217232   1.922   1.273   9.522  0.5828  0.6404  0.6009
 1866SOL     OW17233   0.258   1.517   9.503  0.1592  0.0483  0.3748
 1866SOL    HW117234   0.252   1.487   9.412 -0.3026 -0.8172  0.6976
 1866SOL    HW217235   0.348   1.483   9.507  0.5556  0.6678 -3.1973
 1867SOL     OW17236   0.511   0.406   8.810 -0.2373 -0.2865  0.3924
 1867SOL    HW117237   0.427   0.442   8.781 -0.0961 -0.3921 -0.1487
 1867SOL    HW217238   0.504   0.377   8.901 -1.4653  0.1727  0.4504
 1868SOL     OW17239   4.264   2.656   3.146 -0.1345 -0.0305  0.1722
 1868SOL    HW117240   4.265   2.596   3.070  1.7384  2.2932 -1.6342
 1868SOL    HW217241   4.290   2.594   3.214 -1.8652 -1.2374 -0.2666
 1869SOL     OW17242   1.760   3.747   0.592 -0.1523  0.2107 -0.3378
 1869SOL    HW117243   1.724   3.760   0.504  0.4116  0.7162 -0.4953
 1869SOL    HW217244   1.776   3.653   0.592  1.6611  0.5224  1.4339
 1870SOL     OW17245   2.380   0.971   4.003  0.4316 -0.4642 -0.0266
 1870SOL    HW117246   2.307   0.983   3.943  2.0200  0.7147 -1.7496
 1870SOL    HW217247   2.413   1.061   4.005 -2.6825  0.6884 -0.4444
 1871SOL     OW17248   2.257   1.173   2.833  0.0138 -0.1080  0.8065
 1871SOL    HW117249   2.171   1.178   2.791 -0.4683 -0.9108  1.6977
 1871SOL    HW217250   2.233   1.147   2.922  0.2518 -1.1914  0.5620
 1872SOL     OW17251   3.125   1.272   6.538 -0.7106  0.2881  0.0364
 1872SOL    HW117252   3.149   1.270   6.446 -1.9478 -1.3154 -0.2435
 1872SOL    HW217253   3.072   1.351   6.549 -0.6494  0.2292  0.7513
 1873SOL     OW17254   4.629   4.412  10.452  0.1732 -0.5054  0.0594
 1873SOL    HW117255   4.709   4.459  10.473  0.1437 -0.4426  0.0338
 1873SOL    HW217256   4.598   4.461  10.375 -0.3643 -0.2433  0.4420
 1874SOL     OW17257   1.784   4.073  15.540 -0.0331 -0.1189 -0.2810
 1874SOL    HW117258   1.716   4.111  15.597 -1.9192  1.3321 -3.4966
 1874SOL    HW217259   1.836   4.152  15.525  0.3976 -0.3036  0.2650
 1875SOL     OW17260   0.723   1.437   2.121  0.2701 -0.2876 -0.6141
 1875SOL    HW117261   0.663   1.363   2.125 -0.7766  0.4847 -1.8959
 1875SOL    HW217262   0.799   1.417   2.175 -1.3615 -1.4820  1.2410
 1876SOL     OW17263   2.418   4.322   2.749 -0.0289  0.7001  0.2993
 1876SOL    HW117264   2.459   4.383   2.811  4.4068 -1.1040 -0.8679
 1876SOL    HW217265   2.342   4.376   2.728 -0.9788 -0.7720 -0.0811
 1877SOL     OW17266   3.465   3.800   3.459  0.3985  0.8534  0.0258
 1877SOL    HW117267   3.437   3.858   3.388 -1.1968 -0.1905 -0.1937
 1877SOL    HW217268   3.558   3.783   3.444  0.4523  1.1890 -0.0273
 1878SOL     OW17269   2.935   3.720   3.490 -0.5747 -0.0091  0.4710
 1878SOL    HW117270   2.862   3.731   3.429 -0.2371  1.4622  0.3238
 1878SOL    HW217271   2.984   3.651   3.446  0.7876  0.3391  1.4439
 1879SOL     OW17272   2.555   0.944   6.248 -0.1880  0.4356 -0.2012
 1879SOL    HW117273   2.515   1.031   6.244  0.5065  0.7449 -0.4160
 1879SOL    HW217274   2.543   0.926   6.341  1.3624  0.1211 -0.0676
 1880SOL     OW17275   1.781   2.224  11.908 -0.4177 -0.2050 -0.4176
 1880SOL    HW117276   1.816   2.310  11.933 -1.1584 -0.4379  1.3731
 1880SOL    HW217277   1.723   2.212  11.982  1.5724  0.9654  1.3420
 1881SOL     OW17278   1.564   3.743   1.076 -0.1366 -0.4788 -0.6871
 1881SOL    HW117279   1.601   3.761   0.990 -1.1345  2.2189 -0.5369
 1881SOL    HW217280   1.632   3.780   1.132 -0.2095  0.0523 -0.9573
 1882SOL     OW17281   4.536   3.084   8.482 -0.3014  0.1819  0.0672
 1882SOL    HW117282   4.589   3.119   8.410 -0.5045 -0.0311 -0.1873
 1882SOL    HW217283   4.546   2.990   8.467 -3.8108 -0.1483 -0.3531
 1883SOL     OW17284   3.638   4.039   8.053  0.0886  0.4700  0.5007
 1883SOL    HW117285   3.604   4.097   7.985  0.4321 -0.0782 -0.1457
 1883SOL    HW217286   3.725   4.077   8.068 -0.4976  1.4711  1.3001
 1884SOL     OW17287   3.298   0.640   2.055  0.2524  1.1104  0.0517
 1884SOL    HW117288   3.285   0.725   2.012 -3.6486  0.3665 -0.2290
 1884SOL    HW217289   3.320   0.660   2.146 -0.6563 -0.2830  0.5876
 1885SOL     OW17290   2.223   2.211  15.634  0.1580 -0.4124  0.0996
 1885SOL    HW117291   2.274   2.158  15.573  1.5609  1.7434 -0.6195
 1885SOL    HW217292   2.138   2.230  15.594  0.3020 -0.8464 -0.4063
 1886SOL     OW17293   3.285   0.589   9.080  0.5958  0.1414 -0.7587
 1886SOL    HW117294   3.330   0.505   9.080 -0.0020 -0.1859 -2.0755
 1886SOL    HW217295   3.258   0.597   8.988  0.4198  0.3409 -0.6893
 1887SOL     OW17296   1.295   0.939  10.925  0.3072 -0.3859  0.3957
 1887SOL    HW117297   1.289   0.853  10.966  2.7955 -0.7655 -0.0571
 1887SOL    HW217298   1.225   0.978  10.978 -1.5932 -2.2487 -0.7377
 1888SOL     OW17299   2.383   3.283   6.261 -0.1439 -0.2329 -0.3319
 1888SOL    HW117300   2.475   3.310   6.255 -0.9611  2.6903  0.2439
 1888SOL    HW217301   2.393   3.201   6.308  1.9446  0.1530 -0.0918
 1889SOL     OW17302   3.130   4.409   3.210  0.2925  0.0178 -0.0516
 1889SOL    HW117303   3.169   4.367   3.286  1.6598  1.8181  0.2336
 1889SOL    HW217304   3.043   4.368   3.215  0.5713 -0.1760  2.7674
 1890SOL     OW17305   3.984   0.788  16.703  0.3977  0.1267 -0.0541
 1890SOL    HW117306   3.933   0.829  16.633  1.3462 -3.4007 -2.7578
 1890SOL    HW217307   3.989   0.867  16.757 -0.4069 -0.2292  0.5470
 1891SOL     OW17308   0.263   4.274   6.028  0.0472  0.2066 -0.1613
 1891SOL    HW117309   0.307   4.359   6.033  0.6355  0.0152 -1.9748
 1891SOL    HW217310   0.286   4.237   6.113 -1.1837  2.0272  0.9829
 1892SOL     OW17311   2.359   2.659   7.654  0.4816  0.0425  0.9557
 1892SOL    HW117312   2.317   2.619   7.578 -3.5045  0.9721  2.6571
 1892SOL    HW217313   2.449   2.628   7.643 -0.3861 -1.5341 -1.5024
 1893SOL     OW17314   0.131   0.282   2.626 -0.0711 -0.3555  0.0937
 1893SOL    HW117315   0.036   0.280   2.632 -0.0829 -1.7101 -0.5087
 1893SOL    HW217316   0.147   0.190   2.646 -1.6401 -0.6528 -0.0048
 1894SOL     OW17317   0.355   0.645   4.007 -0.0409  0.2071  0.2004
 1894SOL    HW117318   0.385   0.689   4.087 -1.1564  0.4849  0.4657
 1894SOL    HW217319   0.430   0.586   3.994 -0.9474 -1.1892  1.2858
 1895SOL     OW17320   2.296   3.803   6.983  0.1247 -0.2028  0.5822
 1895SOL    HW117321   2.247   3.877   7.018  0.1535  0.0773  0.0418
 1895SOL    HW217322   2.382   3.839   7.002  0.0639  0.2368  0.0256
 1896SOL     OW17323   3.776   2.234   8.072  0.8141  0.2835 -0.4326
 1896SOL    HW117324   3.859   2.195   8.047 -0.0959 -0.8131 -1.7311
 1896SOL    HW217325   3.807   2.318   8.106  0.0302  1.2736 -2.1575
 1897SOL     OW17326   0.547   0.843  10.595  0.6909  0.4370  0.1802
 1897SOL    HW117327   0.493   0.764  10.606 -0.5666  1.3265  0.3994
 1897SOL    HW217328   0.592   0.847  10.679  0.3709 -0.6421  0.4049
 1898SOL     OW17329   0.059   0.263   1.810  0.1381  0.0486  0.2732
 1898SOL    HW117330   0.152   0.262   1.790  0.2846 -0.0339  0.9459
 1898SOL    HW217331   0.037   0.178   1.773 -2.8187  0.5050  1.0059
 1899SOL     OW17332   2.322   0.484  15.280  0.1840  0.1656  0.1669
 1899SOL    HW117333   2.257   0.516  15.217 -0.4271  0.4023  0.9105
 1899SOL    HW217334   2.397   0.531  15.245 -0.5126  0.4858 -0.8723
 1900SOL     OW17335   1.116   0.765  15.382 -0.2217 -0.0725 -0.0352
 1900SOL    HW117336   1.208   0.794  15.382 -0.8789  1.9483 -1.9273
 1900SOL    HW217337   1.078   0.834  15.329 -1.3918  0.1200  1.0419
 1901SOL     OW17338   4.015   3.845   8.528  0.1048  0.7282 -0.1002
 1901SOL    HW117339   3.964   3.808   8.600  0.5277 -1.5660 -0.9833
 1901SOL    HW217340   4.078   3.774   8.515 -2.2673 -1.4517  0.2102
 1902SOL     OW17341   1.974   0.208   9.254 -0.0251 -0.2366 -0.7155
 1902SOL    HW117342   2.038   0.192   9.185  0.2173 -2.4170  0.0155
 1902SOL    HW217343   1.894   0.222   9.204  0.1997 -3.5250 -1.9484
 1903SOL     OW17344   0.384   3.177   0.823 -0.1063 -0.3692  0.0297
 1903SOL    HW117345   0.444   3.107   0.796  1.6615  0.8524  0.8044
 1903SOL    HW217346   0.306   3.126   0.842 -0.4942  0.1901 -0.0725
 1904SOL     OW17347   3.754   4.137   3.847 -0.3293  0.7607 -0.1911
 1904SOL    HW117348   3.793   4.083   3.778 -1.9410 -0.5294 -0.0992
 1904SOL    HW217349   3.825   4.144   3.910  0.1919  0.6265 -0.7594
 1905SOL     OW17350   2.787   0.887   5.278  0.0183  0.7344 -0.0927
 1905SOL    HW117351   2.699   0.869   5.244  0.2552  1.1343 -0.9190
 1905SOL    HW217352   2.771   0.961   5.336  0.3466 -0.7271  1.8292
 1906SOL     OW17353   0.306   3.009   7.565  0.5467  0.4877 -0.3396
 1906SOL    HW117354   0.293   3.057   7.647  0.1375 -1.8438  0.9468
 1906SOL    HW217355   0.247   2.934   7.575  0.0582  0.6419 -2.0303
 1907SOL     OW17356   3.948   2.427   6.663  0.2033 -0.5135  0.3327
 1907SOL    HW117357   3.871   2.429   6.607  1.2011 -2.3042 -1.0812
 1907SOL    HW217358   4.007   2.360   6.630 -0.3931 -0.2553 -1.2445
 1908SOL     OW17359   1.039   3.386   8.878  0.0149  0.1763 -0.4458
 1908SOL    HW117360   0.995   3.404   8.961  0.2914  1.6185 -0.6124
 1908SOL    HW217361   1.018   3.459   8.820 -2.2870 -0.3445 -0.2522
 1909SOL     OW17362   0.052   3.305   4.396 -0.2232  0.1794  0.0096
 1909SOL    HW117363   0.107   3.308   4.474  2.1633 -0.8768 -1.6420
 1909SOL    HW217364   4.726   3.373   4.409 -0.4771  0.1151 -0.9147
 1910SOL     OW17365   1.553   3.067   8.057 -0.7745  0.1516  0.8003
 1910SOL    HW117366   1.486   3.020   8.007 -1.6664  0.9932  1.2095
 1910SOL    HW217367   1.495   3.131   8.098 -3.4713 -0.6481 -1.6945
 1911SOL     OW17368   3.653   1.762   7.754  0.1732 -0.8921  0.5477
 1911SOL    HW117369   3.649   1.772   7.849  0.0520 -1.8802  0.6522
 1911SOL    HW217370   3.569   1.719   7.734  0.3192 -1.1168  0.4223
 1912SOL     OW17371   1.858   1.102   1.866 -0.6860 -0.1707  0.4252
 1912SOL    HW117372   1.847   1.070   1.776  1.1687 -0.7375  0.4177
 1912SOL    HW217373   1.848   1.019   1.912  1.0279 -0.9771 -0.6497
 1913SOL     OW17374   3.756   0.166   9.869  0.2681 -0.1368  0.2126
 1913SOL    HW117375   3.742   0.076   9.897 -0.7296 -0.1210 -0.2343
 1913SOL    HW217376   3.697   0.221   9.921  0.1690 -0.2586  0.2282
 1914SOL     OW17377   2.385   2.134   6.685 -0.4959 -0.0386  0.2331
 1914SOL    HW117378   2.302   2.110   6.644  0.4922  0.2059 -1.9519
 1914SOL    HW217379   2.363   2.130   6.778 -1.7797  1.0358 -0.0302
 1915SOL     OW17380   3.997   1.571   3.688  0.0939  0.2313 -0.0835
 1915SOL    HW117381   4.018   1.631   3.759  0.1700 -0.3781  0.4034
 1915SOL    HW217382   4.000   1.487   3.733 -1.5326  0.4281  0.3705
 1916SOL     OW17383   0.068   2.587   4.560 -0.5634 -0.2251  0.6439
 1916SOL    HW117384   0.147   2.620   4.602 -1.3612  1.5811  0.7355
 1916SOL    HW217385   0.106   2.542   4.484 -1.0242 -0.3638  0.4924
 1917SOL     OW17386   4.504   2.921   4.963 -0.4538  0.4287  0.3405
 1917SOL    HW117387   4.444   2.929   5.037  0.3434 -0.1082  1.0407
 1917SOL    HW217388   4.512   3.013   4.937 -0.6190  0.1281 -0.7736
 1918SOL     OW17389   1.401   3.422   3.811  0.0130  0.3625  0.1878
 1918SOL    HW117390   1.443   3.471   3.739  0.8763 -1.9347 -0.8680
 1918SOL    HW217391   1.484   3.386   3.843 -0.3406  0.2933  1.0067
 1919SOL     OW17392   3.901   1.104   6.829 -0.6388 -0.2403  0.2507
 1919SOL    HW117393   3.931   1.117   6.739 -0.5277  1.0616  0.4650
 1919SOL    HW217394   3.807   1.102   6.809 -1.3412 -2.5974  3.8596
 1920SOL     OW17395   4.421   1.941   8.741  0.7625  0.4350  0.1831
 1920SOL    HW117396   4.406   1.880   8.813 -1.4017 -0.0245 -0.6837
 1920SOL    HW217397   4.364   1.902   8.675  0.2146  0.8494  0.4108
 1921SOL     OW17398   0.360   1.595   6.167 -0.2162  0.2899 -0.2926
 1921SOL    HW117399   0.405   1.534   6.108 -1.9709 -0.9713 -0.3170
 1921SOL    HW217400   0.413   1.671   6.147  1.6521 -1.2188 -1.1177
 1922SOL     OW17401   4.248   1.201  10.221  0.2459  0.6898 -0.1495
 1922SOL    HW117402   4.163   1.190  10.177  1.0418 -0.4003 -1.4151
 1922SOL    HW217403   4.289   1.121  10.189 -0.1834  0.0055  1.0142
 1923SOL     OW17404   3.541   4.150   5.877 -0.9394  0.2904 -0.7034
 1923SOL    HW117405   3.520   4.204   5.952 -1.8758  0.5322 -1.1368
 1923SOL    HW217406   3.579   4.210   5.813  1.2306 -2.5597 -2.0665
 1924SOL     OW17407   4.222   2.288  13.562  0.1211  0.2386 -0.3059
 1924SOL    HW117408   4.153   2.243  13.513 -1.8390  2.5038  0.3665
 1924SOL    HW217409   4.193   2.281  13.653  3.3693  1.1508  0.8083
 1925SOL     OW17410   1.540   1.360   6.196 -0.0276 -0.7439 -0.1049
 1925SOL    HW117411   1.463   1.309   6.171 -1.1549  0.2792  1.2367
 1925SOL    HW217412   1.587   1.292   6.245  0.5997 -0.3756 -0.2066
 1926SOL     OW17413   2.274   3.549   2.502 -0.1839  0.5548  0.0832
 1926SOL    HW117414   2.338   3.599   2.552  1.1949 -1.9390  0.8328
 1926SOL    HW217415   2.197   3.606   2.504  0.2328  1.1060  0.2624
 1927SOL     OW17416   3.876   4.216  12.160 -0.1727 -0.2589 -0.2810
 1927SOL    HW117417   3.907   4.248  12.075 -1.3221  0.3505 -0.4667
 1927SOL    HW217418   3.817   4.288  12.182  0.6557 -0.4646  2.6021
 1928SOL     OW17419   0.356   2.742   3.248  0.1925  0.5860  0.2028
 1928SOL    HW117420   0.409   2.711   3.320  2.3620  0.2539 -1.5458
 1928SOL    HW217421   0.364   2.834   3.272  1.8794  0.5473 -0.2266
 1929SOL     OW17422   4.611   3.085   7.621 -0.0223  0.1235 -0.5155
 1929SOL    HW117423   4.567   3.043   7.695 -0.6775 -0.4349 -1.2198
 1929SOL    HW217424   4.605   3.175   7.653  0.1930 -0.0112 -0.0918
 1930SOL     OW17425   1.958   3.950   4.612  0.1793  0.8346  0.0749
 1930SOL    HW117426   1.875   3.994   4.593  1.0766  2.6304  0.2845
 1930SOL    HW217427   2.026   3.996   4.561  0.7765 -0.2862 -0.1293
 1931SOL     OW17428   2.734   4.378   1.778  0.4612 -0.2715 -0.1324
 1931SOL    HW117429   2.828   4.393   1.773  0.6717 -2.2067 -1.8367
 1931SOL    HW217430   2.705   4.332   1.699  0.2362 -0.6733  0.1807
 1932SOL     OW17431   0.867   3.507   4.335  0.3703 -0.3322 -0.4354
 1932SOL    HW117432   0.948   3.470   4.371  0.3029  0.2694  0.3205
 1932SOL    HW217433   0.825   3.432   4.292  1.4978 -0.7291 -0.8570
 1933SOL     OW17434   3.346   3.807   6.296  0.1288 -0.8657 -0.0573
 1933SOL    HW117435   3.297   3.725   6.308 -0.4896 -0.1435  2.4147
 1933SOL    HW217436   3.349   3.853   6.380 -0.3254 -0.4848 -0.2501
 1934SOL     OW17437   4.106   3.321   5.788  0.2214  0.4723 -0.4329
 1934SOL    HW117438   4.197   3.350   5.787  0.2204  0.5477  1.9194
 1934SOL    HW217439   4.109   3.273   5.705 -1.7752  2.5763 -1.7118
 1935SOL     OW17440   1.506   2.966  17.733 -0.1327 -0.2701 -0.2981
 1935SOL    HW117441   1.488   3.041  17.676 -2.9288 -0.8646 -0.1699
 1935SOL    HW217442   1.440   2.903  17.704 -1.7523  0.8995  0.8918
 1936SOL     OW17443   2.658   1.390   8.032  0.8068  0.0236 -0.3096
 1936SOL    HW117444   2.639   1.337   8.110 -0.1468 -0.1373 -0.6544
 1936SOL    HW217445   2.612   1.472   8.046  3.4574  1.3881  0.4882
 1937SOL     OW17446   2.877   0.660  16.312  0.1546  0.1103 -0.7045
 1937SOL    HW117447   2.900   0.746  16.346  1.4281 -1.1051  1.5560
 1937SOL    HW217448   2.931   0.643  16.235  1.7565  0.7473  0.2775
 1938SOL     OW17449   1.379   4.716   2.411  0.3150 -0.4420 -0.0635
 1938SOL    HW117450   1.408   4.634   2.450 -0.3629 -1.4327 -1.6287
 1938SOL    HW217451   1.353   0.044   2.473 -0.2314  0.0997 -0.8825
 1939SOL     OW17452   1.287   0.834   0.449 -0.4955  0.5726 -0.1377
 1939SOL    HW117453   1.201   0.856   0.486  0.9819  2.6011  2.0742
 1939SOL    HW217454   1.330   0.771   0.507 -0.8397  2.2022  1.8578
 1940SOL     OW17455   1.442   2.640   6.007  0.3313 -0.3634 -0.1261
 1940SOL    HW117456   1.410   2.550   5.996 -2.7869  0.7339 -0.0270
 1940SOL    HW217457   1.433   2.644   6.102  3.0241  1.3019  0.0272
 1941SOL     OW17458   1.911   3.890   8.643  0.1101 -0.1207 -0.3353
 1941SOL    HW117459   1.933   3.841   8.564 -1.5564 -0.5019 -0.5689
 1941SOL    HW217460   1.917   3.977   8.603 -0.8523  1.1105  2.1780
 1942SOL     OW17461   4.373   4.426   6.728 -0.0994 -0.2378 -0.2913
 1942SOL    HW117462   4.310   4.493   6.754  2.9907  2.4607  0.2381
 1942SOL    HW217463   4.347   4.358   6.790 -0.3646 -0.2429 -0.4075
 1943SOL     OW17464   0.099   2.702   7.320  0.3202 -0.6316  0.3889
 1943SOL    HW117465   0.158   2.774   7.297  0.3520 -0.4128  1.1677
 1943SOL    HW217466   0.151   2.629   7.287  1.0751  0.4396 -0.8229
 1944SOL     OW17467   0.681   4.297   2.290 -0.0955 -0.0596 -0.3332
 1944SOL    HW117468   0.708   4.370   2.345  1.1076 -0.4404 -0.4306
 1944SOL    HW217469   0.747   4.295   2.220  0.2358  2.1797 -0.0893
 1945SOL     OW17470   3.152   1.569   1.260  0.0644  0.4190 -0.5459
 1945SOL    HW117471   3.224   1.508   1.243  1.6942  2.3974 -0.8389
 1945SOL    HW217472   3.102   1.565   1.178 -2.0720  1.9897  0.6729
 1946SOL     OW17473   0.998   0.032   7.918  0.1698 -0.1330 -0.0392
 1946SOL    HW117474   1.012   0.007   8.009  1.7895 -0.1153 -0.2827
 1946SOL    HW217475   0.913   4.731   7.899  0.1714 -0.2801  0.2777
 1947SOL     OW17476   3.163   0.139   4.729 -0.2125 -0.7425 -0.0270
 1947SOL    HW117477   3.133   0.172   4.645  0.0949  0.3474  0.2968
 1947SOL    HW217478   3.258   0.152   4.724 -0.1595 -0.6846  0.9921
 1948SOL     OW17479   1.293   2.233   1.432  0.4431  0.3745 -0.0275
 1948SOL    HW117480   1.263   2.204   1.519  0.8940  0.0571  0.0206
 1948SOL    HW217481   1.268   2.154   1.384 -0.9319  2.0204 -1.9994
 1949SOL     OW17482   2.993   3.579  15.128  0.0450 -0.4481 -0.2495
 1949SOL    HW117483   2.978   3.534  15.045 -0.4680  2.2008 -1.5607
 1949SOL    HW217484   3.089   3.585  15.127  0.0332  0.0201  2.0092
 1950SOL     OW17485   3.376   1.288   3.171  0.7709  0.3910  0.4467
 1950SOL    HW117486   3.449   1.335   3.211 -0.2945  0.8800  1.8063
 1950SOL    HW217487   3.418   1.221   3.117  2.5490  1.7484  0.1690
 1951SOL     OW17488   1.085   2.558   0.537  0.7335  0.9740  0.7317
 1951SOL    HW117489   1.124   2.631   0.585  1.2537  0.4972  1.0395
 1951SOL    HW217490   1.160   2.499   0.528  0.5012  0.7353  0.3651
 1952SOL     OW17491   1.214   1.316  12.210  0.0730 -0.5205 -0.1331
 1952SOL    HW117492   1.129   1.280  12.185  0.9798 -1.8320 -1.2848
 1952SOL    HW217493   1.257   1.239  12.247  1.3137 -0.2864 -1.0731
 1953SOL     OW17494   4.265   2.593  16.411 -0.1764 -0.0708  0.1647
 1953SOL    HW117495   4.214   2.623  16.336 -1.2520  2.1118  1.7673
 1953SOL    HW217496   4.354   2.594  16.375 -1.0124 -3.2130 -2.0276
 1954SOL     OW17497   4.394   1.794   4.524 -0.0947  0.1679 -0.2873
 1954SOL    HW117498   4.360   1.707   4.543 -1.1182  0.2085 -1.9035
 1954SOL    HW217499   4.366   1.831   4.607  0.0885 -1.6349  0.5731
 1955SOL     OW17500   1.907   1.161   4.487 -0.2895 -0.0788  0.4953
 1955SOL    HW117501   1.904   1.213   4.406  1.7831 -1.8128 -0.6987
 1955SOL    HW217502   1.964   1.205   4.550  0.3257 -0.7666  0.4193
 1956SOL     OW17503   3.312   0.216  16.723 -0.3836 -0.3197  0.0091
 1956SOL    HW117504   3.228   0.252  16.694 -0.9282 -0.7820  0.9958
 1956SOL    HW217505   3.320   0.145  16.659 -0.7358 -0.0550 -0.3312
 1957SOL     OW17506   2.440   2.344   7.940  0.1684 -0.8561  0.5733
 1957SOL    HW117507   2.518   2.342   7.995  0.4689  1.8112  0.2531
 1957SOL    HW217508   2.457   2.296   7.859  0.2634  2.2260 -1.2292
 1958SOL     OW17509   4.444   0.968   4.318  0.5675  0.1084 -0.6769
 1958SOL    HW117510   4.526   0.920   4.315  1.0538  0.9422 -0.6510
 1958SOL    HW217511   4.424   0.994   4.228 -1.1752 -1.4762 -0.7684
 1959SOL     OW17512   2.132   1.770   3.754  0.4067  0.6062  0.1132
 1959SOL    HW117513   2.078   1.742   3.680  3.2175 -3.0236 -0.5864
 1959SOL    HW217514   2.108   1.862   3.759 -0.5997  0.3954 -0.8330
 1960SOL     OW17515   0.591   1.445   1.756  0.1491 -0.0807 -0.0493
 1960SOL    HW117516   0.528   1.445   1.684 -1.0141 -2.1570  0.9778
 1960SOL    HW217517   0.620   1.537   1.757 -0.6534  0.1757 -0.9277
 1961SOL     OW17518   1.058   2.118   7.670 -0.1901 -0.3853  0.6078
 1961SOL    HW117519   1.097   2.031   7.664  1.2295  0.1938  1.5017
 1961SOL    HW217520   1.037   2.118   7.764  0.1113 -1.0915  0.6778
 1962SOL     OW17521   2.610   3.272  14.841 -0.2671  0.0466 -0.7954
 1962SOL    HW117522   2.629   3.324  14.763  1.5140  2.9374  1.5790
 1962SOL    HW217523   2.518   3.246  14.831  0.6775 -2.5733 -2.3885
 1963SOL     OW17524   2.809   4.000   3.004 -0.0211 -0.1728  0.6731
 1963SOL    HW117525   2.732   4.045   2.969  0.2245  0.3368  0.7863
 1963SOL    HW217526   2.882   4.029   2.949 -0.7411 -2.2487 -1.3683
 1964SOL     OW17527   2.119   0.867   3.251  0.3699  0.0011 -0.2635
 1964SOL    HW117528   2.026   0.869   3.228  0.6840 -1.4150 -1.7006
 1964SOL    HW217529   2.150   0.832   3.168 -1.1851  2.3186 -1.8508
 1965SOL     OW17530   2.986   3.112   8.424 -0.1528  0.2505 -0.1133
 1965SOL    HW117531   2.980   3.111   8.328 -2.2309  3.5257 -0.0100
 1965SOL    HW217532   2.976   3.207   8.429 -0.4807  0.1504  1.0416
 1966SOL     OW17533   1.181   2.973   8.914 -0.8483 -0.2726 -0.2658
 1966SOL    HW117534   1.114   2.984   8.847  0.4772 -1.1300 -1.7280
 1966SOL    HW217535   1.219   3.061   8.911 -0.4124 -0.5509 -3.1006
 1967SOL     OW17536   3.463   4.420   5.606  0.7129 -0.2439  0.0781
 1967SOL    HW117537   3.504   4.467   5.679 -1.7857  2.1663 -0.0592
 1967SOL    HW217538   3.444   4.489   5.544 -0.6117  0.5146  1.3323
 1968SOL     OW17539   2.604   4.679  10.544 -0.2318  0.3738 -0.2384
 1968SOL    HW117540   2.594   4.595  10.589 -0.8217  0.3600 -0.3935
 1968SOL    HW217541   2.603   4.740  10.618 -0.0369  0.0643  0.0175
 1969SOL     OW17542   4.251   0.833   0.584 -0.0274 -0.5011  0.2304
 1969SOL    HW117543   4.187   0.791   0.527 -1.1591  1.4575  0.0363
 1969SOL    HW217544   4.301   0.887   0.523 -3.0166 -0.9360 -2.5783
 1970SOL     OW17545   1.853   2.089  15.035 -0.1096  0.1648 -0.2398
 1970SOL    HW117546   1.910   2.015  15.013  0.7544  0.7559  0.0303
 1970SOL    HW217547   1.898   2.158  14.986 -1.9010  0.2281 -1.8262
 1971SOL     OW17548   2.625   0.250   3.846  0.5372 -0.3637  0.2107
 1971SOL    HW117549   2.620   0.289   3.933 -1.0946  0.2135 -0.1242
 1971SOL    HW217550   2.625   0.327   3.789  0.7549 -1.7148 -1.6384
 1972SOL     OW17551   2.795   4.721   4.639  0.0892 -0.0215 -0.3328
 1972SOL    HW117552   2.847   4.698   4.716 -0.8103  0.7947  0.5240
 1972SOL    HW217553   2.796   0.074   4.665  0.4211  0.0783 -0.7039
 1973SOL     OW17554   3.548   1.818   8.622  0.0999 -0.0870 -0.5538
 1973SOL    HW117555   3.472   1.862   8.585  0.3125  1.0531  0.3657
 1973SOL    HW217556   3.532   1.834   8.715 -2.7455 -1.1277 -0.8594
 1974SOL     OW17557   3.221   0.792   7.666  0.0883 -0.6991 -0.0763
 1974SOL    HW117558   3.207   0.789   7.761 -0.8119  2.2288 -0.1346
 1974SOL    HW217559   3.141   0.755   7.628 -0.4840 -0.2629  0.6928
 1975SOL     OW17560   3.275   3.890  17.621  0.9120  0.2762  0.3481
 1975SOL    HW117561   3.198   3.919  17.670  0.5148  1.1105 -0.7818
 1975SOL    HW217562   3.317   3.829  17.682  0.2332  0.5596  1.1025
 1976SOL     OW17563   3.136   1.174   2.873  0.7179  0.5195  0.1070
 1976SOL    HW117564   3.065   1.233   2.850  0.0813  0.5521  2.1373
 1976SOL    HW217565   3.122   1.095   2.820  0.4488  0.6988 -0.0860
 1977SOL     OW17566   3.778   2.511   4.439  0.9820  0.6640 -0.2394
 1977SOL    HW117567   3.830   2.551   4.508 -2.0711  1.9746  1.2729
 1977SOL    HW217568   3.735   2.589   4.404  0.7152 -0.4969 -2.5431
 1978SOL     OW17569   0.804   2.499   1.896 -0.4440 -0.7143  0.1360
 1978SOL    HW117570   0.746   2.494   1.972 -0.0318 -1.3352  0.4088
 1978SOL    HW217571   0.885   2.496   1.947 -0.4019  0.5030  0.1395
 1979SOL     OW17572   2.766   3.568   8.524 -0.4902  0.1558 -0.4626
 1979SOL    HW117573   2.727   3.485   8.496 -1.0210  0.6212 -1.1032
 1979SOL    HW217574   2.724   3.595   8.606 -0.6408 -0.4420 -0.3464
 1980SOL     OW17575   4.496   2.798   5.791 -0.1049  0.7072 -0.2567
 1980SOL    HW117576   4.434   2.870   5.807 -0.7047  0.1672 -0.1218
 1980SOL    HW217577   4.492   2.789   5.696 -2.4461  0.7634 -0.1742
 1981SOL     OW17578   0.370   1.221   9.490 -0.0022 -0.1005 -0.1713
 1981SOL    HW117579   0.297   1.188   9.437  0.3915  1.9350 -2.0011
 1981SOL    HW217580   0.439   1.187   9.433  2.1976 -0.5746  2.7722
 1982SOL     OW17581   0.513   0.310   0.959  0.6718  0.2536  0.5557
 1982SOL    HW117582   0.505   0.229   0.909 -1.5425  1.3384 -0.8152
 1982SOL    HW217583   0.532   0.277   1.047  0.9965 -0.1228  0.3443
 1983SOL     OW17584   1.758   4.297   2.857 -0.3286  0.0652 -0.0506
 1983SOL    HW117585   1.685   4.276   2.799  0.1133 -1.5593 -0.0026
 1983SOL    HW217586   1.702   4.345   2.919 -0.4829 -0.4063  0.1732
 1984SOL     OW17587   2.499   2.656   0.799  0.1602  0.4968  0.2555
 1984SOL    HW117588   2.460   2.569   0.811  0.8180  0.0961 -0.5337
 1984SOL    HW217589   2.510   2.690   0.888  1.7978  1.6452 -0.3955
 1985SOL     OW17590   1.037   0.585  12.013  0.2422 -0.0013 -0.5058
 1985SOL    HW117591   1.070   0.499  11.984 -1.9880  0.3094 -3.9727
 1985SOL    HW217592   0.984   0.548  12.084  0.0460  1.5900  0.1631
 1986SOL     OW17593   2.005   0.742   8.388  0.3886  0.4691  0.1037
 1986SOL    HW117594   2.060   0.762   8.464 -0.6397  0.4211  0.8671
 1986SOL    HW217595   1.931   0.718   8.444 -0.4165  0.1172 -1.1070
 1987SOL     OW17596   3.595   3.543  11.374 -0.1633 -0.1281 -0.5055
 1987SOL    HW117597   3.532   3.596  11.424  0.0847 -0.4892  0.1882
 1987SOL    HW217598   3.604   3.471  11.436 -0.0258 -0.5307 -0.9932
 1988SOL     OW17599   3.063   4.280  12.390 -0.1684  0.4863  0.2621
 1988SOL    HW117600   2.979   4.302  12.350 -1.1761 -2.9531  0.4758
 1988SOL    HW217601   3.036   4.236  12.471 -0.4393 -1.6668 -1.0168
 1989SOL     OW17602   0.800   1.056   8.419 -0.2837 -0.3041  0.3924
 1989SOL    HW117603   0.887   1.055   8.378  0.4056  1.9613  1.8062
 1989SOL    HW217604   0.821   1.094   8.504  0.0439  0.6750 -0.1260
 1990SOL     OW17605   0.065   0.307   6.975 -0.0308 -0.1621  0.1308
 1990SOL    HW117606   0.072   0.262   6.891 -0.5174  1.0662 -0.5624
 1990SOL    HW217607   0.005   0.247   7.018  0.5694 -0.5587  0.4118
 1991SOL     OW17608   1.576   1.736  16.949  0.7187  0.1649 -0.3095
 1991SOL    HW117609   1.513   1.698  17.010  0.2639 -1.4066 -1.7652
 1991SOL    HW217610   1.530   1.728  16.866  0.4844 -0.8254 -0.0719
 1992SOL     OW17611   0.426   3.513   1.984 -0.3221  0.5213 -0.2503
 1992SOL    HW117612   0.519   3.493   1.998 -0.2610  1.6026  0.9040
 1992SOL    HW217613   0.410   3.593   2.035 -0.8035  0.4168 -0.2375
 1993SOL     OW17614   1.175   4.446  13.899  0.5947 -0.3561 -0.5983
 1993SOL    HW117615   1.087   4.414  13.920  1.1023 -1.0017  0.4928
 1993SOL    HW217616   1.176   4.409  13.811  3.6895 -1.7428  0.0501
 1994SOL     OW17617   1.674   2.806   3.363 -0.4199  0.2693 -0.2492
 1994SOL    HW117618   1.580   2.820   3.354 -0.2655  2.7274  1.9704
 1994SOL    HW217619   1.693   2.890   3.405  1.2316 -0.0384 -0.3622
 1995SOL     OW17620   2.679   3.606   1.959 -0.0791  0.7764  0.3439
 1995SOL    HW117621   2.595   3.638   1.991 -1.5840 -1.1460 -1.7615
 1995SOL    HW217622   2.683   3.524   2.007  1.3677  1.1579  0.9012
 1996SOL     OW17623   1.389   0.699  14.003  0.0187 -0.2799 -0.3357
 1996SOL    HW117624   1.317   0.677  14.064  0.2734 -0.2145 -0.0123
 1996SOL    HW217625   1.366   0.625  13.946  0.8403 -0.5816 -0.2757
 1997SOL     OW17626   1.446   1.471   6.666 -0.4769  0.2902 -0.0758
 1997SOL    HW117627   1.392   1.395   6.685  0.0744 -0.1394 -0.2179
 1997SOL    HW217628   1.436   1.491   6.573 -0.3792  1.0430  0.0745
 1998SOL     OW17629   1.988   4.730  15.330 -0.3121 -0.1383 -0.0521
 1998SOL    HW117630   2.033   4.701  15.409  0.1171 -0.7388 -0.5122
 1998SOL    HW217631   1.927   4.656  15.329 -0.2113 -0.2495  2.3624
 1999SOL     OW17632   3.425   2.653   3.763  1.1126  0.2483 -0.0803
 1999SOL    HW117633   3.373   2.670   3.842  2.9784 -1.6006  1.5280
 1999SOL    HW217634   3.457   2.564   3.774  1.3548  0.1807 -1.3554
 2000SOL     OW17635   4.436   3.536   8.337 -0.3765 -0.2070 -0.5834
 2000SOL    HW117636   4.486   3.568   8.411 -1.1675  0.7587 -0.4635
 2000SOL    HW217637   4.435   3.614   8.281 -0.9269 -0.5026 -0.9858
 2001SOL     OW17638   4.468   0.208   1.009  0.0571 -0.3275 -0.3804
 2001SOL    HW117639   4.393   0.149   1.020 -0.4171  0.3324 -0.1271
 2001SOL    HW217640   4.455   0.250   0.924  0.0478  1.0629  0.3136
 2002SOL     OW17641   3.738   2.111   7.684  0.1706  0.3090  0.3621
 2002SOL    HW117642   3.691   2.056   7.621 -2.0366  2.7369 -0.1457
 2002SOL    HW217643   3.708   2.070   7.765  1.3166  0.9638  1.1114
 2003SOL     OW17644   1.712   4.572  12.543  0.2516  0.1453 -0.1867
 2003SOL    HW117645   1.655   4.647  12.525  1.3185  0.8497 -0.6499
 2003SOL    HW217646   1.668   4.543  12.623 -0.3095 -0.7655 -0.8308
 2004SOL     OW17647   4.121   1.599   5.224  0.2213 -0.0752  0.5470
 2004SOL    HW117648   4.060   1.526   5.234 -0.5760  0.7356  1.5975
 2004SOL    HW217649   4.203   1.554   5.245  1.2320  0.6792 -1.7980
 2005SOL     OW17650   4.517   4.210  17.148  0.5702  0.6733  0.1751
 2005SOL    HW117651   4.522   4.306  17.150  3.9544  0.5334 -1.4128
 2005SOL    HW217652   4.556   4.181  17.231 -0.3384 -2.7761 -0.6097
 2006SOL     OW17653   1.068   2.477   6.238 -0.1836  0.1532  0.1081
 2006SOL    HW117654   1.032   2.522   6.314  1.5306 -0.5722  1.3710
 2006SOL    HW217655   0.994   2.482   6.178 -1.6281  0.0926  1.8923
 2007SOL     OW17656   2.695   4.261   1.136 -0.2902 -0.7238  0.4324
 2007SOL    HW117657   2.628   4.194   1.131  1.9363 -2.8572 -1.0222
 2007SOL    HW217658   2.645   4.327   1.087 -1.1911 -0.6742  1.4146
 2008SOL     OW17659   2.607   4.118  16.790  0.6777  0.1309  0.2809
 2008SOL    HW117660   2.678   4.064  16.753  0.4211  0.3484 -0.5354
 2008SOL    HW217661   2.571   4.134  16.702  2.7017  1.6646 -0.2785
 2009SOL     OW17662   3.761   1.662   8.581 -0.1283  0.1114 -0.0556
 2009SOL    HW117663   3.705   1.585   8.572 -0.6932  0.5223 -0.0223
 2009SOL    HW217664   3.695   1.720   8.618  0.9651  0.7227  0.9383
 2010SOL     OW17665   1.711   2.052   7.820 -0.4187  0.1449  0.5948
 2010SOL    HW117666   1.625   2.011   7.806 -0.5803 -0.3038  2.9779
 2010SOL    HW217667   1.718   2.086   7.731 -0.9517 -1.1682  0.0428
 2011SOL     OW17668   3.525   3.636   9.976 -0.0814 -0.0694  0.5409
 2011SOL    HW117669   3.619   3.622   9.984  0.4468  2.0757 -1.7593
 2011SOL    HW217670   3.523   3.672   9.887 -0.8665  0.8652  0.9308
 2012SOL     OW17671   3.488   4.726   2.530 -0.1428 -0.2576 -0.3736
 2012SOL    HW117672   3.578   4.701   2.508 -0.1162  0.3745 -0.9758
 2012SOL    HW217673   3.447   4.644   2.501 -0.7555  0.4340 -1.4707
 2013SOL     OW17674   0.504   3.837   8.478 -0.0184 -0.0081 -0.1243
 2013SOL    HW117675   0.416   3.860   8.510  0.6360  1.8367  0.3399
 2013SOL    HW217676   0.537   3.791   8.555 -0.4315 -1.5883 -0.8936
 2014SOL     OW17677   1.412   0.136   0.909  0.3063 -0.4975 -0.0431
 2014SOL    HW117678   1.338   0.104   0.960 -0.5713  2.2350  0.3416
 2014SOL    HW217679   1.362   0.199   0.858 -0.8211 -0.4377  1.1339
 2015SOL     OW17680   2.770   0.216   6.292 -0.0361 -0.3613  1.0373
 2015SOL    HW117681   2.747   0.294   6.342 -0.6293 -1.4974  2.5328
 2015SOL    HW217682   2.821   0.255   6.221 -1.7940  0.4724  0.2214
 2016SOL     OW17683   4.416   3.146   1.347 -0.6844 -0.1108  0.2235
 2016SOL    HW117684   4.394   3.158   1.255  0.2031 -2.7913 -0.3330
 2016SOL    HW217685   4.503   3.181   1.362 -0.3481  0.1490 -2.4853
 2017SOL     OW17686   2.687   2.159   8.779  0.0093 -0.7783 -0.0786
 2017SOL    HW117687   2.718   2.185   8.866 -1.0130 -2.3235  0.7456
 2017SOL    HW217688   2.606   2.208   8.767  0.6583  0.2089 -0.4120
 2018SOL     OW17689   2.620   3.787   6.759  0.3498  0.0402 -0.0648
 2018SOL    HW117690   2.693   3.734   6.790 -0.4310 -0.4371  0.9892
 2018SOL    HW217691   2.545   3.734   6.785 -1.4539  2.0424 -1.1993
 2019SOL     OW17692   0.343   4.470   9.156  0.3481  0.4651 -0.2763
 2019SOL    HW117693   0.432   4.466   9.120 -0.1101 -1.0245 -1.2218
 2019SOL    HW217694   0.313   4.388   9.116 -0.2248  0.3690  0.3616
 2020SOL     OW17695   4.611   1.933   4.453  0.2093 -0.1384  0.1067
 2020SOL    HW117696   4.528   1.888   4.470  0.1789 -0.5630 -1.1433
 2020SOL    HW217697   4.596   1.992   4.527 -0.6584 -0.2343  0.0073
 2021SOL     OW17698   3.272   1.458   7.531  0.1679 -0.5102 -0.4907
 2021SOL    HW117699   3.321   1.408   7.466 -1.3775 -1.3270 -1.0314
 2021SOL    HW217700   3.226   1.392   7.583 -1.7785  1.7266  0.6159
 2022SOL     OW17701   2.745   3.039   8.255 -0.0521 -0.5352  0.4024
 2022SOL    HW117702   2.732   3.008   8.166 -2.7502  1.0156  0.2648
 2022SOL    HW217703   2.735   3.130   8.230 -1.6290 -1.0830 -1.0187
 2023SOL     OW17704   0.260   1.893   6.482  0.3007 -0.5146 -0.2270
 2023SOL    HW117705   0.311   1.959   6.435  1.3710 -1.7457 -0.8198
 2023SOL    HW217706   0.333   1.834   6.504  0.0615 -0.8259 -0.2783
 2024SOL     OW17707   2.657   2.013   4.821 -0.3009  0.5345 -0.2454
 2024SOL    HW117708   2.720   1.956   4.864  1.2174  3.5731  1.5925
 2024SOL    HW217709   2.715   2.080   4.783  1.3121 -1.2687 -0.9427
 2025SOL     OW17710   2.894   2.314   5.101 -0.2669  0.0297  1.0719
 2025SOL    HW117711   2.868   2.222   5.095  1.2460 -0.2241 -1.4394
 2025SOL    HW217712   2.833   2.341   5.169 -0.2570  0.7092  0.8168
 2026SOL     OW17713   1.479   1.531   2.534 -0.0112 -0.1979  0.0820
 2026SOL    HW117714   1.432   1.519   2.451 -1.6391  1.3854  0.7664
 2026SOL    HW217715   1.413   1.511   2.601  1.9821 -0.3527  1.9798
 2027SOL     OW17716   0.101   2.111   6.672  0.1984 -0.3072 -0.0322
 2027SOL    HW117717   0.173   2.051   6.651  0.4923 -0.3989  1.2778
 2027SOL    HW217718   0.081   2.155   6.589 -1.7604  1.6276  1.4539
 2028SOL     OW17719   0.324   2.275   3.379 -0.1888  0.3852 -0.3473
 2028SOL    HW117720   0.418   2.290   3.371 -0.0251 -1.5067 -2.0791
 2028SOL    HW217721   0.288   2.279   3.291 -0.5069  0.2507 -0.2225
 2029SOL     OW17722   1.880   4.258   5.321 -0.4874 -0.0535 -0.5364
 2029SOL    HW117723   1.966   4.289   5.296 -0.2866 -0.0472  0.1488
 2029SOL    HW217724   1.856   4.221   5.236 -1.7407  0.3721 -0.3815
 2030SOL     OW17725   0.143   0.775   0.357  0.2913  0.0409  0.3225
 2030SOL    HW117726   0.156   0.856   0.308 -0.3598 -0.6140 -0.9513
 2030SOL    HW217727   0.222   0.723   0.337 -0.4567 -1.5234  1.4623
 2031SOL     OW17728   0.792   0.741   4.667 -0.1870  0.4917 -0.2778
 2031SOL    HW117729   0.865   0.695   4.628 -1.3310 -0.9077 -0.7520
 2031SOL    HW217730   0.833   0.798   4.732 -2.1695  0.2765  1.1787
 2032SOL     OW17731   2.887   0.982   4.554  0.5732 -0.3830 -0.1433
 2032SOL    HW117732   2.824   1.052   4.538 -1.0651 -2.1942 -1.7652
 2032SOL    HW217733   2.877   0.980   4.649 -3.2441  1.2050 -0.5037
 2033SOL     OW17734   1.254   2.444   5.898  0.2690 -0.0932 -0.5053
 2033SOL    HW117735   1.230   2.403   5.981 -0.8236  0.4184 -0.5687
 2033SOL    HW217736   1.199   2.399   5.833  0.4325  1.5375 -1.7954
 2034SOL     OW17737   2.185   3.006   5.194  0.4085  0.7801 -0.1678
 2034SOL    HW117738   2.255   3.053   5.148 -0.2603  1.8137 -0.1359
 2034SOL    HW217739   2.157   2.946   5.124  0.7138  1.0047 -0.4855
 2035SOL     OW17740   4.239   3.340   4.179 -0.0346 -0.3721 -0.0074
 2035SOL    HW117741   4.178   3.375   4.114  0.3484  1.0611  0.4196
 2035SOL    HW217742   4.180   3.324   4.253 -0.4769  2.3205  0.2167
 2036SOL     OW17743   4.273   2.579  10.803 -0.2955  0.3361 -0.6043
 2036SOL    HW117744   4.289   2.597  10.710  3.5670 -1.8380 -0.3460
 2036SOL    HW217745   4.180   2.557  10.797  0.5051 -3.1100 -0.5578
 2037SOL     OW17746   4.564   4.261   5.890 -0.0905 -0.3722 -0.1583
 2037SOL    HW117747   4.623   4.206   5.942  1.3418 -0.0711 -1.4741
 2037SOL    HW217748   4.615   4.289   5.814 -1.7836  1.5888 -0.5668
 2038SOL     OW17749   0.871   4.235  16.364 -0.6188  0.1691  0.2273
 2038SOL    HW117750   0.854   4.163  16.304 -1.9151 -0.1734  1.0054
 2038SOL    HW217751   0.965   4.240  16.352 -0.3927 -1.3341  1.4087
 2039SOL     OW17752   2.550   4.681   0.260  0.1849 -0.0261  0.6069
 2039SOL    HW117753   2.510   0.003   0.321  0.3089  1.1924 -0.5252
 2039SOL    HW217754   2.633   4.657   0.303 -0.0856  1.5197  1.9925
 2040SOL     OW17755   3.737   1.342   8.263  0.3624  0.1230 -0.3489
 2040SOL    HW117756   3.670   1.358   8.329  0.0662 -1.9925 -0.1400
 2040SOL    HW217757   3.754   1.248   8.268  0.9979  0.4041  2.9664
 2041SOL     OW17758   3.332   2.676  12.895 -0.4223 -0.5657 -0.2031
 2041SOL    HW117759   3.250   2.627  12.898 -0.6084 -0.2685 -0.4893
 2041SOL    HW217760   3.333   2.724  12.977  0.4078  0.7412 -0.9801
 2042SOL     OW17761   1.025   4.651   8.152 -0.7023 -0.0466 -0.0444
 2042SOL    HW117762   1.053   4.732   8.194  0.0357 -0.2938 -0.0664
 2042SOL    HW217763   0.954   4.633   8.215  0.2238  0.6772  1.1998
 2043SOL     OW17764   0.437   2.308   5.985  0.0819 -0.2747  0.1094
 2043SOL    HW117765   0.428   2.356   5.903 -1.2454  0.5581  0.7377
 2043SOL    HW217766   0.423   2.224   5.943  1.4193 -1.7127  2.5258
 2044SOL     OW17767   4.434   3.394   2.706 -0.0200 -0.1857 -0.2375
 2044SOL    HW117768   4.488   3.357   2.636  0.9392  0.1903  0.2964
 2044SOL    HW217769   4.478   3.371   2.788 -2.0732  1.7825  1.4076
 2045SOL     OW17770   3.784   2.326   8.901 -0.6565 -0.3085  0.2334
 2045SOL    HW117771   3.804   2.240   8.937 -2.4723 -0.4799  0.8435
 2045SOL    HW217772   3.761   2.299   8.812 -2.9862  0.2688  0.6379
 2046SOL     OW17773   0.895   0.844   4.234 -0.0955  0.3865  0.4533
 2046SOL    HW117774   0.955   0.895   4.179 -0.0710 -0.3636 -0.2061
 2046SOL    HW217775   0.957   0.779   4.266  1.0232  0.9444 -0.5563
 2047SOL     OW17776   1.631   2.123   7.214  0.0481  0.4886  0.3742
 2047SOL    HW117777   1.612   2.217   7.220 -0.9125  0.1553  2.6220
 2047SOL    HW217778   1.558   2.087   7.265 -2.2468  2.1937 -1.7090
 2048SOL     OW17779   3.285   1.818   3.403  0.3309  0.1710  0.9507
 2048SOL    HW117780   3.317   1.817   3.313 -0.5546 -0.0761  0.6399
 2048SOL    HW217781   3.191   1.813   3.386  0.4849 -0.0006  0.1622
 2049SOL     OW17782   2.166   0.122   8.066 -0.5993  0.0889  0.0398
 2049SOL    HW117783   2.117   0.202   8.083 -0.1295  0.4328 -0.2703
 2049SOL    HW217784   2.192   0.130   7.974 -1.1117  0.0333 -0.1141
 2050SOL     OW17785   1.130   0.707  16.276 -0.0667  0.6368  0.4012
 2050SOL    HW117786   1.146   0.764  16.352 -0.3845  0.2216  0.7757
 2050SOL    HW217787   1.117   0.784  16.220 -1.7206  0.5536  0.6676
 2051SOL     OW17788   0.857   2.365   5.209 -0.5747  0.0122  0.6390
 2051SOL    HW117789   0.908   2.284   5.206 -1.8547 -0.7586 -0.2035
 2051SOL    HW217790   0.890   2.403   5.127  0.4790 -2.6505 -0.1770
 2052SOL     OW17791   0.721   4.101  13.415 -0.5063  0.0581  0.4232
 2052SOL    HW117792   0.677   4.051  13.483  1.8269 -0.3869  1.6250
 2052SOL    HW217793   0.753   4.025  13.366  1.3845  0.9266  0.3131
 2053SOL     OW17794   2.189   2.208   2.918 -0.1124 -0.2567 -0.0255
 2053SOL    HW117795   2.207   2.204   3.012 -1.5739  1.2210  0.3101
 2053SOL    HW217796   2.270   2.168   2.886  0.7502  0.7815  0.8319
 2054SOL     OW17797   0.861   3.652  10.168  0.4280 -0.9652 -0.1314
 2054SOL    HW117798   0.933   3.590  10.178 -0.5413 -2.1582 -0.5371
 2054SOL    HW217799   0.789   3.605  10.126 -1.9730  2.2789  0.2961
 2055SOL     OW17800   0.717   1.793  13.568  0.1483  0.4924  0.1446
 2055SOL    HW117801   0.746   1.704  13.590  0.6920  1.1420  2.0094
 2055SOL    HW217802   0.769   1.835  13.636  1.3899 -0.4174 -0.2263
 2056SOL     OW17803   0.825   2.643  14.266  1.2574  0.0908  0.6756
 2056SOL    HW117804   0.734   2.636  14.296  0.8894 -1.3714 -0.7894
 2056SOL    HW217805   0.824   2.664  14.173  1.0206 -0.6457  0.5147
 2057SOL     OW17806   4.370   1.966   6.395 -0.1921  0.3613  0.1472
 2057SOL    HW117807   4.353   1.888   6.342  0.5451 -0.4135  1.0717
 2057SOL    HW217808   4.322   1.945   6.475 -1.6551  2.6511 -0.1137
 2058SOL     OW17809   4.507   1.273  17.217 -0.3508  0.3425 -0.5341
 2058SOL    HW117810   4.464   1.315  17.292 -0.7047 -0.6977 -0.1515
 2058SOL    HW217811   4.432   1.266  17.157  0.8605  0.8065 -2.0851
 2059SOL     OW17812   2.727   4.103   5.284 -0.7790  0.1705  0.0056
 2059SOL    HW117813   2.764   4.036   5.226 -0.8599 -2.6636  3.2312
 2059SOL    HW217814   2.786   4.096   5.359  3.3091  1.9673 -3.0305
 2060SOL     OW17815   4.015   4.695   6.958  0.1676 -0.5955  0.1234
 2060SOL    HW117816   4.066   0.032   6.983  1.0490 -0.9313 -0.6887
 2060SOL    HW217817   3.986   4.649   7.037  0.0235 -0.4226  0.1725
 2061SOL     OW17818   0.861   4.675   2.169 -0.1062 -0.1612 -0.1007
 2061SOL    HW117819   0.821   4.731   2.236 -1.9160 -1.3004 -0.2228
 2061SOL    HW217820   0.954   4.693   2.178 -0.5708  0.6732  2.9853
 2062SOL     OW17821   0.400   2.751   5.248  0.2125 -0.1749  0.7844
 2062SOL    HW117822   0.354   2.828   5.215  0.4765 -0.0631  0.6839
 2062SOL    HW217823   0.476   2.751   5.191 -0.2309 -0.2618  0.1949
 2063SOL     OW17824   4.359   4.076   2.921  0.8604 -0.4760 -0.4611
 2063SOL    HW117825   4.403   4.159   2.901 -2.2305  1.1330 -0.5683
 2063SOL    HW217826   4.437   4.021   2.923  1.5648  0.4260 -2.5897
 2064SOL     OW17827   2.621   4.517   9.151  0.4576 -0.4428  0.4205
 2064SOL    HW117828   2.668   4.592   9.114 -2.1893  0.1171 -1.8602
 2064SOL    HW217829   2.589   4.548   9.236 -1.4672 -0.1012 -0.4147
 2065SOL     OW17830   2.527   2.275   6.344  0.2791  0.1633  0.5242
 2065SOL    HW117831   2.560   2.241   6.427  2.2752 -0.8730 -0.6769
 2065SOL    HW217832   2.606   2.262   6.290  2.2131  1.6083  3.0015
 2066SOL     OW17833   3.147   1.081   3.596  0.5012 -1.2161 -0.1276
 2066SOL    HW117834   3.060   1.088   3.637  0.3774 -1.0094 -0.4321
 2066SOL    HW217835   3.128   1.068   3.503 -0.8815  0.0696 -0.0205
 2067SOL     OW17836   4.324   1.735   7.088 -0.6538 -0.2466 -0.0532
 2067SOL    HW117837   4.263   1.753   7.159  0.4697 -0.1239  0.8849
 2067SOL    HW217838   4.405   1.699   7.126 -1.2803 -1.6180 -0.0180
 2068SOL     OW17839   3.400   0.367   7.598  0.1954 -0.0344 -0.0331
 2068SOL    HW117840   3.351   0.356   7.680  0.1738 -0.3577 -0.0882
 2068SOL    HW217841   3.323   0.352   7.543  1.7730 -0.8053 -2.0227
 2069SOL     OW17842   2.736   1.861  10.683 -0.2247  0.3217 -0.6028
 2069SOL    HW117843   2.731   1.820  10.769  0.9759  0.9625 -0.2283
 2069SOL    HW217844   2.679   1.800  10.636 -0.5692  0.6029 -0.5488
 2070SOL     OW17845   1.489   3.356   3.085  0.4508  0.3133 -0.2673
 2070SOL    HW117846   1.457   3.394   3.003  1.6582 -1.2247 -1.4301
 2070SOL    HW217847   1.406   3.325   3.122 -0.0774  1.2358 -0.6597
 2071SOL     OW17848   3.458   4.465   7.000 -0.0377 -0.0940 -0.1334
 2071SOL    HW117849   3.386   4.466   6.937 -0.1613  4.7344  0.0542
 2071SOL    HW217850   3.507   4.537   6.959 -1.4818  0.7086 -0.4372
 2072SOL     OW17851   4.522   3.448   7.973 -0.3137  0.5860 -0.0080
 2072SOL    HW117852   4.508   3.468   7.881  0.3248  1.6906  0.1367
 2072SOL    HW217853   4.434   3.434   8.006 -0.6257  2.5587 -0.0178
 2073SOL     OW17854   1.214   1.463   3.642 -0.2212 -0.1375  0.1993
 2073SOL    HW117855   1.232   1.370   3.658  0.0015  0.1060  1.3490
 2073SOL    HW217856   1.274   1.504   3.704 -0.0121 -2.7015  1.7165
 2074SOL     OW17857   3.235   1.656   1.735 -0.1313  0.2225  0.0069
 2074SOL    HW117858   3.238   1.748   1.710  2.2011 -0.0433 -0.7524
 2074SOL    HW217859   3.197   1.612   1.659  2.4075 -3.2356  0.7239
 2075SOL     OW17860   1.233   4.035   3.688  0.5299 -0.0092  0.1448
 2075SOL    HW117861   1.281   3.986   3.621 -0.7924  1.7687 -2.1156
 2075SOL    HW217862   1.166   4.080   3.636 -1.0570 -0.1364  2.0726
 2076SOL     OW17863   3.830   1.887  11.218 -0.5175 -0.0913  0.3563
 2076SOL    HW117864   3.766   1.866  11.150 -2.6010  1.6713  1.7415
 2076SOL    HW217865   3.905   1.833  11.195 -0.4903  0.4540 -0.7824
 2077SOL     OW17866   2.361   0.239   6.743 -0.5012 -0.3650  0.2399
 2077SOL    HW117867   2.401   0.213   6.660  0.1221 -3.4482  1.5024
 2077SOL    HW217868   2.270   0.220   6.721 -0.2841  1.3730 -2.2702
 2078SOL     OW17869   2.699   1.195  13.005 -0.1473  0.4764 -0.9562
 2078SOL    HW117870   2.605   1.204  12.992 -0.3007 -1.0344 -0.8988
 2078SOL    HW217871   2.704   1.214  13.099  2.5240 -0.7079 -0.8467
 2079SOL     OW17872   0.926   2.971   7.213 -0.2025  0.0938  0.5245
 2079SOL    HW117873   0.887   2.947   7.129  2.0333  1.2052 -0.8115
 2079SOL    HW217874   0.932   3.065   7.199  0.7514 -0.1221 -0.4913
 2080SOL     OW17875   3.029   4.222   5.139 -0.4156 -0.0659  0.1366
 2080SOL    HW117876   2.980   4.143   5.115 -1.0519  0.9524 -1.9455
 2080SOL    HW217877   3.040   4.212   5.233 -1.4475  3.3065  0.6330
 2081SOL     OW17878   2.613   1.744   3.151  0.5699 -0.3339  0.2703
 2081SOL    HW117879   2.633   1.752   3.244  0.7778 -0.0966  0.2044
 2081SOL    HW217880   2.521   1.717   3.157  0.2965  0.5406 -0.0441
 2082SOL     OW17881   1.919   0.593   3.431 -0.0041 -0.2467  0.6162
 2082SOL    HW117882   1.919   0.507   3.472  0.0115  0.1687  1.4829
 2082SOL    HW217883   1.864   0.655   3.478 -0.3902 -0.8869  1.0029
 2083SOL     OW17884   4.540   4.141   2.247  0.1237  0.4170 -0.1020
 2083SOL    HW117885   4.455   4.171   2.215  0.4501  1.0344 -0.3905
 2083SOL    HW217886   4.587   4.223   2.234 -2.5124  1.9603  0.2781
 2084SOL     OW17887   3.854   0.146   3.952 -0.1280  0.1269 -0.2599
 2084SOL    HW117888   3.833   0.239   3.940  0.5534  0.2378 -0.5924
 2084SOL    HW217889   3.816   0.120   4.035  0.4872  2.5309  0.7767
 2085SOL     OW17890   3.967   2.818   0.961  0.4805 -0.3316 -0.5184
 2085SOL    HW117891   3.964   2.743   0.901 -0.3820 -0.3537 -0.4584
 2085SOL    HW217892   3.889   2.865   0.931  2.3356  2.3511 -1.1009
 2086SOL     OW17893   2.481   2.510   0.495 -0.0437 -0.3257 -0.2814
 2086SOL    HW117894   2.557   2.566   0.482 -1.0684  1.1921  0.3572
 2086SOL    HW217895   2.424   2.524   0.419 -1.9927  0.1883  1.2647
 2087SOL     OW17896   2.933   4.684   5.144  0.2805 -0.1946  0.4676
 2087SOL    HW117897   2.894   4.698   5.058 -0.3576 -1.8884  0.4820
 2087SOL    HW217898   2.952   4.591   5.132  3.4635  0.3796  0.9674
 2088SOL     OW17899   2.454   1.206   5.855  0.4179  0.2046  0.3146
 2088SOL    HW117900   2.427   1.294   5.832  0.1069  0.5684  2.1036
 2088SOL    HW217901   2.390   1.190   5.924 -1.6503 -1.6785 -2.0215
 2089SOL     OW17902   3.048   4.304  10.838  0.4207 -0.1200  0.4959
 2089SOL    HW117903   3.070   4.348  10.920  0.6915 -1.0521  0.9235
 2089SOL    HW217904   3.120   4.241  10.830 -0.3268 -0.7481 -1.3795
 2090SOL     OW17905   0.986   1.340   7.273  0.2032 -0.1485 -1.3719
 2090SOL    HW117906   0.957   1.318   7.361  1.5514 -2.3306 -1.4807
 2090SOL    HW217907   0.907   1.312   7.226  0.3518 -1.7964 -0.6025
 2091SOL     OW17908   0.948   3.616   4.751 -0.4929 -0.2166 -0.6883
 2091SOL    HW117909   0.972   3.690   4.695 -0.1206  0.6736  0.6396
 2091SOL    HW217910   0.871   3.651   4.797  0.3147  1.2823 -0.4759
 2092SOL     OW17911   4.371   1.163  12.509 -0.4943 -0.2662 -0.5610
 2092SOL    HW117912   4.384   1.205  12.424 -2.9748 -1.7734 -1.6692
 2092SOL    HW217913   4.294   1.214  12.535 -1.5769 -2.4303  0.4231
 2093SOL     OW17914   4.296   3.048   9.450 -0.2536  0.0323  0.3489
 2093SOL    HW117915   4.238   3.020   9.520  0.9017  0.2534  1.4003
 2093SOL    HW217916   4.352   3.117   9.485 -2.2914  0.8355  1.9508
 2094SOL     OW17917   3.416   0.247   9.389  0.2150  0.1059 -0.0263
 2094SOL    HW117918   3.447   0.206   9.470  0.5975 -1.7272 -1.1110
 2094SOL    HW217919   3.321   0.235   9.396  0.4386  1.2360  4.9400
 2095SOL     OW17920   3.542   2.507   1.570  0.2716  0.1435 -0.1579
 2095SOL    HW117921   3.515   2.461   1.649  1.0940  0.7710  0.4964
 2095SOL    HW217922   3.624   2.464   1.547 -0.4634 -1.5086  0.3241
 2096SOL     OW17923   1.847   4.513  12.325 -0.0683  0.6973 -0.0328
 2096SOL    HW117924   1.796   4.541  12.401 -1.3778 -0.4406 -0.4866
 2096SOL    HW217925   1.901   4.591  12.312  0.9023 -0.4219 -2.6427
 2097SOL     OW17926   2.789   3.347   8.221 -0.3785  0.1108  0.1415
 2097SOL    HW117927   2.764   3.430   8.180  0.1773 -0.4637 -1.3264
 2097SOL    HW217928   2.745   3.348   8.306  0.2716 -1.7841  0.4977
 2098SOL     OW17929   0.167   2.463  16.420 -0.1680  0.4303 -0.2660
 2098SOL    HW117930   0.200   2.431  16.503  0.2746  2.6073  0.3925
 2098SOL    HW217931   0.104   2.531  16.443  0.4859  0.7548  0.5546
 2099SOL     OW17932   2.799   2.579   2.711  0.2989  0.4401  0.0988
 2099SOL    HW117933   2.876   2.522   2.706  0.3622  0.7074 -2.0260
 2099SOL    HW217934   2.845   2.659   2.736 -0.9096  0.8249  1.0613
 2100SOL     OW17935   3.991   1.963  11.409 -0.2413 -0.0894 -0.0921
 2100SOL    HW117936   3.936   1.945  11.485  1.9977 -0.5064  1.4468
 2100SOL    HW217937   3.925   1.963  11.340 -0.1295  0.4603 -0.2037
 2101SOL     OW17938   0.561   2.305   7.589 -0.8712 -0.2994 -0.1248
 2101SOL    HW117939   0.576   2.318   7.495 -2.3468 -2.1445 -0.6226
 2101SOL    HW217940   0.651   2.291   7.621 -0.5582  2.9318  0.3532
 2102SOL     OW17941   3.615   0.533  17.620 -0.2810  0.0831 -0.6032
 2102SOL    HW117942   3.570   0.520  17.537  1.1765 -2.7028 -0.9578
 2102SOL    HW217943   3.701   0.494  17.603  0.0452  0.9191 -0.8834
 2103SOL     OW17944   1.777   4.580  10.874 -0.3663  0.1296  0.1804
 2103SOL    HW117945   1.731   4.496  10.871 -1.3455  0.6083  2.3017
 2103SOL    HW217946   1.733   4.608  10.954  1.6644  2.8665  0.3133
 2104SOL     OW17947   4.359   0.756   5.499  0.2087 -0.3132 -0.0267
 2104SOL    HW117948   4.449   0.743   5.527  0.4882  0.6129 -0.4705
 2104SOL    HW217949   4.341   0.838   5.546 -0.7034 -0.5825  0.0859
 2105SOL     OW17950   4.259   1.612   2.722  0.2782 -0.2729  0.0082
 2105SOL    HW117951   4.330   1.569   2.771  0.2601 -1.5861 -1.1073
 2105SOL    HW217952   4.237   1.550   2.653 -0.9719 -1.0643  1.1154
 2106SOL     OW17953   2.491   1.379   5.524 -0.3231  0.5369 -0.7320
 2106SOL    HW117954   2.558   1.446   5.509  1.9083 -1.2278  1.1360
 2106SOL    HW217955   2.431   1.424   5.583  0.5555 -0.4322  0.8993
 2107SOL     OW17956   3.608   1.176   2.827 -0.5094  0.3300 -0.2930
 2107SOL    HW117957   3.568   1.155   2.743  1.2193  0.3448 -1.1028
 2107SOL    HW217958   3.545   1.238   2.864 -0.0192 -0.8206  2.4602
 2108SOL     OW17959   4.058   2.239   2.090  0.5476  0.5216 -0.2239
 2108SOL    HW117960   4.142   2.275   2.118  0.6675  1.3879 -1.6924
 2108SOL    HW217961   3.995   2.309   2.108  0.5346  0.9458 -1.9260
 2109SOL     OW17962   4.577   2.356  11.397 -0.1919 -0.0902 -0.2638
 2109SOL    HW117963   4.526   2.291  11.446 -2.0715  0.7846 -1.0793
 2109SOL    HW217964   4.653   2.303  11.373 -1.0428 -1.8591  0.9545
 2110SOL     OW17965   1.370   2.821   4.564 -0.2285 -0.4178  0.5793
 2110SOL    HW117966   1.388   2.759   4.493 -1.8291 -0.8598  0.5681
 2110SOL    HW217967   1.444   2.882   4.571 -0.2962 -0.2439 -0.3036
 2111SOL     OW17968   2.723   3.152   5.862 -0.2113  0.3513 -0.3369
 2111SOL    HW117969   2.730   3.153   5.958 -0.8547  1.5686 -0.2979
 2111SOL    HW217970   2.766   3.232   5.833  1.2467 -0.7459 -1.1943
 2112SOL     OW17971   2.140   0.070   9.598 -0.3918  0.0862  0.3061
 2112SOL    HW117972   2.158   0.163   9.613 -0.4478  0.1476 -0.0037
 2112SOL    HW217973   2.047   0.074   9.575 -0.3202  1.0192  0.1760
 2113SOL     OW17974   3.467   0.535   9.869  0.0347 -0.1096  0.6111
 2113SOL    HW117975   3.484   0.562   9.959  1.2751  2.6947 -0.4704
 2113SOL    HW217976   3.387   0.483   9.876  0.3378 -0.9009 -1.7497
 2114SOL     OW17977   2.853   1.401   4.653 -0.7172 -0.6835 -0.0400
 2114SOL    HW117978   2.897   1.472   4.699 -1.6180 -0.6446  0.7605
 2114SOL    HW217979   2.916   1.333   4.674  1.1670  1.6262  1.7952
 2115SOL     OW17980   3.609   4.501   3.565  0.5431 -0.3611  0.4207
 2115SOL    HW117981   3.577   4.414   3.589  0.6247 -0.7850 -0.9890
 2115SOL    HW217982   3.536   4.553   3.599  0.4816 -0.2114  0.0587
 2116SOL     OW17983   2.229   2.711  11.954 -0.2160  0.0601 -0.1183
 2116SOL    HW117984   2.274   2.626  11.959 -0.6247 -0.0106  2.0930
 2116SOL    HW217985   2.203   2.724  12.045 -2.0032  1.1971 -0.8067
 2117SOL     OW17986   2.977   2.194  12.841  0.8044 -0.5677 -0.2394
 2117SOL    HW117987   2.947   2.275  12.799  2.2501 -0.4048 -0.9553
 2117SOL    HW217988   2.957   2.119  12.785 -2.2366  0.2130 -0.1854
 2118SOL     OW17989   2.713   4.076  12.980  0.7300  0.0229  0.0912
 2118SOL    HW117990   2.806   4.066  12.959  1.1797  0.1906  2.0108
 2118SOL    HW217991   2.678   3.999  12.936 -1.7795  0.7511  0.7966
 2119SOL     OW17992   2.806   0.878  15.906 -0.1983 -0.0750 -0.8740
 2119SOL    HW117993   2.809   0.921  15.821  0.3020 -0.9467 -1.2904
 2119SOL    HW217994   2.892   0.837  15.915  0.2409  1.2249  0.9878
 2120SOL     OW17995   3.777   0.400  11.924 -0.6139 -0.4735 -0.6645
 2120SOL    HW117996   3.729   0.482  11.929  0.1241 -0.0131 -1.1540
 2120SOL    HW217997   3.804   0.385  12.015  0.9813 -0.5291 -1.1480
 2121SOL     OW17998   1.619   2.773   7.876 -0.0031  0.3236 -0.0111
 2121SOL    HW117999   1.591   2.709   7.941 -2.8293  0.2681 -1.2832
 2121SOL    HW218000   1.652   2.720   7.803  1.0023 -0.4772  1.0296
 2122SOL     OW18001   0.270   1.609   2.260  0.5315  0.2085  1.0380
 2122SOL    HW118002   0.283   1.678   2.195  1.6732  0.1245  1.1817
 2122SOL    HW218003   0.344   1.558   2.227  0.1861  1.1142 -1.1475
 2123SOL     OW18004   1.606   0.872   1.466  0.1126 -0.3234  0.3565
 2123SOL    HW118005   1.533   0.914   1.419  0.9488  2.0631  1.2103
 2123SOL    HW218006   1.628   0.794   1.415  0.6988 -0.4864  0.8747
 2124SOL     OW18007   0.233   3.518  11.085  0.0727 -0.7519 -0.1719
 2124SOL    HW118008   0.247   3.556  11.172  0.9944  2.6893 -1.8254
 2124SOL    HW218009   0.159   3.462  11.107  0.1473 -0.8206 -0.0962
 2125SOL     OW18010   0.291   1.735  12.495  0.0821  0.7516  0.3999
 2125SOL    HW118011   0.336   1.717  12.412  0.7525 -1.3146  1.2115
 2125SOL    HW218012   0.315   1.824  12.519 -1.5019  0.3824  3.3996
 2126SOL     OW18013   4.098   3.118   2.121  0.6600  0.1391  0.7252
 2126SOL    HW118014   4.126   3.134   2.211 -1.1126  0.1304  1.2760
 2126SOL    HW218015   4.060   3.203   2.101 -1.7685 -1.2760 -0.7160
 2127SOL     OW18016   3.123   3.024   6.552 -0.2514  0.1521  0.1464
 2127SOL    HW118017   3.173   3.092   6.508  4.0878 -0.6953  3.7536
 2127SOL    HW218018   3.033   3.046   6.526  0.7480  2.0061 -1.6951
 2128SOL     OW18019   3.885   1.178  16.590  0.1878 -0.4775  0.7267
 2128SOL    HW118020   3.898   1.272  16.597 -0.0670 -0.6691  3.9657
 2128SOL    HW218021   3.924   1.149  16.673  3.3416  0.0544 -0.5726
 2129SOL     OW18022   1.685   3.857  17.021 -0.2140  0.2293  0.2804
 2129SOL    HW118023   1.629   3.894  17.088 -2.9368 -1.6106 -0.9831
 2129SOL    HW218024   1.711   3.775  17.062  1.0370 -0.5510 -2.0586
 2130SOL     OW18025   4.385   0.397   1.923  0.2982 -0.6843 -0.3372
 2130SOL    HW118026   4.334   0.340   1.980 -0.8658  0.6880  0.0111
 2130SOL    HW218027   4.460   0.339   1.912  2.7520  1.9739  2.2828
 2131SOL     OW18028   0.978   2.376   3.054  0.4087  0.3124  0.6405
 2131SOL    HW118029   0.909   2.380   2.988  1.2025 -2.7592 -0.3377
 2131SOL    HW218030   1.047   2.338   3.000 -0.4626 -1.1907  0.5825
 2132SOL     OW18031   2.458   0.664   3.006  0.3425  0.8013  0.0496
 2132SOL    HW118032   2.519   0.738   3.012 -0.1626  1.4508 -2.5685
 2132SOL    HW218033   2.473   0.632   2.917  2.1825 -0.3725  0.7875
 2133SOL     OW18034   1.743   3.422  17.062 -0.0707  0.4105  0.1787
 2133SOL    HW118035   1.762   3.396  17.152  2.6865 -2.9183 -1.3532
 2133SOL    HW218036   1.791   3.505  17.057  1.5545 -0.6013 -1.1604
 2134SOL     OW18037   4.252   3.614   4.801 -0.0760  0.1858 -0.0625
 2134SOL    HW118038   4.296   3.535   4.834 -2.1817 -1.5427 -1.4255
 2134SOL    HW218039   4.306   3.678   4.847 -0.3318  1.1314 -1.0953
 2135SOL     OW18040   0.367   4.525   6.061  0.4164 -0.3081  0.3487
 2135SOL    HW118041   0.346   4.578   6.138 -2.4971 -0.2672 -0.4596
 2135SOL    HW218042   0.418   4.586   6.009  0.4093 -0.9714 -0.4384
 2136SOL     OW18043   4.395   0.562   7.089 -0.0033  0.0688  0.3000
 2136SOL    HW118044   4.324   0.579   7.026 -0.0206 -0.9828  0.0392
 2136SOL    HW218045   4.434   0.650   7.091  1.0018 -0.4046  1.3525
 2137SOL     OW18046   2.447   3.325   4.879  0.4871 -0.2303 -0.5075
 2137SOL    HW118047   2.428   3.417   4.861  2.0852  0.1795 -0.0804
 2137SOL    HW218048   2.408   3.285   4.801 -0.6489  1.0187 -0.5658
 2138SOL     OW18049   4.096   3.582   2.787 -0.2232  0.1464 -0.2593
 2138SOL    HW118050   4.152   3.608   2.714 -0.8619  0.5336 -0.6076
 2138SOL    HW218051   4.155   3.577   2.862 -2.4677 -1.3057  1.3883
 2139SOL     OW18052   0.576   2.525   0.643  0.0457  0.3157 -0.0993
 2139SOL    HW118053   0.633   2.475   0.585  1.6514  2.4944 -0.3750
 2139SOL    HW218054   0.598   2.499   0.732 -0.7289  2.2223  0.6543
 2140SOL     OW18055   1.820   1.926   9.878  0.2069 -0.0665  0.2144
 2140SOL    HW118056   1.744   1.983   9.872  1.3528  1.1973 -2.5425
 2140SOL    HW218057   1.781   1.854   9.926  1.0121 -0.6650 -0.0218
 2141SOL     OW18058   1.132   0.875   3.605  0.4545 -0.3258 -0.3014
 2141SOL    HW118059   1.223   0.905   3.610 -0.2324  1.9053 -0.9718
 2141SOL    HW218060   1.128   0.844   3.696  0.1954 -1.5554 -0.7344
 2142SOL     OW18061   2.045   3.640   3.490 -0.2878 -0.2084  0.3209
 2142SOL    HW118062   2.050   3.560   3.437  0.5446 -0.5646  0.9394
 2142SOL    HW218063   1.950   3.641   3.501 -0.1478 -0.1437  1.5551
 2143SOL     OW18064   1.295   1.625   8.725  0.1491 -0.2437  0.1493
 2143SOL    HW118065   1.247   1.549   8.756 -0.1771 -0.6330 -1.3105
 2143SOL    HW218066   1.378   1.622   8.773  1.4274  0.7746 -1.9770
 2144SOL     OW18067   2.920   1.230   3.080  0.1093 -0.2617  0.4015
 2144SOL    HW118068   2.906   1.289   3.006  0.5498 -0.2048  0.3663
 2144SOL    HW218069   3.015   1.230   3.092  0.2383  0.0143 -0.6518
 2145SOL     OW18070   0.770   3.690   1.700 -0.3266 -0.5172 -0.7595
 2145SOL    HW118071   0.840   3.667   1.639  1.2744  2.4839 -0.0281
 2145SOL    HW218072   0.758   3.777   1.663 -1.3370 -0.6781 -0.8330
 2146SOL     OW18073   3.142   3.015   6.010  0.3962  0.3096  0.1520
 2146SOL    HW118074   3.085   2.958   6.062  0.1829 -0.0422 -0.4707
 2146SOL    HW218075   3.212   3.027   6.074  0.7512  1.7750 -0.4988
 2147SOL     OW18076   0.626   0.779   3.813 -0.1379 -0.4624 -0.1953
 2147SOL    HW118077   0.711   0.782   3.858  1.1527  1.3838 -2.7537
 2147SOL    HW218078   0.592   0.864   3.840  1.7281  0.2465 -0.0573
 2148SOL     OW18079   1.967   1.925   1.973  0.2163 -0.4592  0.1837
 2148SOL    HW118080   1.935   1.999   2.025  0.3293  0.1096 -0.5563
 2148SOL    HW218081   1.936   1.961   1.891 -1.7088 -0.5700  0.8594
 2149SOL     OW18082   1.311   1.940   9.317  0.2456 -0.5620  0.1077
 2149SOL    HW118083   1.354   1.855   9.323  2.2894  0.2026 -3.2442
 2149SOL    HW218084   1.221   1.910   9.304  0.2788 -0.6909  0.1805
 2150SOL     OW18085   1.979   3.909  17.199 -0.6116 -0.0958 -0.5065
 2150SOL    HW118086   2.056   3.906  17.256 -2.9135  0.4424  2.6621
 2150SOL    HW218087   1.934   3.984  17.237  0.5525 -0.5155  1.6907
 2151SOL     OW18088   0.399   4.483  12.341 -0.1297  0.0331 -0.1233
 2151SOL    HW118089   0.316   4.483  12.390  1.1189 -1.0909  2.0075
 2151SOL    HW218090   0.373   4.494  12.250 -0.0803  0.4540 -0.0891
 2152SOL     OW18091   1.178   2.270   7.147  0.2283 -0.0731  0.0238
 2152SOL    HW118092   1.237   2.198   7.124 -0.4625 -0.6881  0.1819
 2152SOL    HW218093   1.161   2.243   7.237  0.1290 -1.1802 -0.3209
 2153SOL     OW18094   3.413   2.215   9.338 -0.3937 -0.2637  0.1436
 2153SOL    HW118095   3.471   2.139   9.347  0.4349  0.4668  0.9640
 2153SOL    HW218096   3.456   2.283   9.286  3.0162 -1.3423  1.5422
 2154SOL     OW18097   2.337   3.547  16.795 -0.1309  0.2303  0.7304
 2154SOL    HW118098   2.254   3.561  16.839 -0.0318  1.6937  0.4684
 2154SOL    HW218099   2.328   3.461  16.754  0.2642  0.5865 -0.1273
 2155SOL     OW18100   2.771   4.612  13.581 -0.1695  0.0828 -0.1337
 2155SOL    HW118101   2.754   4.524  13.616 -1.1118  1.0366  1.8042
 2155SOL    HW218102   2.841   4.636  13.643 -1.4497  0.0740  1.3254
 2156SOL     OW18103   1.959   3.008   4.940  0.0702  0.3057 -0.1436
 2156SOL    HW118104   2.040   2.997   4.890  1.4706  1.9324  1.7928
 2156SOL    HW218105   1.964   3.090   4.990 -0.6482 -0.5085  1.2835
 2157SOL     OW18106   3.788   0.150   4.948  0.0439  0.7296 -0.2305
 2157SOL    HW118107   3.719   0.216   4.944  0.1097  0.7284 -1.3510
 2157SOL    HW218108   3.781   0.107   4.863  1.8994  0.4288 -0.2336
 2158SOL     OW18109   4.021   2.642  14.460  0.2027  0.5361 -0.2635
 2158SOL    HW118110   3.996   2.734  14.445 -1.6208  0.2076  0.7436
 2158SOL    HW218111   3.943   2.591  14.438  1.1611  0.0676 -2.6211
 2159SOL     OW18112   2.420   2.340   3.499  0.2651  0.1963  0.4181
 2159SOL    HW118113   2.472   2.292   3.435 -1.8260 -0.0234 -1.0931
 2159SOL    HW218114   2.385   2.406   3.438 -1.4700  0.4204  1.6493
 2160SOL     OW18115   2.277   1.629   0.930 -0.2472 -0.2183 -0.1021
 2160SOL    HW118116   2.215   1.625   1.002  0.9469 -1.1262  0.8605
 2160SOL    HW218117   2.261   1.544   0.890 -0.8996  0.6523 -1.7077
 2161SOL     OW18118   4.538   0.607   4.615  0.1020  0.3488  0.2219
 2161SOL    HW118119   4.482   0.680   4.642 -0.7105  0.1876 -1.0386
 2161SOL    HW218120   4.586   0.589   4.696 -0.1558  2.7437  0.9219
 2162SOL     OW18121   2.638   3.412   5.626 -0.0876  0.6868 -0.0443
 2162SOL    HW118122   2.723   3.416   5.581  0.4960  0.1540  0.9920
 2162SOL    HW218123   2.589   3.360   5.563  0.9294 -2.0577  1.4075
 2163SOL     OW18124   0.688   0.743   5.618 -0.2953  0.1150 -0.0646
 2163SOL    HW118125   0.640   0.662   5.602 -1.3394  0.8815 -0.8227
 2163SOL    HW218126   0.626   0.796   5.668 -1.9060 -0.1347 -1.8283
 2164SOL     OW18127   3.876   3.101   3.146  0.2868  0.0040  0.1305
 2164SOL    HW118128   3.924   3.168   3.097  3.0773 -1.3975  0.9671
 2164SOL    HW218129   3.849   3.042   3.075 -0.8165 -0.1282  0.6593
 2165SOL     OW18130   3.226   4.197   8.313 -0.2674  0.0745 -0.1217
 2165SOL    HW118131   3.278   4.250   8.252  0.1209  0.2180  0.3254
 2165SOL    HW218132   3.144   4.225   8.274 -0.9666 -0.1904  1.1497
 2166SOL     OW18133   2.655   2.682   1.727  0.3422 -0.0919  0.3332
 2166SOL    HW118134   2.680   2.597   1.764 -1.7469 -0.8832 -0.0747
 2166SOL    HW218135   2.560   2.674   1.724  0.3209  0.4992 -0.7151
 2167SOL     OW18136   1.050   1.051   8.309 -0.3724 -0.3965  0.1267
 2167SOL    HW118137   1.112   1.018   8.244  1.7911  5.1386 -0.6055
 2167SOL    HW218138   1.064   1.145   8.311 -1.8143 -0.1997  1.8960
 2168SOL     OW18139   2.886   0.936  13.697 -0.4753 -0.1094  0.4915
 2168SOL    HW118140   2.938   0.900  13.625  0.8866  2.0445  0.3922
 2168SOL    HW218141   2.801   0.896  13.679  1.2143 -1.7832 -3.7380
 2169SOL     OW18142   1.038   1.899   8.213 -0.0863  0.2776  0.5158
 2169SOL    HW118143   1.010   1.947   8.291  1.2630  0.8967  0.6228
 2169SOL    HW218144   1.132   1.898   8.232 -0.1802 -0.4775  0.9476
 2170SOL     OW18145   0.276   3.821  13.440 -0.2908 -0.1240 -0.1062
 2170SOL    HW118146   0.344   3.854  13.382  1.1485 -1.0428  1.0547
 2170SOL    HW218147   0.335   3.818  13.516 -0.7789 -1.1835  0.2382
 2171SOL     OW18148   3.869   3.174  12.248 -0.3324  0.2178  0.0169
 2171SOL    HW118149   3.893   3.184  12.340  0.8354  1.5477 -0.4299
 2171SOL    HW218150   3.876   3.264  12.218 -1.6616  0.6662  1.0464
 2172SOL     OW18151   4.143   3.472   8.200  0.3515  0.3888  0.1999
 2172SOL    HW118152   4.160   3.557   8.241 -0.3744  1.1819 -1.1572
 2172SOL    HW218153   4.085   3.425   8.260  0.3592  0.8347  0.5549
 2173SOL     OW18154   3.912   0.556  12.390 -0.8130 -0.2689  0.6252
 2173SOL    HW118155   3.842   0.582  12.450 -0.5045 -1.1495  1.3569
 2173SOL    HW218156   3.864   0.523  12.314 -0.4804  2.0437 -0.5892
 2174SOL     OW18157   0.388   1.913   6.913 -0.0292  0.8547 -0.2101
 2174SOL    HW118158   0.392   1.876   7.002 -0.4703  1.9044  0.2376
 2174SOL    HW218159   0.327   1.982   6.938 -0.9351 -0.1429  0.3162
 2175SOL     OW18160   3.770   2.398  17.160  0.0372 -0.7751  0.2763
 2175SOL    HW118161   3.825   2.327  17.129  0.3217  0.3215 -1.7732
 2175SOL    HW218162   3.747   2.451  17.083 -0.4098  0.1219  1.0164
 2176SOL     OW18163   1.558   4.383  15.083  0.0045  0.0655 -0.2912
 2176SOL    HW118164   1.633   4.326  15.070 -0.2347 -0.4296  0.5547
 2176SOL    HW218165   1.495   4.321  15.121  0.8219 -0.9762 -0.6302
 2177SOL     OW18166   0.480   1.177  12.196  0.1099  0.5150  0.2936
 2177SOL    HW118167   0.439   1.190  12.111  2.6183 -0.0825 -1.0295
 2177SOL    HW218168   0.534   1.256  12.189  1.3167 -0.2649  0.7523
 2178SOL     OW18169   0.501   3.423   2.931  0.3569 -0.4677 -0.5381
 2178SOL    HW118170   0.491   3.387   3.019 -3.0744 -2.6831 -1.8362
 2178SOL    HW218171   0.437   3.494   2.922 -0.5883 -1.4051 -1.1258
 2179SOL     OW18172   1.919   2.803   2.340 -0.4960  0.0526  0.3371
 2179SOL    HW118173   2.012   2.822   2.346 -0.8800  1.8870  0.2818
 2179SOL    HW218174   1.903   2.799   2.434 -1.0219  2.2343  0.3262
 2180SOL     OW18175   3.791   4.720   2.025 -0.9129 -0.2538 -0.1436
 2180SOL    HW118176   3.726   4.654   1.997 -1.9916  1.7868 -2.4272
 2180SOL    HW218177   3.878   4.684   2.006 -0.8092 -0.8244  1.3986
 2181SOL     OW18178   3.389   2.986   8.972  0.1982  0.4494  0.1506
 2181SOL    HW118179   3.472   3.033   8.972 -0.8859  2.3645  1.5506
 2181SOL    HW218180   3.401   2.923   8.901 -2.4085 -0.6494  0.6766
 2182SOL     OW18181   4.564   1.686   7.207 -0.0264 -0.2064 -0.4469
 2182SOL    HW118182   4.593   1.661   7.294 -0.1776  0.7962 -0.1124
 2182SOL    HW218183   4.615   1.766   7.191  1.5101 -0.8244  1.3538
 2183SOL     OW18184   3.169   2.448   4.511 -0.4830  0.0733 -0.1787
 2183SOL    HW118185   3.141   2.492   4.431  0.9482 -2.7352 -2.2047
 2183SOL    HW218186   3.118   2.368   4.510  1.5772 -1.2412 -0.4005
 2184SOL     OW18187   1.879   3.098  11.854 -0.0290 -0.0551 -0.1497
 2184SOL    HW118188   1.823   3.040  11.906 -0.8821  0.2479 -0.7438
 2184SOL    HW218189   1.962   3.050  11.849 -0.0305 -0.0333 -0.3609
 2185SOL     OW18190   1.899   1.648   3.599  0.1174 -0.5295  0.4263
 2185SOL    HW118191   1.839   1.720   3.616  0.4795  0.3158 -1.8590
 2185SOL    HW218192   1.862   1.585   3.661  0.7115 -2.3270 -1.0242
 2186SOL     OW18193   4.166   0.497   5.524 -0.2373  0.7267 -0.9211
 2186SOL    HW118194   4.203   0.477   5.437 -2.6587 -0.2354 -1.7387
 2186SOL    HW218195   4.230   0.560   5.556  1.2105 -1.1991 -0.0458
 2187SOL     OW18196   0.466   0.948  12.309  0.1092 -0.1512 -0.3393
 2187SOL    HW118197   0.481   0.980  12.398 -1.7152 -1.9429  0.6009
 2187SOL    HW218198   0.473   1.029  12.258 -1.4362  1.0536  1.3628
 2188SOL     OW18199   1.988   2.996   4.524  0.1486 -0.4055  0.1066
 2188SOL    HW118200   1.998   3.083   4.564 -1.8129 -0.9723  1.8361
 2188SOL    HW218201   1.907   3.015   4.476  0.4102  1.7090  0.4827
 2189SOL     OW18202   2.502   1.930   6.440 -0.2481 -0.2848  0.5905
 2189SOL    HW118203   2.448   1.851   6.448  0.0847 -0.7126 -1.4169
 2189SOL    HW218204   2.438   2.001   6.442  1.2641  1.0820  0.1368
 2190SOL     OW18205   4.416   3.113   8.833 -0.2698  0.2646  0.3273
 2190SOL    HW118206   4.461   3.117   8.748 -0.7593  3.2830  0.1847
 2190SOL    HW218207   4.442   3.027   8.865 -1.8011 -0.3371 -0.0281
 2191SOL     OW18208   2.825   2.799   8.731 -0.3763  0.3378  0.6915
 2191SOL    HW118209   2.865   2.823   8.648 -1.2517  2.1648  0.7923
 2191SOL    HW218210   2.740   2.842   8.720  1.5598  3.7961 -0.6077
 2192SOL     OW18211   4.388   0.504   1.096 -0.3052  0.0227  0.5120
 2192SOL    HW118212   4.320   0.482   1.160  0.5735 -0.2322  1.3547
 2192SOL    HW218213   4.407   0.415   1.067 -1.1542 -0.4300  1.3267
 2193SOL     OW18214   0.244   0.562   1.032 -0.3313  0.1436 -0.2907
 2193SOL    HW118215   0.215   0.505   1.103 -0.6379  0.0638 -0.4807
 2193SOL    HW218216   0.327   0.588   1.073 -1.6296  1.3662  1.5247
 2194SOL     OW18217   3.047   4.189  14.620  0.2714  0.2965  0.0284
 2194SOL    HW118218   3.062   4.167  14.712 -0.2022  1.1813  0.3260
 2194SOL    HW218219   3.031   4.282  14.636 -1.3001  0.2114 -1.1079
 2195SOL     OW18220   4.260   1.310  14.033  0.3605 -0.4221  0.1004
 2195SOL    HW118221   4.208   1.390  14.026  0.1851 -0.6329 -0.9483
 2195SOL    HW218222   4.205   1.261  14.094  0.8415 -0.3406  0.6043
 2196SOL     OW18223   1.517   2.292   5.701  0.4044 -0.3520  0.1678
 2196SOL    HW118224   1.562   2.375   5.714  1.6680 -0.9194 -0.5993
 2196SOL    HW218225   1.533   2.243   5.781 -1.4523 -0.3080  0.5699
 2197SOL     OW18226   4.303   1.419   8.031  0.1234  0.1529 -0.2660
 2197SOL    HW118227   4.306   1.443   8.124 -0.5517 -0.7399 -0.0155
 2197SOL    HW218228   4.227   1.467   8.001  0.3356  1.7256  1.7240
 2198SOL     OW18229   0.121   4.154  14.457 -0.0650  0.3136 -0.0136
 2198SOL    HW118230   0.060   4.087  14.426  0.3332  0.0067 -0.1417
 2198SOL    HW218231   0.079   4.209  14.523 -1.0852 -0.6178  0.1130
 2199SOL     OW18232   4.332   1.740  10.172  0.2518  0.1840 -0.0707
 2199SOL    HW118233   4.297   1.744  10.261 -0.4771 -0.6397 -0.3250
 2199SOL    HW218234   4.334   1.646  10.154 -0.6005  0.1644 -0.0669
 2200SOL     OW18235   1.690   3.906   9.618  0.0584  0.0140 -0.6453
 2200SOL    HW118236   1.751   3.933   9.549 -0.2716  2.5110  0.0380
 2200SOL    HW218237   1.753   3.923   9.689  1.6994 -1.5022 -1.7189
 2201SOL     OW18238   4.189   0.570  12.138 -0.5076  0.0894  0.0181
 2201SOL    HW118239   4.137   0.490  12.131  1.9386 -1.5662  0.8361
 2201SOL    HW218240   4.211   0.583  12.230 -0.7996  1.0906 -0.0614
 2202SOL     OW18241   0.364   3.684  11.807  0.6951  0.3767 -0.0467
 2202SOL    HW118242   0.433   3.644  11.859 -1.3720 -2.8893  0.1757
 2202SOL    HW218243   0.364   3.632  11.726 -1.3455 -0.6774  0.6486
 2203SOL     OW18244   4.738   2.315  16.223  0.0738 -0.0227  0.2420
 2203SOL    HW118245   4.726   2.404  16.191 -0.7684  0.2840  1.3992
 2203SOL    HW218246   0.026   2.331  16.314 -1.3237 -1.5758  0.9431
 2204SOL     OW18247   1.006   2.474   4.999  0.3595 -0.4352  0.1671
 2204SOL    HW118248   0.999   2.435   4.912 -0.5805  0.5242 -0.1983
 2204SOL    HW218249   1.093   2.514   5.002 -0.9536  2.3873  0.6263
 2205SOL     OW18250   1.115   4.063   2.641  0.4141  0.5588 -0.1155
 2205SOL    HW118251   1.206   4.075   2.612 -0.5121  2.0677 -2.3395
 2205SOL    HW218252   1.068   4.097   2.565 -2.3944 -2.7332  0.1351
 2206SOL     OW18253   0.441   0.190   3.133  0.2834  0.2483 -0.1229
 2206SOL    HW118254   0.444   0.118   3.071 -0.9175 -0.5988  0.7939
 2206SOL    HW218255   0.452   0.271   3.084  1.9158 -0.1952 -0.4797
 2207SOL     OW18256   2.094   0.417   6.514 -0.4001  0.3213  0.1040
 2207SOL    HW118257   2.153   0.486   6.487 -0.6928  0.3711 -0.4063
 2207SOL    HW218258   2.090   0.444   6.606  0.2737 -0.4582  0.3636
 2208SOL     OW18259   4.186   0.736   6.609  0.3546  0.5103  0.0951
 2208SOL    HW118260   4.250   0.765   6.544 -0.4093 -0.2064 -0.9919
 2208SOL    HW218261   4.115   0.792   6.579  0.3797 -0.3180 -1.4945
 2209SOL     OW18262   0.339   3.110   4.227  0.0373  0.0128 -0.1461
 2209SOL    HW118263   0.300   3.079   4.309  3.5685  0.5908  1.7469
 2209SOL    HW218264   0.281   3.182   4.204 -0.4691  0.0490  1.2217
 2210SOL     OW18265   4.338   0.254   8.663  0.0381  0.3182  0.5359
 2210SOL    HW118266   4.336   0.189   8.733  1.7042  1.6095  1.8119
 2210SOL    HW218267   4.250   0.291   8.670 -0.2035 -0.1413 -0.1799
 2211SOL     OW18268   2.033   0.550   1.384  0.2789 -0.2989 -0.2729
 2211SOL    HW118269   1.965   0.491   1.415  1.3805 -1.7676 -0.6574
 2211SOL    HW218270   2.082   0.576   1.462  1.1677  1.1577 -1.3093
 2212SOL     OW18271   0.130   4.568   5.835 -0.1334 -0.1458  0.3842
 2212SOL    HW118272   0.177   4.529   5.909  0.6021  2.5747  1.3500
 2212SOL    HW218273   0.186   4.535   5.764  0.2990 -1.2429  1.2422
 2213SOL     OW18274   1.303   3.175   0.867  0.0619  0.3162  0.3860
 2213SOL    HW118275   1.229   3.207   0.817  0.6528  2.2457  0.7684
 2213SOL    HW218276   1.306   3.232   0.944 -1.8250 -0.5054  1.0662
 2214SOL     OW18277   2.625   0.069   0.027  0.1308 -0.3755 -0.5558
 2214SOL    HW118278   2.578   0.047   0.107 -0.4121 -0.5082 -0.9141
 2214SOL    HW218279   2.710   0.097   0.062  0.8501 -1.1643 -1.6807
 2215SOL     OW18280   0.863   1.336  14.977 -0.6384 -0.4644  0.3905
 2215SOL    HW118281   0.769   1.325  14.987 -1.0621  1.7518 -1.1655
 2215SOL    HW218282   0.866   1.429  14.955  2.0112 -0.6302  0.0716
 2216SOL     OW18283   0.678   3.908   7.313  0.3895  0.3981 -0.6297
 2216SOL    HW118284   0.586   3.932   7.298  0.3921  0.5502 -0.4056
 2216SOL    HW218285   0.723   3.927   7.231  1.3886  1.6247  0.1949
 2217SOL     OW18286   2.995   4.216   3.660 -0.1039 -0.3148 -0.1303
 2217SOL    HW118287   3.002   4.121   3.650  1.4439 -0.2947  0.6259
 2217SOL    HW218288   2.994   4.214   3.756  1.2992  2.4349 -0.0499
 2218SOL     OW18289   3.107   1.932   9.572  0.2815 -0.2815  0.5156
 2218SOL    HW118290   3.019   1.911   9.540 -0.3449  1.9442  0.7793
 2218SOL    HW218291   3.130   2.005   9.514  1.0097 -0.6299  0.3710
 2219SOL     OW18292   2.088   3.392  15.240  0.3925  0.8069 -0.3965
 2219SOL    HW118293   2.041   3.409  15.158  1.3279 -1.5426 -1.4083
 2219SOL    HW218294   2.176   3.415  15.212  0.5832  1.2437  0.5864
 2220SOL     OW18295   2.246   2.485   4.035 -0.4384  0.3996  0.1361
 2220SOL    HW118296   2.233   2.393   4.010 -1.4757  1.1207 -2.0011
 2220SOL    HW218297   2.341   2.497   4.043 -0.3973  0.5466 -0.6073
 2221SOL     OW18298   0.989   1.506   4.450  0.3144 -0.3129  0.0630
 2221SOL    HW118299   1.033   1.542   4.373  0.0498 -0.6056 -0.2259
 2221SOL    HW218300   0.933   1.581   4.469  1.6457  1.2973 -2.3530
 2222SOL     OW18301   3.704   0.896   5.802 -0.4106  0.2978  0.1811
 2222SOL    HW118302   3.783   0.947   5.823 -0.8925  1.2837 -0.3908
 2222SOL    HW218303   3.647   0.972   5.789 -0.5407 -0.1228 -1.5694
 2223SOL     OW18304   2.442   3.269  17.709 -0.2554 -0.9026  0.1976
 2223SOL    HW118305   2.419   3.225   0.034 -0.7465  2.1036  1.6585
 2223SOL    HW218306   2.409   3.209  17.642 -0.8565  0.3972 -0.6672
 2224SOL     OW18307   1.191   2.821  14.082  0.1562 -0.2197  0.0346
 2224SOL    HW118308   1.239   2.884  14.028  0.6144 -1.8406 -1.4943
 2224SOL    HW218309   1.240   2.826  14.164  1.1636 -1.3958 -0.4762
 2225SOL     OW18310   0.717   0.460   9.421 -0.1588  0.4088 -0.2365
 2225SOL    HW118311   0.780   0.518   9.465  1.7868 -1.5935 -0.3906
 2225SOL    HW218312   0.762   0.376   9.414  1.7715  1.4759 -0.6963
 2226SOL     OW18313   1.069   0.365  13.998 -0.0010  0.5537  0.0365
 2226SOL    HW118314   1.104   0.401  14.079 -0.0380  2.0846 -0.6422
 2226SOL    HW218315   1.002   0.308  14.037  1.8293 -0.3107  1.8956
 2227SOL     OW18316   0.191   2.679   5.066  0.0429  0.3092 -0.2326
 2227SOL    HW118317   0.264   2.687   5.128  0.6016 -1.2148 -0.6955
 2227SOL    HW218318   0.119   2.671   5.128 -0.0534  0.5494 -0.3117
 2228SOL     OW18319   2.430   2.139   2.062  0.2962  0.0996 -0.4112
 2228SOL    HW118320   2.504   2.149   2.123  0.5421  1.1027 -0.8771
 2228SOL    HW218321   2.356   2.150   2.121  1.8729  2.5487  1.1082
 2229SOL     OW18322   2.215   0.608   3.431 -0.1486  0.0195  0.0187
 2229SOL    HW118323   2.216   0.532   3.489 -0.9273 -0.1951 -0.2443
 2229SOL    HW218324   2.121   0.615   3.416 -0.0130  1.6280 -0.0224
 2230SOL     OW18325   2.365   3.697   8.759  0.5478  0.0412  0.0306
 2230SOL    HW118326   2.377   3.788   8.786  0.3101  0.5164 -1.4329
 2230SOL    HW218327   2.287   3.669   8.806  0.1550  0.7417 -0.1973
 2231SOL     OW18328   3.693   2.958   5.630 -0.3271  0.5668  0.1751
 2231SOL    HW118329   3.695   3.037   5.577  2.3861  0.6784  0.4540
 2231SOL    HW218330   3.624   2.905   5.589 -0.1403 -0.6933  1.4968
 2232SOL     OW18331   2.184   3.847   3.381 -0.3716  0.6329 -0.0418
 2232SOL    HW118332   2.132   3.785   3.432  1.6344 -1.1782 -0.2156
 2232SOL    HW218333   2.116   3.914   3.369  2.1501  3.1754 -0.1773
 2233SOL     OW18334   4.553   1.547   3.962 -0.2541 -0.7131  0.2533
 2233SOL    HW118335   4.613   1.612   3.928 -0.7973 -0.5972 -0.4778
 2233SOL    HW218336   4.543   1.578   4.052  0.9981  2.4924 -0.7159
 2234SOL     OW18337   3.744   3.874   7.329 -0.1805  0.2398 -0.1684
 2234SOL    HW118338   3.672   3.938   7.329 -0.5012 -0.1180  0.2188
 2234SOL    HW218339   3.807   3.910   7.267  0.9672  3.1638  2.6484
 2235SOL     OW18340   2.735   4.646  10.266  0.5675 -0.2928 -0.0765
 2235SOL    HW118341   2.725   4.629  10.359 -1.0017 -1.3184 -0.4305
 2235SOL    HW218342   2.739   4.557  10.231 -3.5664 -0.6081  0.2013
 2236SOL     OW18343   3.993   0.496  15.826 -0.1212 -0.5539  0.1134
 2236SOL    HW118344   3.916   0.488  15.769  0.0135  0.1898 -0.1743
 2236SOL    HW218345   4.041   0.415  15.804  1.2739  0.9295 -2.2712
 2237SOL     OW18346   1.199   1.198   8.962 -0.6677  0.3685  0.3495
 2237SOL    HW118347   1.211   1.269   9.025 -0.1328  2.3663 -2.0306
 2237SOL    HW218348   1.287   1.161   8.953 -1.0452 -0.3379 -0.4452
 2238SOL     OW18349   3.568   4.150   1.696  1.1878 -0.1308  0.9037
 2238SOL    HW118350   3.582   4.244   1.681  3.2715 -0.7087 -0.7738
 2238SOL    HW218351   3.473   4.144   1.702  0.9881  2.0333  0.1684
 2239SOL     OW18352   0.575   0.572   6.052  0.2364 -0.0959  0.3645
 2239SOL    HW118353   0.497   0.597   6.002 -0.9214  1.5977  3.0179
 2239SOL    HW218354   0.641   0.601   5.989  0.9544 -0.9776  0.7063
 2240SOL     OW18355   2.547   0.750   3.940 -0.2538  0.4249 -0.0463
 2240SOL    HW118356   2.548   0.701   4.022 -2.4868 -1.7253 -1.2866
 2240SOL    HW218357   2.512   0.833   3.972  0.4651  0.4458  0.6705
 2241SOL     OW18358   3.574   0.543   4.082  0.2878 -0.2050 -0.5720
 2241SOL    HW118359   3.593   0.482   4.011 -0.3480  1.3626 -2.0852
 2241SOL    HW218360   3.642   0.532   4.149  1.6176  1.4831 -1.6444
 2242SOL     OW18361   4.623   2.784   1.597 -0.1388 -0.1889 -0.1778
 2242SOL    HW118362   4.607   2.877   1.612 -2.6911 -0.5564 -0.4785
 2242SOL    HW218363   4.657   2.798   1.509  1.4402 -0.5425  0.3819
 2243SOL     OW18364   4.484   2.535   8.337 -0.3163  0.4046 -0.0317
 2243SOL    HW118365   4.476   2.532   8.241  2.4271  0.5933 -0.2599
 2243SOL    HW218366   4.573   2.505   8.356 -0.8631 -1.8862 -1.1670
 2244SOL     OW18367   1.869   2.984   8.597  0.3069  0.1848 -0.4871
 2244SOL    HW118368   1.899   3.072   8.622 -3.7940  1.0443  1.5631
 2244SOL    HW218369   1.891   2.981   8.504  0.3956 -0.2911 -0.4482
 2245SOL     OW18370   3.433   0.918   3.298 -0.3427  0.2040 -0.1476
 2245SOL    HW118371   3.358   0.860   3.283 -0.3631  0.3200 -0.4936
 2245SOL    HW218372   3.428   0.975   3.221 -1.2762 -0.8069 -0.8357
 2246SOL     OW18373   1.924   1.702   4.191 -0.1020  0.3951 -0.7750
 2246SOL    HW118374   1.987   1.725   4.123  1.4258 -1.9268 -0.1271
 2246SOL    HW218375   1.986   1.656   4.247 -0.6711 -0.8894 -1.2090
 2247SOL     OW18376   3.593   1.675  11.326  0.2942 -0.3594 -0.0523
 2247SOL    HW118377   3.618   1.714  11.242  0.1962  2.5803  1.2846
 2247SOL    HW218378   3.660   1.607  11.329 -1.8173 -2.4057  0.5570
 2248SOL     OW18379   1.274   4.497  14.593 -0.0048 -0.4987  0.5320
 2248SOL    HW118380   1.322   4.480  14.512  0.2975 -1.3932  0.9005
 2248SOL    HW218381   1.348   4.522  14.649  0.1355 -1.1643  0.6386
 2249SOL     OW18382   4.340   3.097   0.735 -0.0135 -0.5275  0.1385
 2249SOL    HW118383   4.334   3.035   0.808  1.8991 -0.2714  0.4932
 2249SOL    HW218384   4.248   3.104   0.709 -0.0136  0.9658  0.5534
 2250SOL     OW18385   3.912   1.462   6.199 -0.4955  0.2826  0.1603
 2250SOL    HW118386   3.978   1.499   6.257 -1.0676 -0.3069  1.1898
 2250SOL    HW218387   3.925   1.519   6.123  0.7032  0.5263  0.5524
 2251SOL     OW18388   3.066   4.629  11.246 -0.0958 -0.1084 -0.4142
 2251SOL    HW118389   3.128   4.570  11.204 -0.5477  0.5453 -2.0063
 2251SOL    HW218390   3.011   4.659  11.173  0.7963 -0.4860 -1.2355
 2252SOL     OW18391   3.842   4.518   7.990 -0.4233 -0.1028  0.2427
 2252SOL    HW118392   3.777   4.516   7.920  0.4949  1.4503 -0.6457
 2252SOL    HW218393   3.789   4.552   8.062 -0.5539 -0.3626  0.2701
 2253SOL     OW18394   3.837   1.362   3.836 -0.2626 -0.0942 -0.4034
 2253SOL    HW118395   3.915   1.377   3.889 -1.2727 -1.4509  1.4776
 2253SOL    HW218396   3.796   1.283   3.872  0.8939 -0.0526  1.0352
 2254SOL     OW18397   4.182   3.676   9.081  0.1873  0.0854  0.3203
 2254SOL    HW118398   4.113   3.615   9.107  3.3092 -1.7597  4.3005
 2254SOL    HW218399   4.257   3.617   9.080 -0.5137 -0.7782 -1.2198
 2255SOL     OW18400   2.321   1.299   8.093  0.3586  0.1279  0.3679
 2255SOL    HW118401   2.325   1.204   8.089 -0.2111  0.1326 -0.3253
 2255SOL    HW218402   2.398   1.306   8.150  0.3346 -0.2149  0.4385
 2256SOL     OW18403   1.465   2.621   5.159 -0.6858 -0.1821 -0.6194
 2256SOL    HW118404   1.387   2.575   5.126 -0.5574  1.0817 -2.7198
 2256SOL    HW218405   1.512   2.549   5.201  1.5824  1.5324 -0.2079
 2257SOL     OW18406   3.349   2.805   6.237  0.3935  0.2313 -0.3453
 2257SOL    HW118407   3.260   2.837   6.255 -0.2492 -2.1623  0.6459
 2257SOL    HW218408   3.343   2.716   6.271  0.2670  1.1283  1.9702
 2258SOL     OW18409   0.422   2.237   1.494  0.2884 -0.6629  0.0252
 2258SOL    HW118410   0.466   2.308   1.446 -0.8069  0.1738  0.2493
 2258SOL    HW218411   0.401   2.282   1.575  1.1135  2.5141 -1.5205
 2259SOL     OW18412   3.540   1.456   8.510 -0.0450  0.2933  0.3420
 2259SOL    HW118413   3.497   1.535   8.479  0.8463  0.2225 -1.0717
 2259SOL    HW218414   3.461   1.410   8.540 -0.2525  1.4114  1.5041
 2260SOL     OW18415   2.555   4.680   9.366  0.0595  0.3115  0.1494
 2260SOL    HW118416   2.504   4.677   9.447 -3.1440  1.0502 -1.8010
 2260SOL    HW218417   2.503   0.009   9.324 -2.4411 -0.4654  1.9411
 2261SOL     OW18418   0.706   3.350   1.808 -0.0129  0.1267 -0.5551
 2261SOL    HW118419   0.636   3.331   1.745  0.8192  0.7380 -1.6671
 2261SOL    HW218420   0.782   3.311   1.764 -0.3035  0.1743 -1.1074
 2262SOL     OW18421   4.698   1.449   4.597  0.4207 -0.3097 -0.0134
 2262SOL    HW118422   0.039   1.419   4.554  0.0218 -2.0015  0.4412
 2262SOL    HW218423   4.694   1.383   4.666  0.9413 -0.0563  0.2664
 2263SOL     OW18424   3.180   0.885   8.727  0.4929 -0.3484 -0.3642
 2263SOL    HW118425   3.085   0.887   8.742  0.9024  0.9428  1.9616
 2263SOL    HW218426   3.185   0.945   8.653 -2.2551  0.8256  0.3900
 2264SOL     OW18427   2.662   3.614   7.347  0.0150  0.3500 -0.1681
 2264SOL    HW118428   2.667   3.590   7.440 -0.8527 -2.8193 -0.9215
 2264SOL    HW218429   2.752   3.641   7.328 -0.4111 -0.2385 -2.9984
 2265SOL     OW18430   4.285   1.564   6.882  0.5743 -0.3047 -0.0713
 2265SOL    HW118431   4.317   1.637   6.935 -1.1909  1.3790 -1.3206
 2265SOL    HW218432   4.192   1.562   6.906  0.7270 -1.7614  0.4110
 2266SOL     OW18433   4.260   1.387   6.140  0.2306 -0.0932 -0.5601
 2266SOL    HW118434   4.270   1.332   6.062 -0.2996 -0.1756 -0.5684
 2266SOL    HW218435   4.349   1.390   6.175  0.0960  0.2543 -0.2471
 2267SOL     OW18436   3.026   0.572  14.585 -1.0956 -0.2662  0.0949
 2267SOL    HW118437   2.948   0.588  14.532 -1.1628 -0.2928  0.1883
 2267SOL    HW218438   3.095   0.590  14.520 -0.3987 -0.2135  0.8590
 2268SOL     OW18439   4.162   2.857   2.076  0.1886 -0.1944  0.5496
 2268SOL    HW118440   4.254   2.883   2.067 -0.1808  0.4331 -1.2983
 2268SOL    HW218441   4.112   2.937   2.092  0.1168 -0.4170  1.4431
 2269SOL     OW18442   1.557   3.527   4.175  0.3599 -0.0152 -0.3503
 2269SOL    HW118443   1.635   3.504   4.125  1.1631  0.6997  0.5828
 2269SOL    HW218444   1.591   3.548   4.261 -0.3105  0.9469 -0.3208
 2270SOL     OW18445   4.353   2.938  11.272 -0.0825 -0.0800  0.3656
 2270SOL    HW118446   4.288   3.008  11.261  1.0524  0.9711  0.3376
 2270SOL    HW218447   4.380   2.946  11.363 -2.2695 -1.6908  1.1620
 2271SOL     OW18448   1.590   1.909   6.595 -0.5375  0.8322  0.6010
 2271SOL    HW118449   1.515   1.900   6.536  0.3337 -0.4509 -0.3051
 2271SOL    HW218450   1.572   1.977   6.661  1.6752 -0.2027  2.2538
 2272SOL     OW18451   2.962   1.274   5.132  0.0534  0.3834  0.1656
 2272SOL    HW118452   2.964   1.239   5.043  0.9265  1.1546 -0.1218
 2272SOL    HW218453   3.015   1.354   5.132  0.6228  0.0277 -1.7644
 2273SOL     OW18454   3.891   0.862   7.863  0.5197 -0.0111 -0.3826
 2273SOL    HW118455   3.853   0.803   7.798  0.6170 -1.9682  1.3100
 2273SOL    HW218456   3.909   0.806   7.939 -1.0563  2.5167  1.8676
 2274SOL     OW18457   4.394   1.037  15.977 -0.2241  0.6837  0.1952
 2274SOL    HW118458   4.378   0.961  15.921  1.0992  1.3220 -1.0513
 2274SOL    HW218459   4.315   1.089  15.968 -0.0365  1.0646  0.7501
 2275SOL     OW18460   1.319   0.892  10.130 -0.3821  0.0472 -0.1445
 2275SOL    HW118461   1.344   0.969  10.080 -2.1877  0.4628 -0.3964
 2275SOL    HW218462   1.238   0.867  10.087 -0.5628  0.3717  0.0006
 2276SOL     OW18463   3.356   0.916   9.829  0.1288 -0.0399  0.4696
 2276SOL    HW118464   3.425   0.874   9.776 -1.2328  0.9841 -2.1208
 2276SOL    HW218465   3.281   0.858   9.814 -0.5853  1.0664 -0.2594
 2277SOL     OW18466   1.494   3.517   6.793 -0.2436 -0.1919 -0.4012
 2277SOL    HW118467   1.481   3.609   6.814 -1.0509 -0.1452 -1.0919
 2277SOL    HW218468   1.539   3.487   6.872  0.3896 -0.7105 -0.9563
 2278SOL     OW18469   1.102   2.615   1.164  0.2989  0.5707  0.3946
 2278SOL    HW118470   1.129   2.540   1.110 -0.8652 -0.1546  0.8165
 2278SOL    HW218471   1.031   2.645   1.107 -0.6851 -2.1203  0.2039
 2279SOL     OW18472   1.800   4.200   2.154 -0.5923 -0.3439 -0.3303
 2279SOL    HW118473   1.786   4.231   2.243  0.1196 -1.0497  0.0288
 2279SOL    HW218474   1.746   4.268   2.112  2.4188  3.9828  2.7924
 2280SOL     OW18475   2.892   3.040   1.540  0.5967  0.2923  0.2754
 2280SOL    HW118476   2.986   3.035   1.522  0.7668  1.3242  0.8939
 2280SOL    HW218477   2.888   3.132   1.564  0.8626  0.6048 -0.9116
 2281SOL     OW18478   4.665   0.671   6.360 -0.5171  0.0475 -0.2219
 2281SOL    HW118479   4.576   0.689   6.328 -0.7702  0.4594  0.7194
 2281SOL    HW218480   4.684   0.583   6.327  0.7921 -0.0610  0.8275
 2282SOL     OW18481   2.831   0.861   6.765  0.5378 -0.6110 -0.2346
 2282SOL    HW118482   2.908   0.918   6.770  1.2988 -1.3784 -3.0605
 2282SOL    HW218483   2.759   0.923   6.771  2.6948  1.9498 -0.9053
 2283SOL     OW18484   3.030   1.703   2.403  0.2786 -0.4429  0.1584
 2283SOL    HW118485   3.069   1.778   2.448 -1.8650  0.2255  0.8664
 2283SOL    HW218486   3.112   1.667   2.368  0.3585 -1.4879  1.4177
 2284SOL     OW18487   2.400   2.788  11.203  0.5286 -0.9780  0.4094
 2284SOL    HW118488   2.359   2.762  11.121 -1.1837 -0.2708  1.0260
 2284SOL    HW218489   2.432   2.701  11.229  2.6022  0.1073  1.4475
 2285SOL     OW18490   1.486   1.971   9.617 -0.1841 -0.1191  0.1069
 2285SOL    HW118491   1.495   1.881   9.649 -0.9105 -0.7619 -1.5018
 2285SOL    HW218492   1.391   1.980   9.614 -0.1942 -0.8106 -1.4688
 2286SOL     OW18493   3.499   2.415   8.409 -0.0028  0.0999  0.1565
 2286SOL    HW118494   3.419   2.449   8.448  0.3448 -0.5797  1.4528
 2286SOL    HW218495   3.497   2.470   8.330 -1.4339  1.8789  1.4412
 2287SOL     OW18496   3.645   2.999  12.321  0.4079  0.4373 -0.6719
 2287SOL    HW118497   3.709   3.069  12.313 -0.4790  1.4886  1.5239
 2287SOL    HW218498   3.683   2.938  12.257 -0.6770  1.4577 -2.2778
 2288SOL     OW18499   0.049   3.705   2.757  0.3353  0.1776  0.5056
 2288SOL    HW118500   4.715   3.727   2.701 -1.0889 -2.8016  1.2396
 2288SOL    HW218501   0.088   3.791   2.776 -0.9995  0.7193  0.8074
 2289SOL     OW18502   2.060   0.179   6.342  0.2170  0.0845  0.2136
 2289SOL    HW118503   1.982   0.200   6.290  1.5799  1.3587 -1.2944
 2289SOL    HW218504   2.075   0.263   6.386  1.7231 -0.7121  1.2056
 2290SOL     OW18505   0.439   2.490  10.243  0.2704 -0.3132 -0.4721
 2290SOL    HW118506   0.530   2.518  10.232 -0.9594  3.3160 -1.2512
 2290SOL    HW218507   0.426   2.421  10.178  0.8303 -1.7802  0.9454
 2291SOL     OW18508   2.366   1.088   4.443  0.3650  0.1908  0.1978
 2291SOL    HW118509   2.456   1.108   4.418  1.5196 -5.9576 -0.5935
 2291SOL    HW218510   2.358   1.136   4.525  0.8794  0.8940 -0.1612
 2292SOL     OW18511   2.747   2.052   5.132  0.5370 -0.3391 -0.1498
 2292SOL    HW118512   2.688   2.001   5.187  0.7845  0.0106  0.4521
 2292SOL    HW218513   2.702   2.066   5.049 -1.8630  0.6722  1.3325
 2293SOL     OW18514   1.788   4.621   2.716 -0.3978  0.1477  0.4508
 2293SOL    HW118515   1.731   4.634   2.792 -2.1149 -3.1266 -0.2892
 2293SOL    HW218516   1.860   4.572   2.756 -0.2262 -1.2466 -1.5651
 2294SOL     OW18517   3.332   1.211   9.620  0.5922  0.2494  0.5598
 2294SOL    HW118518   3.398   1.208   9.689 -0.5188 -1.0207  1.5656
 2294SOL    HW218519   3.284   1.287   9.653  0.0370 -0.0479  0.4407
 2295SOL     OW18520   1.849   3.941   2.137  0.4324  0.7038  0.9771
 2295SOL    HW118521   1.842   4.035   2.157 -2.1800  0.9223 -0.9100
 2295SOL    HW218522   1.767   3.909   2.174  0.0843  0.4713  0.0097
 2296SOL     OW18523   2.419   3.810   4.555  0.1923 -0.0193 -0.7202
 2296SOL    HW118524   2.384   3.736   4.505 -1.8210 -0.8794  1.9273
 2296SOL    HW218525   2.484   3.846   4.495  0.2479  0.3721 -0.4277
 2297SOL     OW18526   1.698   0.191   9.122 -0.2456 -0.3771 -0.1480
 2297SOL    HW118527   1.623   0.229   9.076  0.0956  0.5481  0.0583
 2297SOL    HW218528   1.667   0.106   9.152 -2.0066  0.2977 -0.0732
 2298SOL     OW18529   4.465   3.207   7.051 -0.0431  0.0397 -0.0712
 2298SOL    HW118530   4.422   3.288   7.026  0.4673  0.8998  1.8935
 2298SOL    HW218531   4.402   3.147   7.011 -0.3696  1.3183 -1.4818
 2299SOL     OW18532   1.231   3.993   7.707  0.2996  0.0118 -0.5943
 2299SOL    HW118533   1.198   3.925   7.765 -2.2019  1.2249 -0.6121
 2299SOL    HW218534   1.152   4.045   7.692 -0.6671 -1.4977 -0.6257
 2300SOL     OW18535   1.179   2.910   8.331 -0.2144 -0.1372 -0.2134
 2300SOL    HW118536   1.272   2.889   8.333 -0.6843 -2.4043 -1.3063
 2300SOL    HW218537   1.157   2.946   8.416  1.5361 -2.1057  1.0767
 2301SOL     OW18538   4.738   0.387   6.287  0.0162  0.0775  0.5475
 2301SOL    HW118539   0.033   0.349   6.368 -1.6206  1.2037  1.7795
 2301SOL    HW218540   0.075   0.362   6.235  0.5602 -0.1813  1.4727
 2302SOL     OW18541   4.507   0.586   4.112 -0.3762  0.2768 -0.0200
 2302SOL    HW118542   4.592   0.583   4.067 -0.9123  0.1472 -1.0069
 2302SOL    HW218543   4.541   0.584   4.202 -2.5879  0.6525  0.8139
 2303SOL     OW18544   0.765   3.319   4.158  0.0205 -0.7096 -0.1519
 2303SOL    HW118545   0.710   3.272   4.221  0.7719 -0.9858  0.2884
 2303SOL    HW218546   0.842   3.263   4.152  0.9162  0.6314 -1.0354
 2304SOL     OW18547   0.321   2.566   7.228  0.3491 -0.8558 -0.4657
 2304SOL    HW118548   0.386   2.517   7.278  1.1221 -0.5386 -1.1570
 2304SOL    HW218549   0.333   2.526   7.143  2.8357 -1.1834  0.0580
 2305SOL     OW18550   1.470   3.036   3.211  0.7023  0.3308  0.2270
 2305SOL    HW118551   1.530   3.039   3.136 -0.8884 -1.1342 -1.1103
 2305SOL    HW218552   1.433   3.124   3.219 -2.1835 -0.9954  1.1366
 2306SOL     OW18553   1.149   2.693   2.218  0.1071  0.6123  0.3112
 2306SOL    HW118554   1.102   2.699   2.135  0.6958 -0.6651 -0.1106
 2306SOL    HW218555   1.176   2.784   2.227 -0.1423  0.8024 -0.9636
 2307SOL     OW18556   4.435   0.507   2.986 -0.2077 -0.0385 -0.4441
 2307SOL    HW118557   4.344   0.501   2.957 -0.0653 -1.2045 -0.6338
 2307SOL    HW218558   4.427   0.458   3.067 -1.1895  3.0160  1.2863
 2308SOL     OW18559   2.375   0.455   6.885  0.4184 -0.0256 -0.0549
 2308SOL    HW118560   2.388   0.365   6.854  3.1900  0.8922 -1.4961
 2308SOL    HW218561   2.467   0.479   6.875  0.8037 -2.1978 -1.7855
 2309SOL     OW18562   1.001   3.935   4.049  0.0907  0.4359  0.1570
 2309SOL    HW118563   1.073   3.901   4.101  0.6208  1.7059  0.2711
 2309SOL    HW218564   0.950   3.978   4.117 -1.2111  0.1468 -0.6322
 2310SOL     OW18565   3.855   1.029   8.685  0.4203 -0.7082 -0.4935
 2310SOL    HW118566   3.811   1.039   8.770  0.2204  2.5183 -0.9814
 2310SOL    HW218567   3.840   1.118   8.653  0.9368  0.3665  2.2333
 2311SOL     OW18568   3.497   3.506   8.604  0.1297 -0.3655 -0.0029
 2311SOL    HW118569   3.555   3.569   8.646  0.4143 -0.2520 -0.5724
 2311SOL    HW218570   3.546   3.488   8.524  0.3800  2.8692 -0.5513
 2312SOL     OW18571   3.059   3.730   4.733 -0.3743 -0.4791 -0.1562
 2312SOL    HW118572   2.977   3.743   4.685  0.2893  2.9375 -0.3674
 2312SOL    HW218573   3.107   3.790   4.676  1.2500 -0.6956  1.0085
 2313SOL     OW18574   0.826   0.561   4.169 -0.2028 -0.2920 -0.2303
 2313SOL    HW118575   0.819   0.656   4.170  3.6281 -0.0411  2.6904
 2313SOL    HW218576   0.920   0.546   4.175  0.0812  1.3135 -0.7277
 2314SOL     OW18577   0.873   1.524  17.326  0.2957 -0.2654 -0.4091
 2314SOL    HW118578   0.901   1.578  17.400  0.7331 -1.3243  0.1960
 2314SOL    HW218579   0.875   1.440  17.372 -0.4800  0.2944  0.6394
 2315SOL     OW18580   4.726   1.077   9.162 -0.0683  0.0276  0.3908
 2315SOL    HW118581   4.683   1.136   9.224 -2.6277  1.8638 -3.1067
 2315SOL    HW218582   4.714   0.990   9.198  1.8396 -0.7759 -0.9199
 2316SOL     OW18583   2.925   1.247   5.725  0.0500  0.3692 -0.1248
 2316SOL    HW118584   2.877   1.223   5.803 -1.3494  1.9936 -0.4794
 2316SOL    HW218585   2.881   1.318   5.678 -2.0900 -0.8934 -0.0101
 2317SOL     OW18586   0.573   2.954   4.624 -0.2313  0.2531  0.1700
 2317SOL    HW118587   0.639   2.885   4.628 -0.4656  0.1107  1.5303
 2317SOL    HW218588   0.622   3.036   4.630 -1.5657  0.8961  2.2039
 2318SOL     OW18589   3.451   2.406   3.849  0.4732  0.5842 -0.1987
 2318SOL    HW118590   3.382   2.358   3.894 -0.2203  0.5541 -1.2985
 2318SOL    HW218591   3.428   2.378   3.760  1.0462  3.6952 -1.3279
 2319SOL     OW18592   3.818   1.272   8.601  0.3344 -0.3799  0.5321
 2319SOL    HW118593   3.740   1.327   8.606  0.0296 -0.9634  1.9593
 2319SOL    HW218594   3.874   1.316   8.665  3.5044 -0.5243 -2.1069
 2320SOL     OW18595   0.509   4.633   2.153  0.1889 -0.0586  0.2370
 2320SOL    HW118596   0.446   4.658   2.086 -0.4027  0.9107  1.1437
 2320SOL    HW218597   0.541   4.550   2.118 -0.9403 -1.2747  2.0806
 2321SOL     OW18598   3.458   1.435   1.312  0.1693  0.3628 -0.3465
 2321SOL    HW118599   3.552   1.414   1.309 -0.3317 -1.8189 -0.5756
 2321SOL    HW218600   3.426   1.357   1.267 -0.2660 -1.2790  2.8172
 2322SOL     OW18601   4.371   4.720   7.621  0.3430 -0.1733 -0.5338
 2322SOL    HW118602   4.291   4.728   7.673  1.2284 -0.0025  0.7974
 2322SOL    HW218603   4.400   0.071   7.617 -0.6625  0.3020  2.7201
 2323SOL     OW18604   3.289   0.138   6.758  0.2453  0.4075 -0.4563
 2323SOL    HW118605   3.345   0.096   6.692  0.2047 -0.2282 -0.0924
 2323SOL    HW218606   3.313   0.230   6.753 -0.2961  0.5817  0.3387
 2324SOL     OW18607   3.116   3.827   8.629  0.3757  0.4909 -0.2138
 2324SOL    HW118608   3.075   3.822   8.543  2.1508  0.2472 -1.0598
 2324SOL    HW218609   3.131   3.922   8.636  0.2602  0.6476 -2.0121
 2325SOL     OW18610   1.687   2.210   4.980  0.7018  0.2317 -0.7485
 2325SOL    HW118611   1.662   2.123   4.951 -2.5822  0.5217  1.2302
 2325SOL    HW218612   1.757   2.236   4.920  0.6415 -1.4725 -1.5592
 2326SOL     OW18613   1.961   1.333   1.528  0.2433 -0.0722  0.3665
 2326SOL    HW118614   2.047   1.305   1.498  0.9387  0.2532  2.0827
 2326SOL    HW218615   1.969   1.322   1.623  0.0017 -0.7562  0.3140
 2327SOL     OW18616   1.245   3.381  16.901  0.2465  0.1109  0.1264
 2327SOL    HW118617   1.155   3.405  16.926 -1.0067 -2.5338 -1.7803
 2327SOL    HW218618   1.290   3.457  16.937  1.2531 -1.4664  2.1868
 2328SOL     OW18619   1.358   0.833   4.401 -0.3400  0.3594 -0.2128
 2328SOL    HW118620   1.345   0.742   4.376  3.5332  0.2313 -1.6973
 2328SOL    HW218621   1.452   0.824   4.413 -0.4825 -2.7367 -1.3757
 2329SOL     OW18622   0.623   0.438  16.420 -0.4042 -0.1464  0.0858
 2329SOL    HW118623   0.601   0.436  16.513 -2.0535 -0.3491 -0.3231
 2329SOL    HW218624   0.686   0.510  16.417  0.4268 -0.8530  0.4374
 2330SOL     OW18625   4.111   0.837   9.323 -0.5169  0.0042 -0.3704
 2330SOL    HW118626   4.112   0.741   9.319  1.4882 -0.0562  1.4859
 2330SOL    HW218627   4.107   0.851   9.229 -1.6402 -0.5783 -0.4212
 2331SOL     OW18628   0.691   2.393   2.112  0.0659  0.1265  0.7895
 2331SOL    HW118629   0.755   2.334   2.152  0.2352  0.5407  1.1411
 2331SOL    HW218630   0.610   2.396   2.162 -1.6005 -1.8875 -1.7916
 2332SOL     OW18631   2.237   4.473   8.711  0.1433 -0.2485  0.3080
 2332SOL    HW118632   2.304   4.490   8.644  0.1706 -0.5503  0.2585
 2332SOL    HW218633   2.161   4.509   8.665 -0.8826 -1.3016  1.1879
 2333SOL     OW18634   0.065   1.967  14.718 -0.0587  0.2829  0.0662
 2333SOL    HW118635   0.089   2.000  14.631  0.9257 -0.2924  0.1117
 2333SOL    HW218636   4.720   1.930  14.691  0.4067 -0.2561 -0.6745
 2334SOL     OW18637   4.695   1.786   5.860  0.4427  0.0643  0.3024
 2334SOL    HW118638   4.619   1.825   5.903 -0.4237 -1.1203 -0.1366
 2334SOL    HW218639   4.735   1.726   5.923 -1.5288 -1.7271 -0.1280
 2335SOL     OW18640   3.642   2.749   2.308  0.3635 -0.0784  0.1748
 2335SOL    HW118641   3.551   2.724   2.326  0.7178  0.1363  2.3187
 2335SOL    HW218642   3.638   2.844   2.314  1.1846 -0.1568  2.0861
 2336SOL     OW18643   3.442   1.756   4.484 -0.2575 -0.3149  0.0785
 2336SOL    HW118644   3.528   1.730   4.451 -0.3971 -1.4552  0.6105
 2336SOL    HW218645   3.442   1.700   4.562  0.0682  0.0146  0.3171
 2337SOL     OW18646   3.016   1.902  10.716  0.3335 -0.1812  0.2268
 2337SOL    HW118647   2.993   1.903  10.809 -1.2572 -0.4409 -0.1651
 2337SOL    HW218648   2.924   1.894  10.688  0.0602 -2.4566  1.7725
 2338SOL     OW18649   2.133   1.677   2.054 -0.1921  0.4721  0.2223
 2338SOL    HW118650   2.228   1.689   2.057 -0.4162  2.3178  0.3641
 2338SOL    HW218651   2.113   1.755   2.001  1.0750 -0.3642 -1.4798
 2339SOL     OW18652   3.554   1.373   1.758  0.0456 -0.1054 -0.0637
 2339SOL    HW118653   3.544   1.441   1.824 -0.5535 -0.2228 -0.0285
 2339SOL    HW218654   3.566   1.419   1.675  2.0633 -1.4185 -0.4927
 2340SOL     OW18655   1.835   2.328  15.669 -0.4870  0.1869 -0.4550
 2340SOL    HW118656   1.860   2.313  15.578  3.0475  1.2772  0.3436
 2340SOL    HW218657   1.923   2.351  15.700 -0.3626 -1.3457  0.3256
 2341SOL     OW18658   2.459   0.886   5.449 -0.2650  0.3273 -0.1667
 2341SOL    HW118659   2.466   0.981   5.460 -4.0478  0.2050  3.2453
 2341SOL    HW218660   2.529   0.863   5.508  0.4022  0.2941 -0.9691
 2342SOL     OW18661   2.898   3.387   7.286  0.4873 -0.1867 -0.0388
 2342SOL    HW118662   2.987   3.409   7.315  0.9855 -0.4059 -1.3730
 2342SOL    HW218663   2.873   3.355   7.373  1.4563  1.2422  0.7659
 2343SOL     OW18664   3.789   2.574   8.977 -0.1836 -0.2048 -0.5420
 2343SOL    HW118665   3.782   2.479   8.966 -2.5704  0.2425 -2.8420
 2343SOL    HW218666   3.821   2.605   8.892 -0.1505  0.0988 -0.4193
 2344SOL     OW18667   2.224   2.591   0.072 -0.5061 -0.0354 -0.2248
 2344SOL    HW118668   2.265   2.674   0.048  2.3648 -1.4741 -0.3598
 2344SOL    HW218669   2.138   2.586   0.030 -0.7029  2.0299 -0.0389
 2345SOL     OW18670   4.215   1.163  11.429 -0.0884 -0.3227  0.0660
 2345SOL    HW118671   4.309   1.145  11.427 -0.2607 -1.5161  2.0701
 2345SOL    HW218672   4.201   1.181  11.522 -1.6226  0.3010 -0.2806
 2346SOL     OW18673   1.824   4.526   3.732  0.1478  0.0649 -0.1104
 2346SOL    HW118674   1.767   4.512   3.808  0.0648 -3.0333 -0.7559
 2346SOL    HW218675   1.788   4.610   3.703  1.3442  0.6623  0.1360
 2347SOL     OW18676   2.119   1.745  12.591  0.8317  0.0178 -0.1347
 2347SOL    HW118677   2.093   1.817  12.534 -1.1717 -0.2504  0.4609
 2347SOL    HW218678   2.208   1.727  12.559  0.9942  1.3705 -0.4097
 2348SOL     OW18679   1.320   3.059   2.608  0.0734  0.1451  0.3045
 2348SOL    HW118680   1.400   3.026   2.566 -0.0033 -0.3800  0.5608
 2348SOL    HW218681   1.250   2.996   2.591  1.1585 -1.7938  2.8950
 2349SOL     OW18682   3.991   0.440   6.820  0.3986 -0.2651 -0.2728
 2349SOL    HW118683   3.944   0.512   6.862  2.2529  0.0986  1.2034
 2349SOL    HW218684   4.069   0.457   6.873 -1.0883  1.5001  1.3421
 2350SOL     OW18685   4.151   2.286   8.243 -0.2843 -0.0200  0.6997
 2350SOL    HW118686   4.090   2.290   8.317 -3.0716  0.1734 -1.5584
 2350SOL    HW218687   4.116   2.218   8.185  0.0031  0.0515  0.4417
 2351SOL     OW18688   2.588   4.379   3.148 -0.0260  0.4653  0.1437
 2351SOL    HW118689   2.492   4.389   3.151 -0.1572 -0.0871 -1.8978
 2351SOL    HW218690   2.604   4.406   3.238 -1.7244  2.1303 -0.0365
 2352SOL     OW18691   0.249   1.330   7.739  0.0576  0.0059 -0.1039
 2352SOL    HW118692   0.302   1.401   7.776  0.7858 -0.0781 -0.9716
 2352SOL    HW218693   0.293   1.311   7.656 -0.2995 -0.4151 -0.1974
 2353SOL     OW18694   1.626   4.346  13.555  0.5763  0.1261 -0.2122
 2353SOL    HW118695   1.635   4.251  13.541  1.3129 -0.0201  1.2062
 2353SOL    HW218696   1.633   4.379  13.465  1.8035 -0.1030 -0.2027
 2354SOL     OW18697   0.036   0.257  15.774  0.1037 -0.1165 -0.1269
 2354SOL    HW118698   0.084   0.331  15.812  0.0525  0.1111 -0.5113
 2354SOL    HW218699   4.722   0.300  15.707  2.1791  1.2482 -0.8937
 2355SOL     OW18700   4.049   2.530   4.261  0.1399  0.2532  0.0191
 2355SOL    HW118701   3.966   2.552   4.219 -0.3469  0.1282  0.9285
 2355SOL    HW218702   4.025   2.462   4.324  1.1968 -0.8425 -0.7383
 2356SOL     OW18703   1.868   1.249   9.173 -0.8255  0.3917  0.0839
 2356SOL    HW118704   1.909   1.176   9.219 -1.2545 -1.9391 -3.2868
 2356SOL    HW218705   1.930   1.242   9.101 -0.2561 -0.4601  0.6503
 2357SOL     OW18706   0.633   2.673   5.084 -0.0016  0.4761 -0.1411
 2357SOL    HW118707   0.703   2.644   5.143  0.8519  0.3846 -1.1957
 2357SOL    HW218708   0.680   2.743   5.039  1.2709 -0.6225 -0.5386
 2358SOL     OW18709   1.948   0.601   7.708  0.4199  0.3426 -0.3910
 2358SOL    HW118710   1.915   0.687   7.683 -2.6788 -0.8738 -0.5579
 2358SOL    HW218711   1.867   0.550   7.701  0.6461  0.0719 -1.0875
 2359SOL     OW18712   0.785   3.907  13.243 -0.1994  0.3120 -0.4136
 2359SOL    HW118713   0.770   3.889  13.150 -1.2884 -0.5335 -0.0743
 2359SOL    HW218714   0.877   3.883  13.255 -0.2877  1.5278  2.9306
 2360SOL     OW18715   3.929   1.730   1.756 -0.1471 -0.5959  0.2580
 2360SOL    HW118716   3.955   1.638   1.762  1.2111 -0.1184  1.6077
 2360SOL    HW218717   3.972   1.751   1.673 -0.9750 -0.0891 -0.0420
 2361SOL     OW18718   4.407   2.723   6.217 -0.2491 -0.2178 -0.3237
 2361SOL    HW118719   4.503   2.721   6.212 -0.3155 -0.4161 -1.5946
 2361SOL    HW218720   4.389   2.730   6.123 -1.5835  0.5973 -0.0069
 2362SOL     OW18721   3.988   1.113   7.290  0.3321 -0.1999 -0.3801
 2362SOL    HW118722   3.930   1.186   7.271 -2.4487 -1.9335  1.6106
 2362SOL    HW218723   4.009   1.137   7.380  1.6283 -0.1180 -0.7028
 2363SOL     OW18724   1.199   2.310   2.504 -0.2659  0.4613  0.3521
 2363SOL    HW118725   1.194   2.290   2.411  0.3532 -1.8177  0.7920
 2363SOL    HW218726   1.185   2.404   2.497 -2.2459  0.2754  1.6708
 2364SOL     OW18727   3.264   2.911   7.745  0.8285 -0.1722  0.2583
 2364SOL    HW118728   3.265   2.910   7.650  0.7541 -0.7731  0.2632
 2364SOL    HW218729   3.170   2.900   7.761  0.9876 -0.0316  1.3300
 2365SOL     OW18730   1.334   1.037   1.601 -0.1186 -0.3018 -0.1866
 2365SOL    HW118731   1.347   1.096   1.526 -1.0411  0.6074  0.3791
 2365SOL    HW218732   1.239   1.032   1.600 -0.1238 -0.4413  1.2008
 2366SOL     OW18733   0.407   3.696   5.520  0.1902  0.8431  0.1433
 2366SOL    HW118734   0.422   3.700   5.426  1.9567 -2.3449  0.2799
 2366SOL    HW218735   0.474   3.758   5.549  1.9919 -1.4571  0.9520
 2367SOL     OW18736   0.862   3.797   7.927 -0.2793  0.2054 -0.0866
 2367SOL    HW118737   0.905   3.722   7.969 -0.7786 -0.7238 -1.2521
 2367SOL    HW218738   0.775   3.785   7.965 -0.8820  0.2627 -1.4655
 2368SOL     OW18739   1.612   2.537   1.498  0.4247  0.4467  0.4150
 2368SOL    HW118740   1.536   2.555   1.443  1.3845  1.3554 -0.6072
 2368SOL    HW218741   1.648   2.458   1.458  1.3362  0.8181  0.5092
 2369SOL     OW18742   3.760   4.101  12.375 -0.1486 -0.2369 -0.3032
 2369SOL    HW118743   3.790   4.167  12.313 -0.3418  0.2770  0.1510
 2369SOL    HW218744   3.670   4.094  12.342  0.7385 -1.1359 -2.5254
 2370SOL     OW18745   3.016   1.056   9.254  0.6125  0.2497  0.1583
 2370SOL    HW118746   3.035   0.965   9.278  3.1596  1.1121  1.3886
 2370SOL    HW218747   2.944   1.083   9.311  0.5238  0.7016 -0.1623
 2371SOL     OW18748   2.080   3.269  14.780 -0.7908  0.0510  0.5389
 2371SOL    HW118749   2.033   3.343  14.740  0.6935  0.3766 -0.6012
 2371SOL    HW218750   2.016   3.198  14.772 -1.3654  0.8883 -2.5929
 2372SOL     OW18751   4.151   0.046   7.755  0.9957 -0.1635 -0.3077
 2372SOL    HW118752   4.114   0.099   7.685 -0.2067 -2.1065 -1.1491
 2372SOL    HW218753   4.109   0.078   7.835  1.1038  1.1140 -0.7711
 2373SOL     OW18754   3.692   4.521   7.767 -0.0192 -0.0568 -0.0032
 2373SOL    HW118755   3.624   4.565   7.817  0.3028 -0.6603  0.9573
 2373SOL    HW218756   3.719   4.602   7.722 -2.2072  1.5731  1.6215
 2374SOL     OW18757   2.165   2.476  16.543 -0.1004 -0.4781  0.1652
 2374SOL    HW118758   2.171   2.415  16.617  0.1313 -0.0431  0.5025
 2374SOL    HW218759   2.110   2.547  16.576  0.6738 -0.1460  0.7376
 2375SOL     OW18760   3.173   1.382   3.293 -0.0760 -0.0078  0.2412
 2375SOL    HW118761   3.252   1.339   3.259  0.4991  0.5727  0.8522
 2375SOL    HW218762   3.146   1.416   3.208  0.9112  3.5634  1.3681
 2376SOL     OW18763   1.145   0.129   4.418  0.6722 -0.8659  0.1570
 2376SOL    HW118764   1.103   0.059   4.469  0.0317 -1.0210 -0.5854
 2376SOL    HW218765   1.107   0.111   4.332 -0.2472  0.4112  0.2926
 2377SOL     OW18766   1.237   2.515   9.747 -0.2143  0.3274 -0.2605
 2377SOL    HW118767   1.224   2.522   9.652 -0.5629 -0.4734 -0.2674
 2377SOL    HW218768   1.164   2.458   9.771 -0.0676 -0.9378 -2.8447
 2378SOL     OW18769   1.753   4.501   6.870 -0.4107  0.6381  0.3753
 2378SOL    HW118770   1.731   4.422   6.819 -0.7658 -1.4136  3.7339
 2378SOL    HW218771   1.807   4.470   6.943 -1.8804  0.9427  1.5769
 2379SOL     OW18772   0.016   2.911   0.660  0.0224 -0.6232 -0.2529
 2379SOL    HW118773   0.052   2.874   0.579  1.0153 -1.1226  0.4122
 2379SOL    HW218774   0.048   3.001   0.652  0.4286 -0.5995  1.5985
 2380SOL     OW18775   3.139   2.971   4.732 -0.1284 -0.4637  0.1446
 2380SOL    HW118776   3.044   2.958   4.729 -0.3484  0.7510  1.8248
 2380SOL    HW218777   3.134   3.057   4.689  1.5638 -0.5195 -0.1583
 2381SOL     OW18778   1.309   4.129  10.624  0.4896 -0.1622  0.4940
 2381SOL    HW118779   1.251   4.159  10.694 -1.1344  2.0597 -1.8425
 2381SOL    HW218780   1.378   4.194  10.638 -0.2794  0.4555  1.3690
 2382SOL     OW18781   0.606   4.090   0.831 -0.4882 -0.1768  0.1804
 2382SOL    HW118782   0.556   4.141   0.895 -0.4635  1.0080 -0.7490
 2382SOL    HW218783   0.691   4.129   0.848 -0.0212 -1.4810  0.8528
 2383SOL     OW18784   2.256   3.204  15.470 -0.3045  0.1600  0.0017
 2383SOL    HW118785   2.204   3.265  15.417 -2.5196 -2.9478 -1.3498
 2383SOL    HW218786   2.210   3.124  15.446 -1.1557  0.5012  0.5112
 2384SOL     OW18787   0.847   4.323   1.240 -0.3715  0.2431 -0.5526
 2384SOL    HW118788   0.809   4.371   1.313 -0.3038 -1.5313  0.6410
 2384SOL    HW218789   0.891   4.258   1.295 -1.0329 -0.5661 -0.9758
 2385SOL     OW18790   1.374   1.508   2.859  0.1675 -0.5310 -0.3908
 2385SOL    HW118791   1.439   1.525   2.928 -1.3085  0.6238  0.7114
 2385SOL    HW218792   1.331   1.592   2.844  1.2218  0.0449 -0.2259
 2386SOL     OW18793   2.872   3.130  11.223  0.2717 -0.5905  0.4258
 2386SOL    HW118794   2.953   3.170  11.190  0.1542  1.0225  2.0484
 2386SOL    HW218795   2.858   3.050  11.173 -0.4920 -0.0800 -0.1659
 2387SOL     OW18796   1.738   1.551  12.366 -0.7125 -0.8921 -0.1092
 2387SOL    HW118797   1.646   1.528  12.360 -0.6257 -1.6712  1.6647
 2387SOL    HW218798   1.760   1.543  12.273 -1.0252  2.4967 -0.4870
 2388SOL     OW18799   0.217   1.842   8.219  0.1057 -0.2631  0.5802
 2388SOL    HW118800   0.296   1.814   8.266 -0.3115 -1.1511  0.7508
 2388SOL    HW218801   0.213   1.771   8.155 -3.0230 -1.1842  1.8038
 2389SOL     OW18802   1.477   0.127   6.650 -0.4087 -0.1332  0.5306
 2389SOL    HW118803   1.564   0.134   6.610 -0.3569  1.5580  0.9640
 2389SOL    HW218804   1.512   0.102   6.736  0.9461 -0.8309 -0.2257
 2390SOL     OW18805   1.100   0.833   7.505  0.0196 -0.1291 -0.1322
 2390SOL    HW118806   1.171   0.894   7.482 -1.3282  3.0080  4.0531
 2390SOL    HW218807   1.080   0.794   7.420 -0.6298 -0.4722  0.1816
 2391SOL     OW18808   4.021   2.871   2.803 -0.3068 -0.5509 -0.4406
 2391SOL    HW118809   4.094   2.874   2.865  0.3929  0.0676 -1.3071
 2391SOL    HW218810   4.053   2.813   2.734  2.0513 -0.2310  0.3917
 2392SOL     OW18811   3.479   4.306   4.929  0.0125 -0.6496  0.1544
 2392SOL    HW118812   3.388   4.278   4.941  0.5819 -1.2980  2.9705
 2392SOL    HW218813   3.481   4.383   4.985 -3.0589 -0.4768  0.0050
 2393SOL     OW18814   3.018   0.342   7.262 -0.1564  0.2310  0.5154
 2393SOL    HW118815   2.961   0.418   7.257 -0.0936  0.2128 -0.5740
 2393SOL    HW218816   3.105   0.355   7.222  0.3382 -0.5625  1.3386
 2394SOL     OW18817   2.656   1.527   7.664 -0.2117  0.2461 -0.6297
 2394SOL    HW118818   2.688   1.544   7.752  0.5383  1.4655 -1.1424
 2394SOL    HW218819   2.732   1.514   7.607  0.0627  0.9505 -0.4133
 2395SOL     OW18820   3.283   3.938   3.283 -0.2589  0.4902  0.0778
 2395SOL    HW118821   3.228   3.926   3.206 -0.7205  0.7979  0.3584
 2395SOL    HW218822   3.311   4.029   3.279  0.6360  0.1723 -0.6533
 2396SOL     OW18823   1.443   0.865   8.152 -0.5874 -0.6586  0.8463
 2396SOL    HW118824   1.457   0.957   8.172  0.5143  0.1612 -3.6355
 2396SOL    HW218825   1.473   0.851   8.062  2.3512  1.3045  1.5450
 2397SOL     OW18826   1.852   0.357   2.771 -0.3088  0.0014  0.4717
 2397SOL    HW118827   1.935   0.310   2.767 -1.7851 -2.5979  0.3667
 2397SOL    HW218828   1.822   0.327   2.857 -0.4701 -0.2493  0.3287
 2398SOL     OW18829   0.192   3.220   3.178  1.1102  0.1896 -0.4152
 2398SOL    HW118830   0.285   3.240   3.167  1.2410 -0.6065 -0.8202
 2398SOL    HW218831   0.156   3.285   3.118  0.5135  0.0408 -0.2119
 2399SOL     OW18832   3.185   3.995  10.648  0.5740  0.7429 -0.5383
 2399SOL    HW118833   3.247   3.976  10.719  0.5902  2.0531 -0.1963
 2399SOL    HW218834   3.122   3.924  10.640  1.5349 -0.5702  3.3112
 2400SOL     OW18835   3.516   1.559   6.528  0.8762  0.1964  0.1658
 2400SOL    HW118836   3.590   1.560   6.588  0.8350 -1.0774  0.2405
 2400SOL    HW218837   3.497   1.652   6.519 -1.3276 -0.1616  1.0699
 2401SOL     OW18838   1.609   2.835   5.246 -0.4133  0.0138  0.1977
 2401SOL    HW118839   1.687   2.827   5.192 -0.7538  0.2202 -0.3259
 2401SOL    HW218840   1.551   2.766   5.212  0.0033  0.4548 -1.4278
 2402SOL     OW18841   0.307   4.656   4.005 -0.1418 -0.4061 -0.5034
 2402SOL    HW118842   0.221   4.694   3.984 -0.3192 -0.9460 -0.7519
 2402SOL    HW218843   0.309   4.577   3.952  0.5130 -1.1258  0.6006
 2403SOL     OW18844   4.509   0.566   4.927  0.0738  0.6615 -0.1182
 2403SOL    HW118845   4.586   0.585   4.980  0.7686 -0.1412 -0.8391
 2403SOL    HW218846   4.512   0.471   4.937 -0.5632  0.7842  1.2054
 2404SOL     OW18847   4.015   0.981   3.549  0.2140 -0.0047 -0.4599
 2404SOL    HW118848   3.947   0.989   3.616 -1.4772 -0.4861 -2.1309
 2404SOL    HW218849   4.096   0.990   3.601  0.3847 -3.7345 -0.0805
 2405SOL     OW18850   2.364   3.186   5.978  0.2123  0.0981 -0.5755
 2405SOL    HW118851   2.390   3.265   5.930  1.1006 -0.1410 -0.4966
 2405SOL    HW218852   2.362   3.221   6.068 -0.5651 -1.1567 -0.1135
 2406SOL     OW18853   0.890   0.254   7.277 -0.2288  0.1154  0.1447
 2406SOL    HW118854   0.893   0.257   7.181  1.0534 -0.6896  0.1487
 2406SOL    HW218855   0.795   0.245   7.286 -0.1613  0.3126  1.0083
 2407SOL     OW18856   3.215   3.444  12.213 -0.9996  0.0180  0.0019
 2407SOL    HW118857   3.137   3.406  12.172 -0.4967  1.5655 -2.3370
 2407SOL    HW218858   3.181   3.431  12.302 -0.0455 -1.8518  0.0899
 2408SOL     OW18859   3.162   0.675  16.587  0.0313 -0.2274  0.2458
 2408SOL    HW118860   3.137   0.767  16.595  1.6418  0.3066 -0.8232
 2408SOL    HW218861   3.170   0.657  16.681 -0.8154  0.2346  0.4143
 2409SOL     OW18862   2.936   3.743  12.911  0.1091 -0.4222  0.4148
 2409SOL    HW118863   2.973   3.831  12.918  1.3323 -1.0859  2.1513
 2409SOL    HW218864   3.007   3.680  12.921 -1.2852 -2.2161 -0.9116
 2410SOL     OW18865   4.373   1.174   4.793  0.0841  0.3641  0.6205
 2410SOL    HW118866   4.314   1.133   4.855 -0.6631  1.7065  0.8026
 2410SOL    HW218867   4.344   1.138   4.709  2.7547 -0.6993  0.1401
 2411SOL     OW18868   4.041   3.663  15.365 -0.2009 -0.0521 -0.6877
 2411SOL    HW118869   4.066   3.749  15.398 -2.0363 -0.1863  0.9969
 2411SOL    HW218870   3.946   3.672  15.358 -0.1363  1.1690  0.1660
 2412SOL     OW18871   1.068   2.046   4.172  0.1126 -0.3484 -0.5573
 2412SOL    HW118872   1.135   2.056   4.238 -0.7592  1.4676  0.0469
 2412SOL    HW218873   1.109   2.102   4.106 -0.6681 -0.2993 -0.9998
 2413SOL     OW18874   2.765   2.714   7.857  0.0987  0.2985  0.0689
 2413SOL    HW118875   2.729   2.678   7.938  1.2950 -0.2558  0.3604
 2413SOL    HW218876   2.773   2.806   7.884  0.9919  0.2693 -0.0806
 2414SOL     OW18877   4.044   1.010   8.193  0.5038 -0.1466 -0.4563
 2414SOL    HW118878   4.136   1.031   8.208  0.7386 -1.6878  0.2527
 2414SOL    HW218879   4.053   0.918   8.169  0.8499 -0.5133  1.1058
 2415SOL     OW18880   0.584   3.854   4.570  0.0753 -0.4467 -0.0145
 2415SOL    HW118881   0.571   3.867   4.476  1.2200 -0.2712 -0.1584
 2415SOL    HW218882   0.511   3.906   4.603 -1.5312 -0.7565 -3.0991
 2416SOL     OW18883   0.039   0.200   3.301 -0.7922 -0.7517  0.2850
 2416SOL    HW118884   0.102   0.268   3.325 -0.0079 -1.2120 -0.4845
 2416SOL    HW218885   4.696   0.242   3.326  0.4490  0.7216  1.9468
 2417SOL     OW18886   2.971   4.272   5.956  0.5071 -0.4013 -0.3667
 2417SOL    HW118887   3.050   4.218   5.952  2.9172  2.9486  1.9865
 2417SOL    HW218888   3.003   4.337   5.893 -1.0728 -0.7908 -1.5683
 2418SOL     OW18889   3.714   3.931   5.937 -0.7931 -0.5058  0.3701
 2418SOL    HW118890   3.693   3.896   6.024 -0.5181  1.6298  1.3115
 2418SOL    HW218891   3.663   4.011   5.924  1.8337  1.0873 -0.1981
 2419SOL     OW18892   0.446   3.911   4.857 -0.3330  0.4301 -0.0439
 2419SOL    HW118893   0.510   3.938   4.923  2.1738 -2.2327 -1.3589
 2419SOL    HW218894   0.375   3.884   4.915 -0.5493  1.1389  0.0206
 2420SOL     OW18895   0.792   1.786  13.949  0.2627 -0.1154 -0.3011
 2420SOL    HW118896   0.802   1.703  13.901  1.0356  0.7056 -1.5672
 2420SOL    HW218897   0.698   1.794  13.964  0.3783  0.6400 -0.0279
 2421SOL     OW18898   3.553   0.372   4.905 -0.0286  0.3793  0.0206
 2421SOL    HW118899   3.553   0.461   4.871 -0.7883  2.0111  4.3230
 2421SOL    HW218900   3.480   0.330   4.860  0.7875 -1.2716  0.2450
 2422SOL     OW18901   0.348   1.994   4.745  0.0082 -0.3211 -0.4199
 2422SOL    HW118902   0.264   1.972   4.785  0.8075 -2.5767  0.0429
 2422SOL    HW218903   0.337   2.082   4.709  1.9538 -0.2520 -0.8617
 2423SOL     OW18904   3.732   3.385   0.612  0.1834  0.1045  0.4777
 2423SOL    HW118905   3.748   3.311   0.672 -0.2986  0.3455  0.9013
 2423SOL    HW218906   3.822   3.409   0.590  0.1137 -0.8593 -0.8694
 2424SOL     OW18907   0.209   0.898  12.232 -0.1717 -0.5746  0.0127
 2424SOL    HW118908   0.303   0.906  12.247  0.1011  0.0160 -2.0630
 2424SOL    HW218909   0.195   0.894  12.327  0.6022 -0.7066  0.1272
 2425SOL     OW18910   0.533   3.089   2.778 -0.2052  0.0096 -0.3043
 2425SOL    HW118911   0.581   3.112   2.858 -0.3198  2.8454 -1.0476
 2425SOL    HW218912   0.440   3.103   2.798 -0.5023  0.3745 -1.9040
 2426SOL     OW18913   2.317   0.274   7.282 -0.2007 -0.3981  0.5581
 2426SOL    HW118914   2.378   0.242   7.217 -1.0996  0.5421 -0.7571
 2426SOL    HW218915   2.270   0.350   7.247  0.0414 -0.5144 -0.0097
 2427SOL     OW18916   3.627   1.362   0.261 -0.7033  0.3825 -0.1477
 2427SOL    HW118917   3.718   1.388   0.250 -0.6274  1.0342  1.9850
 2427SOL    HW218918   3.616   1.303   0.186 -1.5085 -2.3146  2.0795
 2428SOL     OW18919   4.578   4.428   7.125 -0.1555  0.0476  0.4203
 2428SOL    HW118920   4.534   4.345   7.106  1.9491 -0.9001 -0.2284
 2428SOL    HW218921   4.619   4.449   7.041 -1.4454 -0.0889 -0.2522
 2429SOL     OW18922   4.628   1.532   1.027  0.2014  0.4065 -0.3003
 2429SOL    HW118923   4.569   1.478   0.974 -0.4222 -0.5114  1.3221
 2429SOL    HW218924   4.693   1.464   1.045 -0.1279  0.6589  1.8547
 2430SOL     OW18925   2.383   2.930   5.392  0.3354  0.5106  0.0243
 2430SOL    HW118926   2.330   2.976   5.326  0.3239  0.5881  0.0888
 2430SOL    HW218927   2.321   2.917   5.464  0.5554  2.9073  0.6461
 2431SOL     OW18928   3.207   4.642   3.914 -0.1634 -0.1921  0.3811
 2431SOL    HW118929   3.145   4.594   3.970 -2.2273 -1.0746 -2.6162
 2431SOL    HW218930   3.161   4.725   3.902 -0.5736 -0.6843 -1.4751
 2432SOL     OW18931   1.895   0.723   2.252  0.2537  0.0332  0.0551
 2432SOL    HW118932   1.955   0.715   2.326  0.7918 -0.0812 -0.3848
 2432SOL    HW218933   1.821   0.668   2.275  0.7570 -0.0215  1.5239
 2433SOL     OW18934   0.583   2.200   7.099 -0.1853 -0.5945  0.3252
 2433SOL    HW118935   0.576   2.260   7.025 -1.2729 -0.2716  0.6977
 2433SOL    HW218936   0.663   2.157   7.068 -0.7716 -0.3121 -1.5474
 2434SOL     OW18937   2.020   4.615   6.160 -0.3441  0.9553  0.3458
 2434SOL    HW118938   2.107   4.605   6.123 -0.0842 -0.8530  1.4161
 2434SOL    HW218939   2.028   4.599   6.254  1.6915  1.2491  0.2112
 2435SOL     OW18940   2.921   3.322   4.372  0.2766 -0.6488 -0.2766
 2435SOL    HW118941   2.935   3.362   4.286 -1.6628  1.2963  0.3253
 2435SOL    HW218942   2.913   3.231   4.344 -1.1067  0.0803 -2.2371
 2436SOL     OW18943   0.578   1.145   9.336  0.1033  0.1688  0.6291
 2436SOL    HW118944   0.563   1.104   9.250 -0.6692  0.4732  0.6178
 2436SOL    HW218945   0.628   1.078   9.383 -0.0247 -0.5986 -0.3284
 2437SOL     OW18946   3.276   4.502   6.808 -0.1167  0.0326  0.4993
 2437SOL    HW118947   3.265   4.499   6.713  4.1577 -0.8030  0.0294
 2437SOL    HW218948   3.233   4.586   6.824  1.2770  0.5262  1.6188
 2438SOL     OW18949   0.425   2.808   5.516 -0.4052 -0.3269 -0.1170
 2438SOL    HW118950   0.427   2.788   5.422 -0.9095 -0.8873 -0.0047
 2438SOL    HW218951   0.503   2.762   5.546 -0.2650  1.1079  1.7568
 2439SOL     OW18952   0.253   2.224   0.002  0.4555 -0.1717 -0.1973
 2439SOL    HW118953   0.233   2.150   0.059 -4.0311 -0.6182 -2.3980
 2439SOL    HW218954   0.262   2.170  17.680 -1.1527 -2.4238  1.1749
 2440SOL     OW18955   1.610   0.744   7.977 -0.5741 -0.3000 -0.0201
 2440SOL    HW118956   1.682   0.683   7.993 -2.7727 -2.7303  0.6386
 2440SOL    HW218957   1.599   0.734   7.883  0.8692 -1.1661 -0.0923
 2441SOL     OW18958   2.001   0.767   6.839 -0.4853  0.5545  0.0533
 2441SOL    HW118959   2.021   0.687   6.791 -0.7996  0.6334 -0.2093
 2441SOL    HW218960   1.915   0.742   6.874  0.1332 -1.7231 -0.0733
 2442SOL     OW18961   2.514   2.840   3.894  0.1257 -0.4059  0.3612
 2442SOL    HW118962   2.524   2.892   3.974 -1.3080  1.9176 -0.9747
 2442SOL    HW218963   2.428   2.872   3.867  0.1437  0.1577  0.9545
 2443SOL     OW18964   0.152   1.888   2.578 -0.1031 -0.4486  0.5046
 2443SOL    HW118965   0.127   1.961   2.635  2.9001  1.7673 -1.0382
 2443SOL    HW218966   0.068   1.881   2.534 -0.6491  0.1711  1.4606
 2444SOL     OW18967   3.352   0.542   2.608  0.2040  0.2558 -0.4456
 2444SOL    HW118968   3.347   0.450   2.585 -2.6615 -0.1123  1.7188
 2444SOL    HW218969   3.408   0.585   2.544 -0.0800  1.2059 -0.0590
 2445SOL     OW18970   4.623   2.778   2.861  0.3243 -0.3751 -0.4606
 2445SOL    HW118971   4.692   2.842   2.879 -0.0602 -0.6826  2.1428
 2445SOL    HW218972   4.546   2.834   2.855 -0.7418 -2.0355 -2.3775
 2446SOL     OW18973   2.603   2.983  11.226  0.3727  0.4884  0.1226
 2446SOL    HW118974   2.569   3.014  11.142 -1.0968  1.7554  1.1832
 2446SOL    HW218975   2.551   2.904  11.242 -0.5246  1.3246  1.3151
 2447SOL     OW18976   2.358   2.147   4.294  0.4076 -0.0425 -0.0030
 2447SOL    HW118977   2.307   2.228   4.304  1.4211  0.5530  0.3772
 2447SOL    HW218978   2.285   2.085   4.294  1.6404 -1.4872  1.8939
 2448SOL     OW18979   3.402   4.653   8.230  0.3403  0.0913 -0.1649
 2448SOL    HW118980   3.366   4.672   8.317  0.4498 -0.1786 -0.0607
 2448SOL    HW218981   3.370   4.721   8.171  1.9842 -0.0324 -1.2032
 2449SOL     OW18982   2.327   4.035   9.468 -0.0893  0.0620  0.4313
 2449SOL    HW118983   2.365   3.964   9.417  0.8580  0.0535  1.1497
 2449SOL    HW218984   2.338   3.987   9.550 -4.2675 -2.1697 -0.3040
 2450SOL     OW18985   0.864   2.885   7.461 -0.1690  0.3222 -0.0308
 2450SOL    HW118986   0.876   2.917   7.372  0.7545  0.5365  0.1776
 2450SOL    HW218987   0.778   2.843   7.466  0.0936 -0.2913 -0.7046
 2451SOL     OW18988   1.050   1.954   8.725  0.0784  0.3018  0.3016
 2451SOL    HW118989   1.126   1.976   8.671 -1.4837 -2.0079 -2.8480
 2451SOL    HW218990   0.972   1.982   8.676  0.6456  2.4372  0.6162
 2452SOL     OW18991   2.995   0.339   6.943 -0.0582 -0.4965 -0.0287
 2452SOL    HW118992   3.037   0.422   6.966  2.3473 -1.4156 -1.1582
 2452SOL    HW218993   2.953   0.376   6.866  1.2240  0.3078 -0.3416
 2453SOL     OW18994   0.316   0.772  15.926  0.1424 -0.2870 -0.3635
 2453SOL    HW118995   0.253   0.840  15.948  0.5538 -0.2416  0.6709
 2453SOL    HW218996   0.379   0.818  15.871 -1.4924 -0.2811 -2.2091
 2454SOL     OW18997   0.935   3.246   1.703  0.1600  0.0607 -0.1195
 2454SOL    HW118998   1.024   3.239   1.739 -0.3879 -0.0007  1.2059
 2454SOL    HW218999   0.944   3.178   1.637  1.3550  0.6540 -0.5830
 2455SOL     OW19000   1.988   4.209   4.376 -0.2954 -0.2309  0.2023
 2455SOL    HW119001   2.081   4.230   4.375  0.2366 -2.4498  3.5291
 2455SOL    HW219002   1.954   4.298   4.389  0.1224  0.0673 -0.7413
 2456SOL     OW19003   1.796   3.319   8.236  0.0168  0.0338  0.4209
 2456SOL    HW119004   1.778   3.329   8.143  0.3686  2.1887  0.5642
 2456SOL    HW219005   1.882   3.277   8.237 -0.2814 -0.5240  3.9042
 2457SOL     OW19006   0.507   0.375   9.573  0.0392  0.0356 -0.1573
 2457SOL    HW119007   0.547   0.417   9.497 -1.2749 -0.2395 -0.9984
 2457SOL    HW219008   0.576   0.322   9.613  1.6561  1.3124 -1.2622
 2458SOL     OW19009   3.832   1.893   2.650 -0.0830  0.2681  0.1358
 2458SOL    HW119010   3.849   1.934   2.565 -1.4225  0.7733  0.1027
 2458SOL    HW219011   3.910   1.839   2.659  0.1185  0.2719 -1.5873
 2459SOL     OW19012   3.921   1.388   8.844  0.5374  0.0689  0.1553
 2459SOL    HW119013   3.974   1.319   8.885  0.1060  1.5237  3.1455
 2459SOL    HW219014   3.991   1.448   8.819 -0.8731  0.6636 -2.4533
 2460SOL     OW19015   3.113   3.501   1.516 -0.3143 -0.0918  0.0374
 2460SOL    HW119016   3.172   3.563   1.558 -0.1531  0.7080 -1.3628
 2460SOL    HW219017   3.094   3.451   1.595  1.2628  0.7660  0.9479
 2461SOL     OW19018   2.691   2.243   7.238 -0.1017  0.5979  0.0086
 2461SOL    HW119019   2.627   2.311   7.213 -1.1164 -0.1220  0.6513
 2461SOL    HW219020   2.744   2.243   7.158 -0.4800 -1.4370 -0.2532
 2462SOL     OW19021   2.148   2.187  15.174 -0.0139 -0.0004  0.2872
 2462SOL    HW119022   2.209   2.115  15.188  0.1034 -0.3674 -2.1216
 2462SOL    HW219023   2.132   2.167  15.082  0.5450 -0.5356  0.3066
 2463SOL     OW19024   2.025   0.191   4.383 -0.3619  0.0334 -0.1303
 2463SOL    HW119025   2.022   0.188   4.287  0.0848 -1.1164 -0.1072
 2463SOL    HW219026   2.086   0.263   4.401 -0.4638  0.0013  0.3262
 2464SOL     OW19027   0.136   0.451   7.660 -0.1756 -0.1441 -0.5298
 2464SOL    HW119028   0.137   0.545   7.678 -0.7222 -0.5766  1.7532
 2464SOL    HW219029   0.108   0.453   7.569 -0.6690  1.8786 -0.3247
 2465SOL     OW19030   0.086   0.943   7.547 -0.4063 -0.0414  0.7399
 2465SOL    HW119031   0.107   0.866   7.600 -0.9650  0.8665  2.2993
 2465SOL    HW219032   0.001   0.967   7.585 -1.0260 -1.1667  0.0341
 2466SOL     OW19033   3.597   2.995   7.979  0.1399  0.5938  0.1184
 2466SOL    HW119034   3.529   3.059   8.000  2.2830  2.4124  1.5059
 2466SOL    HW219035   3.662   3.014   8.047  0.8663  2.1626 -1.0025
 2467SOL     OW19036   4.665   1.235   6.929  0.1090 -0.3546  0.7027
 2467SOL    HW119037   4.577   1.251   6.896  1.2045  0.7408 -1.7347
 2467SOL    HW219038   4.656   1.139   6.930  1.7621 -0.5501 -0.7064
 2468SOL     OW19039   4.645   3.330   2.186 -0.0411 -0.4790  0.4739
 2468SOL    HW119040   4.553   3.314   2.165 -0.0991  0.1320  0.2632
 2468SOL    HW219041   4.640   3.406   2.245  0.6570 -0.1561  0.1191
 2469SOL     OW19042   1.934   1.341   7.418  0.1880 -0.1879 -0.3491
 2469SOL    HW119043   2.003   1.288   7.457  1.0457  0.1586 -1.3895
 2469SOL    HW219044   1.859   1.340   7.477 -0.0317  1.6524 -0.5733
 2470SOL     OW19045   1.540   0.014  10.251  0.0146  0.4149 -0.2861
 2470SOL    HW119046   1.475   4.687  10.276 -0.9994  1.2580 -0.6614
 2470SOL    HW219047   1.533   0.067  10.330  1.9286 -1.2423  0.9978
 2471SOL     OW19048   3.858   2.567   5.030  0.4152  0.9651 -0.0523
 2471SOL    HW119049   3.948   2.536   5.040  0.0436  1.0487  3.5403
 2471SOL    HW219050   3.868   2.640   4.968 -0.5329  1.1129 -0.0233
 2472SOL     OW19051   1.272   0.604  17.754  0.0669  0.1124  0.2482
 2472SOL    HW119052   1.257   0.572   0.086  3.0420 -0.6401  0.4810
 2472SOL    HW219053   1.316   0.689   0.001  1.6137 -0.5931 -1.5966
 2473SOL     OW19054   3.349   0.442  15.211  0.1698 -0.3829 -0.6439
 2473SOL    HW119055   3.315   0.405  15.292  1.8068 -2.2685 -0.8395
 2473SOL    HW219056   3.441   0.428  15.230 -0.0487 -0.8335  0.0870
 2474SOL     OW19057   0.448   1.003  12.683  0.3700  0.5017  0.0670
 2474SOL    HW119058   0.445   0.971  12.774  0.0061  0.2841 -0.0199
 2474SOL    HW219059   0.354   1.016  12.668  0.6649  0.3769 -1.8914
 2475SOL     OW19060   4.242   2.348  16.591  0.0139 -0.1818 -0.0473
 2475SOL    HW119061   4.183   2.378  16.660 -0.1929 -3.1939  1.0836
 2475SOL    HW219062   4.229   2.418  16.527  0.0153  1.1535  1.4220
 2476SOL     OW19063   4.082   4.315   8.599  0.2947  0.2950  0.1398
 2476SOL    HW119064   4.176   4.320   8.612  0.3090  1.2028 -0.3486
 2476SOL    HW219065   4.071   4.226   8.566  0.4985 -0.1059  1.1554
 2477SOL     OW19066   2.482   2.611   5.878 -0.4566  0.4505 -0.2444
 2477SOL    HW119067   2.408   2.556   5.855  0.4335 -0.6538 -0.5054
 2477SOL    HW219068   2.457   2.670   5.808 -0.9994  3.1691  2.2347
 2478SOL     OW19069   2.867   1.357   5.362  0.0928  0.5940 -0.6387
 2478SOL    HW119070   2.913   1.328   5.284 -0.3040  1.3551 -1.1585
 2478SOL    HW219071   2.855   1.448   5.335 -2.9469 -0.2460 -2.0674
 2479SOL     OW19072   3.719   1.003   4.463  0.4196 -0.0455  0.9258
 2479SOL    HW119073   3.740   0.957   4.544 -0.7004 -1.6557  0.2977
 2479SOL    HW219074   3.808   1.030   4.438  0.5705 -0.2388  1.2571
 2480SOL     OW19075   4.462   3.535  13.468 -0.5048 -0.5522 -0.2518
 2480SOL    HW119076   4.543   3.503  13.507  1.4975  2.2633 -2.0989
 2480SOL    HW219077   4.405   3.458  13.471 -1.0425 -0.1116  0.5086
 2481SOL     OW19078   2.263   1.259   0.069  0.1317  0.3763  0.0442
 2481SOL    HW119079   2.174   1.226   0.072  0.5066 -0.5954  0.4582
 2481SOL    HW219080   2.280   1.220  17.740 -0.0640 -0.6180  0.4668
 2482SOL     OW19081   0.877   0.613  16.418  0.4021  0.0349 -0.4749
 2482SOL    HW119082   0.937   0.678  16.383 -0.5373  1.0311 -0.2283
 2482SOL    HW219083   0.874   0.640  16.510 -1.0835 -2.3443  0.1766
 2483SOL     OW19084   4.125   2.108   1.676 -0.0314 -0.6186 -0.2483
 2483SOL    HW119085   4.106   2.028   1.628  1.5822 -1.8136  1.1416
 2483SOL    HW219086   4.039   2.137   1.706  1.4261  3.7542 -0.1932
 2484SOL     OW19087   2.463   1.263   4.626 -0.1614  0.1796  0.2089
 2484SOL    HW119088   2.480   1.351   4.592  0.9390  0.0799  0.5108
 2484SOL    HW219089   2.547   1.218   4.636 -0.8898 -1.0739  0.6286
 2485SOL     OW19090   4.675   0.741   7.867  0.1563  0.5244 -0.2911
 2485SOL    HW119091   4.737   0.790   7.921 -0.4632 -0.1246  1.0291
 2485SOL    HW219092   4.720   0.715   7.787 -1.0621  1.4094 -1.2742
 2486SOL     OW19093   3.842   2.108   1.741  0.4227 -0.1300 -0.2676
 2486SOL    HW119094   3.851   2.067   1.828  2.1174  0.6012 -0.0973
 2486SOL    HW219095   3.809   2.038   1.685 -1.2630 -0.2771  0.9063
 2487SOL     OW19096   3.433   2.935   3.183 -0.1880 -0.5936  0.3039
 2487SOL    HW119097   3.457   2.848   3.215 -0.0668 -0.7378 -0.1811
 2487SOL    HW219098   3.521   2.969   3.164 -0.5102 -0.0561 -0.2204
 2488SOL     OW19099   4.524   4.618   8.735  0.2457  0.1560 -0.1167
 2488SOL    HW119100   4.580   4.688   8.702  0.2068 -0.1372 -0.7865
 2488SOL    HW219101   4.460   4.615   8.665 -2.1892  0.4854  2.1034
 2489SOL     OW19102   0.208   3.496  15.403 -0.7691  0.0243  0.1276
 2489SOL    HW119103   0.214   3.420  15.462 -0.2043  0.1607  0.2549
 2489SOL    HW219104   0.150   3.472  15.332  1.1780 -3.4337 -0.3058
 2490SOL     OW19105   3.643   3.731   6.825 -0.4754  0.5071  0.1371
 2490SOL    HW119106   3.730   3.754   6.857 -0.9450  1.7103  0.5260
 2490SOL    HW219107   3.640   3.639   6.854  3.0001  0.9901  2.0664
 2491SOL     OW19108   1.021   0.847   8.500  0.1848  0.0136 -0.0824
 2491SOL    HW119109   1.024   0.928   8.448 -0.0677 -0.9837 -1.6258
 2491SOL    HW219110   1.061   0.875   8.583  1.4926 -4.6200  0.8122
 2492SOL     OW19111   3.140   3.927   4.563 -0.4569 -0.3405  0.2117
 2492SOL    HW119112   3.222   3.958   4.524 -1.9917  1.3673 -1.6529
 2492SOL    HW219113   3.141   3.980   4.643  1.6683  1.3139 -0.9084
 2493SOL     OW19114   3.685   3.996  11.915  0.2912 -0.1551  0.0548
 2493SOL    HW119115   3.779   3.978  11.912  0.1043 -1.1173  0.0700
 2493SOL    HW219116   3.676   4.071  11.856 -0.8664 -0.1351  0.2517
 2494SOL     OW19117   3.489   1.915   9.884  0.1579 -0.1900 -0.3923
 2494SOL    HW119118   3.451   1.862   9.813  0.9947 -0.1187 -0.8927
 2494SOL    HW219119   3.555   1.858   9.925  0.5071  0.8931  0.5433
 2495SOL     OW19120   0.121   1.107   3.559 -0.1948  0.5372 -0.0798
 2495SOL    HW119121   0.184   1.153   3.614  0.6846  1.2044 -1.6435
 2495SOL    HW219122   0.170   1.062   3.490 -2.9744 -2.4062 -0.1251
 2496SOL     OW19123   0.948   0.493  17.435  0.1704  0.1671  0.3312
 2496SOL    HW119124   1.015   0.535  17.488  0.5889  0.8352 -0.7420
 2496SOL    HW219125   0.996   0.470  17.355 -0.4563  1.8218 -0.5129
 2497SOL     OW19126   1.898   4.591   2.060  0.4929  0.4124 -0.4137
 2497SOL    HW119127   1.953   4.545   1.996  0.6577  1.3882 -0.9718
 2497SOL    HW219128   1.913   4.537   2.137  1.5038 -0.4601 -1.2301
 2498SOL     OW19129   3.114   2.763  13.881  0.0803  0.1745  0.6874
 2498SOL    HW119130   3.120   2.850  13.842  1.4287 -0.4920 -0.6011
 2498SOL    HW219131   3.046   2.784  13.945 -1.7596 -1.9860 -0.5561
 2499SOL     OW19132   0.387   4.657   6.930 -0.2145 -1.0074 -0.3507
 2499SOL    HW119133   0.324   4.631   6.997  2.8609 -1.7639  2.2365
 2499SOL    HW219134   0.419   4.738   6.968 -0.4864 -0.7871 -0.5920
 2500SOL     OW19135   3.015   0.880  13.466  1.5855 -0.5531  0.5698
 2500SOL    HW119136   3.110   0.887  13.457  1.6849 -0.6869  1.4946
 2500SOL    HW219137   2.988   0.953  13.410 -1.9227  0.3709  3.4340
 2501SOL     OW19138   3.775   2.888   9.356  0.3003 -0.1089 -0.2676
 2501SOL    HW119139   3.725   2.850   9.429  2.0299 -0.6673  0.6311
 2501SOL    HW219140   3.734   2.853   9.278  0.8284  0.1910 -0.6797
 2502SOL     OW19141   4.181   4.035   2.387 -0.6736  0.3498  0.2024
 2502SOL    HW119142   4.092   4.002   2.399 -0.6752  0.2882  0.0302
 2502SOL    HW219143   4.213   4.019   2.476 -0.8665 -0.3534  0.1474
 2503SOL     OW19144   1.662   2.510   6.272  0.0502 -0.4459  0.0643
 2503SOL    HW119145   1.691   2.601   6.268  1.9999 -1.0661 -0.0471
 2503SOL    HW219146   1.571   2.524   6.296  0.3946  0.5048  0.8174
 2504SOL     OW19147   0.224   1.663  15.254 -0.0709 -0.3150 -0.4648
 2504SOL    HW119148   0.145   1.709  15.283 -0.5466 -2.9315  2.3571
 2504SOL    HW219149   0.281   1.676  15.329 -0.1387  0.2290 -0.5050
 2505SOL     OW19150   1.750   0.510  17.197  0.1785 -0.6382  0.3468
 2505SOL    HW119151   1.747   0.451  17.273  0.3417  0.4957  1.2289
 2505SOL    HW219152   1.705   0.586  17.235 -0.4835  0.0666 -1.8603
 2506SOL     OW19153   3.576   4.658  14.625 -0.1476 -0.2197 -0.0889
 2506SOL    HW119154   3.667   4.668  14.653 -0.8180  1.0484  1.5832
 2506SOL    HW219155   3.591   4.564  14.610  2.9724  0.1487  0.6591
 2507SOL     OW19156   0.225   3.835   5.678  0.9565  0.5788 -0.3590
 2507SOL    HW119157   0.261   3.918   5.710 -1.1887  2.3491 -2.4870
 2507SOL    HW219158   0.289   3.788   5.625 -0.6308 -2.7569  0.7230
 2508SOL     OW19159   0.920   3.881   7.435  0.0869 -0.2087  0.0424
 2508SOL    HW119160   0.938   3.971   7.462 -1.7684 -0.1405  1.0167
 2508SOL    HW219161   0.833   3.889   7.396 -0.2980  1.1937  1.1581
 2509SOL     OW19162   4.354   0.681   6.001 -0.0393 -0.1704  0.3167
 2509SOL    HW119163   4.423   0.745   6.021 -1.2984  0.7505  1.7387
 2509SOL    HW219164   4.300   0.711   6.075 -1.8267 -1.7574 -0.3694
 2510SOL     OW19165   0.322   0.204   9.745 -0.0889 -0.2704  0.6638
 2510SOL    HW119166   0.306   0.145   9.671 -0.0543  0.4625  0.0782
 2510SOL    HW219167   0.364   0.281   9.708 -1.8491  0.1249 -0.5417
 2511SOL     OW19168   4.525   3.694   4.144  0.1162  0.2921  0.0509
 2511SOL    HW119169   4.468   3.758   4.188 -1.1867  0.0727 -1.3026
 2511SOL    HW219170   4.518   3.628   4.213 -0.1789  2.8998  2.5240
 2512SOL     OW19171   0.116   2.041   7.954 -0.0181  0.4874 -0.1821
 2512SOL    HW119172   0.030   2.001   7.967  0.4252  0.2285  1.9806
 2512SOL    HW219173   0.160   1.968   7.911 -0.1067 -0.4191  1.2632
 2513SOL     OW19174   1.073   1.227   1.716 -0.2138  0.4255  0.1477
 2513SOL    HW119175   1.166   1.251   1.719  0.3350 -1.4029 -2.1285
 2513SOL    HW219176   1.068   1.197   1.626 -2.2319 -1.6316  0.9614
 2514SOL     OW19177   3.167   2.966   3.765  0.1075  0.8888  0.1651
 2514SOL    HW119178   3.167   2.938   3.673  0.9378  0.7361  0.2106
 2514SOL    HW219179   3.258   2.949   3.791  0.2061  0.7543 -0.2599
 2515SOL     OW19180   3.665   0.618   6.923  0.2464 -0.1740 -0.4305
 2515SOL    HW119181   3.733   0.647   6.984  0.6409 -3.0562  0.5165
 2515SOL    HW219182   3.689   0.662   6.842 -2.0456 -1.3207 -1.7268
 2516SOL     OW19183   3.205   3.565   8.718  0.2610 -0.1226  0.3997
 2516SOL    HW119184   3.137   3.612   8.669  0.0198 -0.5467  0.3310
 2516SOL    HW219185   3.290   3.590   8.680  0.5936 -3.1870 -0.8071
 2517SOL     OW19186   3.298   1.904   8.170  0.4191 -0.1350 -0.0225
 2517SOL    HW119187   3.342   1.983   8.201  0.7045 -0.4118  0.2738
 2517SOL    HW219188   3.273   1.930   8.081  1.8336  0.7866 -0.1499
 2518SOL     OW19189   1.659   1.427  17.058  0.2913 -0.0790  0.8145
 2518SOL    HW119190   1.581   1.463  17.016  1.1344  0.0487 -0.6374
 2518SOL    HW219191   1.646   1.333  17.051  0.9975 -0.1402  0.3397
 2519SOL     OW19192   2.550   3.129   2.308  0.3152 -0.0011  0.1006
 2519SOL    HW119193   2.587   3.102   2.224  1.5829  1.9102  0.0254
 2519SOL    HW219194   2.467   3.167   2.280 -0.5791 -2.4199 -0.5185
 2520SOL     OW19195   2.553   4.007   4.414  0.8758 -0.2747  0.1977
 2520SOL    HW119196   2.600   4.063   4.475 -1.9788 -0.1358  2.2786
 2520SOL    HW219197   2.589   4.026   4.327  0.0850 -0.1379 -0.1038
 2521SOL     OW19198   3.037   0.944  12.776 -0.0482  0.6222 -0.2234
 2521SOL    HW119199   3.006   1.020  12.825 -1.9979  0.3395 -1.0213
 2521SOL    HW219200   2.953   0.909  12.747  0.9426 -2.1727  0.3176
 2522SOL     OW19201   3.797   1.500   3.512 -0.6302  0.2799 -0.0192
 2522SOL    HW119202   3.737   1.518   3.584 -0.0310  1.0749  0.2758
 2522SOL    HW219203   3.879   1.512   3.560  0.6836 -3.6093 -1.3207
 2523SOL     OW19204   4.630   4.352   1.584  0.0131  0.2327  0.0107
 2523SOL    HW119205   4.572   4.287   1.545  0.3246 -0.7346  1.1744
 2523SOL    HW219206   4.711   4.302   1.585  1.3806  2.4583  1.0811
 2524SOL     OW19207   1.085   0.448  17.194  0.1526  0.0838  0.3028
 2524SOL    HW119208   1.038   0.518  17.149  1.1738 -0.0853 -1.0419
 2524SOL    HW219209   1.174   0.484  17.192 -0.1666  0.8330 -0.5222
 2525SOL     OW19210   1.926   2.441   6.995  0.0280  0.2600 -0.6841
 2525SOL    HW119211   1.954   2.483   7.076 -2.7372  0.9529 -0.1092
 2525SOL    HW219212   1.895   2.356   7.026  0.5468  0.8493  1.4819
 2526SOL     OW19213   2.598   0.205   5.095  0.1584 -0.1238 -0.5031
 2526SOL    HW119214   2.524   0.146   5.107  0.4692 -0.2542  0.7877
 2526SOL    HW219215   2.611   0.212   5.001 -1.6360 -1.1164 -0.8193
 2527SOL     OW19216   3.967   2.646   5.297  0.0301 -0.6396  0.3539
 2527SOL    HW119217   3.935   2.556   5.301  0.5017 -0.7053  2.6852
 2527SOL    HW219218   3.888   2.694   5.323  1.5153  1.4445  1.0610
 2528SOL     OW19219   0.129   0.210   4.304 -0.1095  0.6971 -0.0573
 2528SOL    HW119220   0.046   0.225   4.259  0.1195  1.3274 -0.2562
 2528SOL    HW219221   0.181   0.290   4.302 -3.3269  2.7959  1.4959
 2529SOL     OW19222   0.673   3.377   3.298  0.5881 -0.3090  0.5063
 2529SOL    HW119223   0.745   3.436   3.320 -0.1742  0.9016 -0.2620
 2529SOL    HW219224   0.636   3.367   3.386  0.9635  2.6122  0.9943
 2530SOL     OW19225   4.363   3.661   6.727 -0.0038 -0.0106  0.0009
 2530SOL    HW119226   4.359   3.571   6.759 -3.2686  0.1465  0.0326
 2530SOL    HW219227   4.274   3.683   6.753  0.0207  1.0449 -0.7716
 2531SOL     OW19228   3.676   1.519   8.892 -0.0918  0.3206 -0.1059
 2531SOL    HW119229   3.604   1.470   8.853 -0.1032  0.8715 -0.7880
 2531SOL    HW219230   3.750   1.485   8.841  0.6280  0.4739  0.8346
 2532SOL     OW19231   3.144   2.095   8.465  0.2033 -0.4411  0.4447
 2532SOL    HW119232   3.161   2.174   8.518 -1.7644 -0.4653  1.1173
 2532SOL    HW219233   3.070   2.063   8.516  0.2535 -0.4997  0.4807
 2533SOL     OW19234   1.426   1.542  15.579  0.3341  0.0733 -0.0180
 2533SOL    HW119235   1.518   1.549  15.554  0.0572 -0.0557 -1.0798
 2533SOL    HW219236   1.389   1.515  15.495  1.7262 -0.5590 -0.4170
 2534SOL     OW19237   0.363   4.071   3.862 -0.0868 -0.5185  0.1736
 2534SOL    HW119238   0.300   4.115   3.919 -0.8221 -0.1224 -0.9551
 2534SOL    HW219239   0.301   4.017   3.812  0.2085  0.7862 -1.6180
 2535SOL     OW19240   2.067   2.323   1.162 -0.1040  0.0409 -0.6203
 2535SOL    HW119241   2.033   2.377   1.091  0.6545  1.4270  0.0487
 2535SOL    HW219242   2.158   2.351   1.159 -0.2002  0.4306  0.0265
 2536SOL     OW19243   2.331   4.090   2.637 -0.4081  0.3093  0.1663
 2536SOL    HW119244   2.363   4.170   2.680  0.6038  0.4576 -0.8612
 2536SOL    HW219245   2.384   4.094   2.557 -0.6363 -1.3310 -0.0607
 2537SOL     OW19246   2.602   4.444   5.263  0.3447  0.0352 -0.0109
 2537SOL    HW119247   2.540   4.405   5.324 -1.6847  0.6051 -1.7231
 2537SOL    HW219248   2.589   4.539   5.265 -0.0651 -0.0621  1.5763
 2538SOL     OW19249   0.907   1.842   6.094 -0.8803 -0.0782 -0.5678
 2538SOL    HW119250   0.967   1.835   6.020 -0.6456  2.3820 -0.6036
 2538SOL    HW219251   0.865   1.756   6.086 -0.6663 -0.2228 -0.1228
 2539SOL     OW19252   3.828   2.042   9.190  0.2706 -0.2038 -0.8741
 2539SOL    HW119253   3.775   2.024   9.112 -1.3670  1.8393 -0.2617
 2539SOL    HW219254   3.863   2.130   9.177 -0.3574  0.2413  0.4068
 2540SOL     OW19255   2.448   2.103  10.046  0.1356 -0.3131  0.9726
 2540SOL    HW119256   2.353   2.108  10.036  0.5097 -1.3069 -3.1491
 2540SOL    HW219257   2.463   2.076  10.137 -0.2912  0.9666  1.4247
 2541SOL     OW19258   1.751   0.456   9.518 -0.0560  0.8293 -0.8907
 2541SOL    HW119259   1.771   0.539   9.562 -2.5291  0.2731  1.2710
 2541SOL    HW219260   1.677   0.476   9.460 -2.5883 -0.1532  2.0266
 2542SOL     OW19261   2.003   1.476   8.566 -0.3812  0.2259 -0.1474
 2542SOL    HW119262   2.068   1.418   8.527  1.0435  2.2889 -0.8932
 2542SOL    HW219263   2.010   1.545   8.500 -0.4443 -0.4461 -0.8541
 2543SOL     OW19264   4.604   4.386  14.219 -0.3134 -0.0505 -0.3913
 2543SOL    HW119265   4.600   4.294  14.248  1.0676 -0.1123 -0.4032
 2543SOL    HW219266   4.581   4.385  14.126 -0.6392  1.1992 -0.3195
 2544SOL     OW19267   4.419   2.160   9.084  0.5275  0.7973 -0.0587
 2544SOL    HW119268   4.490   2.104   9.117 -1.4531 -0.3020  2.3180
 2544SOL    HW219269   4.443   2.146   8.993 -0.1753 -0.3420 -0.0722
 2545SOL     OW19270   3.237   4.684   2.944 -0.2977  0.1649 -0.0061
 2545SOL    HW119271   3.279   0.026   2.919 -0.9854  0.8742  1.1278
 2545SOL    HW219272   3.247   4.683   3.040  0.1833 -1.3491 -0.0693
 2546SOL     OW19273   3.239   4.696   7.290 -0.0259  0.1129  0.5186
 2546SOL    HW119274   3.214   4.723   7.202  1.5439  0.0068  0.0488
 2546SOL    HW219275   3.169   4.640   7.322 -0.8360 -0.1574 -1.7057
 2547SOL     OW19276   3.815   0.011   3.248 -0.3799 -0.7197 -0.4279
 2547SOL    HW119277   3.771   0.020   3.163 -1.2048  0.6210  0.1329
 2547SOL    HW219278   3.813   4.656   3.251  1.7379 -0.7866 -0.6814
 2548SOL     OW19279   2.122   1.933   2.279 -0.1380  0.0643  0.0467
 2548SOL    HW119280   2.045   1.927   2.222 -1.6467 -0.1879  2.0702
 2548SOL    HW219281   2.190   1.939   2.213 -1.5036  1.7239 -1.2199
 2549SOL     OW19282   0.061   1.852   6.989  0.5374  0.3798  0.4403
 2549SOL    HW119283   0.067   1.780   6.927 -1.4723 -1.6717  2.6073
 2549SOL    HW219284   4.709   1.880   6.986  0.1525 -0.9756 -0.6636
 2550SOL     OW19285   1.324   0.361   8.301 -0.0503  0.0777 -0.8478
 2550SOL    HW119286   1.268   0.435   8.277 -0.4022  0.2167  0.3974
 2550SOL    HW219287   1.406   0.410   8.301 -0.5580  0.9190 -2.9194
 2551SOL     OW19288   3.271   2.982   2.172 -0.0709 -0.1477 -0.0444
 2551SOL    HW119289   3.323   3.054   2.134 -3.9228  1.6766 -1.8451
 2551SOL    HW219290   3.261   2.997   2.266  1.6917 -0.5672  0.2102
 2552SOL     OW19291   0.448   2.168  10.645 -0.0702 -0.8731  0.4714
 2552SOL    HW119292   0.371   2.193  10.697  0.5408 -1.0482  1.4429
 2552SOL    HW219293   0.512   2.223  10.690  0.4313  0.1508 -1.4844
 2553SOL     OW19294   0.076   3.789   6.691 -0.1156  0.6035 -0.3932
 2553SOL    HW119295   0.146   3.826   6.744 -0.0177  0.5255 -0.4688
 2553SOL    HW219296   0.039   3.729   6.756  2.6185 -1.6435 -0.9434
 2554SOL     OW19297   0.296   0.310   2.879  0.1941  0.5830 -0.8223
 2554SOL    HW119298   0.254   0.274   2.957  0.8196 -0.3630 -0.9285
 2554SOL    HW219299   0.242   0.285   2.804 -1.9228  1.6399  0.3731
 2555SOL     OW19300   0.707   2.638  14.030 -0.2781 -0.2924  0.1382
 2555SOL    HW119301   0.617   2.605  14.038 -0.0118 -1.0067  0.2101
 2555SOL    HW219302   0.722   2.612  13.939 -0.4321  0.5429 -0.1278
 2556SOL     OW19303   4.531   4.693   3.751  0.4599  0.1693 -0.0668
 2556SOL    HW119304   4.456   4.653   3.707  0.5622  0.4952 -0.5361
 2556SOL    HW219305   4.487   0.019   3.805  0.4039 -1.3606  1.7517
 2557SOL     OW19306   0.352   3.578   9.912 -0.3887  0.1853 -0.5378
 2557SOL    HW119307   0.325   3.628   9.989  0.2937 -0.0545 -0.1369
 2557SOL    HW219308   0.369   3.635   9.837  1.9931  1.9059  1.3110
 2558SOL     OW19309   3.358   0.378  10.131  0.4415 -0.2495  0.3408
 2558SOL    HW119310   3.382   0.471  10.132 -1.3889  0.2316  0.4234
 2558SOL    HW219311   3.339   0.353  10.222  3.7646  0.9106  1.3639
 2559SOL     OW19312   4.394   1.100  10.499 -0.3001  0.0766  0.5596
 2559SOL    HW119313   4.449   1.091  10.577 -2.1894  1.4814  2.0749
 2559SOL    HW219314   4.432   1.029  10.448  0.6017  0.1012  1.1955
 2560SOL     OW19315   0.765   2.536   7.923 -0.6165  0.9904  0.0447
 2560SOL    HW119316   0.840   2.526   7.864 -0.0036  1.1905  0.7789
 2560SOL    HW219317   0.789   2.604   7.986  0.8128 -0.8508  1.5016
 2561SOL     OW19318   1.886   1.531  10.398  0.0514 -0.4185 -0.1298
 2561SOL    HW119319   1.929   1.556  10.480  0.6488  0.6216 -0.7515
 2561SOL    HW219320   1.935   1.575  10.328 -0.6637  0.3813 -0.1283
 2562SOL     OW19321   1.732   1.792  17.325 -0.3839 -0.0983 -0.3275
 2562SOL    HW119322   1.728   1.754  17.238  0.1315  1.9536 -1.2337
 2562SOL    HW219323   1.727   1.717  17.385  1.3305  0.0725  0.0214
 2563SOL     OW19324   0.154   0.097   5.751  0.2568 -0.3933 -0.0351
 2563SOL    HW119325   0.082   0.132   5.804  0.9822  0.1631  0.5838
 2563SOL    HW219326   0.140   0.003   5.762 -1.5431  0.0401  1.3294
 2564SOL     OW19327   1.561   4.232   3.797 -0.1332  0.0446  0.0862
 2564SOL    HW119328   1.536   4.145   3.828  3.7462 -0.8822  0.5814
 2564SOL    HW219329   1.646   4.241   3.839  0.2567  0.6213 -0.8174
 2565SOL     OW19330   4.471   4.178   7.186  0.2376 -0.1930  0.1406
 2565SOL    HW119331   4.525   4.113   7.231 -0.4214 -0.3802  0.6655
 2565SOL    HW219332   4.420   4.214   7.259  0.5553 -0.9918  0.7509
 2566SOL     OW19333   0.537   0.690  12.244  0.2175 -0.1281  0.3914
 2566SOL    HW119334   0.507   0.780  12.254  0.6760  0.0483  0.1876
 2566SOL    HW219335   0.549   0.660  12.334  1.3069  0.2918  0.3898
 2567SOL     OW19336   2.501   1.546   8.996  0.3486  0.8038  0.5897
 2567SOL    HW119337   2.414   1.556   9.035  0.3794 -2.2245  1.3734
 2567SOL    HW219338   2.527   1.631   8.960 -0.9004  0.1814 -1.7621
 2568SOL     OW19339   2.790   1.687   6.433 -0.4389  0.3388 -0.0970
 2568SOL    HW119340   2.779   1.747   6.360  2.2294 -1.3047 -1.8734
 2568SOL    HW219341   2.713   1.629   6.428 -1.3376  1.4225  1.1642
 2569SOL     OW19342   4.182   1.616  17.694  0.5851  0.1964 -0.3753
 2569SOL    HW119343   4.221   1.536  17.727  1.8257  1.7729  1.9463
 2569SOL    HW219344   4.089   1.597  17.697  0.1964  2.2136  0.4123
 2570SOL     OW19345   0.717   0.331  12.410 -0.1832  0.0207 -0.2336
 2570SOL    HW119346   0.760   0.258  12.364  0.0661  0.7591 -1.1783
 2570SOL    HW219347   0.645   0.293  12.459 -0.5304 -2.7629 -2.8839
 2571SOL     OW19348   2.413   0.927   4.938 -0.4456 -0.2578 -0.8468
 2571SOL    HW119349   2.355   0.869   4.987 -0.7335  0.5519 -0.2260
 2571SOL    HW219350   2.415   1.004   4.994 -0.8680 -0.2511 -0.8433
 2572SOL     OW19351   2.147   1.717  10.818 -0.0526 -0.2229 -0.1747
 2572SOL    HW119352   2.153   1.770  10.897 -1.8543 -0.3935  0.0935
 2572SOL    HW219353   2.181   1.638  10.859 -0.4144  0.7073  1.9209
 2573SOL     OW19354   4.150   1.773  12.920  0.3514 -0.2985  0.1591
 2573SOL    HW119355   4.218   1.707  12.933 -2.7266 -3.7571 -1.3527
 2573SOL    HW219356   4.080   1.717  12.888 -0.5512  0.8934  0.0221
 2574SOL     OW19357   2.838   3.196  15.410  0.2968  0.1831 -0.0803
 2574SOL    HW119358   2.878   3.277  15.378 -0.4713  0.1032 -1.2827
 2574SOL    HW219359   2.805   3.222  15.496 -0.4775 -2.0361  0.2871
 2575SOL     OW19360   2.674   2.668  15.075 -0.9443  0.0601  0.0252
 2575SOL    HW119361   2.582   2.665  15.050 -0.6834 -1.0846 -0.7571
 2575SOL    HW219362   2.694   2.582  15.113 -0.2426 -0.2214 -0.9850
 2576SOL     OW19363   4.485   0.252   2.362  0.1384  0.7245 -0.1562
 2576SOL    HW119364   4.427   0.247   2.286 -0.4610  1.1003  0.2685
 2576SOL    HW219365   4.546   0.181   2.344 -0.2352  0.3244  0.1415
 2577SOL     OW19366   2.494   2.560   3.976 -0.1250 -0.0792  0.0610
 2577SOL    HW119367   2.510   2.526   3.888 -0.5671 -1.6902  0.6107
 2577SOL    HW219368   2.492   2.655   3.961  0.8131 -0.4115 -2.1402
 2578SOL     OW19369   1.663   0.060   7.253 -0.2511 -0.1350  0.0739
 2578SOL    HW119370   1.662   0.092   7.163  1.0562 -1.5302 -0.4248
 2578SOL    HW219371   1.578   0.016   7.260  0.3230 -0.8479  2.5676
 2579SOL     OW19372   4.270   0.099  17.365 -0.2358  0.3972  0.3423
 2579SOL    HW119373   4.246   0.130  17.278  1.6948  0.9716  0.0156
 2579SOL    HW219374   4.232   0.171  17.415 -1.9235 -0.1344 -0.2005
 2580SOL     OW19375   0.499   2.408  11.021  0.8372 -0.2744  0.3457
 2580SOL    HW119376   0.424   2.425  10.962  0.4194  0.8495  1.1964
 2580SOL    HW219377   0.558   2.354  10.969  1.4744 -0.9925  1.8285
 2581SOL     OW19378   4.299   3.019   5.841  0.5480  0.2966  0.1672
 2581SOL    HW119379   4.251   3.057   5.914 -1.2154 -2.0118  0.2031
 2581SOL    HW219380   4.305   3.088   5.775 -1.0484 -1.8637 -2.2341
 2582SOL     OW19381   2.681   1.505   8.472  0.0085  0.0429 -0.1457
 2582SOL    HW119382   2.693   1.478   8.563  0.7292 -0.1030 -0.2858
 2582SOL    HW219383   2.732   1.586   8.462 -2.2259  1.3507 -1.0613
 2583SOL     OW19384   4.160   2.446   7.274 -0.1461 -0.0267  0.1104
 2583SOL    HW119385   4.208   2.393   7.210 -0.5583  2.0517 -1.9116
 2583SOL    HW219386   4.232   2.476   7.330 -2.6443 -0.3487  3.4690
 2584SOL     OW19387   3.041   4.002  17.753  0.1611  0.0998  0.5654
 2584SOL    HW119388   3.012   4.076   0.049  0.7312  0.0267  0.9744
 2584SOL    HW219389   2.955   3.959  17.750 -0.3427  1.1427  0.2956
 2585SOL     OW19390   1.065   0.397  13.363 -0.2925  0.7934  0.0647
 2585SOL    HW119391   1.016   0.443  13.431 -1.7089  0.9579 -1.0719
 2585SOL    HW219392   1.102   0.326  13.416 -0.7704  1.8257  1.8005
 2586SOL     OW19393   1.778   0.882   7.355  0.2082  0.1460 -0.4115
 2586SOL    HW119394   1.693   0.911   7.390 -1.3753 -1.5998 -2.7546
 2586SOL    HW219395   1.835   0.882   7.432 -0.5335 -1.7249  0.1321
 2587SOL     OW19396   4.732   3.186   7.106  0.0983 -0.0816 -0.5629
 2587SOL    HW119397   4.707   3.121   7.171  2.3452  0.9767  1.3351
 2587SOL    HW219398   4.653   3.181   7.051 -0.2927 -1.1388  0.1043
 2588SOL     OW19399   3.202   1.255   9.924  0.2983  0.3150 -0.1954
 2588SOL    HW119400   3.163   1.288  10.005  1.0324  0.4636  0.0945
 2588SOL    HW219401   3.153   1.173   9.916  1.3892 -0.3842  0.3187
 2589SOL     OW19402   2.320   1.421  12.593 -0.6468 -0.2685  0.1920
 2589SOL    HW119403   2.238   1.382  12.624 -1.9884  1.1038 -1.6327
 2589SOL    HW219404   2.380   1.348  12.610  0.9923  1.2245  0.7674
 2590SOL     OW19405   3.876   3.739   3.757 -0.2748  0.1357 -0.6829
 2590SOL    HW119406   3.854   3.766   3.846 -1.9916  0.9996 -1.3884
 2590SOL    HW219407   3.943   3.798   3.723  0.0215  0.8231  1.0879
 2591SOL     OW19408   4.596   4.684   5.654 -0.7327 -1.1106 -0.2590
 2591SOL    HW119409   4.604   4.645   5.740 -0.4600 -0.6199 -0.0608
 2591SOL    HW219410   4.539   0.020   5.667  3.0184  2.0055 -2.1260
 2592SOL     OW19411   2.256   1.534   1.608 -0.3153 -0.1579 -0.0347
 2592SOL    HW119412   2.216   1.469   1.550 -1.7409  0.0306  0.7327
 2592SOL    HW219413   2.185   1.557   1.667 -0.2272  0.4977 -0.1836
 2593SOL     OW19414   0.753   3.808   6.482 -0.0573 -0.5994  0.1411
 2593SOL    HW119415   0.719   3.775   6.566  0.9043 -1.9137  0.0122
 2593SOL    HW219416   0.727   3.738   6.422 -1.3077 -0.3825  0.4342
 2594SOL     OW19417   3.720   0.123   7.318 -0.1142  0.2946 -0.1611
 2594SOL    HW119418   3.625   0.132   7.312 -0.1090 -0.2063 -1.0626
 2594SOL    HW219419   3.741   0.157   7.231 -1.4302 -2.5083 -1.5975
 2595SOL     OW19420   2.796   2.310  16.044  0.2354  0.2056 -0.1096
 2595SOL    HW119421   2.729   2.284  16.108 -0.9695  0.9226 -1.0894
 2595SOL    HW219422   2.812   2.401  16.068 -1.8570  0.5818 -0.1154
 2596SOL     OW19423   3.579   3.811  11.531 -0.3819  0.1690 -0.5490
 2596SOL    HW119424   3.585   3.726  11.574  0.1691  0.0997 -0.7650
 2596SOL    HW219425   3.522   3.787  11.458  0.1830  0.3027 -1.0318
 2597SOL     OW19426   1.763   1.461   2.517  0.3839 -0.0163 -0.0321
 2597SOL    HW119427   1.667   1.466   2.522  0.1460 -0.8020 -3.3770
 2597SOL    HW219428   1.790   1.462   2.425  3.1018 -1.2327  0.7434
 2598SOL     OW19429   1.324   0.126  12.286 -0.0218 -0.0965 -0.2668
 2598SOL    HW119430   1.355   0.043  12.323  1.9580  0.9579  0.4152
 2598SOL    HW219431   1.377   0.190  12.334 -0.3296 -0.1404  0.1319
 2599SOL     OW19432   1.878   2.210   7.110  0.1855  0.4100 -0.4595
 2599SOL    HW119433   1.811   2.189   7.175 -0.7525 -1.1264 -1.9416
 2599SOL    HW219434   1.878   2.132   7.055 -1.7700  0.4343 -0.4779
 2600SOL     OW19435   1.896   4.328   9.684  0.3900 -0.1433 -0.4480
 2600SOL    HW119436   1.963   4.263   9.704 -0.8450 -1.4159 -0.4556
 2600SOL    HW219437   1.953   4.405   9.683  0.2272 -0.0067  1.5008
 2601SOL     OW19438   4.307   4.343  16.883 -0.1228  0.5856 -0.2589
 2601SOL    HW119439   4.234   4.376  16.935 -0.8159 -1.9141  0.3948
 2601SOL    HW219440   4.326   4.263  16.933  0.0339  0.5281 -0.4099
 2602SOL     OW19441   1.815   2.663   4.653 -0.4584 -0.3591  0.2875
 2602SOL    HW119442   1.792   2.752   4.678 -0.8421 -0.3600 -0.0650
 2602SOL    HW219443   1.739   2.618   4.689 -0.3671 -0.0937  0.8059
 2603SOL     OW19444   2.677   0.465   5.951 -0.1465 -0.6749 -0.2251
 2603SOL    HW119445   2.590   0.427   5.962 -0.9463  1.3478  0.4088
 2603SOL    HW219446   2.661   0.554   5.984 -0.0273 -0.1295 -1.6310
 2604SOL     OW19447   0.442   4.267   8.502  0.2845 -0.1973  0.0831
 2604SOL    HW119448   0.513   4.219   8.459  0.1511  1.9714 -2.5461
 2604SOL    HW219449   0.490   4.344   8.531 -2.6520  1.2223  1.1271
 2605SOL     OW19450   0.710   4.558   5.348 -0.0643 -0.4967  0.4663
 2605SOL    HW119451   0.738   4.533   5.260 -3.1486  0.1748 -0.7110
 2605SOL    HW219452   0.786   4.531   5.399  1.4751  0.5342 -1.3170
 2606SOL     OW19453   0.469   2.729   2.798 -0.1105 -0.0346  0.0485
 2606SOL    HW119454   0.515   2.783   2.863  1.1768  1.4549 -2.0854
 2606SOL    HW219455   0.403   2.681   2.848 -1.0935 -0.5191 -1.7142
 2607SOL     OW19456   3.630   4.464   2.098 -0.4652 -0.5460 -0.6900
 2607SOL    HW119457   3.551   4.511   2.073 -1.4819 -1.6202  0.5350
 2607SOL    HW219458   3.663   4.449   2.009 -1.0695 -0.9366 -0.8420
 2608SOL     OW19459   3.156   3.634   2.167  0.0725  0.0100  0.1268
 2608SOL    HW119460   3.169   3.580   2.245  0.3966  2.5754  1.8340
 2608SOL    HW219461   3.243   3.632   2.129 -0.3210  1.9501 -0.8800
 2609SOL     OW19462   1.227   1.976   1.316  0.4879  0.0717  0.0526
 2609SOL    HW119463   1.236   1.898   1.371  0.0990  0.7363  1.0644
 2609SOL    HW219464   1.211   1.926   1.236  3.1587  1.0015 -1.0751
 2610SOL     OW19465   0.653   4.500   4.692 -0.3067 -0.3916 -0.2065
 2610SOL    HW119466   0.709   4.577   4.678  1.0524 -1.3453  0.0706
 2610SOL    HW219467   0.616   4.501   4.604 -0.2886 -1.6946 -0.2167
 2611SOL     OW19468   4.733   4.060   7.806  0.9506 -0.3312 -0.8686
 2611SOL    HW119469   4.692   4.004   7.740 -2.3867  0.4678  0.5148
 2611SOL    HW219470   4.668   4.130   7.806  1.5363  0.2098 -0.3095
 2612SOL     OW19471   0.153   0.093   1.210  0.8288 -0.4745  0.1227
 2612SOL    HW119472   0.169   0.014   1.260  1.9313 -0.1266  0.3093
 2612SOL    HW219473   0.059   0.106   1.195  1.2712 -1.5485 -3.5463
 2613SOL     OW19474   0.366   3.754   5.967  0.2583 -0.0493  0.5298
 2613SOL    HW119475   0.367   3.826   6.030 -1.0560  2.7022 -2.5562
 2613SOL    HW219476   0.336   3.805   5.891  0.2628  0.5912  0.9553
 2614SOL     OW19477   4.444   3.823   1.326  0.1535 -0.7355  0.1614
 2614SOL    HW119478   4.359   3.790   1.354 -0.8049  0.3533 -1.4825
 2614SOL    HW219479   4.452   3.897   1.387 -1.7138  0.3027 -0.8723
 2615SOL     OW19480   0.263   2.300   4.161 -0.5134 -0.5915 -0.0476
 2615SOL    HW119481   0.311   2.234   4.210 -0.3869 -0.0803  0.5124
 2615SOL    HW219482   0.192   2.251   4.119 -1.4767 -0.0971  1.0175
 2616SOL     OW19483   2.916   4.252   9.022  0.1774  0.2360  0.1125
 2616SOL    HW119484   2.983   4.219   8.962  1.5386  1.7333  0.8350
 2616SOL    HW219485   2.910   4.346   9.005  0.4149  0.0683 -0.9070
 2617SOL     OW19486   1.997   0.064   5.678 -0.1050  0.0135 -0.7490
 2617SOL    HW119487   2.034   4.733   5.626  0.0816 -0.1869 -0.3454
 2617SOL    HW219488   1.935   0.025   5.740 -1.2880 -0.0572 -1.9524
 2618SOL     OW19489   0.252   3.018   5.844 -0.2155  0.7845 -0.7260
 2618SOL    HW119490   0.159   3.013   5.866 -0.1455  0.1487 -0.5813
 2618SOL    HW219491   0.264   2.929   5.810 -0.9406  0.4097 -0.0095
 2619SOL     OW19492   4.129   0.754  17.570  0.1843 -0.1380  0.2107
 2619SOL    HW119493   4.130   0.666  17.608 -2.2196  0.2311  1.1263
 2619SOL    HW219494   4.062   0.804  17.617 -0.8293  0.1891 -1.5787
 2620SOL     OW19495   3.647   2.146   8.724 -0.4348 -0.9691  0.8565
 2620SOL    HW119496   3.713   2.098   8.775 -0.9446 -2.6079 -0.0047
 2620SOL    HW219497   3.674   2.129   8.634 -1.8297  1.5619 -0.0355
 2621SOL     OW19498   1.476   4.421   8.468 -0.3189  0.0570 -0.1228
 2621SOL    HW119499   1.483   4.497   8.410  0.3107 -0.2909 -0.4918
 2621SOL    HW219500   1.532   4.361   8.419 -0.9291 -2.5052  2.3000
 2622SOL     OW19501   4.492   4.669   5.039 -0.1176 -0.5714 -0.0175
 2622SOL    HW119502   4.515   4.733   4.972  1.2347  0.2629  1.2485
 2622SOL    HW219503   4.437   4.731   5.086  2.6322  1.6511  0.2718
 2623SOL     OW19504   3.128   1.348  13.037 -0.1173 -0.2888 -0.4147
 2623SOL    HW119505   3.168   1.395  12.964 -1.4473  0.6684 -0.5224
 2623SOL    HW219506   3.147   1.405  13.111  2.7444 -1.8068  0.0187
 2624SOL     OW19507   4.736   0.636  15.830 -0.0421 -0.3160 -0.2122
 2624SOL    HW119508   4.648   0.660  15.801 -0.1601 -0.9088 -0.3392
 2624SOL    HW219509   4.731   0.675  15.917  1.2569 -0.2806 -0.1554
 2625SOL     OW19510   0.086   4.708   8.204  0.2482 -0.0864 -0.0544
 2625SOL    HW119511   0.066   0.061   8.204 -0.2139 -0.1989  1.8811
 2625SOL    HW219512   0.109   4.698   8.111 -0.9171 -1.2662 -0.2207
 2626SOL     OW19513   2.049   0.631  10.072  0.1510 -0.5255 -0.4764
 2626SOL    HW119514   2.048   0.588  10.157 -2.1549 -2.8281 -1.6891
 2626SOL    HW219515   1.970   0.685  10.073 -1.6759 -3.2647  0.9851
 2627SOL     OW19516   3.255   1.622  16.973  0.4182  0.1653 -0.4405
 2627SOL    HW119517   3.277   1.715  16.977 -1.0606  0.4469  1.3516
 2627SOL    HW219518   3.265   1.600  16.881 -0.4500 -1.4762 -0.1366
 2628SOL     OW19519   1.810   1.051   5.060 -0.6235  0.0940  0.2106
 2628SOL    HW119520   1.897   1.081   5.036 -1.0241  1.2227  0.2041
 2628SOL    HW219521   1.800   0.982   4.994  1.7104 -1.3666  1.3875
 2629SOL     OW19522   1.822   2.685  17.283  0.5088 -0.0243 -0.2207
 2629SOL    HW119523   1.773   2.757  17.245  0.5702 -1.1453 -2.4138
 2629SOL    HW219524   1.864   2.656  17.202 -0.0637 -2.0990  0.2374
 2630SOL     OW19525   2.028   3.802  16.936  0.0849  0.3286  0.1785
 2630SOL    HW119526   2.087   3.866  16.896  0.4052 -0.2337 -0.2638
 2630SOL    HW219527   2.007   3.844  17.019 -0.7595 -0.6341  0.4502
 2631SOL     OW19528   2.407   4.576   0.028  0.1013  0.3244 -0.8678
 2631SOL    HW119529   2.334   4.621   0.071 -1.1463 -1.7004 -0.8696
 2631SOL    HW219530   2.474   4.644   0.025  1.1533 -0.7441 -1.3898
 2632SOL     OW19531   2.692   3.503   6.622  0.8375 -0.0423 -1.0040
 2632SOL    HW119532   2.619   3.447   6.650  0.0581  0.5201 -1.9303
 2632SOL    HW219533   2.729   3.504   6.710  3.1750 -0.6903 -1.9593
 2633SOL     OW19534   3.244   3.727   7.557 -0.1710 -0.0312  0.0324
 2633SOL    HW119535   3.188   3.805   7.562 -3.4315 -2.3713 -0.3560
 2633SOL    HW219536   3.180   3.670   7.598  0.9368 -0.5157  1.1090
 2634SOL     OW19537   2.092   2.497  17.354 -0.6023  0.0189 -0.1034
 2634SOL    HW119538   2.035   2.432  17.313 -0.0551 -0.3716 -0.2330
 2634SOL    HW219539   2.066   2.479  17.445 -0.3457  0.0773 -0.0178
 2635SOL     OW19540   4.518   2.592   4.581 -0.4342  0.1167  0.6977
 2635SOL    HW119541   4.505   2.666   4.521 -1.5966 -0.8091 -0.1821
 2635SOL    HW219542   4.611   2.602   4.600 -0.1265 -1.3514 -0.0990
 2636SOL     OW19543   1.676   4.277  11.905  0.7922 -0.2193 -0.5445
 2636SOL    HW119544   1.685   4.184  11.926 -1.4313 -0.1456  0.7509
 2636SOL    HW219545   1.759   4.310  11.939  1.6387  0.4399 -3.2683
 2637SOL     OW19546   3.668   3.370   5.812  0.0798  0.1787 -0.1266
 2637SOL    HW119547   3.635   3.450   5.855  3.0949  1.1691  0.3385
 2637SOL    HW219548   3.719   3.329   5.882  0.2873  0.1898 -0.2713
 2638SOL     OW19549   3.275   3.714   9.265  0.0744 -0.1405 -0.1854
 2638SOL    HW119550   3.220   3.639   9.287 -0.1331 -1.3813 -5.0127
 2638SOL    HW219551   3.209   3.782   9.250  0.8944  1.3153  2.8267
 2639SOL     OW19552   4.533   0.310   6.727 -0.7363  0.2160 -0.6018
 2639SOL    HW119553   4.479   0.280   6.801 -1.2216  0.6295 -0.7847
 2639SOL    HW219554   4.471   0.374   6.692 -0.9925  0.5955  0.5430
 2640SOL     OW19555   4.532   2.505   5.786 -0.0474  0.0590 -0.4013
 2640SOL    HW119556   4.559   2.474   5.872  1.4799  0.1138 -0.8534
 2640SOL    HW219557   4.498   2.592   5.806 -0.1010 -0.2507  0.8513
 2641SOL     OW19558   4.015   2.780   4.854 -0.1824  0.1753 -0.2106
 2641SOL    HW119559   3.963   2.845   4.902  0.3790  0.7720 -0.4243
 2641SOL    HW219560   4.094   2.773   4.908 -0.2921 -0.9549 -0.2002
 2642SOL     OW19561   1.901   1.128   2.486  0.3043  0.8510  0.7221
 2642SOL    HW119562   1.950   1.198   2.444  0.2207  0.7377  0.4368
 2642SOL    HW219563   1.820   1.169   2.517 -1.4244 -1.3098 -0.9011
 2643SOL     OW19564   0.374   2.764   8.100  0.4881 -0.3231  0.2458
 2643SOL    HW119565   0.329   2.691   8.142  1.1331 -1.1686 -0.5306
 2643SOL    HW219566   0.449   2.768   8.159  0.4998  1.9369  0.0570
 2644SOL     OW19567   0.082   1.935   4.838 -0.2467  0.1525 -0.6322
 2644SOL    HW119568   0.047   1.961   4.923  1.3069 -1.4214  0.4801
 2644SOL    HW219569   0.003   1.922   4.785 -0.6366 -1.0605  0.2676
 2645SOL     OW19570   4.540   1.338   7.866 -0.1603 -0.0853 -0.4158
 2645SOL    HW119571   4.501   1.404   7.923  3.1180  3.4012 -2.2541
 2645SOL    HW219572   4.476   1.320   7.797  0.4104  0.4141 -1.0800
 2646SOL     OW19573   2.557   1.211   3.993  0.3747 -0.5124  0.7440
 2646SOL    HW119574   2.640   1.246   3.961 -0.0276 -0.8719 -0.6565
 2646SOL    HW219575   2.557   1.231   4.087  0.2832  0.5947  0.5165
 2647SOL     OW19576   2.192   3.553   1.936 -0.4824  0.2555 -0.2310
 2647SOL    HW119577   2.249   3.629   1.942 -1.4385  1.1503 -2.2066
 2647SOL    HW219578   2.232   3.502   1.865 -2.2234 -1.2404 -0.1436
 2648SOL     OW19579   4.352   2.160   3.923 -0.9374  0.6611  0.4418
 2648SOL    HW119580   4.430   2.168   3.868 -0.6174  2.5529  1.1653
 2648SOL    HW219581   4.329   2.251   3.942 -2.3565  0.1983  0.9075
 2649SOL     OW19582   1.292   3.043  13.992  0.5999  0.0322 -0.0877
 2649SOL    HW119583   1.372   3.027  14.040  0.6076 -1.8521 -0.7328
 2649SOL    HW219584   1.321   3.055  13.901  2.6368  1.5715  0.7973
 2650SOL     OW19585   3.144   1.581  13.624  0.0529  0.0329  0.4720
 2650SOL    HW119586   3.105   1.607  13.541 -0.5072 -0.2421  0.6532
 2650SOL    HW219587   3.077   1.523  13.661  1.4214 -1.5224  0.5069
 2651SOL     OW19588   0.361   4.257   7.152 -0.7222 -0.1383 -0.0553
 2651SOL    HW119589   0.280   4.236   7.198 -0.4920  1.8865  1.2696
 2651SOL    HW219590   0.375   4.351   7.165  1.4171 -0.6568  1.2902
 2652SOL     OW19591   1.208   1.374   3.941  0.1617  0.0224 -0.4100
 2652SOL    HW119592   1.128   1.418   3.914  0.8176  0.7250 -1.2240
 2652SOL    HW219593   1.177   1.285   3.927  1.9967 -0.7585  0.4868
 2653SOL     OW19594   1.795   0.872  15.024  0.1075  0.0706 -0.8064
 2653SOL    HW119595   1.857   0.944  15.033 -0.6378  0.5774  0.1789
 2653SOL    HW219596   1.845   0.794  14.999  2.2262  1.6146 -1.3288
 2654SOL     OW19597   4.006   1.795  12.517  0.1813 -0.0320 -0.7943
 2654SOL    HW119598   3.942   1.811  12.587 -1.1445  0.3223 -2.0931
 2654SOL    HW219599   3.980   1.858  12.450 -2.2284 -0.0723  0.0835
 2655SOL     OW19600   1.231   3.445   1.540  0.3333 -0.5164 -0.6550
 2655SOL    HW119601   1.292   3.390   1.590 -0.7515  0.5225  1.7803
 2655SOL    HW219602   1.195   3.379   1.481 -1.0529  0.7328 -1.2055
 2656SOL     OW19603   3.748   1.191  11.437  0.2523 -0.2124  0.5695
 2656SOL    HW119604   3.772   1.108  11.479  0.7859 -0.4549 -0.2177
 2656SOL    HW219605   3.761   1.255  11.507 -0.2286 -1.6285  1.9472
 2657SOL     OW19606   2.153   0.282  16.829 -0.0698 -0.0970  0.6313
 2657SOL    HW119607   2.091   0.326  16.771  0.7535  0.1025 -0.0935
 2657SOL    HW219608   2.156   0.195  16.789 -1.9369 -0.3458  1.0398
 2658SOL     OW19609   3.601   3.107   7.056 -0.1285  0.2259  0.1381
 2658SOL    HW119610   3.526   3.050   7.040 -2.3985  3.9836 -2.5351
 2658SOL    HW219611   3.628   3.115   6.965  1.1775 -0.6692  0.4507
 2659SOL     OW19612   0.805   2.619   5.311 -0.0282  0.2601 -0.3777
 2659SOL    HW119613   0.866   2.673   5.260  0.4585  1.5169  1.5288
 2659SOL    HW219614   0.822   2.536   5.266 -1.2411  0.8870 -1.9428
 2660SOL     OW19615   1.864   1.767   7.596 -0.3531  0.2621 -0.4638
 2660SOL    HW119616   1.913   1.740   7.518  1.9307 -0.5560  1.2594
 2660SOL    HW219617   1.928   1.820   7.643  1.4308 -2.7913  0.5874
 2661SOL     OW19618   2.626   4.469   8.845  0.4298  0.6889 -0.1026
 2661SOL    HW119619   2.551   4.486   8.902 -1.7621 -1.6025 -2.2397
 2661SOL    HW219620   2.692   4.512   8.899  1.4078 -0.2295 -0.5579
 2662SOL     OW19621   1.076   1.037   2.367  0.0170  0.1508 -0.0071
 2662SOL    HW119622   1.153   1.013   2.316 -0.6769 -0.5471 -0.7394
 2662SOL    HW219623   1.101   1.115   2.415  1.6354 -2.1086  2.8373
 2663SOL     OW19624   0.543   1.133   2.674 -0.1888 -0.2100 -0.6005
 2663SOL    HW119625   0.473   1.074   2.700  0.6506 -0.1703  1.6826
 2663SOL    HW219626   0.483   1.203   2.646  1.1952  1.0582 -0.3759
 2664SOL     OW19627   2.509   0.073   9.737  0.3685  0.4252  0.5132
 2664SOL    HW119628   2.499   0.127   9.815  4.1788  1.4100  0.3075
 2664SOL    HW219629   2.602   0.085   9.719  0.1044 -1.1076 -1.9212
 2665SOL     OW19630   1.235   3.538   5.110  0.0244 -0.4097  0.2630
 2665SOL    HW119631   1.247   3.617   5.163  1.8364 -0.2735 -0.3476
 2665SOL    HW219632   1.171   3.490   5.162 -0.8821 -0.8967 -1.2963
 2666SOL     OW19633   1.141   0.867   8.748 -0.3370 -0.3686 -0.1078
 2666SOL    HW119634   1.085   0.929   8.794  1.8598  1.8577 -0.4368
 2666SOL    HW219635   1.191   0.834   8.822  0.8109  0.2433 -0.6151
 2667SOL     OW19636   2.395   3.696  16.565  0.5211  0.0015 -0.4831
 2667SOL    HW119637   2.377   3.790  16.560 -1.1424 -0.3902 -2.1786
 2667SOL    HW219638   2.374   3.667  16.654 -0.4787  1.1314 -0.3496
 2668SOL     OW19639   2.986   2.061   2.321  0.3542  0.0715  0.0161
 2668SOL    HW119640   2.958   2.062   2.229  0.4168 -1.7686 -0.0279
 2668SOL    HW219641   3.052   2.130   2.310  0.8910 -0.0651  2.5608
 2669SOL     OW19642   1.520   2.669  12.213 -0.1184 -0.4942  0.2371
 2669SOL    HW119643   1.505   2.628  12.298  0.6776 -0.8616  0.1946
 2669SOL    HW219644   1.534   2.759  12.243  1.1257  0.3379 -2.7684
 2670SOL     OW19645   3.166   1.780   2.816  0.3132 -0.4019  0.2323
 2670SOL    HW119646   3.163   1.832   2.736 -0.3811 -0.4168  0.2479
 2670SOL    HW219647   3.245   1.728   2.804  2.3346  1.6771  4.4659
 2671SOL     OW19648   2.379   1.899   2.183 -0.6010  0.4533 -0.3669
 2671SOL    HW119649   2.385   1.824   2.242 -1.1192  0.1342 -0.7174
 2671SOL    HW219650   2.464   1.890   2.139 -0.3031  1.2564  0.0437
 2672SOL     OW19651   2.330   3.956   8.813  0.0759 -0.4264 -0.1599
 2672SOL    HW119652   2.292   3.959   8.900  1.7466 -1.7584  0.6276
 2672SOL    HW219653   2.320   4.048   8.788 -1.5706 -1.5287 -3.5187
 2673SOL     OW19654   3.313   0.087   5.532  0.1992  0.1567  0.1114
 2673SOL    HW119655   3.400   0.105   5.569 -0.2443 -2.1693  2.2707
 2673SOL    HW219656   3.345   0.095   5.442 -2.1399 -0.0353 -0.7272
 2674SOL     OW19657   2.109   3.029  17.623 -0.3468  0.0660  0.0668
 2674SOL    HW119658   2.037   3.035  17.685 -1.7036 -1.3562 -1.3573
 2674SOL    HW219659   2.083   2.942  17.592 -0.4156 -1.1781  3.5430
 2675SOL     OW19660   1.326   4.483   4.892  0.2826 -0.4394 -0.1003
 2675SOL    HW119661   1.271   4.520   4.823 -1.9075  0.0046  1.8854
 2675SOL    HW219662   1.274   4.410   4.923 -0.4218  0.8992  1.8456
 2676SOL     OW19663   2.341   4.180   8.232 -0.0870  0.6650 -0.4223
 2676SOL    HW119664   2.352   4.126   8.310 -2.2735  0.6870 -0.0876
 2676SOL    HW219665   2.429   4.217   8.227  0.1507  0.4317  1.8827
 2677SOL     OW19666   1.347   2.587  15.533 -0.0318 -0.3617  0.3620
 2677SOL    HW119667   1.423   2.643  15.519 -0.2312 -0.5148 -1.3485
 2677SOL    HW219668   1.389   2.501  15.539  2.5297  0.8151 -0.7582
 2678SOL     OW19669   1.645   3.283   0.693 -0.4018  0.4141 -0.2029
 2678SOL    HW119670   1.563   3.306   0.649  0.4156  0.4970 -1.6798
 2678SOL    HW219671   1.626   3.190   0.701 -1.1533  0.5753 -0.1241
 2679SOL     OW19672   0.900   0.262   4.653 -0.1220 -0.2055  0.7070
 2679SOL    HW119673   0.919   0.297   4.565 -0.2272 -1.5838  0.1386
 2679SOL    HW219674   0.929   0.334   4.708 -1.9697 -0.4681  2.0214
 2680SOL     OW19675   1.037   1.757   2.132 -0.2677  0.1372 -0.5090
 2680SOL    HW119676   0.988   1.719   2.205 -2.9103  2.0354 -1.3413
 2680SOL    HW219677   1.072   1.672   2.103  0.7496  0.6222 -0.6969
 2681SOL     OW19678   3.699   2.448   3.994  0.1686  0.2796 -0.2795
 2681SOL    HW119679   3.625   2.420   3.940  0.3022 -1.3875  0.3901
 2681SOL    HW219680   3.686   2.542   4.003  1.2985  0.3982  0.0853
 2682SOL     OW19681   0.384   3.094  12.009  0.9585 -0.2471  0.5735
 2682SOL    HW119682   0.300   3.137  12.026  2.6030  2.5517  1.5208
 2682SOL    HW219683   0.438   3.172  12.001 -0.6236  0.7459 -0.4184
 2683SOL     OW19684   2.541   0.261   3.245 -0.0311  0.0665  0.0482
 2683SOL    HW119685   2.612   0.285   3.304  1.0332 -1.3874 -0.6832
 2683SOL    HW219686   2.578   0.220   3.167 -2.2625 -1.1275 -0.3931
 2684SOL     OW19687   3.598   1.217   9.142  0.6873  0.4904 -0.7682
 2684SOL    HW119688   3.525   1.157   9.127  0.9835  0.1618 -0.8895
 2684SOL    HW219689   3.656   1.159   9.190 -0.6962 -0.1178  0.1441
 2685SOL     OW19690   1.796   2.754   9.277 -0.1064 -0.3532 -0.5305
 2685SOL    HW119691   1.723   2.710   9.320  0.5118  1.7223  2.6776
 2685SOL    HW219692   1.794   2.833   9.332  0.9846 -0.1005 -0.8514
 2686SOL     OW19693   2.974   1.800   1.113 -0.3883 -0.1205 -0.0961
 2686SOL    HW119694   2.917   1.867   1.150  1.0206  0.9572  0.1232
 2686SOL    HW219695   2.914   1.725   1.115  1.6593 -1.7762 -0.3352
 2687SOL     OW19696   1.084   3.304   0.780 -0.0391 -0.3466  0.4441
 2687SOL    HW119697   0.997   3.269   0.759 -1.0683  1.8745  0.9831
 2687SOL    HW219698   1.081   3.383   0.726 -0.1932 -1.4122 -1.0997
 2688SOL     OW19699   0.145   2.769   3.736 -0.3718  0.0774  0.5093
 2688SOL    HW119700   0.100   2.841   3.780  0.5918  0.9888 -0.0163
 2688SOL    HW219701   0.076   2.728   3.683  1.0370  0.2669 -1.4859
 2689SOL     OW19702   1.457   3.896   3.192 -0.1193 -0.0574 -0.0847
 2689SOL    HW119703   1.378   3.846   3.175 -1.0868  1.1339  0.8787
 2689SOL    HW219704   1.503   3.838   3.252 -3.5893 -3.3934 -0.6933
 2690SOL     OW19705   4.529   4.717   6.360 -0.0205 -0.0706  0.8507
 2690SOL    HW119706   4.587   4.677   6.295 -0.0862 -0.4699  1.0382
 2690SOL    HW219707   4.575   4.716   6.443 -2.0632 -0.6922  1.9767
 2691SOL     OW19708   2.483   1.616  15.310 -0.6095  0.6196 -0.2365
 2691SOL    HW119709   2.392   1.634  15.286 -1.5322 -0.8677  2.2040
 2691SOL    HW219710   2.507   1.697  15.355 -2.7233 -0.0930  2.1600
 2692SOL     OW19711   2.630   2.129   3.046 -0.6706  0.5108  0.5365
 2692SOL    HW119712   2.699   2.079   3.089 -0.6736  0.6434  0.6979
 2692SOL    HW219713   2.638   2.111   2.953 -0.2926  2.9571  0.0763
 2693SOL     OW19714   4.636   3.991   8.899 -0.2455  0.3480  0.3512
 2693SOL    HW119715   4.669   4.069   8.853 -0.3825 -0.5111 -1.2122
 2693SOL    HW219716   4.716   3.940   8.914 -0.8985 -0.7402  0.0841
 2694SOL     OW19717   3.469   4.181   5.259 -0.0764  0.6454 -0.2437
 2694SOL    HW119718   3.473   4.167   5.354 -3.4640  1.0813 -0.0415
 2694SOL    HW219719   3.458   4.276   5.259 -0.0953  0.6449  1.2357
 2695SOL     OW19720   0.606   0.484  16.715 -0.1655  0.6306  0.0008
 2695SOL    HW119721   0.597   0.425  16.790 -0.4267  0.0494 -0.4900
 2695SOL    HW219722   0.679   0.537  16.748 -0.8222  0.9753  0.8822
 2696SOL     OW19723   4.601   3.233   5.924 -0.2373 -0.1895  0.1411
 2696SOL    HW119724   4.626   3.158   5.870  0.3844 -0.5508  0.9455
 2696SOL    HW219725   4.657   3.301   5.887  1.1382  0.0690  2.7013
 2697SOL     OW19726   1.562   4.674   4.250  0.4198 -0.2242  0.4780
 2697SOL    HW119727   1.528   0.011   4.203 -1.2131 -0.6880  0.9073
 2697SOL    HW219728   1.510   4.685   4.329 -0.7945  0.0159 -0.3376
 2698SOL     OW19729   2.980   1.144  12.949 -0.0795  0.1642  0.1683
 2698SOL    HW119730   2.892   1.162  12.980  0.1034  0.8335  0.2965
 2698SOL    HW219731   3.038   1.213  12.983  2.3437 -1.2095 -1.1862
 2699SOL     OW19732   2.602   3.742  10.160  0.1678 -0.1470 -0.0446
 2699SOL    HW119733   2.526   3.685  10.159  0.6540 -0.7631 -2.5024
 2699SOL    HW219734   2.666   3.679  10.193  2.2083  2.9723  2.0489
 2700SOL     OW19735   0.538   3.465  14.956  0.2113  0.3853  0.2007
 2700SOL    HW119736   0.521   3.371  14.957  0.8167  0.2752 -0.4522
 2700SOL    HW219737   0.469   3.494  15.015  1.4870  2.5777  0.5929
 2701SOL     OW19738   3.063   4.486   5.771 -0.1843 -0.1502 -0.1439
 2701SOL    HW119739   3.082   4.550   5.703  0.1650 -0.0313  0.0660
 2701SOL    HW219740   3.150   4.471   5.808 -1.1138 -1.0342  1.7151
 2702SOL     OW19741   3.162   0.317   7.491  0.1418  0.0066 -0.0949
 2702SOL    HW119742   3.112   0.326   7.409 -1.3826  0.6803  0.9026
 2702SOL    HW219743   3.086   0.331   7.547  2.4472 -0.2766  3.0698
 2703SOL     OW19744   2.167   0.868   6.067  0.4217 -0.4398 -0.3256
 2703SOL    HW119745   2.182   0.817   5.988 -0.3694 -2.1005  0.5904
 2703SOL    HW219746   2.237   0.845   6.129  0.9671  2.6643  0.2519
 2704SOL     OW19747   1.129   2.205   9.314  0.1098  0.2572 -0.7020
 2704SOL    HW119748   1.222   2.180   9.318 -0.1993 -0.8984 -0.8989
 2704SOL    HW219749   1.096   2.211   9.403 -1.2174  0.2342 -1.1934
 2705SOL     OW19750   4.654   3.278  14.488  0.1130  0.5391 -0.0499
 2705SOL    HW119751   4.682   3.218  14.420  1.9916 -0.0528  1.2577
 2705SOL    HW219752   4.657   3.365  14.446 -0.6485  1.0780  1.0069
 2706SOL     OW19753   3.176   0.747   3.841 -0.3644  0.1434 -0.4964
 2706SOL    HW119754   3.134   0.731   3.756 -0.5024 -0.3951 -0.3215
 2706SOL    HW219755   3.230   0.669   3.852 -0.3991 -0.0237 -1.4600
 2707SOL     OW19756   4.673   0.093   2.283 -0.4885  0.2478 -0.3719
 2707SOL    HW119757   0.003   0.049   2.331 -1.1679  0.5705  0.9318
 2707SOL    HW219758   4.732   0.140   2.225  1.9210 -1.4939  0.6884
 2708SOL     OW19759   1.356   4.605   9.987 -0.5876 -0.5246 -0.3632
 2708SOL    HW119760   1.328   4.683  10.034 -0.4831 -0.9010  0.3293
 2708SOL    HW219761   1.273   4.557   9.981 -0.7453 -0.1747 -1.0206
 2709SOL     OW19762   1.148   2.015   3.529  0.1881 -0.3388  0.8687
 2709SOL    HW119763   1.126   2.108   3.535 -0.4990 -0.2693 -2.5703
 2709SOL    HW219764   1.120   1.987   3.616 -0.1283  0.2511  0.9538
 2710SOL     OW19765   0.717   4.523  16.059 -0.0620  0.8524  0.3751
 2710SOL    HW119766   0.772   4.533  16.137 -0.1922 -2.4027  0.8574
 2710SOL    HW219767   0.776   4.547  15.987 -1.1809  0.0795 -0.8043
 2711SOL     OW19768   1.428   2.342   4.429 -0.2955 -0.0409  0.6397
 2711SOL    HW119769   1.377   2.301   4.498 -0.9459 -1.0615 -0.4361
 2711SOL    HW219770   1.514   2.358   4.467 -0.3634  0.8664  0.4005
 2712SOL     OW19771   2.815   2.322   4.286 -0.0824 -0.3010  0.2475
 2712SOL    HW119772   2.826   2.367   4.369 -1.0868  1.1497 -0.4126
 2712SOL    HW219773   2.784   2.239   4.323  0.0807 -2.0121 -3.4047
 2713SOL     OW19774   4.658   2.691   9.685 -0.2268  0.0940  0.5665
 2713SOL    HW119775   4.668   2.684   9.780  1.5708 -1.0557  0.2947
 2713SOL    HW219776   4.627   2.781   9.673  0.5030  0.2976  0.2063
 2714SOL     OW19777   2.778   0.639  11.942 -0.6039 -0.4366 -0.4691
 2714SOL    HW119778   2.756   0.639  12.035 -0.1553  0.6636 -0.3607
 2714SOL    HW219779   2.826   0.557  11.935  0.7080  0.1965  1.1099
 2715SOL     OW19780   3.372   2.274   3.604  0.3076 -0.1616 -0.1867
 2715SOL    HW119781   3.276   2.279   3.597  0.3045  0.7409  0.4115
 2715SOL    HW219782   3.396   2.201   3.547  2.7204 -0.3556  1.0835
 2716SOL     OW19783   4.163   0.606  13.477  0.6193 -0.0337  0.2267
 2716SOL    HW119784   4.203   0.519  13.466  0.6789 -0.0217  0.3567
 2716SOL    HW219785   4.120   0.614  13.392  1.0035  0.2500  0.0616
 2717SOL     OW19786   0.585   3.627   5.094 -0.0877  0.5158 -0.4839
 2717SOL    HW119787   0.675   3.653   5.114  1.5208 -3.9999 -1.8034
 2717SOL    HW219788   0.594   3.604   5.001 -0.0776  0.9078 -0.5795
 2718SOL     OW19789   4.492   2.170   6.581  0.7154 -0.6730  0.6053
 2718SOL    HW119790   4.497   2.077   6.601  1.5521 -0.5806  0.8126
 2718SOL    HW219791   4.452   2.164   6.494  0.7261 -0.2659  0.5697
 2719SOL     OW19792   0.243   0.606   1.743 -0.1506  0.0292  0.6594
 2719SOL    HW119793   0.234   0.701   1.749 -2.4740 -0.1656  0.2932
 2719SOL    HW219794   0.150   0.588   1.754  0.0558 -0.2231  2.0061
 2720SOL     OW19795   1.072   1.007  10.292 -0.3776 -0.6844 -0.1900
 2720SOL    HW119796   1.066   1.096  10.328  0.9618 -0.1641 -1.2876
 2720SOL    HW219797   1.151   1.000  10.238 -0.1584 -1.2232  0.1979
 2721SOL     OW19798   2.263   0.290   1.949  0.7648  0.7350 -0.3855
 2721SOL    HW119799   2.206   0.262   2.021 -0.1618 -0.3546 -1.5596
 2721SOL    HW219800   2.276   0.215   1.891  2.3159  0.5300  0.2178
 2722SOL     OW19801   3.361   4.485  11.467  0.1293  0.6098  0.1996
 2722SOL    HW119802   3.393   4.571  11.440  1.9681 -0.2501 -0.3999
 2722SOL    HW219803   3.416   4.477  11.545  0.7900  2.7505 -0.0649
 2723SOL     OW19804   2.161   1.428   5.547  0.0586 -0.3934 -0.3881
 2723SOL    HW119805   2.077   1.382   5.556 -0.7769  1.4002  0.8231
 2723SOL    HW219806   2.141   1.506   5.496 -0.1529 -1.0831 -1.3559
 2724SOL     OW19807   2.922   2.323   5.989  0.3634  0.1496  0.9089
 2724SOL    HW119808   2.861   2.251   5.979 -0.9797  1.2311  1.3025
 2724SOL    HW219809   2.874   2.385   5.934  0.4836 -0.3300  0.2720
 2725SOL     OW19810   1.011   2.514   0.866  0.6768  0.4947  0.2069
 2725SOL    HW119811   0.955   2.575   0.913 -3.5583 -1.5117 -2.2112
 2725SOL    HW219812   1.039   2.570   0.793 -0.5233  2.4826  1.2776
 2726SOL     OW19813   4.513   0.448   9.722 -0.2962  0.1597 -0.1242
 2726SOL    HW119814   4.559   0.513   9.669 -1.2141 -1.0009 -2.3412
 2726SOL    HW219815   4.563   0.438   9.803 -0.1039 -1.0203 -0.3974
 2727SOL     OW19816   2.758   1.762   8.491 -0.3023  0.2385 -0.9051
 2727SOL    HW119817   2.777   1.835   8.550 -3.6371 -2.1426  3.1307
 2727SOL    HW219818   2.714   1.815   8.424  0.5590  1.4409 -0.5275
 2728SOL     OW19819   3.058   0.920   8.337 -0.2063 -0.4035  0.0723
 2728SOL    HW119820   3.063   0.845   8.396 -1.4089  0.4235  1.2262
 2728SOL    HW219821   2.966   0.943   8.347 -0.3722 -0.6874 -0.7525
 2729SOL     OW19822   2.909   2.088   3.139  0.0456 -0.0065 -0.2365
 2729SOL    HW119823   2.977   2.147   3.173 -0.3372  0.1595  0.2427
 2729SOL    HW219824   2.959   2.016   3.101 -1.6749 -1.8705  1.0422
 2730SOL     OW19825   3.430   0.226   4.662 -0.4425 -0.3370 -0.3698
 2730SOL    HW119826   3.468   0.270   4.586 -1.3207  1.2434  0.1035
 2730SOL    HW219827   3.492   0.154   4.670 -0.3492 -0.1620  0.4981
 2731SOL     OW19828   4.612   3.069   6.686 -0.3059 -0.4086  0.1767
 2731SOL    HW119829   4.530   3.117   6.695 -0.9121 -1.0375 -2.1712
 2731SOL    HW219830   4.633   3.082   6.594 -0.7863  1.0863  0.2895
 2732SOL     OW19831   3.014   4.174  10.386 -0.3734  0.2631 -0.1115
 2732SOL    HW119832   2.969   4.101  10.344 -0.6109  0.0099  0.5765
 2732SOL    HW219833   3.102   4.136  10.391 -0.6704 -0.5352 -1.0401
 2733SOL     OW19834   2.403   2.468  11.967  0.6948  0.3753  0.3698
 2733SOL    HW119835   2.453   2.403  11.919  0.4789 -0.3197  1.0915
 2733SOL    HW219836   2.438   2.453  12.055 -1.3526  0.2998  1.1685
 2734SOL     OW19837   1.848   3.945  16.753  0.3884  0.5628  0.4305
 2734SOL    HW119838   1.830   3.901  16.836  1.4923 -0.4093  0.1552
 2734SOL    HW219839   1.943   3.945  16.744  0.3133 -0.0956 -0.4124
 2735SOL     OW19840   2.214   3.675   4.417 -0.4583 -0.6985 -0.8670
 2735SOL    HW119841   2.124   3.669   4.449  0.1178  0.9533  1.0485
 2735SOL    HW219842   2.250   3.587   4.416  0.2774 -0.3931 -1.5384
 2736SOL     OW19843   2.013   2.695   8.872  0.0355  0.2548 -0.4664
 2736SOL    HW119844   1.961   2.669   8.796 -1.2844  1.2720  0.0920
 2736SOL    HW219845   2.032   2.787   8.853 -1.3321  0.6162 -0.0493
 2737SOL     OW19846   0.913   2.277  16.337 -0.5171 -0.5515 -0.5467
 2737SOL    HW119847   0.931   2.258  16.429  0.2588  1.3815 -0.3056
 2737SOL    HW219848   0.885   2.187  16.318  0.0612 -1.0628  1.0507
 2738SOL     OW19849   4.460   2.550   3.495  0.2819  0.2875 -0.4439
 2738SOL    HW119850   4.409   2.631   3.486 -2.2943 -1.3655 -0.6127
 2738SOL    HW219851   4.399   2.496   3.543  0.5056 -0.5913 -1.1485
 2739SOL     OW19852   0.732   3.901   1.525  0.4386  0.3213 -0.0927
 2739SOL    HW119853   0.638   3.902   1.537  0.6570 -0.5939  1.6382
 2739SOL    HW219854   0.739   3.891   1.430 -0.0486 -0.6757 -0.0180
 2740SOL     OW19855   1.058   3.879   3.136 -0.4077 -0.9614 -0.5215
 2740SOL    HW119856   1.096   3.961   3.166  0.0604 -1.7459  1.0179
 2740SOL    HW219857   1.134   3.821   3.132 -0.7215 -1.1908 -3.0932
 2741SOL     OW19858   0.166   0.941  13.042  0.1946 -0.1642  0.2891
 2741SOL    HW119859   0.234   1.004  13.021  3.0972 -2.9342  1.3272
 2741SOL    HW219860   0.229   0.871  13.057  1.0937  0.8862  1.3201
 2742SOL     OW19861   3.037   4.670   3.309  0.2713  0.4710 -0.0955
 2742SOL    HW119862   3.031   4.712   3.223 -1.3373 -0.9040 -0.6679
 2742SOL    HW219863   3.058   4.578   3.290 -0.8100 -0.0399  1.2142
 2743SOL     OW19864   4.376   0.482  16.493  0.2732  0.1784  0.3093
 2743SOL    HW119865   4.390   0.561  16.441 -2.7442  0.6932  0.2816
 2743SOL    HW219866   4.440   0.493  16.563 -0.0985 -1.9031  0.9675
 2744SOL     OW19867   3.928   0.888   3.158 -0.0242 -0.5708  0.1897
 2744SOL    HW119868   4.009   0.912   3.204  1.2821  0.3378 -2.5895
 2744SOL    HW219869   3.861   0.946   3.193  1.1600  0.8110  0.1652
 2745SOL     OW19870   0.240   2.227   3.106  0.1762 -0.4680 -0.3168
 2745SOL    HW119871   0.152   2.193   3.089  0.5527 -2.2237  1.3345
 2745SOL    HW219872   0.222   2.319   3.087  0.2378 -0.7786 -1.8777
 2746SOL     OW19873   0.973   0.832   3.144  0.3081 -0.3805  0.5180
 2746SOL    HW119874   0.941   0.830   3.234 -0.9840 -0.0398  0.0592
 2746SOL    HW219875   1.003   0.923   3.141  0.7729 -0.5588 -0.3466
 2747SOL     OW19876   0.697   4.291   1.603 -0.6380  0.7784  0.0328
 2747SOL    HW119877   0.643   4.246   1.539 -1.7250  1.0339  0.7703
 2747SOL    HW219878   0.751   4.352   1.552 -0.6864  0.7856 -0.0088
 2748SOL     OW19879   4.554   3.834   0.220 -0.0097  0.3418  0.3040
 2748SOL    HW119880   4.618   3.773   0.183 -0.4518  1.2419 -1.9389
 2748SOL    HW219881   4.600   3.917   0.205 -1.4532  0.8813 -1.0593
 2749SOL     OW19882   2.805   2.642   3.561 -0.1067 -0.0051  0.1935
 2749SOL    HW119883   2.861   2.685   3.496 -0.0346 -0.1879  0.1347
 2749SOL    HW219884   2.867   2.579   3.597  0.9418  0.9020 -0.0032
 2750SOL     OW19885   0.919   0.377   5.737 -0.3966 -0.3603  0.4885
 2750SOL    HW119886   0.932   0.296   5.688  0.7189  0.0372  0.1236
 2750SOL    HW219887   0.992   0.427   5.700  0.0531 -1.6119 -0.2999
 2751SOL     OW19888   0.048   0.242   8.248 -0.1218 -0.7030 -0.1452
 2751SOL    HW119889   0.071   0.311   8.186 -0.5614 -1.2275 -0.8919
 2751SOL    HW219890   4.692   0.244   8.238  0.0919  1.5295 -1.6846
 2752SOL     OW19891   4.171   3.440   6.552  0.3585  0.7245 -0.1063
 2752SOL    HW119892   4.132   3.383   6.485  3.3354  0.3141 -1.4808
 2752SOL    HW219893   4.249   3.386   6.565 -1.2438 -1.3591  0.8803
 2753SOL     OW19894   1.389   1.054   5.880 -0.1919  0.0667  0.1570
 2753SOL    HW119895   1.361   0.963   5.875 -0.3559  0.0024  2.0326
 2753SOL    HW219896   1.331   1.085   5.811 -0.4459 -0.1306  0.2819
 2754SOL     OW19897   1.448   2.231   6.470  0.0311  0.2757  0.3253
 2754SOL    HW119898   1.423   2.318   6.501  4.0427  1.9406 -1.0963
 2754SOL    HW219899   1.374   2.173   6.490 -0.6522  0.8698 -0.4699
 2755SOL     OW19900   1.802   1.872  10.646  0.0522  0.0686 -0.1392
 2755SOL    HW119901   1.840   1.960  10.642 -0.4814  0.2345 -1.6583
 2755SOL    HW219902   1.761   1.879  10.732 -1.0697 -0.1000 -0.6467
 2756SOL     OW19903   2.817   3.364   2.052  0.3823 -0.9413 -0.0404
 2756SOL    HW119904   2.891   3.378   1.993 -0.5780  0.2841 -0.9443
 2756SOL    HW219905   2.865   3.327   2.125  3.9933 -1.1327 -2.5072
 2757SOL     OW19906   0.702   1.604  10.692 -0.8224 -0.2092  0.4810
 2757SOL    HW119907   0.751   1.681  10.665 -0.6274 -0.5704 -0.1921
 2757SOL    HW219908   0.682   1.618  10.784 -1.6164 -0.4763  0.3492
 2758SOL     OW19909   1.537   3.524  12.626  0.5716  0.4758 -0.1196
 2758SOL    HW119910   1.447   3.530  12.593 -0.2381 -0.5682  1.8994
 2758SOL    HW219911   1.526   3.531  12.721 -3.7930 -0.9209 -0.4884
 2759SOL     OW19912   4.706   0.735   3.082 -0.3449 -0.3265 -0.1848
 2759SOL    HW119913   0.013   0.668   3.032  0.4791  0.3852 -0.3784
 2759SOL    HW219914   4.629   0.753   3.028 -0.9574 -1.5777  0.2750
 2760SOL     OW19915   1.250   4.149   4.428 -0.1548  0.0908 -0.4793
 2760SOL    HW119916   1.169   4.199   4.437  0.2541  0.8861 -1.2023
 2760SOL    HW219917   1.300   4.164   4.508 -1.2231 -1.0014  0.4031
 2761SOL     OW19918   1.677   3.920   7.136  0.2161  0.0542  0.8357
 2761SOL    HW119919   1.628   3.986   7.086 -0.8835 -0.8993  0.6498
 2761SOL    HW219920   1.677   3.845   7.076  0.4878 -0.5062  1.5388
 2762SOL     OW19921   0.907   2.582   9.297  0.1227 -0.0293  0.1080
 2762SOL    HW119922   0.868   2.507   9.342 -3.7884  2.5248  0.9669
 2762SOL    HW219923   0.918   2.555   9.206 -3.9613 -1.3469  0.0185
 2763SOL     OW19924   0.441   3.308   6.953  0.4096  0.4194  0.2669
 2763SOL    HW119925   0.433   3.216   6.978 -0.5425  0.5291  0.3497
 2763SOL    HW219926   0.433   3.312   6.857 -0.0115  2.8389  0.3860
 2764SOL     OW19927   3.552   3.468   4.387 -0.1375 -0.0446  0.7845
 2764SOL    HW119928   3.554   3.536   4.319 -2.0876 -0.1132  0.6655
 2764SOL    HW219929   3.470   3.489   4.432  0.4892  2.7849  0.6434
 2765SOL     OW19930   1.336   3.832   3.827 -0.9010 -0.0283 -0.5083
 2765SOL    HW119931   1.278   3.813   3.901 -0.2356  1.4162  0.3852
 2765SOL    HW219932   1.277   3.894   3.784 -1.2096  1.5191  2.1147
 2766SOL     OW19933   1.538   3.221   2.730  0.6763 -0.5507  0.0667
 2766SOL    HW119934   1.487   3.265   2.798  0.2529 -1.6558  0.4706
 2766SOL    HW219935   1.464   3.187   2.679 -1.2500  2.1340  1.0740
 2767SOL     OW19936   3.941   0.787   2.359  0.2157  0.2820  0.3801
 2767SOL    HW119937   3.872   0.803   2.295 -0.3943 -0.5033  0.8358
 2767SOL    HW219938   4.007   0.755   2.297  0.7049  2.8454 -0.4173
 2768SOL     OW19939   0.091   1.780   5.184  1.3080  0.1525  1.0212
 2768SOL    HW119940   0.061   1.716   5.248 -1.5670 -0.5009 -0.9587
 2768SOL    HW219941   0.007   1.800   5.142  1.2687  0.1056  1.0779
 2769SOL     OW19942   4.268   1.979   3.670  0.2763  0.2163 -0.7999
 2769SOL    HW119943   4.355   1.947   3.644  0.1793  0.8620 -1.9020
 2769SOL    HW219944   4.237   1.906   3.724  0.4420 -0.4660 -1.6262
 2770SOL     OW19945   0.757   2.278   4.439  0.1731 -0.0016  0.7555
 2770SOL    HW119946   0.758   2.360   4.389 -0.5697 -2.2264 -2.9335
 2770SOL    HW219947   0.850   2.254   4.441 -0.6914 -3.6095 -1.1907
 2771SOL     OW19948   2.376   2.631   1.748  0.0556  0.6974  0.3089
 2771SOL    HW119949   2.358   2.607   1.839  0.6076  0.2961  0.3116
 2771SOL    HW219950   2.305   2.693   1.733 -0.0830  0.1667 -1.2305
 2772SOL     OW19951   0.373   1.165   8.780  0.3488 -0.4095  0.1975
 2772SOL    HW119952   0.462   1.132   8.771  0.4236 -0.5540  1.4983
 2772SOL    HW219953   0.386   1.251   8.740  0.5069  0.8275  2.9104
 2773SOL     OW19954   3.882   3.013   4.610 -0.3904  0.5538  0.0090
 2773SOL    HW119955   3.888   2.960   4.690  0.9564  1.2849  0.4011
 2773SOL    HW219956   3.800   3.060   4.619  0.1381  1.0031  2.5676
 2774SOL     OW19957   1.059   3.290  16.256  0.1330 -0.0053 -0.3648
 2774SOL    HW119958   1.101   3.205  16.272  0.9920  0.5922  0.5797
 2774SOL    HW219959   1.120   3.340  16.310 -1.2374 -0.0603  1.2292
 2775SOL     OW19960   2.442   0.010   3.081 -0.1527  0.1004 -0.0053
 2775SOL    HW119961   2.415   4.717   3.167 -1.1864  1.8048  0.3199
 2775SOL    HW219962   2.391   0.086   3.052  1.8552  1.5942  0.3672
 2776SOL     OW19963   3.773   1.281   0.651  0.2726  0.2009 -0.0821
 2776SOL    HW119964   3.797   1.354   0.594  0.5023  0.1415 -0.0632
 2776SOL    HW219965   3.816   1.206   0.610 -0.6810 -0.4328  0.0836
 2777SOL     OW19966   2.802   0.479   5.193  0.0619 -0.3668  0.1535
 2777SOL    HW119967   2.828   0.393   5.226  1.7936  0.0942 -0.0307
 2777SOL    HW219968   2.804   0.537   5.269 -0.3050  2.5205 -2.0083
 2778SOL     OW19969   4.069   3.990  14.186 -0.3376  0.1093 -0.6188
 2778SOL    HW119970   4.035   4.062  14.133 -1.7410  0.9644  1.4462
 2778SOL    HW219971   4.147   4.027  14.226 -1.5609  1.9547  0.0658
 2779SOL     OW19972   2.575   1.573   8.226  0.0064 -0.4547  0.3406
 2779SOL    HW119973   2.643   1.640   8.216 -0.9256  0.5366  0.6972
 2779SOL    HW219974   2.602   1.523   8.303  0.6909 -1.1936 -0.3745
 2780SOL     OW19975   0.524   0.644   9.259 -0.2595 -0.7329 -0.1087
 2780SOL    HW119976   0.596   0.633   9.321 -0.9222 -0.6677  0.6567
 2780SOL    HW219977   0.567   0.624   9.176  0.4798  1.5550 -0.3013
 2781SOL     OW19978   0.266   1.768   4.590 -0.4928 -0.3009  0.6197
 2781SOL    HW119979   0.178   1.767   4.627 -0.0838 -1.6450  1.5714
 2781SOL    HW219980   0.306   1.819   4.661 -1.0535  0.7798  0.1402
 2782SOL     OW19981   4.068   4.557   3.307 -0.0484  0.5985 -0.4171
 2782SOL    HW119982   4.070   4.622   3.236 -0.2272  0.2095 -0.7800
 2782SOL    HW219983   4.018   4.492   3.257  0.6150  0.5461 -1.0261
 2783SOL     OW19984   0.400   2.425  13.449  0.0052  0.6392 -0.0079
 2783SOL    HW119985   0.371   2.419  13.540  1.3162 -1.0418  0.3116
 2783SOL    HW219986   0.333   2.370  13.408 -0.3675  0.3453  1.0068
 2784SOL     OW19987   3.288   0.685   3.346  0.5131 -0.5557 -0.1719
 2784SOL    HW119988   3.211   0.633   3.367  0.2439 -0.0062  0.1709
 2784SOL    HW219989   3.347   0.685   3.422  1.5773  0.3463 -0.9952
 2785SOL     OW19990   2.615   2.206  16.228 -0.5177 -0.2861  0.3756
 2785SOL    HW119991   2.603   2.209  16.323 -0.4138 -3.3638  0.4940
 2785SOL    HW219992   2.543   2.153  16.193 -1.0065  0.0553  0.8580
 2786SOL     OW19993   1.675   0.657   0.770 -0.3593 -0.0149 -0.2577
 2786SOL    HW119994   1.693   0.676   0.862 -3.2438  1.7632 -0.0533
 2786SOL    HW219995   1.583   0.636   0.782 -0.1333  0.2603  1.9846
 2787SOL     OW19996   2.993   4.264  13.110  0.1652 -0.9808  0.8251
 2787SOL    HW119997   2.910   4.312  13.109 -0.4714 -2.0679  1.6951
 2787SOL    HW219998   2.972   4.183  13.065 -0.9276  0.1819 -0.7337
 2788SOL     OW19999   1.646   3.602   4.434 -0.0057  0.0839 -0.2505
 2788SOL    HW120000   1.553   3.623   4.432 -0.1815 -0.5565  0.8092
 2788SOL    HW220001   1.666   3.665   4.504 -0.8086 -1.6701  1.5773
 2789SOL     OW20002   4.731   2.448   2.458  0.3165 -0.0777 -0.5770
 2789SOL    HW120003   0.004   2.460   2.552 -1.0712  0.2060 -0.4250
 2789SOL    HW220004   0.032   2.362   2.459  2.5664  0.9983  0.3036
 2790SOL     OW20005   2.109   4.694   2.346  0.4689  0.0008  0.2045
 2790SOL    HW120006   2.173   4.665   2.412  0.3820 -2.5551 -0.8371
 2790SOL    HW220007   2.052   4.619   2.330  0.7954  0.0353 -1.0886
 2791SOL     OW20008   4.451   2.070  12.268 -0.2695 -0.1231 -0.1635
 2791SOL    HW120009   4.376   2.070  12.328  1.8781  2.3973  2.4862
 2791SOL    HW220010   4.412   2.107  12.189  0.9998  0.0561 -0.7051
 2792SOL     OW20011   2.355   3.425  10.672 -0.9480  0.6007 -0.2385
 2792SOL    HW120012   2.373   3.380  10.589 -2.2468 -0.8579  0.2637
 2792SOL    HW220013   2.324   3.510  10.642 -1.2162  0.5339 -0.1459
 2793SOL     OW20014   2.217   2.379   2.649 -0.1862 -0.5020  0.3511
 2793SOL    HW120015   2.277   2.305   2.646  1.8676  1.1232  1.4753
 2793SOL    HW220016   2.278   2.450   2.669 -1.1233  0.6719 -1.0275
 2794SOL     OW20017   2.077   3.126  13.038 -0.0392  0.2591  0.7099
 2794SOL    HW120018   1.986   3.122  13.069 -0.1398 -0.5246  0.3066
 2794SOL    HW220019   2.091   3.214  13.004  1.8648 -0.6576 -0.8714
 2795SOL     OW20020   0.792   3.326   9.983 -0.4416 -0.2581  0.0346
 2795SOL    HW120021   0.730   3.398  10.000 -0.2934 -0.1870  0.2746
 2795SOL    HW220022   0.844   3.358   9.910 -0.3999 -2.0074 -0.7044
 2796SOL     OW20023   2.975   0.064  17.505 -0.0526  0.7235 -0.0821
 2796SOL    HW120024   3.049   0.123  17.498 -0.4464  1.2262 -0.0255
 2796SOL    HW220025   3.015   4.717  17.506  0.7375  1.0853 -0.4620
 2797SOL     OW20026   1.663   4.661   5.678  0.0238 -0.2400  0.6862
 2797SOL    HW120027   1.758   4.652   5.683  0.0552 -0.4312 -0.2809
 2797SOL    HW220028   1.633   4.586   5.729  0.9460 -2.9604 -2.8075
 2798SOL     OW20029   0.370   3.469  11.644 -0.4481  0.1678  0.4396
 2798SOL    HW120030   0.423   3.395  11.674  0.4955 -0.0658 -1.7624
 2798SOL    HW220031   0.282   3.437  11.660 -1.7383  2.9541 -1.1030
 2799SOL     OW20032   3.871   0.725   8.370 -0.3422 -0.3238  0.9144
 2799SOL    HW120033   3.934   0.691   8.434  1.2020 -0.4960 -0.6986
 2799SOL    HW220034   3.815   0.783   8.423 -1.5826 -0.0271 -0.7165
 2800SOL     OW20035   4.617   1.559  16.117 -0.1574  0.1498  0.1588
 2800SOL    HW120036   4.708   1.528  16.126 -0.6194 -1.3536 -0.4548
 2800SOL    HW220037   4.623   1.636  16.174  0.9114  0.1056  0.1203
 2801SOL     OW20038   3.659   3.761   2.301 -0.2261 -0.1544 -0.4467
 2801SOL    HW120039   3.748   3.755   2.267  0.3791  0.3819  1.0781
 2801SOL    HW220040   3.623   3.840   2.259 -0.8493 -0.7392 -1.0319
 2802SOL     OW20041   4.673   2.119   5.695  0.3820 -0.3485  0.4755
 2802SOL    HW120042   4.614   2.145   5.767  3.3095 -0.3637  2.8647
 2802SOL    HW220043   4.633   2.039   5.662  1.3013 -1.0801  1.1187
 2803SOL     OW20044   3.858   3.841  16.373 -0.0941 -0.1163  0.0765
 2803SOL    HW120045   3.809   3.789  16.309  0.7499 -0.1662 -0.5322
 2803SOL    HW220046   3.896   3.913  16.323  3.5430 -1.2581  1.1696
 2804SOL     OW20047   3.964   2.872  12.388 -0.0227  0.2806  0.3759
 2804SOL    HW120048   3.889   2.816  12.407  1.9822 -2.6553 -0.4148
 2804SOL    HW220049   3.920   2.957  12.395 -1.5535 -0.5294  0.5058
 2805SOL     OW20050   3.301   4.191   5.529  0.6425  0.0704  0.3337
 2805SOL    HW120051   3.332   4.265   5.582  0.8942  0.4779 -0.3816
 2805SOL    HW220052   3.279   4.117   5.586 -1.0472  1.5748  1.6404
 2806SOL     OW20053   4.092   1.790  11.162 -0.3160  1.3257  0.1846
 2806SOL    HW120054   4.144   1.868  11.144  2.3488 -0.7139 -0.8655
 2806SOL    HW220055   4.118   1.770  11.251  1.7051 -0.3610 -0.7874
 2807SOL     OW20056   3.668   0.642   4.706  0.6411 -0.0366 -1.0390
 2807SOL    HW120057   3.711   0.557   4.707  1.4400  0.3921  1.2095
 2807SOL    HW220058   3.705   0.672   4.789  1.8839 -1.9648 -0.9068
 2808SOL     OW20059   0.553   1.343   3.839  0.1135  0.0157  0.2294
 2808SOL    HW120060   0.530   1.431   3.809 -0.4280 -0.4025 -0.5401
 2808SOL    HW220061   0.489   1.302   3.782 -0.0308  0.0541  0.3644
 2809SOL     OW20062   2.596   4.446   0.968  0.1795  0.8033  0.1473
 2809SOL    HW120063   2.598   4.534   1.006 -1.9534  0.9335 -0.0264
 2809SOL    HW220064   2.509   4.451   0.930  0.2721  1.7021  0.0603
 2810SOL     OW20065   3.635   1.067   6.399 -0.1649  0.5963 -0.6507
 2810SOL    HW120066   3.711   1.108   6.357  0.3102  0.4723  0.0761
 2810SOL    HW220067   3.579   1.145   6.404 -1.4169 -0.4624  1.8260
 2811SOL     OW20068   2.439   0.958   8.090 -0.2634 -0.7587  0.7337
 2811SOL    HW120069   2.377   0.886   8.079 -2.0075  0.9333 -0.4786
 2811SOL    HW220070   2.424   0.979   8.182  0.3539  0.5232  0.5434
 2812SOL     OW20071   2.416   1.696   7.785 -0.3914  0.0574  0.3246
 2812SOL    HW120072   2.443   1.622   7.730  2.2024 -0.4008  2.2277
 2812SOL    HW220073   2.381   1.646   7.858  3.2110  1.4114  2.9396
 2813SOL     OW20074   1.628   0.901   3.441  0.0501 -0.8843 -0.2163
 2813SOL    HW120075   1.632   0.959   3.365  1.9669  0.7667  1.1201
 2813SOL    HW220076   1.693   0.947   3.494 -1.6186  0.3445  0.7967
 2814SOL     OW20077   1.193   0.626   8.259 -0.7566  0.1880  0.2346
 2814SOL    HW120078   1.273   0.670   8.289  0.4394 -1.5799 -0.3580
 2814SOL    HW220079   1.135   0.675   8.318  0.3350 -1.0163  2.3146
 2815SOL     OW20080   1.706   2.020   2.764  0.0462 -0.1553 -0.0587
 2815SOL    HW120081   1.790   2.066   2.772  2.0680 -4.2254  2.0945
 2815SOL    HW220082   1.709   2.001   2.671  1.6447  0.8750 -0.2146
 2816SOL     OW20083   4.210   3.107   6.081 -0.3344  0.4708 -0.2325
 2816SOL    HW120084   4.122   3.136   6.103 -0.5905 -0.3332 -0.1985
 2816SOL    HW220085   4.256   3.123   6.164 -2.9511  2.6121  0.7980
 2817SOL     OW20086   1.445   1.390   7.869 -0.2816  0.7199  0.3901
 2817SOL    HW120087   1.413   1.478   7.849 -0.4015 -0.2483 -3.6959
 2817SOL    HW220088   1.366   1.340   7.891  0.2081  0.4616  1.5262
 2818SOL     OW20089   4.404   0.203   1.334 -0.0262  0.2508 -0.2953
 2818SOL    HW120090   4.360   0.287   1.327  1.8732  1.1794 -0.9955
 2818SOL    HW220091   4.494   0.223   1.309 -0.2312 -0.7311 -1.8163
 2819SOL     OW20092   1.945   2.115  11.583  0.0994 -0.1354 -0.1369
 2819SOL    HW120093   1.927   2.195  11.631 -0.8253  1.3957 -3.0218
 2819SOL    HW220094   1.943   2.150  11.494 -2.8385 -1.8836 -0.7574
 2820SOL     OW20095   3.760   3.284   2.357  0.2142  0.1296 -0.0160
 2820SOL    HW120096   3.788   3.370   2.388  0.5911 -0.3501  0.9858
 2820SOL    HW220097   3.782   3.289   2.264 -0.0626 -0.4663 -0.1144
 2821SOL     OW20098   0.362   0.970  13.400  0.4557 -0.3068 -0.0192
 2821SOL    HW120099   0.289   0.922  13.362  0.1641  0.8429 -0.9138
 2821SOL    HW220100   0.416   0.968  13.321 -0.5100 -0.2247 -0.6814
 2822SOL     OW20101   3.070   2.383   6.847  0.0131  0.7580  0.1455
 2822SOL    HW120102   3.148   2.379   6.902 -0.0231 -2.5956 -0.0621
 2822SOL    HW220103   3.104   2.330   6.775 -1.7972 -1.8028  1.1853
 2823SOL     OW20104   4.435   1.011  15.627 -0.2088 -0.1354  0.1710
 2823SOL    HW120105   4.398   1.084  15.676  0.0397 -1.0842  1.7816
 2823SOL    HW220106   4.393   0.937  15.672  1.9299 -0.8622  0.9685
 2824SOL     OW20107   4.240   2.017  15.448  0.0491  0.2994 -0.6273
 2824SOL    HW120108   4.211   1.926  15.459  1.6883 -0.0548  0.7513
 2824SOL    HW220109   4.231   2.026  15.353 -1.4410 -0.9192 -0.6024
 2825SOL     OW20110   3.055   2.668   2.760 -0.4314  0.4107  0.1360
 2825SOL    HW120111   3.076   2.638   2.848  0.1906 -0.0528 -0.1638
 2825SOL    HW220112   3.087   2.758   2.755  2.5417 -0.8905 -4.3102
 2826SOL     OW20113   0.171   0.406   9.004  0.1341 -0.1422  0.8790
 2826SOL    HW120114   0.169   0.434   8.912  1.9757 -1.0180  0.5864
 2826SOL    HW220115   0.199   0.486   9.048  0.5685  0.5740 -0.6719
 2827SOL     OW20116   2.693   3.116   4.874 -0.7173  0.6880 -0.0196
 2827SOL    HW120117   2.634   3.190   4.882  0.2330  1.8301 -3.4295
 2827SOL    HW220118   2.697   3.098   4.780  1.4173  1.5853 -0.1080
 2828SOL     OW20119   0.198   0.761   9.555 -0.2942  0.3599 -0.2708
 2828SOL    HW120120   0.188   0.666   9.565  0.1616  0.2122 -1.1657
 2828SOL    HW220121   0.189   0.801   9.641  2.6785  1.9761 -0.7191
 2829SOL     OW20122   0.283   0.999   5.208  0.5109  0.4281  0.2497
 2829SOL    HW120123   0.342   1.056   5.160  0.2814  2.0483  1.8789
 2829SOL    HW220124   0.215   1.060   5.239  1.1612  0.2896  1.9761
 2830SOL     OW20125   0.669   0.916   2.902 -0.0746 -0.0077  0.5986
 2830SOL    HW120126   0.643   0.947   2.989  0.9121 -1.0829  1.2847
 2830SOL    HW220127   0.592   0.921   2.846 -0.0687 -0.4469  0.5514
 2831SOL     OW20128   2.299   3.674   9.141  0.0920 -0.1272 -0.1501
 2831SOL    HW120129   2.275   3.581   9.145 -0.0984  0.0039  1.6867
 2831SOL    HW220130   2.392   3.664   9.123 -0.2637 -0.6581 -1.7337
 2832SOL     OW20131   1.139   0.571   6.230  0.0285 -0.2077  0.4639
 2832SOL    HW120132   1.141   0.664   6.252 -0.7461 -0.1881  0.4437
 2832SOL    HW220133   1.045   0.556   6.227  0.2317 -1.1124 -1.5344
 2833SOL     OW20134   3.194   1.129   4.700  0.2277  0.1819 -0.3232
 2833SOL    HW120135   3.217   1.075   4.624 -2.7074  0.6516 -1.5359
 2833SOL    HW220136   3.199   1.073   4.778 -0.6395 -2.2974 -2.0409
 2834SOL     OW20137   2.336   3.672   9.983  0.3562 -0.4057  0.2360
 2834SOL    HW120138   2.332   3.620  10.064 -0.3186 -0.7114  0.0052
 2834SOL    HW220139   2.334   3.758  10.024 -1.3804 -0.9186  1.2565
 2835SOL     OW20140   4.343   1.450  10.122 -0.0245 -0.9134  0.3928
 2835SOL    HW120141   4.302   1.393  10.187 -0.3413 -4.3343 -2.7515
 2835SOL    HW220142   4.386   1.390  10.060  0.2069  1.2612 -1.5430
 2836SOL     OW20143   2.869   1.286   6.878  0.5254  0.3678 -0.1031
 2836SOL    HW120144   2.851   1.306   6.970  0.8668 -0.8926  0.2326
 2836SOL    HW220145   2.943   1.345   6.865  1.9916 -1.8867 -2.1213
 2837SOL     OW20146   4.615   0.039   4.560 -0.5272 -0.1611  0.2716
 2837SOL    HW120147   4.590   0.128   4.536  2.3020  0.1700 -1.4267
 2837SOL    HW220148   4.603   4.734   4.477  3.4744  0.2182 -0.5136
 2838SOL     OW20149   0.324   3.280   1.878  0.4420 -0.2306 -0.0513
 2838SOL    HW120150   0.362   3.307   1.961  1.5353 -1.7025 -0.0596
 2838SOL    HW220151   0.285   3.362   1.848  0.8507  0.4685  1.3813
 2839SOL     OW20152   2.343   2.520   5.589  0.0634 -0.1094  0.9422
 2839SOL    HW120153   2.365   2.610   5.612  0.0128  0.0704  0.2801
 2839SOL    HW220154   2.316   2.479   5.672  1.3554  0.0777  1.4533
 2840SOL     OW20155   3.129   0.927   2.374  0.1292  0.7470 -0.0352
 2840SOL    HW120156   3.066   0.857   2.358  1.7405 -0.8741  0.7118
 2840SOL    HW220157   3.085   1.002   2.333 -1.6293 -0.9336 -1.1774
 2841SOL     OW20158   0.283   4.552  17.448  0.2932  0.2337 -0.2947
 2841SOL    HW120159   0.188   4.550  17.456  0.3342  0.8638  0.2872
 2841SOL    HW220160   0.307   4.608  17.521 -0.2819 -1.7160  1.3841
 2842SOL     OW20161   0.935   1.730   6.676  0.0173  0.5639 -0.4666
 2842SOL    HW120162   0.848   1.696   6.656 -0.3198  0.2839  1.4060
 2842SOL    HW220163   0.926   1.813   6.631 -0.5846  1.3473  1.0873
 2843SOL     OW20164   4.590   0.581   4.350  0.0389 -0.8001  0.8144
 2843SOL    HW120165   4.574   0.598   4.443  0.6610  1.3401  0.5387
 2843SOL    HW220166   4.682   0.606   4.351 -0.9463  2.7831  1.0525
 2844SOL     OW20167   4.429   1.347   3.082 -0.1776 -0.1356 -0.2928
 2844SOL    HW120168   4.380   1.381   3.157 -2.5029 -0.7327 -1.5386
 2844SOL    HW220169   4.512   1.326   3.126  0.1186  1.5504 -0.0645
 2845SOL     OW20170   2.762   3.629   9.776  0.0555  0.5750  0.4775
 2845SOL    HW120171   2.830   3.600   9.837 -1.1948 -2.3291  0.5081
 2845SOL    HW220172   2.725   3.710   9.810 -3.1073 -1.1516  1.1908
 2846SOL     OW20173   0.527   1.359   8.600 -0.4941  0.9400 -0.4070
 2846SOL    HW120174   0.515   1.439   8.651 -2.2926 -0.0306  0.6694
 2846SOL    HW220175   0.606   1.378   8.548 -0.3252  0.8980 -0.1675
 2847SOL     OW20176   0.674   4.641   1.213  0.2146 -0.4072  0.2072
 2847SOL    HW120177   0.598   4.614   1.162  0.4202  2.8346 -1.7701
 2847SOL    HW220178   0.746   4.614   1.155 -0.5721 -0.7044 -0.6206
 2848SOL     OW20179   3.845   3.789   6.308  0.1141 -0.2016 -0.3478
 2848SOL    HW120180   3.892   3.871   6.323 -2.3745  1.5430 -2.1760
 2848SOL    HW220181   3.909   3.743   6.253  2.7242  2.3710  0.5733
 2849SOL     OW20182   0.214   1.783   3.554  0.5873 -0.0395 -0.2459
 2849SOL    HW120183   0.212   1.729   3.475 -2.3218 -0.1957 -0.0664
 2849SOL    HW220184   0.271   1.855   3.527 -1.3948  1.2975 -0.8653
 2850SOL     OW20185   0.211   2.421  13.649  0.6658  0.3872  0.0127
 2850SOL    HW120186   0.194   2.344  13.702  2.3280  0.6905  0.9728
 2850SOL    HW220187   0.139   2.478  13.677 -0.6878 -1.0511 -0.5480
 2851SOL     OW20188   3.815   1.744   5.590 -1.1238  0.3552 -0.0357
 2851SOL    HW120189   3.747   1.686   5.625  0.9793 -0.2941  2.9718
 2851SOL    HW220190   3.873   1.743   5.666 -0.6069  2.4370 -0.3975
 2852SOL     OW20191   2.130   0.999   2.455 -0.3724 -0.1184  0.3346
 2852SOL    HW120192   2.043   1.030   2.480 -0.5515  0.1985 -0.7119
 2852SOL    HW220193   2.186   1.076   2.442 -0.4057 -0.2687 -0.6868
 2853SOL     OW20194   4.196   3.412   5.263  0.6795  0.2326  0.0958
 2853SOL    HW120195   4.152   3.495   5.244 -1.0062 -0.1250  2.5671
 2853SOL    HW220196   4.206   3.375   5.175 -2.4294 -1.9329  0.6496
 2854SOL     OW20197   2.971   2.389   4.836 -0.1078 -0.3443 -0.5049
 2854SOL    HW120198   3.065   2.405   4.842 -0.2089  0.1133 -0.1159
 2854SOL    HW220199   2.941   2.413   4.924 -1.0844 -0.6360 -0.7594
 2855SOL     OW20200   4.406   0.633  16.869 -0.3149 -0.1907 -0.4253
 2855SOL    HW120201   4.329   0.649  16.924  0.5314  1.2369  0.3482
 2855SOL    HW220202   4.442   0.720  16.855  0.7730 -0.5065  0.3461
 2856SOL     OW20203   3.444   2.767   7.901 -0.9904  0.2318  0.0821
 2856SOL    HW120204   3.494   2.846   7.924  0.2810 -0.9325  1.3078
 2856SOL    HW220205   3.375   2.814   7.855 -0.0280  1.3040 -0.2769
 2857SOL     OW20206   2.280   3.102  16.993 -0.1955 -0.0577  0.5296
 2857SOL    HW120207   2.232   3.081  17.073 -0.7405  1.0068  0.4777
 2857SOL    HW220208   2.361   3.130  17.035 -0.0048  0.2323 -0.0292
 2858SOL     OW20209   0.594   1.949  16.672 -0.1389  0.1511  0.2828
 2858SOL    HW120210   0.561   2.029  16.713  1.9418  1.1380  0.0170
 2858SOL    HW220211   0.554   1.880  16.725 -0.8013 -0.5630 -1.1504
 2859SOL     OW20212   3.195   1.510   6.041  0.4391  0.1302 -0.3653
 2859SOL    HW120213   3.262   1.519   6.109 -0.2718  0.4892  0.2988
 2859SOL    HW220214   3.207   1.421   6.007  3.0728 -0.3636  1.8560
 2860SOL     OW20215   3.143   2.717   8.351 -0.0492 -0.6210  0.1505
 2860SOL    HW120216   3.179   2.803   8.329 -2.4172  0.0525 -1.1047
 2860SOL    HW220217   3.078   2.698   8.284  1.1306 -0.5908 -1.0082
 2861SOL     OW20218   0.815   4.339  12.868  0.1360 -0.6963 -0.9814
 2861SOL    HW120219   0.900   4.350  12.825 -0.1232  0.5115 -1.1940
 2861SOL    HW220220   0.782   4.255  12.838 -0.4271  0.2818 -3.1265
 2862SOL     OW20221   1.257   1.013   4.978  0.2698 -0.1436 -0.1176
 2862SOL    HW120222   1.251   0.934   4.925  0.9642  0.6972 -1.4523
 2862SOL    HW220223   1.349   1.038   4.980  0.7237 -1.9900  1.8316
 2863SOL     OW20224   0.552   0.147   1.186 -0.4745 -0.5596  0.1949
 2863SOL    HW120225   0.555   0.200   1.266 -0.5026 -0.6519  0.2564
 2863SOL    HW220226   0.602   0.069   1.206  2.2244  0.9720 -0.6012
 2864SOL     OW20227   4.126   1.536   9.529 -0.3224  0.1952 -0.1193
 2864SOL    HW120228   4.069   1.523   9.453 -1.8128 -1.9707  1.3461
 2864SOL    HW220229   4.079   1.617   9.552 -0.2402  0.4861 -0.9879
 2865SOL     OW20230   1.684   0.316   3.006 -0.5627 -0.2673 -0.2127
 2865SOL    HW120231   1.609   0.257   3.002 -0.5568 -0.3221  0.6104
 2865SOL    HW220232   1.666   0.362   3.087  1.1943  2.5332 -1.4227
 2866SOL     OW20233   1.406   3.732   2.289 -0.4621  0.0720  0.0141
 2866SOL    HW120234   1.326   3.758   2.335 -0.3795 -1.4367  1.0310
 2866SOL    HW220235   1.361   3.682   2.221 -1.4990  1.6904 -0.4866
 2867SOL     OW20236   1.964   1.219   6.389  0.4920 -0.1618 -0.0910
 2867SOL    HW120237   1.956   1.281   6.316  0.9132 -1.5881 -1.3385
 2867SOL    HW220238   1.965   1.134   6.346  1.7118 -0.4880  0.6005
 2868SOL     OW20239   3.928   2.589   3.587  0.1563  0.4773 -0.0838
 2868SOL    HW120240   3.921   2.529   3.661 -1.5101  0.8267  0.0343
 2868SOL    HW220241   3.971   2.530   3.524  1.8874  0.1699  1.3894
 2869SOL     OW20242   0.516   1.266  10.310 -0.1205 -0.1690  0.2389
 2869SOL    HW120243   0.537   1.329  10.380  1.1959 -0.5070  0.1575
 2869SOL    HW220244   0.523   1.184  10.358 -0.7348 -0.5113 -0.2734
 2870SOL     OW20245   1.711   0.002   6.794  0.3040 -0.5166 -0.2936
 2870SOL    HW120246   1.738   4.733   6.703 -2.2422 -1.1238 -0.9825
 2870SOL    HW220247   1.725   4.651   6.820  1.6748  0.0659  1.0278
 2871SOL     OW20248   3.730   3.513   5.329  0.0164  0.6050 -0.4691
 2871SOL    HW120249   3.694   3.489   5.414  1.1459  0.1460 -0.1202
 2871SOL    HW220250   3.659   3.491   5.268 -1.6672 -0.8377  2.0006
 2872SOL     OW20251   1.677   0.242   3.528  0.3734 -0.1577  0.4269
 2872SOL    HW120252   1.747   0.276   3.472  0.0926 -0.8806 -0.3547
 2872SOL    HW220253   1.603   0.300   3.511  0.2842 -0.3029  0.3229
 2873SOL     OW20254   3.682   2.344  11.581 -0.7534 -0.8807 -0.4239
 2873SOL    HW120255   3.691   2.375  11.491 -0.3180 -0.3846 -0.2108
 2873SOL    HW220256   3.661   2.251  11.567 -0.6425 -0.8963 -0.4905
 2874SOL     OW20257   3.493   1.698   7.067  0.2103 -0.2317  0.1391
 2874SOL    HW120258   3.494   1.762   7.138 -2.5041 -0.3613  0.2773
 2874SOL    HW220259   3.583   1.710   7.035  0.9444  0.5856  2.5164
 2875SOL     OW20260   3.278   3.586   6.722  0.1608 -0.8649 -0.2040
 2875SOL    HW120261   3.228   3.507   6.703 -1.4075  0.8544 -3.2647
 2875SOL    HW220262   3.220   3.661   6.709 -1.5049 -1.7652  2.1671
 2876SOL     OW20263   2.042   2.269   2.161  0.5702 -0.6314  0.3465
 2876SOL    HW120264   2.083   2.351   2.189  2.5654 -1.7929  0.7895
 2876SOL    HW220265   2.089   2.254   2.079 -1.0703  2.6496 -1.2050
 2877SOL     OW20266   2.913   1.092  13.327 -0.1997 -0.2715 -0.4367
 2877SOL    HW120267   2.910   1.186  13.313 -1.0332 -0.2353 -0.0178
 2877SOL    HW220268   2.830   1.080  13.373  0.1380  1.7364  0.7025
 2878SOL     OW20269   0.526   1.614   3.743  0.2928 -0.4475 -0.0217
 2878SOL    HW120270   0.613   1.605   3.704 -0.0524  1.7877 -1.2983
 2878SOL    HW220271   0.558   1.682   3.802  1.8931 -1.2113  0.0010
 2879SOL     OW20272   1.764   1.757   4.630 -0.3112 -0.1692  0.0150
 2879SOL    HW120273   1.851   1.771   4.591 -0.7999  2.3626 -0.2094
 2879SOL    HW220274   1.796   1.788   4.715  0.4520 -0.3137 -0.2170
 2880SOL     OW20275   1.832   0.351  10.366 -0.4642 -0.3168  0.1686
 2880SOL    HW120276   1.741   0.364  10.394  0.2472  2.5673  1.0813
 2880SOL    HW220277   1.851   0.261  10.394  2.8244 -0.1540 -1.6083
 2881SOL     OW20278   1.969   1.465  12.553  0.3855  0.0687  0.5666
 2881SOL    HW120279   1.884   1.500  12.524  0.5963  0.4347  0.3984
 2881SOL    HW220280   2.024   1.543  12.553  1.3996 -0.6465 -0.9920
 2882SOL     OW20281   3.240   4.353   8.556 -0.5046  0.0842  0.4747
 2882SOL    HW120282   3.212   4.300   8.481  0.1509  1.5000 -0.7785
 2882SOL    HW220283   3.270   4.289   8.621  3.4472  1.5310  0.0838
 2883SOL     OW20284   0.337   2.929   6.349 -0.4585  0.1918 -0.0247
 2883SOL    HW120285   0.293   2.982   6.283  0.4736  1.7962  0.6224
 2883SOL    HW220286   0.419   2.910   6.303 -0.2923 -1.7666  1.0752
 2884SOL     OW20287   3.055   4.332   1.537 -0.9057  1.0631  0.0086
 2884SOL    HW120288   2.979   4.305   1.485  0.1769 -0.7749 -0.5977
 2884SOL    HW220289   3.044   4.427   1.532  0.0393  1.0360 -2.5631
 2885SOL     OW20290   0.997   2.431   1.477 -0.4250 -0.3573  0.4078
 2885SOL    HW120291   1.042   2.515   1.477  0.7189 -0.9682  0.0308
 2885SOL    HW220292   0.917   2.446   1.527 -0.2754  0.2456  0.4652
 2886SOL     OW20293   0.962   1.331   2.574  0.2230 -0.6442 -0.5708
 2886SOL    HW120294   0.907   1.272   2.624  0.9495 -1.5614 -0.8416
 2886SOL    HW220295   1.009   1.371   2.647  2.0451 -2.2142 -0.8861
 2887SOL     OW20296   0.399   4.385   1.393 -0.5146 -0.0689  0.0513
 2887SOL    HW120297   0.430   4.445   1.461 -1.3736 -2.6269  2.6725
 2887SOL    HW220298   0.431   4.301   1.425 -0.4364  0.4803  1.4185
 2888SOL     OW20299   1.425   3.573   2.653 -0.0588  0.3665 -0.5844
 2888SOL    HW120300   1.399   3.609   2.568 -1.2179  0.6669 -0.0882
 2888SOL    HW220301   1.520   3.565   2.639  0.1208  1.2548  0.1325
 2889SOL     OW20302   4.641   3.076   2.360  0.0668  0.7769 -0.2994
 2889SOL    HW120303   4.718   3.134   2.368  1.0025 -0.9305  3.2701
 2889SOL    HW220304   4.670   3.013   2.426 -0.6599  1.1099  0.3331
 2890SOL     OW20305   2.247   2.413   8.720 -0.0627 -0.1302  0.2350
 2890SOL    HW120306   2.315   2.431   8.784  1.5764 -1.1078 -1.2464
 2890SOL    HW220307   2.168   2.404   8.774  0.4795 -0.8772  0.8868
 2891SOL     OW20308   0.020   1.336   8.577 -0.5452  0.1940  0.0825
 2891SOL    HW120309   0.105   1.302   8.606 -0.8716  0.9813  1.9829
 2891SOL    HW220310   0.048   1.427   8.569  2.4080 -0.7219  0.0320
 2892SOL     OW20311   0.121   1.671   6.031 -0.4054  0.2354  0.1475
 2892SOL    HW120312   0.109   1.704   6.120  1.2992  0.9980  0.1006
 2892SOL    HW220313   0.210   1.638   6.040 -0.2905  0.5309  0.0921
 2893SOL     OW20314   2.744   0.751   5.947  0.2949 -0.4680  0.9784
 2893SOL    HW120315   2.803   0.752   5.872 -0.1950 -0.7127  0.5977
 2893SOL    HW220316   2.697   0.835   5.944 -1.1040 -1.1780  2.8518
 2894SOL     OW20317   3.387   2.912  16.145  0.1503  0.0853  0.4198
 2894SOL    HW120318   3.352   2.886  16.230 -3.4260  0.0417 -1.0790
 2894SOL    HW220319   3.451   2.976  16.175  1.8564 -2.2167  1.6856
 2895SOL     OW20320   3.936   1.094   2.125 -0.1658  0.0689 -0.7565
 2895SOL    HW120321   3.895   1.122   2.043 -1.0251 -1.5727 -0.8769
 2895SOL    HW220322   3.916   1.001   2.123  0.8160 -0.2324  2.5511
 2896SOL     OW20323   2.984   2.256  17.583  0.1556  0.0507  0.4369
 2896SOL    HW120324   3.009   2.267  17.675  2.7640 -1.7324 -0.0827
 2896SOL    HW220325   3.026   2.335  17.551 -1.4654  0.3297 -0.9673
 2897SOL     OW20326   3.513   1.441  11.506  0.1361 -0.4521 -0.1383
 2897SOL    HW120327   3.492   1.516  11.450  1.5821  0.8238  1.0230
 2897SOL    HW220328   3.565   1.476  11.578 -0.3620  0.6197 -0.2986
 2898SOL     OW20329   1.375   0.335   6.444 -0.1668 -0.4765 -0.1688
 2898SOL    HW120330   1.430   0.414   6.442 -1.7535  0.7126  2.3202
 2898SOL    HW220331   1.407   0.286   6.520 -0.8457 -1.1237 -0.3043
 2899SOL     OW20332   1.193   0.028   2.709 -0.7986 -0.4933  0.5516
 2899SOL    HW120333   1.189   4.688   2.762  0.4676 -1.0315 -0.1704
 2899SOL    HW220334   1.185   0.093   2.778 -0.7839  1.0650 -0.9108
 2900SOL     OW20335   0.806   3.906   5.937  0.0745 -0.3061 -0.4862
 2900SOL    HW120336   0.862   3.913   6.014 -1.5157 -1.1590  0.7333
 2900SOL    HW220337   0.752   3.838   5.974  1.7044 -0.2324  2.0007
 2901SOL     OW20338   4.582   2.572   1.735  0.4773  0.1316  0.0444
 2901SOL    HW120339   4.580   2.657   1.690 -1.4151  0.1936  0.2424
 2901SOL    HW220340   4.670   2.574   1.774  0.1186  0.4085  0.8487
 2902SOL     OW20341   3.711   1.157   3.965  0.4464  0.0770  0.0049
 2902SOL    HW120342   3.714   1.178   4.058  1.9154 -0.9843  0.1956
 2902SOL    HW220343   3.659   1.077   3.965  1.8448 -0.8148  1.4570
 2903SOL     OW20344   0.287   1.462   3.018 -0.6436  0.1246 -0.1090
 2903SOL    HW120345   0.287   1.553   3.049 -0.9179 -0.1672  0.7382
 2903SOL    HW220346   0.312   1.484   2.928  1.2561 -0.7440  0.2306
 2904SOL     OW20347   0.432   0.005   5.907  0.4809  0.0576  0.0488
 2904SOL    HW120348   0.373   0.059   5.855 -1.8582  0.9769  3.6071
 2904SOL    HW220349   0.515   0.052   5.894  1.7344 -1.3918  2.5638
 2905SOL     OW20350   4.302   1.973  11.147 -0.0503 -0.1156 -0.2752
 2905SOL    HW120351   4.291   2.059  11.106  0.2133  1.2140  2.4617
 2905SOL    HW220352   4.380   1.988  11.199 -0.6479 -2.9398  1.4264
 2906SOL     OW20353   4.067   0.987   9.081 -0.2607  0.1595 -0.3048
 2906SOL    HW120354   4.091   1.073   9.047  1.8262  0.0300  0.8542
 2906SOL    HW220355   3.991   1.014   9.133 -1.4613 -1.2044 -1.3504
 2907SOL     OW20356   2.411   4.183   6.667  0.4967  0.0641  0.4822
 2907SOL    HW120357   2.397   4.113   6.731  2.1560  0.5665  1.3670
 2907SOL    HW220358   2.316   4.198   6.664  0.1263 -2.0495  1.5623
 2908SOL     OW20359   4.143   3.144   1.417  0.4825 -0.1703 -0.0360
 2908SOL    HW120360   4.119   3.062   1.374 -1.2958 -0.3041  1.2469
 2908SOL    HW220361   4.237   3.139   1.398  0.5284  2.0878 -0.4432
 2909SOL     OW20362   0.010   3.745   7.220 -0.4060 -0.6663 -0.0679
 2909SOL    HW120363   4.714   3.666   7.179  0.2410 -0.4332 -1.0923
 2909SOL    HW220364   0.097   3.746   7.180 -0.0753  1.4321  0.6829
 2910SOL     OW20365   1.734   1.406   6.445  0.3151 -0.4636 -0.2151
 2910SOL    HW120366   1.693   1.492   6.454 -0.6259 -1.0913  1.5823
 2910SOL    HW220367   1.791   1.409   6.521  0.8800  0.9352 -0.6919
 2911SOL     OW20368   2.071   2.623   4.398 -0.0701  0.1835 -0.4991
 2911SOL    HW120369   1.986   2.666   4.398  0.3035  0.9413  0.4604
 2911SOL    HW220370   2.129   2.699   4.406  0.1329 -0.0841  0.6619
 2912SOL     OW20371   1.652   1.621   6.756 -0.3372  0.7603 -0.4489
 2912SOL    HW120372   1.571   1.578   6.727 -0.2420 -0.6429  1.3441
 2912SOL    HW220373   1.627   1.714   6.760 -1.1679  0.4343  1.9812
 2913SOL     OW20374   1.258   4.102   3.305  0.2549 -0.2430 -0.2406
 2913SOL    HW120375   1.329   4.085   3.243 -1.1700 -0.4885 -1.8013
 2913SOL    HW220376   1.271   4.042   3.379 -0.3754  0.5605  0.5116
 2914SOL     OW20377   1.518   3.120  13.434  0.0297 -0.3447 -0.0849
 2914SOL    HW120378   1.546   3.149  13.347 -4.1367 -1.9973 -1.9731
 2914SOL    HW220379   1.592   3.062  13.455 -0.2831 -0.5497  0.4642
 2915SOL     OW20380   3.480   2.568   5.032 -0.2624  0.1698  0.0990
 2915SOL    HW120381   3.492   2.535   5.121 -0.6279 -0.7965 -0.2109
 2915SOL    HW220382   3.532   2.507   4.979 -0.5095  0.0944 -0.0538
 2916SOL     OW20383   3.295   3.148   8.014 -0.1135 -0.0350 -0.1263
 2916SOL    HW120384   3.256   3.144   8.102 -1.0886 -2.1387 -0.6481
 2916SOL    HW220385   3.364   3.213   8.016  1.3546 -1.5959 -0.1584
 2917SOL     OW20386   0.253   3.174   8.962 -0.1242 -0.8421  0.4685
 2917SOL    HW120387   0.311   3.100   8.944  0.3971 -0.0906 -0.9381
 2917SOL    HW220388   0.205   3.138   9.036 -2.2144 -1.5350 -1.2173
 2918SOL     OW20389   1.811   0.388   2.506 -0.5678 -0.0809 -0.9383
 2918SOL    HW120390   1.817   0.391   2.601  1.5904  0.3999 -1.0868
 2918SOL    HW220391   1.748   0.316   2.508  0.3051 -0.8130 -0.3241
 2919SOL     OW20392   2.786   3.935   3.792  0.2276 -0.0669 -0.2338
 2919SOL    HW120393   2.750   3.852   3.760 -0.2722 -0.7059  2.0217
 2919SOL    HW220394   2.716   3.998   3.773 -2.5935 -2.4033  2.4302
 2920SOL     OW20395   2.213   3.777   8.292  0.0057 -0.0515  0.5761
 2920SOL    HW120396   2.248   3.776   8.381  2.5088 -0.9538 -0.3948
 2920SOL    HW220397   2.288   3.822   8.252  0.8403 -1.6696  0.3527
 2921SOL     OW20398   1.930   1.168   4.839  0.3373 -0.3616  0.4929
 2921SOL    HW120399   1.991   1.219   4.786  1.0674 -1.6292  0.1203
 2921SOL    HW220400   1.981   1.091   4.864 -1.6287 -0.8793  2.9985
 2922SOL     OW20401   4.294   3.513   5.535 -0.1967  0.6965 -0.2150
 2922SOL    HW120402   4.220   3.568   5.560  1.5020  3.0394 -0.2624
 2922SOL    HW220403   4.355   3.585   5.517  1.0369  0.0510  1.3166
 2923SOL     OW20404   3.321   3.700   8.292  0.6962  0.2168  0.1004
 2923SOL    HW120405   3.394   3.671   8.237  2.0245  2.3319  0.7532
 2923SOL    HW220406   3.332   3.794   8.302  2.7891  0.1800 -1.8882
 2924SOL     OW20407   2.974   0.675   4.032 -0.5504 -0.1336  0.3542
 2924SOL    HW120408   2.904   0.635   3.982  0.1318 -1.8020  0.7110
 2924SOL    HW220409   3.047   0.683   3.971 -1.0807  2.1855  0.0403
 2925SOL     OW20410   0.041   2.394   7.614 -0.3926 -0.5244  0.4281
 2925SOL    HW120411   0.125   2.433   7.591 -1.1106 -0.1176 -1.4525
 2925SOL    HW220412   0.070   2.367   7.701  3.4651 -0.9900 -1.0284
 2926SOL     OW20413   3.559   1.175  12.247  0.2259 -0.0291 -0.0086
 2926SOL    HW120414   3.514   1.091  12.236  0.9128 -0.2965 -0.7677
 2926SOL    HW220415   3.500   1.222  12.306  1.1028 -0.5601  1.2721
 2927SOL     OW20416   3.693   3.330   3.719 -0.3407 -0.2848  0.0556
 2927SOL    HW120417   3.674   3.357   3.629  1.1307  0.9346  0.1088
 2927SOL    HW220418   3.605   3.306   3.747  0.5775 -2.8103  0.6877
 2928SOL     OW20419   3.177   0.340   6.419 -0.3573  0.9936 -0.2121
 2928SOL    HW120420   3.215   0.411   6.367  0.4748 -0.5271 -1.6909
 2928SOL    HW220421   3.198   0.369   6.507  0.6359 -0.0411 -0.1106
 2929SOL     OW20422   1.454   4.519   3.775 -0.0754 -0.0446 -0.8237
 2929SOL    HW120423   1.526   4.465   3.807  0.8530  0.8752 -1.3594
 2929SOL    HW220424   1.399   4.508   3.852  1.0678  0.7342  0.1004
 2930SOL     OW20425   3.090   1.498   6.954 -0.1080  0.4388 -0.2692
 2930SOL    HW120426   3.023   1.565   6.964  0.5376  0.8249  1.5341
 2930SOL    HW220427   3.151   1.522   7.024  1.8349 -1.7007 -1.2366
 2931SOL     OW20428   2.528   4.103   9.690 -0.1487  0.8004 -0.8236
 2931SOL    HW120429   2.446   4.113   9.737  0.3000  1.3155 -0.1429
 2931SOL    HW220430   2.568   4.189   9.676 -0.1822  1.0636  0.7042
 2932SOL     OW20431   1.176   3.815   4.756 -0.0820  0.3363 -0.3030
 2932SOL    HW120432   1.191   3.721   4.764 -1.3097 -0.0438 -2.3705
 2932SOL    HW220433   1.124   3.831   4.677 -1.2100 -0.4667  0.2633
 2933SOL     OW20434   2.142   4.699  10.044  0.1874  0.1723  0.1803
 2933SOL    HW120435   2.107   4.733  10.127 -0.1334  1.4281 -0.4694
 2933SOL    HW220436   2.062   4.681   9.995  0.2851 -1.3102  0.5474
 2934SOL     OW20437   3.969   1.203  12.610 -0.6727  0.0634  0.0328
 2934SOL    HW120438   3.977   1.109  12.629  2.9655  0.4226  0.3815
 2934SOL    HW220439   3.876   1.202  12.631 -0.8501 -2.6808 -0.9212
 2935SOL     OW20440   0.186   1.622   8.020  0.2943  0.2085 -0.4441
 2935SOL    HW120441   0.138   1.585   7.945 -2.6355  2.9905  0.0605
 2935SOL    HW220442   0.194   1.547   8.080 -0.9272  0.1967 -0.2904
 2936SOL     OW20443   4.612   2.447   6.039 -0.0109  0.4665 -1.0011
 2936SOL    HW120444   4.665   2.511   6.088 -0.5449 -0.4306  0.7333
 2936SOL    HW220445   4.680   2.408   5.984 -0.4903  0.2448 -1.4371
 2937SOL     OW20446   0.615   4.127   8.203  0.2735 -0.9071  0.3265
 2937SOL    HW120447   0.558   4.111   8.128 -1.2395 -0.7410  1.4392
 2937SOL    HW220448   0.576   4.208   8.236  2.3184 -0.7894  2.4576
 2938SOL     OW20449   3.599   1.401  14.483 -0.0067 -0.2525 -0.1228
 2938SOL    HW120450   3.511   1.417  14.518 -0.0359  1.1407 -0.8129
 2938SOL    HW220451   3.581   1.371  14.394 -0.4261  0.9221 -0.4378
 2939SOL     OW20452   0.875   0.905  15.889 -0.5655 -0.5686 -0.2877
 2939SOL    HW120453   0.785   0.937  15.889 -0.3164  0.1132  1.0129
 2939SOL    HW220454   0.919   0.949  15.815  0.4611 -0.5079  0.3577
 2940SOL     OW20455   3.942   1.778  15.026  0.1800 -0.1946 -0.5864
 2940SOL    HW120456   3.931   1.853  15.085  1.3775 -2.6270  2.7646
 2940SOL    HW220457   4.031   1.744  15.037 -0.0955 -1.2348 -1.4889
 2941SOL     OW20458   2.814   0.030   9.443  0.4314  0.0272  0.1863
 2941SOL    HW120459   2.794   0.057   9.533  2.0595  0.4854  0.4036
 2941SOL    HW220460   2.724   0.003   9.424  0.0302  1.3034  0.2863
 2942SOL     OW20461   3.907   3.435  12.612  0.3294  0.2135 -0.1458
 2942SOL    HW120462   3.983   3.451  12.669 -0.5587  1.7946  0.6113
 2942SOL    HW220463   3.935   3.503  12.551 -0.8382 -0.1451 -1.0823
 2943SOL     OW20464   4.694   4.344   2.331 -0.5787  0.3048  0.0400
 2943SOL    HW120465   0.029   4.376   2.281 -0.3780  1.4112  1.0501
 2943SOL    HW220466   4.676   4.422   2.383  0.6842  0.1970  0.6199
 2944SOL     OW20467   0.725   4.131   5.532 -0.0746  0.4835  0.0843
 2944SOL    HW120468   0.777   4.160   5.607  1.6278 -0.8901 -0.5716
 2944SOL    HW220469   0.799   4.095   5.484 -1.0712 -3.2520  1.3215
 2945SOL     OW20470   3.742   1.217   4.236 -0.5525 -0.5103 -0.4383
 2945SOL    HW120471   3.810   1.174   4.287 -0.9260  0.9462  1.2866
 2945SOL    HW220472   3.756   1.310   4.256  1.2167 -0.8330 -0.1754
 2946SOL     OW20473   4.561   2.778   6.647  0.1966  0.6659 -0.4619
 2946SOL    HW120474   4.654   2.782   6.623  0.0957 -0.3004 -1.0112
 2946SOL    HW220475   4.560   2.873   6.660  0.8030  0.4758  0.9696
 2947SOL     OW20476   0.345   3.467   5.963 -0.2909  0.0353 -0.1044
 2947SOL    HW120477   0.267   3.453   6.016 -0.5371  0.0499 -0.4667
 2947SOL    HW220478   0.343   3.562   5.950  0.5440  0.2632  1.3563
 2948SOL     OW20479   1.851   0.525  10.609 -0.1789  0.6592 -0.3070
 2948SOL    HW120480   1.863   0.512  10.515  4.5557 -2.3093  0.6863
 2948SOL    HW220481   1.788   0.458  10.635  1.0215 -1.2178 -2.2518
 2949SOL     OW20482   2.436   3.816   9.347 -0.5222 -0.1118 -0.1943
 2949SOL    HW120483   2.410   3.738   9.397 -0.1749  0.1425  0.3832
 2949SOL    HW220484   2.422   3.783   9.259 -2.4652  1.8298 -0.5996
 2950SOL     OW20485   1.841   4.114   1.473 -0.7061  0.4011  0.6075
 2950SOL    HW120486   1.841   4.108   1.378  1.0880 -1.3187  0.7337
 2950SOL    HW220487   1.891   4.034   1.487  1.4293  1.8311  1.0975
 2951SOL     OW20488   4.472   4.361  14.984 -0.2845 -0.0438  0.4589
 2951SOL    HW120489   4.534   4.427  15.015 -0.6495  0.4867  0.0582
 2951SOL    HW220490   4.499   4.352  14.892 -1.5363  0.7675  0.0153
 2952SOL     OW20491   2.747   0.396   9.761 -0.1512 -0.0598 -0.1127
 2952SOL    HW120492   2.661   0.371   9.794  0.9325 -2.5736  0.8372
 2952SOL    HW220493   2.779   0.436   9.842  0.9166 -1.1514  0.0051
 2953SOL     OW20494   4.610   2.045   6.251 -0.4130 -0.0132 -0.3021
 2953SOL    HW120495   4.538   2.001   6.298 -0.4606  0.7983  0.3960
 2953SOL    HW220496   4.574   2.133   6.256 -1.2757 -0.4816  1.8327
 2954SOL     OW20497   2.649   2.657   8.126 -0.2689  0.4298 -0.1106
 2954SOL    HW120498   2.615   2.743   8.149  0.9852  0.6347  0.9608
 2954SOL    HW220499   2.574   2.602   8.149  1.0373 -0.8742  1.0465
 2955SOL     OW20500   3.187   0.564   6.913  0.2375  0.2022  0.3320
 2955SOL    HW120501   3.130   0.638   6.932  1.9237  2.0699 -1.8918
 2955SOL    HW220502   3.269   0.613   6.906  0.3510 -0.2246 -1.2687
 2956SOL     OW20503   4.538   3.092   5.281  0.5817 -0.1605  0.2445
 2956SOL    HW120504   4.493   3.141   5.350  0.1653  0.3054 -0.3532
 2956SOL    HW220505   4.467   3.092   5.216 -0.5490  2.2107  1.4838
 2957SOL     OW20506   2.653   4.445   7.035 -0.5031 -0.6282  0.0405
 2957SOL    HW120507   2.597   4.446   6.957  2.0588 -0.2164 -1.7679
 2957SOL    HW220508   2.722   4.506   7.010  0.7427 -1.7603  0.7235
 2958SOL     OW20509   2.702   0.460   6.388  0.0636 -0.1705  0.3655
 2958SOL    HW120510   2.647   0.525   6.344  1.1195 -0.0423 -0.7640
 2958SOL    HW220511   2.654   0.464   6.471 -0.8876  0.7708 -0.2273
 2959SOL     OW20512   1.764   1.553  12.089 -0.5832  0.0826 -0.2774
 2959SOL    HW120513   1.730   1.466  12.072 -0.3178 -0.4128  1.7107
 2959SOL    HW220514   1.855   1.553  12.059 -0.3543 -0.5289  0.4130
 2960SOL     OW20515   4.708   1.036  11.235  0.9307  0.2242 -0.5873
 2960SOL    HW120516   4.731   1.128  11.223 -1.0712  0.7585 -0.3883
 2960SOL    HW220517   0.043   0.989  11.198  1.2255 -0.9920  1.5480
 2961SOL     OW20518   1.606   4.708   2.920  0.5038  0.5358 -0.0185
 2961SOL    HW120519   1.574   0.037   2.861 -0.4277  0.6308  0.5934
 2961SOL    HW220520   1.528   4.675   2.964  0.7727  1.8202  1.4278
 2962SOL     OW20521   3.229   0.467  10.572 -0.1900 -0.0382  0.0082
 2962SOL    HW120522   3.280   0.510  10.640  1.7992  0.5149 -1.8560
 2962SOL    HW220523   3.162   0.453  10.640 -1.7184  2.5314 -0.9732
 2963SOL     OW20524   3.152   3.287   3.089 -0.1597 -0.1662  0.5308
 2963SOL    HW120525   3.061   3.316   3.092  1.1774  4.1184  0.2672
 2963SOL    HW220526   3.200   3.357   3.134  2.2007 -0.8964 -0.8285
 2964SOL     OW20527   1.394   2.567   6.290 -0.8135  0.8202  0.1848
 2964SOL    HW120528   1.408   2.557   6.385 -1.4365 -1.1479  0.0733
 2964SOL    HW220529   1.319   2.508   6.288 -1.1856  1.2750  0.8204
 2965SOL     OW20530   4.025   1.955   5.586 -0.2056  0.3727 -0.5411
 2965SOL    HW120531   4.080   1.899   5.531 -0.6181 -0.2443 -0.3335
 2965SOL    HW220532   3.941   1.943   5.541  0.3081 -1.7673 -0.9455
 2966SOL     OW20533   2.944   0.042   4.871  0.2176 -0.2884 -0.0866
 2966SOL    HW120534   3.020   0.055   4.815 -1.2159  0.2884 -1.8987
 2966SOL    HW220535   2.938   0.125   4.919 -1.5862 -0.8170  0.6147
 2967SOL     OW20536   4.515   4.620   1.161  0.4603  0.2027  0.4319
 2967SOL    HW120537   4.495   4.623   1.068  0.0208  1.5662  0.5690
 2967SOL    HW220538   4.561   4.536   1.167 -1.4359 -0.8538  0.2811
 2968SOL     OW20539   4.130   2.342   4.554 -0.2225  0.5526  0.1690
 2968SOL    HW120540   4.182   2.369   4.630  1.2626  0.6038 -0.8548
 2968SOL    HW220541   4.042   2.323   4.585  0.7592 -0.7420  2.1489
 2969SOL     OW20542   1.980   2.132   5.375 -0.3007  0.0580 -0.0624
 2969SOL    HW120543   2.063   2.178   5.388 -0.3714  0.7431 -2.1819
 2969SOL    HW220544   2.012   2.044   5.354  0.0382 -0.5564  2.8906
 2970SOL     OW20545   1.025   3.829  10.824 -0.8984 -0.4305  0.5281
 2970SOL    HW120546   1.035   3.734  10.821  0.8770 -0.2343  0.3696
 2970SOL    HW220547   1.071   3.862  10.901 -2.6774 -1.0429  1.8508
 2971SOL     OW20548   0.805   4.223   7.342 -0.0933  0.7542  0.3286
 2971SOL    HW120549   0.739   4.242   7.409  0.2204  0.5588  0.6939
 2971SOL    HW220550   0.883   4.240   7.395 -0.6173 -2.7043  2.2343
 2972SOL     OW20551   4.588   1.906  13.036 -0.3173  0.3971  0.2338
 2972SOL    HW120552   4.576   1.936  12.946 -0.2448 -1.7861 -0.5000
 2972SOL    HW220553   4.541   1.968  13.092 -0.4408  0.8980 -0.4162
 2973SOL     OW20554   1.217   3.226   8.514  0.1067 -0.1508 -0.4762
 2973SOL    HW120555   1.256   3.274   8.587  3.4401 -1.7290 -1.2148
 2973SOL    HW220556   1.261   3.275   8.445 -0.5470  0.8490 -0.1749
 2974SOL     OW20557   1.207   2.836  13.743 -0.4387 -0.6352  0.7068
 2974SOL    HW120558   1.134   2.811  13.799  1.8873  0.1058  4.0660
 2974SOL    HW220559   1.256   2.754  13.741  1.1508  0.2480  2.6150
 2975SOL     OW20560   0.669   3.591   6.324  0.5718 -0.9629  0.1871
 2975SOL    HW120561   0.636   3.628   6.242 -0.5378  1.8954  1.9370
 2975SOL    HW220562   0.624   3.511   6.348 -1.1554 -0.7581 -2.3716
 2976SOL     OW20563   0.242   0.947   8.939 -0.1817  0.3073 -0.4098
 2976SOL    HW120564   0.228   0.900   8.856  0.4732 -1.7467  0.6349
 2976SOL    HW220565   0.286   1.018   8.894  0.7420 -0.8286 -1.3012
 2977SOL     OW20566   2.807   3.739   4.211 -0.0389 -0.0577 -0.6004
 2977SOL    HW120567   2.773   3.677   4.146 -2.0897  0.5726 -0.1340
 2977SOL    HW220568   2.798   3.680   4.286  1.3014 -0.1145 -0.4804
 2978SOL     OW20569   1.058   4.221  17.119 -1.3149  0.1078  0.1024
 2978SOL    HW120570   0.992   4.251  17.182  0.1787  2.3570  0.6290
 2978SOL    HW220571   1.093   4.303  17.083 -1.0159  0.4324  1.1381
 2979SOL     OW20572   0.361   0.176   6.475 -0.2091 -0.2254  0.2967
 2979SOL    HW120573   0.407   0.099   6.507  1.3231  0.8528  0.7079
 2979SOL    HW220574   0.355   0.159   6.381 -1.4521 -3.5678  0.9977
 2980SOL     OW20575   0.247   1.176   7.292  0.2191 -0.0077  0.2903
 2980SOL    HW120576   0.156   1.159   7.267  0.3713 -0.2072 -0.1406
 2980SOL    HW220577   0.290   1.099   7.254  0.6699 -0.3303  1.4679
 2981SOL     OW20578   3.795   4.493  14.771  0.3243  0.8120 -0.3390
 2981SOL    HW120579   3.749   4.439  14.708  2.4839 -1.1793 -0.1772
 2981SOL    HW220580   3.871   4.437  14.785 -0.2547  0.2791  0.6924
 2982SOL     OW20581   1.557   3.769  16.707  0.3610  0.2739  0.0129
 2982SOL    HW120582   1.587   3.773  16.616  0.3279  0.3407  0.0049
 2982SOL    HW220583   1.635   3.806  16.748  0.7327 -1.6794  1.0568
 2983SOL     OW20584   4.022   1.807  17.354  0.5604  0.2427  0.0780
 2983SOL    HW120585   4.070   1.770  17.280  1.7719  1.1570  0.4109
 2983SOL    HW220586   4.017   1.898  17.326 -2.2940  0.3782  0.9548
 2984SOL     OW20587   1.773   0.547   5.084  0.1132  0.3494 -0.1359
 2984SOL    HW120588   1.776   0.610   5.156 -1.5351 -0.2385  0.4503
 2984SOL    HW220589   1.791   0.465   5.130  1.6762  0.0943 -1.1927
 2985SOL     OW20590   2.570   1.407  10.103  0.3630 -0.5424  0.4681
 2985SOL    HW120591   2.592   1.313  10.101  0.5886 -0.4702 -0.5151
 2985SOL    HW220592   2.491   1.393  10.051 -1.2778 -0.5450  2.9760
 2986SOL     OW20593   0.018   4.510  17.407 -0.7752 -0.1801 -0.1716
 2986SOL    HW120594   4.689   4.575  17.393 -1.2116 -1.0207 -1.9947
 2986SOL    HW220595   0.060   4.517  17.321 -1.7441  1.6366 -0.4908
 2987SOL     OW20596   3.168   4.425  11.084 -0.9011  0.7215 -0.0089
 2987SOL    HW120597   3.213   4.342  11.094 -1.1453  0.7658  1.4736
 2987SOL    HW220598   3.231   4.484  11.043  0.5842 -2.1531 -1.8545
 2988SOL     OW20599   1.859   1.640   1.955 -0.4524 -0.7808 -0.1256
 2988SOL    HW120600   1.802   1.717   1.955  0.5365 -0.0437 -0.4196
 2988SOL    HW220601   1.912   1.658   2.033  0.2943 -1.3567 -0.5016
 2989SOL     OW20602   2.905   3.862  11.448  0.1672 -0.2353  0.7608
 2989SOL    HW120603   2.923   3.787  11.392 -2.6337 -0.7735  0.5821
 2989SOL    HW220604   2.810   3.851  11.453 -0.0434  1.3609  0.4457
 2990SOL     OW20605   1.043   1.014   1.902 -0.0413  0.3260 -0.5958
 2990SOL    HW120606   1.061   1.086   1.842  2.3006  0.1131 -0.1741
 2990SOL    HW220607   0.955   1.039   1.928 -0.8411 -1.4024 -1.6621
 2991SOL     OW20608   2.794   0.833   3.865  0.2902 -1.0161  0.9030
 2991SOL    HW120609   2.711   0.794   3.891  0.7252 -0.8202  2.5464
 2991SOL    HW220610   2.819   0.775   3.793  0.0540 -0.3427  0.2829
 2992SOL     OW20611   2.805   3.898   9.054 -0.0168 -0.0773 -0.0689
 2992SOL    HW120612   2.735   3.959   9.029  0.8978  0.2457 -1.7887
 2992SOL    HW220613   2.871   3.903   8.986 -0.5710  2.6090 -0.4085
 2993SOL     OW20614   1.251   2.905  10.970  0.8407  0.2877  0.1647
 2993SOL    HW120615   1.256   2.895  10.875  2.8403 -1.0582  0.4084
 2993SOL    HW220616   1.264   2.999  10.976  1.9202  0.0829  1.0517
 2994SOL     OW20617   2.293   0.580   8.687 -0.2638  0.3465 -0.4585
 2994SOL    HW120618   2.257   0.571   8.775 -0.5621 -2.9298 -0.9348
 2994SOL    HW220619   2.378   0.540   8.705 -1.3644 -2.0834 -0.7435
 2995SOL     OW20620   4.565   2.102   4.658 -0.3945 -0.0701 -0.3713
 2995SOL    HW120621   4.531   2.094   4.747 -0.8049  1.4526 -0.3854
 2995SOL    HW220622   4.617   2.182   4.665  2.4659 -2.1202  1.7913
 2996SOL     OW20623   0.727   3.973   8.385 -0.4820  0.6035  0.3793
 2996SOL    HW120624   0.648   3.922   8.406 -0.4739 -0.5909 -2.3536
 2996SOL    HW220625   0.684   4.013   8.309 -0.7779 -0.2149  0.1092
 2997SOL     OW20626   2.982   3.059   2.574  0.4183  0.1225  0.2206
 2997SOL    HW120627   2.972   3.140   2.524  0.5818 -0.2730 -0.4455
 2997SOL    HW220628   2.984   3.084   2.667  2.3865  1.9131 -0.2875
 2998SOL     OW20629   2.861   2.485   8.149  0.5302 -0.6802 -0.3007
 2998SOL    HW120630   2.954   2.489   8.168  0.6908 -0.3689 -1.1525
 2998SOL    HW220631   2.828   2.574   8.146 -0.2771 -0.9700 -0.0288
 2999SOL     OW20632   1.228   3.330  12.694  0.4231  0.0895  0.1207
 2999SOL    HW120633   1.279   3.387  12.751 -0.2578 -0.7219  1.5341
 2999SOL    HW220634   1.186   3.274  12.759  1.2802 -2.1262 -1.2349
 3000SOL     OW20635   4.533   0.143  15.015  0.2805  0.0715 -0.7755
 3000SOL    HW120636   4.543   0.238  15.012 -1.8694  0.3486  0.6919
 3000SOL    HW220637   4.623   0.115  15.030 -0.2999 -0.1597  2.2126
 3001SOL     OW20638   1.618   3.838   4.264  0.2709  0.5457 -0.0625
 3001SOL    HW120639   1.627   3.880   4.350 -2.8824 -0.3247  0.7095
 3001SOL    HW220640   1.548   3.889   4.222 -0.4414  1.0302  1.7270
 3002SOL     OW20641   4.086   3.235   5.457 -0.0862  0.1902 -0.2602
 3002SOL    HW120642   4.113   3.312   5.407 -2.5539  0.7559 -0.6900
 3002SOL    HW220643   4.010   3.261   5.509  1.9302 -0.8389  3.1980
 3003SOL     OW20644   3.170   1.492   3.533  0.5167  0.1990  0.2077
 3003SOL    HW120645   3.182   1.580   3.499  1.7295  0.4190  1.2206
 3003SOL    HW220646   3.166   1.438   3.454  0.6715  1.0509 -0.3757
 3004SOL     OW20647   2.539   1.494   4.484  0.2026 -0.1855  0.2127
 3004SOL    HW120648   2.473   1.561   4.466 -1.1458 -1.7961 -0.9191
 3004SOL    HW220649   2.611   1.542   4.445  1.2081 -1.3439  0.6532
 3005SOL     OW20650   2.653   4.248   8.316 -0.8432  0.4009  0.4951
 3005SOL    HW120651   2.634   4.329   8.364 -0.6952  0.6101  0.1946
 3005SOL    HW220652   2.662   4.180   8.383 -0.1155  0.3289  0.3184
 3006SOL     OW20653   0.537   0.161   7.993 -0.1070 -0.0362  0.4529
 3006SOL    HW120654   0.463   0.217   7.972  1.1562  2.0256  1.5093
 3006SOL    HW220655   0.517   0.082   7.944 -0.2153  1.1884 -1.4468
 3007SOL     OW20656   4.512   1.846   6.697  0.5994  0.3027 -0.3472
 3007SOL    HW120657   4.600   1.861   6.662  0.5347  1.0564 -0.1785
 3007SOL    HW220658   4.510   1.752   6.716  0.3519  0.2540 -0.6200
 3008SOL     OW20659   0.141   1.707  14.985  0.4032 -0.4311  0.4407
 3008SOL    HW120660   0.165   1.702  15.078  1.0426  1.1624  0.3680
 3008SOL    HW220661   0.046   1.715  14.982  0.3597 -0.8702  0.7171
 3009SOL     OW20662   2.311   1.839   8.580 -0.7843  0.0574  0.0641
 3009SOL    HW120663   2.316   1.746   8.561  1.3239 -0.0039  0.9260
 3009SOL    HW220664   2.310   1.883   8.495 -1.1384 -1.1660 -0.5580
 3010SOL     OW20665   3.554   4.416  13.354 -0.0198 -0.2832  0.3687
 3010SOL    HW120666   3.585   4.342  13.302 -2.0509 -0.1479 -1.0681
 3010SOL    HW220667   3.635   4.467  13.352 -0.3134  0.1999  0.5318
 3011SOL     OW20668   0.500   4.444   0.621  0.6845 -0.4445 -0.0939
 3011SOL    HW120669   0.575   4.385   0.608  0.8137 -0.0582 -1.0609
 3011SOL    HW220670   0.539   4.497   0.690  0.7942 -0.6787  0.0273
 3012SOL     OW20671   2.585   2.683   2.564 -0.4746  0.1001 -0.4703
 3012SOL    HW120672   2.636   2.764   2.570  2.4860 -1.8303  0.6373
 3012SOL    HW220673   2.647   2.620   2.600 -0.4960  0.4824  0.2422
 3013SOL     OW20674   2.364   3.436   4.527  0.3050  0.3467  0.1947
 3013SOL    HW120675   2.345   3.352   4.487  0.4866 -0.2119  1.2737
 3013SOL    HW220676   2.381   3.416   4.619  1.4012  0.2933 -0.0210
 3014SOL     OW20677   2.681   4.029   8.470  0.4918  0.1321  0.6874
 3014SOL    HW120678   2.670   3.935   8.451 -0.6476  0.4123 -0.0217
 3014SOL    HW220679   2.642   4.034   8.557  0.6747 -0.3467  0.7991
 3015SOL     OW20680   1.613   4.506   2.264 -0.7676 -0.0659 -0.3677
 3015SOL    HW120681   1.593   4.477   2.353 -0.2626  0.1694 -0.1745
 3015SOL    HW220682   1.623   4.601   2.272  1.2973 -0.4974  2.1899
 3016SOL     OW20683   4.521   3.792   1.066 -0.7486  0.0202  0.7560
 3016SOL    HW120684   4.498   3.826   1.153 -0.2799 -0.2395  0.9820
 3016SOL    HW220685   4.495   3.870   1.017 -0.2401 -0.2954 -0.0081
 3017SOL     OW20686   0.238   0.446   0.685 -0.1952 -0.3803  1.0002
 3017SOL    HW120687   0.231   0.355   0.713 -0.5219 -0.4717  0.6216
 3017SOL    HW220688   0.332   0.464   0.673 -0.8300  2.7081  0.7312
 3018SOL     OW20689   4.615   3.878   8.065 -0.8797  0.7122  0.1775
 3018SOL    HW120690   4.593   3.940   7.995 -2.2232  0.6911  0.5986
 3018SOL    HW220691   4.711   3.879   8.073 -0.9784 -1.6200  1.5190
 3019SOL     OW20692   2.421   3.680   6.132  0.0746  0.2394 -0.3387
 3019SOL    HW120693   2.326   3.694   6.132 -0.1227 -1.1000  1.5379
 3019SOL    HW220694   2.459   3.756   6.090 -0.1700  0.7007  0.2831
 3020SOL     OW20695   1.974   0.327   7.632 -0.0357  0.5160  0.0347
 3020SOL    HW120696   2.001   0.336   7.541 -0.7829  0.3547 -0.2052
 3020SOL    HW220697   1.983   0.419   7.654 -2.4803  1.2452 -1.9988
 3021SOL     OW20698   4.186   4.709   9.469  0.5725 -0.7534  0.2483
 3021SOL    HW120699   4.259   4.729   9.411 -0.3080 -1.5773 -1.1587
 3021SOL    HW220700   4.126   4.678   9.401  1.6825 -1.0879 -0.5672
 3022SOL     OW20701   2.781   1.403   9.002  0.7589 -0.4869 -0.5821
 3022SOL    HW120702   2.866   1.367   9.027  1.2959  0.8737 -0.4341
 3022SOL    HW220703   2.811   1.489   8.974  0.1654 -0.4012 -0.9575
 3023SOL     OW20704   2.943   4.169   9.350  0.0104 -0.6982 -0.1774
 3023SOL    HW120705   2.920   4.138   9.263 -0.0192 -0.0566 -0.3951
 3023SOL    HW220706   3.036   4.179   9.330  0.4850  0.6375  2.6189
 3024SOL     OW20707   1.794   0.432  16.196  0.0636 -0.1639 -0.1992
 3024SOL    HW120708   1.713   0.481  16.210 -0.5146 -0.9822 -0.6316
 3024SOL    HW220709   1.786   0.392  16.109  1.0482  1.4298 -1.0032
 3025SOL     OW20710   3.040   1.808   8.587  0.3055 -0.2049  0.0106
 3025SOL    HW120711   3.000   1.886   8.626  0.1675  1.3194 -3.2169
 3025SOL    HW220712   2.962   1.758   8.562  0.8092 -1.8294  1.7306
 3026SOL     OW20713   0.784   0.266   7.968  0.5347  0.3191  0.1040
 3026SOL    HW120714   0.792   0.192   8.028 -2.8731  0.6386  0.9435
 3026SOL    HW220715   0.690   0.264   7.952  0.5611 -0.9720  0.1439
 3027SOL     OW20716   0.145   4.564   0.367  0.0260  0.0087  0.3536
 3027SOL    HW120717   0.151   4.660   0.367 -0.4802  0.0425  0.8794
 3027SOL    HW220718   0.198   4.537   0.441  0.0431  1.2703  0.8017
 3028SOL     OW20719   0.623   2.430   1.412 -0.0354  0.4581 -0.1578
 3028SOL    HW120720   0.688   2.401   1.348  3.1201  3.4515  1.7404
 3028SOL    HW220721   0.674   2.457   1.488  2.4229 -1.1049 -1.2533
 3029SOL     OW20722   1.173   2.275   8.255 -0.4214  0.6338  0.1382
 3029SOL    HW120723   1.203   2.201   8.308  0.5130  1.3914  0.6625
 3029SOL    HW220724   1.124   2.318   8.324  0.5469  1.1043  0.5198
 3030SOL     OW20725   1.623   4.521   8.677 -0.2528  0.2919  0.4545
 3030SOL    HW120726   1.549   4.541   8.734 -0.0003  4.0849 -0.5600
 3030SOL    HW220727   1.576   4.474   8.608  1.0354 -2.1966  1.2873
 3031SOL     OW20728   3.318   4.426   4.131 -0.1951  0.2033 -0.3346
 3031SOL    HW120729   3.252   4.493   4.110 -1.4477 -0.7665  0.4755
 3031SOL    HW220730   3.296   4.355   4.070  0.2012  0.1686 -0.4337
 3032SOL     OW20731   1.906   1.383   2.294  0.3121  0.4725 -0.3172
 3032SOL    HW120732   1.853   1.353   2.221  0.1776  2.0247 -0.8515
 3032SOL    HW220733   1.994   1.386   2.256  0.5859  1.3762  0.3915
 3033SOL     OW20734   1.340   4.186   4.689  0.1243  0.2097  0.1866
 3033SOL    HW120735   1.413   4.207   4.746 -0.0769 -1.8435  1.2085
 3033SOL    HW220736   1.309   4.114   4.745  2.1778  0.1493  1.2121
 3034SOL     OW20737   2.531   3.920   7.438  0.1728  0.4292  0.1563
 3034SOL    HW120738   2.466   3.983   7.469  1.4153  2.2355 -0.9243
 3034SOL    HW220739   2.483   3.839   7.454  1.2098 -0.2673 -0.2191
 3035SOL     OW20740   4.282   1.082   1.178 -0.1077 -0.4433 -0.4972
 3035SOL    HW120741   4.193   1.109   1.157 -0.1247  0.2551  0.4606
 3035SOL    HW220742   4.301   1.021   1.107 -0.5902  1.5098 -2.2985
 3036SOL     OW20743   3.111   2.304   5.538 -0.0914 -0.5840  0.3849
 3036SOL    HW120744   3.041   2.292   5.474  0.4713 -0.3998 -0.2577
 3036SOL    HW220745   3.095   2.390   5.577  0.2380 -0.0668 -0.6241
 3037SOL     OW20746   1.578   2.116   5.891 -0.0766  0.3017 -0.3024
 3037SOL    HW120747   1.563   2.171   5.968  1.8787 -0.1640  0.4153
 3037SOL    HW220748   1.566   2.031   5.932  0.5254  1.1108  1.5675
 3038SOL     OW20749   0.551   4.613  14.850  0.0764 -0.3526 -0.2163
 3038SOL    HW120750   0.552   4.678  14.921 -1.4228 -0.9164  0.3153
 3038SOL    HW220751   0.646   4.605  14.836 -0.0198 -1.6998 -0.1438
 3039SOL     OW20752   3.085   1.719   6.663  0.4630 -0.2697 -0.2391
 3039SOL    HW120753   3.007   1.774   6.672  0.4334 -0.0712 -1.7940
 3039SOL    HW220754   3.116   1.720   6.754 -0.1430 -0.3145 -0.0296
 3040SOL     OW20755   0.393   1.133   4.467 -0.3731  0.5390  0.0039
 3040SOL    HW120756   0.479   1.124   4.506  0.8689 -1.2740 -3.1278
 3040SOL    HW220757   0.334   1.083   4.524  0.0917 -2.1618 -1.9015
 3041SOL     OW20758   1.521   3.319  14.724 -0.6398  0.2402 -0.4836
 3041SOL    HW120759   1.595   3.275  14.766  2.5058  2.7862 -3.4431
 3041SOL    HW220760   1.511   3.396  14.779 -1.5446 -1.0568  1.1927
 3042SOL     OW20761   3.023   2.707   3.393 -0.2207  0.1029  0.1696
 3042SOL    HW120762   2.988   2.726   3.306  0.9168 -1.3506 -0.6192
 3042SOL    HW220763   3.070   2.789   3.406  0.2738 -0.0286 -0.8140
 3043SOL     OW20764   4.241   0.287  16.339 -0.0386 -0.1215 -0.6361
 3043SOL    HW120765   4.333   0.306  16.320 -0.0703  0.8087  0.1124
 3043SOL    HW220766   4.241   0.327  16.426  1.0350  0.1044 -0.7352
 3044SOL     OW20767   2.576   1.602  10.820  0.0453  0.4871 -0.0248
 3044SOL    HW120768   2.669   1.624  10.823 -0.4527  2.3428  1.5781
 3044SOL    HW220769   2.549   1.646  10.900  0.3620  0.9453 -0.1707
 3045SOL     OW20770   1.849   3.509   4.733  0.1422  0.3979 -0.0506
 3045SOL    HW120771   1.754   3.501   4.724  0.0811  0.0717  0.9613
 3045SOL    HW220772   1.872   3.453   4.806  0.6743  2.8604  1.6822
 3046SOL     OW20773   3.426   2.271   5.927  0.2121  0.2218  0.1260
 3046SOL    HW120774   3.346   2.321   5.938 -0.0164 -0.4025  1.3700
 3046SOL    HW220775   3.445   2.300   5.838 -0.5735  0.1379 -0.0668
 3047SOL     OW20776   1.969   1.029   8.306 -0.1484  0.7954 -0.2824
 3047SOL    HW120777   1.921   1.096   8.258 -1.3295 -0.5766 -1.0288
 3047SOL    HW220778   1.898   0.967   8.324  0.1130 -0.0469 -2.1340
 3048SOL     OW20779   2.064   1.263   1.814 -0.4681 -0.5598  0.2910
 3048SOL    HW120780   2.118   1.192   1.779  0.2789  1.0832 -1.8870
 3048SOL    HW220781   1.986   1.218   1.847 -0.9776 -0.8703 -1.3219
 3049SOL     OW20782   3.347   1.826   3.135 -0.3068 -0.0481 -0.3466
 3049SOL    HW120783   3.397   1.763   3.083 -1.4269  0.3304 -1.8820
 3049SOL    HW220784   3.389   1.900   3.091  1.8392  0.0871  1.8797
 3050SOL     OW20785   3.089   3.546   8.224 -0.4010  0.1677 -0.3290
 3050SOL    HW120786   3.177   3.584   8.219  0.6631 -2.0473  1.6562
 3050SOL    HW220787   3.049   3.601   8.291 -0.2444 -0.4346  0.2672
 3051SOL     OW20788   0.630   1.359   7.617  0.0366  0.2405  0.1774
 3051SOL    HW120789   0.606   1.359   7.710 -2.3695 -0.7056 -0.4489
 3051SOL    HW220790   0.548   1.366   7.569 -0.2471 -1.0950  0.4780
 3052SOL     OW20791   2.007   2.527   5.450 -0.1542 -0.4106 -0.0288
 3052SOL    HW120792   1.958   2.584   5.510  0.1622 -0.2252  0.0549
 3052SOL    HW220793   2.003   2.581   5.371 -0.9712 -0.3904  0.0326
 3053SOL     OW20794   4.069   3.112   3.622  0.0504  0.0662 -0.3038
 3053SOL    HW120795   4.142   3.086   3.566  1.7126  0.9324  1.4718
 3053SOL    HW220796   4.009   3.038   3.608  1.2924 -1.2375  1.2713
 3054SOL     OW20797   1.275   0.785   8.971 -0.5576 -0.0660  0.3374
 3054SOL    HW120798   1.252   0.838   9.047 -1.0043 -0.2738  0.3489
 3054SOL    HW220799   1.335   0.725   9.016  1.6469  0.8411 -1.3542
 3055SOL     OW20800   4.434   1.024   5.340 -0.2314  0.3728  0.3889
 3055SOL    HW120801   4.440   1.048   5.432 -0.6984  0.8612  0.2914
 3055SOL    HW220802   4.387   0.941   5.341  1.6190 -0.6899  0.0239
 3056SOL     OW20803   1.750   4.390   3.223 -0.0517  0.0722  0.1993
 3056SOL    HW120804   1.745   4.455   3.293 -0.5570  0.7585 -0.4683
 3056SOL    HW220805   1.840   4.358   3.230  0.4430  1.1616 -1.0212
 3057SOL     OW20806   1.187   4.646   7.737  0.1711  0.0002  0.4532
 3057SOL    HW120807   1.151   4.711   7.797 -0.0152  0.7274 -0.4488
 3057SOL    HW220808   1.176   4.569   7.794 -0.9218 -1.0593 -1.2021
 3058SOL     OW20809   2.373   1.585  13.246 -0.3778  0.4632  0.0867
 3058SOL    HW120810   2.306   1.516  13.248 -0.3433  0.4258 -0.1143
 3058SOL    HW220811   2.429   1.540  13.183 -0.5035  1.5410 -0.7989
 3059SOL     OW20812   0.450   1.833   2.353 -0.0804  0.6673 -0.5587
 3059SOL    HW120813   0.411   1.881   2.426  0.8545 -0.4168  0.6551
 3059SOL    HW220814   0.385   1.849   2.285 -0.7631  1.3789  0.2694
 3060SOL     OW20815   2.443   1.443   7.289 -0.2150  0.6132  0.4591
 3060SOL    HW120816   2.527   1.489   7.290 -0.7455  1.6123 -0.7640
 3060SOL    HW220817   2.478   1.354   7.293  1.2872  1.0600 -2.4859
 3061SOL     OW20818   0.311   1.445   1.854 -0.5780 -0.3184 -0.4307
 3061SOL    HW120819   0.399   1.481   1.857 -0.2217 -1.0428 -1.9804
 3061SOL    HW220820   0.251   1.517   1.834  0.8869  0.4527 -2.0767
 3062SOL     OW20821   0.888   1.395   8.793 -0.9155  0.4049  0.0540
 3062SOL    HW120822   0.870   1.395   8.887 -0.4083  0.2170  0.1514
 3062SOL    HW220823   0.881   1.490   8.781  0.0960  0.4397 -0.1989
 3063SOL     OW20824   4.599   1.034   3.491  0.1514  0.1144  0.8306
 3063SOL    HW120825   4.644   1.003   3.413  0.7403  0.8564  0.8670
 3063SOL    HW220826   4.675   1.079   3.527  2.2839 -0.6922 -2.7001
 3064SOL     OW20827   1.843   3.749  13.482  0.3416  0.1019 -0.8134
 3064SOL    HW120828   1.900   3.812  13.438  0.8318  0.0400 -0.2701
 3064SOL    HW220829   1.835   3.699  13.401 -1.7551  0.1944 -0.6669
 3065SOL     OW20830   4.208   0.931   6.930  0.3687  0.8406 -0.3162
 3065SOL    HW120831   4.181   1.015   6.893  0.2143  1.9161  2.2150
 3065SOL    HW220832   4.233   0.959   7.018 -0.8792 -2.4294  1.0606
 3066SOL     OW20833   3.139   3.360   3.633  0.2864  0.4077  0.0321
 3066SOL    HW120834   3.054   3.400   3.649  0.1761  1.2285 -2.6256
 3066SOL    HW220835   3.109   3.319   3.552  0.3141  0.4581 -0.0034
 3067SOL     OW20836   0.339   3.242   6.706 -0.0187  0.2589  0.1119
 3067SOL    HW120837   0.253   3.255   6.747  0.7335  0.4284  1.6559
 3067SOL    HW220838   0.321   3.288   6.624  0.9698  0.2434 -0.1098
 3068SOL     OW20839   3.974   1.374   5.263 -0.2149 -0.0621 -0.0532
 3068SOL    HW120840   3.882   1.360   5.281 -0.1867 -0.9757 -0.6547
 3068SOL    HW220841   3.975   1.368   5.167  2.1037  0.6185 -0.0923
 3069SOL     OW20842   0.168   0.356   1.230  0.2325  0.2504  0.1865
 3069SOL    HW120843   0.174   0.370   1.325  1.5753 -0.2639  0.1835
 3069SOL    HW220844   0.183   0.262   1.222 -3.6010 -0.4401  0.9856
 3070SOL     OW20845   3.715   0.631   2.487 -0.5900  0.3040  0.2436
 3070SOL    HW120846   3.732   0.639   2.581 -2.1091 -3.4537  0.8327
 3070SOL    HW220847   3.782   0.689   2.453  0.0660 -0.2070  0.6665
 3071SOL     OW20848   2.793   0.407   3.081  0.3932 -0.0189  0.5692
 3071SOL    HW120849   2.756   0.325   3.048  1.3264 -0.5005  0.7284
 3071SOL    HW220850   2.872   0.386   3.131  1.0846 -0.6727 -0.7750
 3072SOL     OW20851   0.275   3.887   7.066  0.0553  0.0795  0.1302
 3072SOL    HW120852   0.293   3.865   6.975  1.6209  3.6671 -0.4200
 3072SOL    HW220853   0.317   3.812   7.107 -0.7659 -0.3741  0.1527
 3073SOL     OW20854   3.607   0.362  10.363 -0.5534 -0.4009  0.0053
 3073SOL    HW120855   3.619   0.456  10.380 -2.5984  0.2475 -2.1590
 3073SOL    HW220856   3.512   0.350  10.368 -0.4872 -0.3080  1.4100
 3074SOL     OW20857   1.424   3.741   0.500 -0.1184 -0.4429 -0.0805
 3074SOL    HW120858   1.497   3.785   0.458  0.2889 -0.5400  0.5379
 3074SOL    HW220859   1.354   3.759   0.437 -0.9739 -0.9076  0.7162
 3075SOL     OW20860   4.715   2.507   5.216  0.1115 -0.3322 -0.1466
 3075SOL    HW120861   4.656   2.525   5.143 -2.7372  0.9664  2.4858
 3075SOL    HW220862   4.662   2.520   5.294 -0.9614  3.6749 -1.5718
 3076SOL     OW20863   1.743   3.741   8.393 -0.6539 -0.2282  0.2317
 3076SOL    HW120864   1.748   3.837   8.388 -1.2867 -0.2204 -0.2929
 3076SOL    HW220865   1.759   3.717   8.302 -0.1810 -0.1943  0.3050
 3077SOL     OW20866   4.136   4.725  14.194  0.1337 -0.1109  0.3127
 3077SOL    HW120867   4.048   4.694  14.172  0.1762  0.1127 -0.1514
 3077SOL    HW220868   4.138   0.072  14.154  2.1049  0.0469  0.7724
 3078SOL     OW20869   2.398   3.571   7.297 -0.1962  0.2042  0.3380
 3078SOL    HW120870   2.347   3.625   7.357 -1.0815  1.1849 -1.3031
 3078SOL    HW220871   2.485   3.591   7.331 -0.3078  1.6868 -0.2701
 3079SOL     OW20872   4.348   0.263   2.799 -0.1739 -0.1257  0.0066
 3079SOL    HW120873   4.295   0.230   2.726  0.8083 -1.0483 -0.2781
 3079SOL    HW220874   4.281   0.322   2.835 -2.2180 -2.2258 -0.3220
 3080SOL     OW20875   4.229   4.071   4.844  0.0245  0.3557 -0.3533
 3080SOL    HW120876   4.247   4.051   4.936  0.9341  0.4229 -0.5160
 3080SOL    HW220877   4.147   4.119   4.838 -0.1271 -0.1914 -2.6629
 3081SOL     OW20878   2.885   2.911   4.133  0.1883 -0.4716  0.1791
 3081SOL    HW120879   2.931   2.941   4.055  1.4395 -1.5240  0.5138
 3081SOL    HW220880   2.895   2.818   4.115  0.6782 -0.1383 -1.2720
 3082SOL     OW20881   4.403   1.075  14.139 -0.1321  0.1509 -0.2202
 3082SOL    HW120882   4.426   1.140  14.074  2.6415  0.2458  0.8397
 3082SOL    HW220883   4.315   1.102  14.164 -1.1046 -2.5587 -0.7542
 3083SOL     OW20884   4.238   1.355   3.656 -1.1706 -0.0205  0.6343
 3083SOL    HW120885   4.265   1.320   3.741  2.9393  0.1106 -0.6195
 3083SOL    HW220886   4.277   1.442   3.668  0.1473 -0.5927  0.5362
 3084SOL     OW20887   3.803   2.840   8.291  0.6377 -0.0658  0.4968
 3084SOL    HW120888   3.826   2.903   8.223 -0.5804  0.8880  0.9567
 3084SOL    HW220889   3.816   2.761   8.239  0.4748  0.8318 -0.8931
 3085SOL     OW20890   0.275   3.290   8.704 -0.8454 -0.4384 -0.0355
 3085SOL    HW120891   0.255   3.263   8.794 -0.2925 -0.5812  0.0445
 3085SOL    HW220892   0.370   3.283   8.694 -0.7681  0.0813  0.3578
 3086SOL     OW20893   1.514   1.743   6.986  0.2330  0.1094 -0.3084
 3086SOL    HW120894   1.567   1.823   6.992 -1.2344  1.2009 -1.8036
 3086SOL    HW220895   1.448   1.775   6.925 -0.4383 -0.4535  0.1244
 3087SOL     OW20896   0.339   0.267   4.081 -0.5807 -0.2249  0.3444
 3087SOL    HW120897   0.271   0.217   4.036  0.7737 -2.3035  0.6019
 3087SOL    HW220898   0.421   0.265   4.031 -2.2401 -0.2346 -2.3761
 3088SOL     OW20899   3.350   2.863   4.828  0.4912 -1.0264  0.4477
 3088SOL    HW120900   3.281   2.907   4.779 -0.6606 -1.5905  1.5669
 3088SOL    HW220901   3.363   2.789   4.769  0.8649  0.2450 -1.0485
 3089SOL     OW20902   4.125   2.991   7.153  0.0506  0.5349  0.5274
 3089SOL    HW120903   4.167   3.005   7.068 -1.6932  0.4862 -0.3359
 3089SOL    HW220904   4.174   2.915   7.185 -1.2528  0.2350  1.8100
 3090SOL     OW20905   2.891   0.494   3.845 -0.2855  0.2984  0.0019
 3090SOL    HW120906   2.939   0.435   3.787  0.5638 -0.5535  1.5549
 3090SOL    HW220907   2.805   0.495   3.804  0.3377  1.0487 -1.2964
 3091SOL     OW20908   1.585   1.050   2.489 -0.1482  0.0225  0.0727
 3091SOL    HW120909   1.530   1.022   2.562 -1.6797  0.4269 -0.9157
 3091SOL    HW220910   1.654   1.096   2.537 -0.1485 -1.0353  1.0869
 3092SOL     OW20911   1.716   0.891  17.168 -0.0594 -0.4043  0.2659
 3092SOL    HW120912   1.790   0.915  17.111 -0.3390 -0.5709 -0.1647
 3092SOL    HW220913   1.760   0.889  17.253  0.5185  1.0379  0.0147
 3093SOL     OW20914   2.517   3.412  17.205 -0.1184 -0.3028  0.1549
 3093SOL    HW120915   2.569   3.332  17.199 -1.6250 -1.4900  2.7471
 3093SOL    HW220916   2.439   3.373  17.245 -1.1298  2.2647  0.6998
 3094SOL     OW20917   0.370   4.625  14.641 -0.2852  0.0455 -0.3080
 3094SOL    HW120918   0.402   4.570  14.712 -0.3237 -1.0595 -1.1397
 3094SOL    HW220919   0.450   4.657  14.599  0.7997 -0.8019  1.1063
 3095SOL     OW20920   0.241   1.982  14.087 -0.3084 -0.1160  0.1474
 3095SOL    HW120921   0.207   2.067  14.115  1.8523  0.1442  2.0182
 3095SOL    HW220922   0.250   1.933  14.169 -0.1864 -0.3569 -0.0105
 3096SOL     OW20923   3.031   3.856  17.226 -0.6698 -0.1287  1.1164
 3096SOL    HW120924   2.993   3.855  17.139  0.9934  1.3299  0.3897
 3096SOL    HW220925   3.015   3.767  17.258  0.2088 -0.4579  0.6313
 3097SOL     OW20926   3.672   4.332  11.079  0.4550 -0.3516  0.0152
 3097SOL    HW120927   3.662   4.262  11.014 -0.1255  0.6641 -0.9935
 3097SOL    HW220928   3.584   4.357  11.109  1.2580  0.4964  1.6857
 3098SOL     OW20929   1.965   3.676   4.549  0.7158 -0.5545 -0.0655
 3098SOL    HW120930   1.924   3.617   4.612 -1.1475  0.1241 -0.6234
 3098SOL    HW220931   1.971   3.765   4.584 -1.7230  0.3549 -1.8601
 3099SOL     OW20932   4.359   2.011   1.608 -0.5206  0.6900 -0.2091
 3099SOL    HW120933   4.424   2.056   1.662  0.7472 -2.2922  0.7636
 3099SOL    HW220934   4.278   2.061   1.622 -0.7298  1.0639 -2.8693
 3100SOL     OW20935   0.516   2.520   6.457 -0.1910 -0.1262  0.3285
 3100SOL    HW120936   0.461   2.550   6.385 -0.9304 -2.0677  0.0860
 3100SOL    HW220937   0.516   2.426   6.440  2.3926 -0.0328 -0.1859
 3101SOL     OW20938   0.499   0.417   1.627 -0.4110  0.0393  0.6436
 3101SOL    HW120939   0.442   0.490   1.603 -1.1674 -0.0220  2.2443
 3101SOL    HW220940   0.527   0.450   1.713 -1.5798  0.3870  0.8882
 3102SOL     OW20941   0.233   4.481   5.605 -0.0702  0.1339 -0.0255
 3102SOL    HW120942   0.150   4.481   5.557 -0.6606  2.0006  1.0029
 3102SOL    HW220943   0.288   4.537   5.550  0.3302 -0.8098 -0.5771
 3103SOL     OW20944   0.713   1.137   6.753  0.5041 -0.1418  0.1561
 3103SOL    HW120945   0.809   1.142   6.759  0.5173 -0.7409  0.3779
 3103SOL    HW220946   0.707   1.051   6.712 -0.9366  0.3793 -0.7165
 3104SOL     OW20947   0.722   2.722   8.816 -0.3283  0.0832 -0.3600
 3104SOL    HW120948   0.650   2.680   8.862  0.9678 -1.5736  0.1739
 3104SOL    HW220949   0.684   2.730   8.728 -3.6575 -0.0244  1.0690
 3105SOL     OW20950   1.605   1.391  14.577  0.3396 -0.0217  0.2339
 3105SOL    HW120951   1.652   1.332  14.518 -1.2758 -1.2649  0.1893
 3105SOL    HW220952   1.585   1.331  14.648  1.8556 -0.8506 -0.0437
 3106SOL     OW20953   3.395   4.072  11.375  0.4272 -0.0036  0.1089
 3106SOL    HW120954   3.329   4.067  11.445  1.1113  2.9293  0.9588
 3106SOL    HW220955   3.402   3.984  11.339 -0.3250 -1.5628  3.7474
 3107SOL     OW20956   1.933   0.265   4.804 -0.2233 -0.3639  0.4314
 3107SOL    HW120957   1.932   0.357   4.831  1.4643  0.2280 -1.4966
 3107SOL    HW220958   1.877   0.250   4.728  0.2778  0.1746 -0.0460
 3108SOL     OW20959   1.288   1.605   2.327  0.6954  0.1291  0.3429
 3108SOL    HW120960   1.282   1.668   2.256 -0.2849 -0.1716  0.1590
 3108SOL    HW220961   1.234   1.534   2.292 -0.0541  0.1375  1.4904
 3109SOL     OW20962   4.186   2.369   8.894  0.4171  0.0074  0.2374
 3109SOL    HW120963   4.158   2.440   8.837 -0.7561 -0.0227  0.7709
 3109SOL    HW220964   4.169   2.411   8.979  0.6276 -2.3727  1.4615
 3110SOL     OW20965   0.097   0.998   0.226 -0.6114  0.3457  0.3084
 3110SOL    HW120966   0.060   1.080   0.257  1.7928  1.3032  0.7077
 3110SOL    HW220967   0.046   0.994   0.145 -1.0630  2.5264  0.4732
 3111SOL     OW20968   3.258   2.042   7.920  0.1875 -0.2459  0.0352
 3111SOL    HW120969   3.294   2.129   7.902  0.4823  0.1592  2.5667
 3111SOL    HW220970   3.235   2.002   7.836 -1.6685  0.1371  0.3659
 3112SOL     OW20971   2.581   1.532   4.809 -0.0943 -0.4558  0.0355
 3112SOL    HW120972   2.580   1.492   4.722 -0.4932 -0.0889 -0.1324
 3112SOL    HW220973   2.672   1.527   4.838  0.5409 -2.6700 -2.3380
 3113SOL     OW20974   3.006   2.802   7.749 -0.1770 -0.2238  0.2794
 3113SOL    HW120975   3.027   2.718   7.707  0.5107 -0.4371  1.0522
 3113SOL    HW220976   2.933   2.771   7.801 -0.2482 -0.1608  0.2176
 3114SOL     OW20977   1.274   1.833  11.081  1.1728  0.7436  0.2563
 3114SOL    HW120978   1.263   1.927  11.064 -1.3763  0.1576 -1.3276
 3114SOL    HW220979   1.193   1.816  11.130 -0.2650 -0.4509 -2.5244
 3115SOL     OW20980   1.284   3.513   3.398  0.5332 -0.3486  0.1135
 3115SOL    HW120981   1.247   3.496   3.311  1.5639  0.9186 -0.5643
 3115SOL    HW220982   1.334   3.593   3.380 -1.1362  0.2200 -2.1013
 3116SOL     OW20983   4.051   0.914   2.906  0.0495 -0.6526 -0.3482
 3116SOL    HW120984   4.031   0.887   2.996  1.2305 -0.5676 -0.0562
 3116SOL    HW220985   4.005   0.997   2.893 -0.4187 -0.8403  0.0862
 3117SOL     OW20986   2.631   1.037  13.439  0.1577  0.3311  0.0443
 3117SOL    HW120987   2.543   1.063  13.414  0.0181 -0.4258 -0.2508
 3117SOL    HW220988   2.630   0.960  13.495  1.7154  0.1389 -0.1730
 3118SOL     OW20989   2.032   4.601   7.993  0.3011 -0.3824 -0.7778
 3118SOL    HW120990   2.079   4.543   8.054  0.3392 -0.4689 -0.8894
 3118SOL    HW220991   2.069   4.688   8.010 -0.7303 -0.3880  1.5464
 3119SOL     OW20992   3.809   1.109  11.175 -0.0717 -0.3078 -0.0554
 3119SOL    HW120993   3.740   1.124  11.240  1.2787 -0.5603  1.4245
 3119SOL    HW220994   3.880   1.092  11.237  0.9402 -0.2255 -1.1945
 3120SOL     OW20995   3.360   0.439   4.224 -0.2864 -0.0346 -0.3530
 3120SOL    HW120996   3.339   0.519   4.273  0.2849  0.0726 -0.2887
 3120SOL    HW220997   3.427   0.481   4.171 -0.7641  0.6516 -0.4110
 3121SOL     OW20998   2.618   0.855  13.634  0.3441  0.0042 -0.8675
 3121SOL    HW120999   2.590   0.764  13.625 -1.3232 -0.0011  4.1039
 3121SOL    HW221000   2.540   0.889  13.680  0.0785  0.0631 -1.3666
 3122SOL     OW21001   4.250   2.655   5.311 -0.7601  0.4196  0.4005
 3122SOL    HW121002   4.235   2.749   5.300 -1.1412  0.1673 -1.3642
 3122SOL    HW221003   4.165   2.617   5.288 -1.8125  1.4637  2.6300
 3123SOL     OW21004   3.918   1.432  16.674  0.6233  0.0569 -0.0313
 3123SOL    HW121005   3.975   1.474  16.738  1.7407 -2.7150  0.7811
 3123SOL    HW221006   3.856   1.503  16.657 -2.4441 -2.6632 -0.2694
 3124SOL     OW21007   3.628   0.867   9.798  0.2243  0.1455  0.2846
 3124SOL    HW121008   3.709   0.910   9.827  1.5690 -0.5915 -2.3835
 3124SOL    HW221009   3.607   0.827   9.882 -1.5940  0.6424  0.0638
 3125SOL     OW21010   0.193   3.825   8.078  0.0686  0.6189  0.0384
 3125SOL    HW121011   0.147   3.741   8.077 -1.4065  1.4410 -0.4686
 3125SOL    HW221012   0.217   3.821   7.985 -0.3320 -3.3442  0.1310
 3126SOL     OW21013   2.964   0.008  11.012  0.1629 -0.4430  0.4302
 3126SOL    HW121014   2.980   0.101  11.026  0.5220 -0.1693 -1.7726
 3126SOL    HW221015   2.998   4.727  10.924 -0.3375 -0.9193  0.3526
 3127SOL     OW21016   3.339   0.812  16.324  0.2811 -0.1793  0.3841
 3127SOL    HW121017   3.275   0.858  16.270  0.9306  1.4384  0.9943
 3127SOL    HW221018   3.338   0.726  16.282 -2.8701  0.3385 -0.5893
 3128SOL     OW21019   0.390   0.678  13.169  0.0812  0.0817  0.0276
 3128SOL    HW121020   0.347   0.619  13.230  1.8153  0.4783  1.6500
 3128SOL    HW221021   0.477   0.638  13.177 -0.2958 -1.3160 -2.7017
 3129SOL     OW21022   0.174   0.740  15.576  0.7265  0.3090 -0.1701
 3129SOL    HW121023   0.259   0.750  15.620 -0.3009 -3.3574  2.6474
 3129SOL    HW221024   0.115   0.694  15.636  0.5734 -2.2964 -2.3326
 3130SOL     OW21025   1.891   2.916   1.882  0.0592  0.4017 -0.0352
 3130SOL    HW121026   1.957   2.985   1.885  0.3639  0.1968 -2.0814
 3130SOL    HW221027   1.950   2.853   1.924 -2.1103 -2.1859 -0.8746
 3131SOL     OW21028   4.521   1.045  17.013 -1.0230 -0.0948  0.7517
 3131SOL    HW121029   4.462   1.026  17.086 -0.1506  0.5186  1.6126
 3131SOL    HW221030   4.490   0.987  16.943  3.3763 -0.4940 -0.8864
 3132SOL     OW21031   3.938   1.316  14.253 -0.4283 -0.1670  0.1214
 3132SOL    HW121032   3.956   1.409  14.267  0.7556 -0.6740  1.8473
 3132SOL    HW221033   3.870   1.320  14.185 -0.1701  0.9379 -0.0726
 3133SOL     OW21034   1.663   1.525   7.026  0.4463 -0.3917  0.1954
 3133SOL    HW121035   1.599   1.591   7.001 -1.5418 -1.7401  1.6925
 3133SOL    HW221036   1.609   1.446   7.019  1.0313 -0.8669  1.0991
 3134SOL     OW21037   2.777   2.222   8.352 -0.0720 -0.1015  0.3303
 3134SOL    HW121038   2.700   2.271   8.382 -1.5898 -0.2852 -3.2989
 3134SOL    HW221039   2.850   2.282   8.370 -1.8196  2.2528 -0.3462
 3135SOL     OW21040   3.150   0.915   4.528 -0.3168  0.4966 -0.1863
 3135SOL    HW121041   3.061   0.947   4.513  0.4563  2.6616 -0.2060
 3135SOL    HW221042   3.186   0.929   4.440  1.9928 -0.3319  0.6293
 3136SOL     OW21043   1.868   1.167   3.794 -0.4896 -0.0106  0.1096
 3136SOL    HW121044   1.862   1.102   3.725  0.0839  0.6799 -0.5952
 3136SOL    HW221045   1.797   1.145   3.854 -0.9914  0.4903 -0.2978
 3137SOL     OW21046   4.414   3.678   3.336  0.2688 -0.4059  0.0580
 3137SOL    HW121047   4.427   3.723   3.253  1.5872  0.3866  0.6953
 3137SOL    HW221048   4.332   3.631   3.324 -0.2551 -0.0682  2.3127
 3138SOL     OW21049   3.370   0.513   8.612 -0.1766  0.4014 -0.5135
 3138SOL    HW121050   3.315   0.527   8.689  1.3877  0.7959  0.5238
 3138SOL    HW221051   3.400   0.603   8.597  2.9626 -0.4135  1.0481
 3139SOL     OW21052   1.188   1.582   1.156 -0.0749  0.0068 -0.3049
 3139SOL    HW121053   1.271   1.558   1.197 -0.6204  0.1024  0.8626
 3139SOL    HW221054   1.159   1.652   1.215  2.2659  1.6940 -1.1464
 3140SOL     OW21055   3.590   4.536   5.844  0.6136  0.1530 -0.0613
 3140SOL    HW121056   3.619   4.610   5.791 -1.1069  0.8898  0.0339
 3140SOL    HW221057   3.663   4.511   5.901  0.5525  2.0848  0.8640
 3141SOL     OW21058   2.164   1.433   2.201 -0.1612 -0.6189 -0.3394
 3141SOL    HW121059   2.148   1.509   2.145 -0.7142 -2.1506 -2.2545
 3141SOL    HW221060   2.221   1.378   2.147 -1.0686 -0.8732 -1.0563
 3142SOL     OW21061   0.135   1.701  13.990  0.6793 -0.3464  0.1483
 3142SOL    HW121062   0.112   1.676  14.079 -1.4367 -0.5075 -0.4426
 3142SOL    HW221063   0.163   1.790  14.013 -0.4094 -0.5667  2.2870
 3143SOL     OW21064   1.885   0.949   4.288 -0.8658 -0.7123 -0.0253
 3143SOL    HW121065   1.908   1.011   4.356  1.4473  0.4396 -1.8568
 3143SOL    HW221066   1.974   0.938   4.253  0.1740 -1.3445  2.8564
 3144SOL     OW21067   2.394   1.655   2.292 -0.0513  0.0689 -0.1598
 3144SOL    HW121068   2.444   1.575   2.305 -0.5873 -0.1519  0.5739
 3144SOL    HW221069   2.327   1.634   2.357  0.6165  1.4418  0.9680
 3145SOL     OW21070   4.483   4.117   6.565  0.1651 -0.0647  0.1421
 3145SOL    HW121071   4.455   4.086   6.478  0.4179  0.6481 -0.1937
 3145SOL    HW221072   4.398   4.114   6.610  0.8872  1.4648  1.5726
 3146SOL     OW21073   4.477   2.961  11.780  0.0503 -0.4967 -0.1582
 3146SOL    HW121074   4.513   2.872  11.774  1.8766  0.3292 -1.4912
 3146SOL    HW221075   4.429   2.952  11.862 -2.2969  0.1048 -1.4724
 3147SOL     OW21076   0.721   1.610   1.192 -0.2188  0.1230 -0.2322
 3147SOL    HW121077   0.714   1.538   1.129  1.5802  0.6934 -1.0974
 3147SOL    HW221078   0.636   1.653   1.186 -0.1428  0.3069  0.0232
 3148SOL     OW21079   4.601   0.116   7.874 -0.0940 -0.1696 -0.4148
 3148SOL    HW121080   4.535   0.111   7.943  1.1378  1.9648  0.9148
 3148SOL    HW221081   4.639   0.029   7.885  0.4935  0.2361  0.8205
 3149SOL     OW21082   2.584   2.976   6.945 -0.0945  0.4896 -0.0826
 3149SOL    HW121083   2.623   2.954   7.029 -1.2054 -0.5360  0.1661
 3149SOL    HW221084   2.527   2.902   6.926 -0.2084  0.2655  1.1784
 3150SOL     OW21085   1.894   3.423  17.310  0.1337  0.5168 -0.1196
 3150SOL    HW121086   1.978   3.414  17.266  0.3394 -0.5066  0.4782
 3150SOL    HW221087   1.905   3.359  17.381 -3.5975  1.4527  1.3258
 3151SOL     OW21088   0.859   0.750   6.848 -0.2449 -0.3126  0.0699
 3151SOL    HW121089   0.897   0.665   6.867  1.0046 -0.0921 -1.4565
 3151SOL    HW221090   0.896   0.815   6.908  0.7986  0.0105 -0.9187
 3152SOL     OW21091   2.888   0.994   5.633 -0.3326  0.3833  0.4336
 3152SOL    HW121092   2.920   1.083   5.641 -1.3696  0.5640  2.7452
 3152SOL    HW221093   2.834   1.011   5.557  1.3252 -2.5364 -1.3872
 3153SOL     OW21094   0.876   3.042   5.911  0.0936 -0.4595 -0.1994
 3153SOL    HW121095   0.917   3.129   5.916  2.0134 -1.4064  0.2778
 3153SOL    HW221096   0.941   2.995   5.859 -0.2974 -1.0421 -0.1680
 3154SOL     OW21097   1.604   4.215   4.841  0.2000 -0.4628  0.4306
 3154SOL    HW121098   1.608   4.122   4.862  0.1003 -0.7428 -0.7541
 3154SOL    HW221099   1.695   4.236   4.822  0.3254 -2.4140 -1.1233
 3155SOL     OW21100   0.792   3.562   8.423 -0.2987 -0.2425  0.4534
 3155SOL    HW121101   0.874   3.610   8.427  0.0366 -0.8279  0.5492
 3155SOL    HW221102   0.818   3.471   8.427 -1.3263 -0.4301  3.0256
 3156SOL     OW21103   1.745   3.428   7.699 -0.1921  0.0762 -0.5349
 3156SOL    HW121104   1.669   3.387   7.659 -0.3199 -1.0303  0.8520
 3156SOL    HW221105   1.739   3.523   7.688 -0.7862 -0.0026 -0.8590
 3157SOL     OW21106   3.843   2.847  16.270 -0.5497 -0.0617 -0.4656
 3157SOL    HW121107   3.852   2.807  16.357 -1.5776 -1.1220 -0.8404
 3157SOL    HW221108   3.843   2.764  16.222 -0.7741  0.6889 -1.7515
 3158SOL     OW21109   3.888   4.450   3.633 -0.2272  0.0353 -0.5856
 3158SOL    HW121110   3.890   4.529   3.688  0.2699  0.1093 -0.7095
 3158SOL    HW221111   3.812   4.468   3.577 -1.4554  1.1169  1.4124
 3159SOL     OW21112   2.881   1.386   6.194 -0.3363 -0.5480  0.5067
 3159SOL    HW121113   2.902   1.479   6.203 -1.0141 -0.0409 -3.2103
 3159SOL    HW221114   2.953   1.350   6.143 -1.7763 -0.9907 -1.2057
 3160SOL     OW21115   4.543   3.374   3.216  0.1811 -0.6943  0.5352
 3160SOL    HW121116   4.615   3.313   3.233  0.3719 -0.4671  0.5559
 3160SOL    HW221117   4.470   3.313   3.214 -2.1575  2.0671  1.0812
 3161SOL     OW21118   4.416   4.575   0.918  0.4872  0.5939 -0.1485
 3161SOL    HW121119   4.348   4.607   0.858 -0.2307  1.6167  1.2185
 3161SOL    HW221120   4.408   4.481   0.898  0.1542  0.1732  1.9969
 3162SOL     OW21121   0.713   1.237   1.608  0.3729  0.2072 -0.0736
 3162SOL    HW121122   0.659   1.263   1.534  0.7020 -2.8440 -1.3712
 3162SOL    HW221123   0.697   1.313   1.664 -0.3711 -0.0598  0.0869
 3163SOL     OW21124   0.084   3.693   5.856  0.3872  0.4492 -0.2303
 3163SOL    HW121125   0.154   3.727   5.800  0.7073 -0.6959 -0.5391
 3163SOL    HW221126   0.068   3.757   5.925 -0.9660 -1.6517  1.4252
 3164SOL     OW21127   0.942   3.684   3.952 -0.1032  0.3530  0.4417
 3164SOL    HW121128   0.880   3.691   3.879  2.3461 -0.1471 -1.6806
 3164SOL    HW221129   0.986   3.769   3.957 -1.4326  0.9518  1.8084
 3165SOL     OW21130   4.514   4.641   8.070  0.2202  0.0989 -0.1375
 3165SOL    HW121131   4.446   4.627   8.136  3.2980 -1.9134  2.6136
 3165SOL    HW221132   4.524   4.552   8.036  0.6013  0.2919 -0.5229
 3166SOL     OW21133   1.844   2.282   3.052 -0.2800  0.0805  0.0548
 3166SOL    HW121134   1.851   2.205   2.995 -0.3031  0.9228 -1.1036
 3166SOL    HW221135   1.879   2.245   3.133 -0.3057  0.1829  0.1126
 3167SOL     OW21136   1.657   1.206   7.340  0.0508 -0.5022  0.2755
 3167SOL    HW121137   1.595   1.278   7.326  1.0006  0.6050  1.7382
 3167SOL    HW221138   1.646   1.191   7.434 -0.4281 -1.2565  0.0991
 3168SOL     OW21139   3.362   4.594   8.535  0.0175  0.0552 -0.2939
 3168SOL    HW121140   3.387   4.602   8.627  1.2851 -0.5715 -0.5865
 3168SOL    HW221141   3.312   4.512   8.536 -1.4931  0.9750  0.2517
 3169SOL     OW21142   0.525   2.877   8.335 -0.5136 -0.0640  0.0825
 3169SOL    HW121143   0.570   2.921   8.263 -1.1892  0.7740  0.1617
 3169SOL    HW221144   0.492   2.954   8.381  1.5730  0.8728  0.0054
 3170SOL     OW21145   2.555   2.111   4.487  0.3156  0.3954  0.1996
 3170SOL    HW121146   2.564   2.206   4.496  0.8908  0.4579 -1.0273
 3170SOL    HW221147   2.492   2.104   4.415  1.5302  0.0653 -0.8134
 3171SOL     OW21148   3.985   2.621   8.299 -0.1600  0.3003 -0.0706
 3171SOL    HW121149   4.061   2.679   8.289  0.4123 -1.0005 -3.2270
 3171SOL    HW221150   3.995   2.591   8.389  2.5542  0.5727 -0.2859
 3172SOL     OW21151   0.139   0.152   3.932 -0.4045 -0.3135  0.7088
 3172SOL    HW121152   0.065   0.179   3.985 -1.6161  1.2323 -1.7975
 3172SOL    HW221153   0.089   0.132   3.853  2.7498  1.9677 -1.8298
 3173SOL     OW21154   0.510   3.997   7.593  0.1379  0.8143 -0.2954
 3173SOL    HW121155   0.460   4.014   7.513 -1.3699  1.6299  0.8191
 3173SOL    HW221156   0.464   3.917   7.618 -0.8330  0.7187 -2.3859
 3174SOL     OW21157   4.310   1.797  12.481 -0.5455 -0.9161  0.2201
 3174SOL    HW121158   4.305   1.767  12.391 -3.2826  0.4098 -0.0833
 3174SOL    HW221159   4.245   1.866  12.473  0.1789 -0.1971  0.5417
 3175SOL     OW21160   3.670   3.712   5.578  0.0197  0.2688  0.6115
 3175SOL    HW121161   3.673   3.622   5.610  0.8939 -0.2801 -0.9692
 3175SOL    HW221162   3.625   3.755   5.650 -1.0740 -0.4562  0.3691
 3176SOL     OW21163   1.043   2.708   7.782  0.5252 -0.6112 -0.0102
 3176SOL    HW121164   1.025   2.782   7.724  2.4876 -0.7879 -0.8463
 3176SOL    HW221165   1.037   2.750   7.868  0.6910 -1.8904  0.6141
 3177SOL     OW21166   1.984   2.182   3.272 -0.4471 -0.2553  0.0343
 3177SOL    HW121167   1.942   2.125   3.336 -0.5824 -2.0081 -1.5989
 3177SOL    HW221168   2.023   2.247   3.331 -1.9606  0.1685  0.5717
 3178SOL     OW21169   4.722   0.772   5.913 -0.4828  0.5445  0.3055
 3178SOL    HW121170   0.069   0.789   5.949 -0.6532  1.6247  0.1889
 3178SOL    HW221171   4.706   0.680   5.935 -0.5058  1.0023  2.2553
 3179SOL     OW21172   3.945   3.951   5.246 -0.2143  0.4852  0.1708
 3179SOL    HW121173   3.857   3.923   5.224  1.4436 -1.3351 -4.1210
 3179SOL    HW221174   3.939   3.976   5.338  1.8874  0.8221  0.2178
 3180SOL     OW21175   2.316   2.996   0.784 -0.0608  0.5384 -0.3404
 3180SOL    HW121176   2.391   2.939   0.802  0.1647  0.6263 -1.0449
 3180SOL    HW221177   2.327   3.017   0.692 -0.0869 -0.0547 -0.4816
 3181SOL     OW21178   3.414   2.555   1.886  0.0335 -0.7253 -0.6017
 3181SOL    HW121179   3.485   2.615   1.909 -1.8608  1.3465 -0.1186
 3181SOL    HW221180   3.344   2.620   1.877  2.3668  1.9506  0.6166
 3182SOL     OW21181   3.121   3.921  14.575 -0.0245 -0.2088 -0.6753
 3182SOL    HW121182   3.104   4.015  14.565  1.3438  0.0680 -0.4505
 3182SOL    HW221183   3.045   3.877  14.538 -0.7967 -1.6270  2.5892
 3183SOL     OW21184   2.069   1.673  12.835  0.2793  0.2192  0.0875
 3183SOL    HW121185   1.979   1.705  12.846 -0.3490 -1.3739 -0.5126
 3183SOL    HW221186   2.076   1.694  12.742 -0.4986 -2.4726 -0.5657
 3184SOL     OW21187   2.194   0.349   5.717  0.2037 -0.0670 -0.3144
 3184SOL    HW121188   2.210   0.262   5.680  1.9319 -0.4218  1.2403
 3184SOL    HW221189   2.105   0.368   5.689 -0.0885  0.8614  1.2395
 3185SOL     OW21190   1.576   3.320   4.527  0.0727 -0.2423  0.0171
 3185SOL    HW121191   1.666   3.333   4.496 -0.5432  0.0663 -1.6423
 3185SOL    HW221192   1.586   3.241   4.581 -0.1734  0.3157  0.8698
 3186SOL     OW21193   2.307   0.704   3.806  0.3806 -0.1008  0.0401
 3186SOL    HW121194   2.312   0.609   3.798  0.4766 -0.3765  3.1242
 3186SOL    HW221195   2.393   0.722   3.844  0.3487 -2.2838  1.1477
 3187SOL     OW21196   1.554   4.491   0.892  0.1899  0.4274  0.0835
 3187SOL    HW121197   1.631   4.435   0.887  0.2928  0.7236 -1.5222
 3187SOL    HW221198   1.591   4.580   0.887 -2.0618  1.2053 -2.2176
 3188SOL     OW21199   0.361   2.988   1.574 -0.1758 -0.1585  0.0371
 3188SOL    HW121200   0.396   2.905   1.541 -2.0030  0.4096 -3.3146
 3188SOL    HW221201   0.354   2.969   1.668  0.3776 -1.7965 -0.2682
 3189SOL     OW21202   1.287   4.314   3.614  0.2212  0.2258  0.0084
 3189SOL    HW121203   1.357   4.265   3.657 -0.5664  0.3886  1.4544
 3189SOL    HW221204   1.328   4.400   3.620  0.1136  0.3287 -0.7347
 3190SOL     OW21205   4.602   2.012   3.110 -0.0613 -0.2172 -0.1801
 3190SOL    HW121206   4.624   2.104   3.095 -1.3649  0.3250  1.2927
 3190SOL    HW221207   4.579   1.985   3.022 -2.3863  0.3877  0.2549
 3191SOL     OW21208   1.029   2.231   9.559  0.5862 -0.5352 -0.3030
 3191SOL    HW121209   0.946   2.190   9.534 -1.2132  2.6376  0.4282
 3191SOL    HW221210   1.004   2.284   9.634 -0.5044  0.5714 -1.4457
 3192SOL     OW21211   2.216   1.051  11.271 -0.3932 -0.2484 -0.4133
 3192SOL    HW121212   2.216   0.956  11.281 -1.0751 -0.3911 -1.7646
 3192SOL    HW221213   2.259   1.072  11.354 -1.8256 -0.9779  0.5063
 3193SOL     OW21214   2.752   3.834  16.703  0.2012 -0.2612 -0.0460
 3193SOL    HW121215   2.678   3.874  16.658  0.6288  0.7633  0.1517
 3193SOL    HW221216   2.709   3.764  16.753  0.9875 -0.5792  0.1905
 3194SOL     OW21217   0.813   0.942  10.383 -0.2108  0.0567  0.4810
 3194SOL    HW121218   0.855   0.866  10.423 -0.5877 -0.0243  0.7194
 3194SOL    HW221219   0.888   0.980  10.338 -1.2465  0.1474 -1.1425
 3195SOL     OW21220   2.104   2.995   2.655  0.2015 -0.6159  0.0055
 3195SOL    HW121221   2.097   3.087   2.628 -0.4850 -1.2588 -2.0515
 3195SOL    HW221222   2.018   2.970   2.690 -0.4994 -1.1749 -2.0889
 3196SOL     OW21223   1.499   3.828   6.760 -0.2785 -0.4072  0.1198
 3196SOL    HW121224   1.586   3.866   6.765  0.6238 -2.2253 -1.6514
 3196SOL    HW221225   1.450   3.865   6.833  0.5464  0.9052  0.0004
 3197SOL     OW21226   2.180   2.895   7.082 -0.4109 -0.6204  0.2730
 3197SOL    HW121227   2.227   2.942   7.150 -0.7956 -1.5086  1.1422
 3197SOL    HW221228   2.241   2.922   7.013 -0.4595 -2.3248 -0.4300
 3198SOL     OW21229   3.751   0.247   7.046 -0.3939 -0.4734  0.4562
 3198SOL    HW121230   3.695   0.295   6.985 -0.5809 -2.9998 -1.3623
 3198SOL    HW221231   3.769   0.312   7.114 -1.8242 -1.5037  1.8460
 3199SOL     OW21232   1.231   1.386   9.149 -0.0596  0.4410  0.2222
 3199SOL    HW121233   1.272   1.369   9.233  2.1690  2.7202 -0.4219
 3199SOL    HW221234   1.283   1.456   9.111  2.0952 -1.1595  0.1915
 3200SOL     OW21235   2.028   2.552   4.759  0.2052  0.1079  0.2137
 3200SOL    HW121236   1.946   2.586   4.722 -0.6026 -1.8862  0.1631
 3200SOL    HW221237   2.081   2.550   4.680  0.8655  2.7818  0.5818
 3201SOL     OW21238   3.252   4.454   8.143  0.2865  1.1290  0.6705
 3201SOL    HW121239   3.296   4.536   8.165  0.6073  0.0651  3.8500
 3201SOL    HW221240   3.189   4.483   8.077  1.3594  1.8426 -0.0367
 3202SOL     OW21241   0.948   1.529   5.184  0.0348  0.1630 -0.2130
 3202SOL    HW121242   0.946   1.600   5.119  1.5699 -0.1921 -0.6559
 3202SOL    HW221243   0.924   1.466   5.117 -0.4599  1.5995 -1.3965
 3203SOL     OW21244   2.104   2.801   0.311  0.0485  0.5921 -0.0144
 3203SOL    HW121245   2.082   2.823   0.401  1.1146 -0.5831  0.5296
 3203SOL    HW221246   2.144   2.881   0.277 -0.2699  0.1387 -1.4531
 3204SOL     OW21247   1.981   1.178   2.793  0.2335 -0.0516 -0.0952
 3204SOL    HW121248   1.926   1.194   2.870  0.4462  1.6158 -0.2872
 3204SOL    HW221249   1.917   1.135   2.735  1.5377 -0.5887 -1.1262
 3205SOL     OW21250   1.744   4.125   4.458 -0.0581 -0.0016  0.2021
 3205SOL    HW121251   1.834   4.135   4.426 -1.5442  3.0102 -2.9758
 3205SOL    HW221252   1.710   4.213   4.442  0.0703  0.0930  0.4402
 3206SOL     OW21253   1.043   3.577   0.696  0.2779  0.3196  0.4875
 3206SOL    HW121254   1.074   3.594   0.785  0.3736 -0.3302  0.5825
 3206SOL    HW221255   0.955   3.613   0.698  0.0985 -0.1358  0.7124
 3207SOL     OW21256   2.081   2.980  16.519 -0.1456 -0.1104 -0.2458
 3207SOL    HW121257   2.109   2.992  16.428 -0.1627 -1.0353 -0.3666
 3207SOL    HW221258   2.074   3.076  16.522  3.2836  0.1676 -1.1767
 3208SOL     OW21259   3.043   3.147   0.501  0.3871 -0.0841 -0.5005
 3208SOL    HW121260   3.075   3.150   0.411 -1.8133 -1.7724 -1.3320
 3208SOL    HW221261   3.090   3.222   0.537 -1.3683 -0.6424  3.0024
 3209SOL     OW21262   2.559   2.498   8.771  0.2480 -0.1558  0.2888
 3209SOL    HW121263   2.599   2.491   8.684  0.4258 -3.4087  0.6322
 3209SOL    HW221264   2.630   2.530   8.827  2.0621 -0.2573 -1.9737
 3210SOL     OW21265   3.925   0.853   8.889  0.3096  0.2803  0.5110
 3210SOL    HW121266   3.898   0.909   8.816  0.9495  0.5723  0.5007
 3210SOL    HW221267   3.995   0.902   8.932  0.0961  0.0678  1.1088
 3211SOL     OW21268   0.826   0.579   4.948 -0.2426  0.5618 -0.0537
 3211SOL    HW121269   0.878   0.528   4.886 -0.1630  1.8962 -1.0836
 3211SOL    HW221270   0.751   0.613   4.899  0.7215  0.5886 -1.5051
 3212SOL     OW21271   0.568   2.982   8.680  0.1674  0.0692  0.1379
 3212SOL    HW121272   0.497   2.988   8.616 -1.9359 -0.0650  2.4558
 3212SOL    HW221273   0.647   2.976   8.626 -0.2841 -0.3326 -0.4807
 3213SOL     OW21274   3.588   0.368   8.498  0.4541  0.9104 -0.1596
 3213SOL    HW121275   3.512   0.424   8.516  0.4244  0.2950  1.6408
 3213SOL    HW221276   3.598   0.395   8.407 -0.1797 -0.3494 -0.6006
 3214SOL     OW21277   4.489   2.647  16.698  0.5592 -0.0522 -0.6258
 3214SOL    HW121278   4.464   2.555  16.698  1.8542 -0.4125  1.1447
 3214SOL    HW221279   4.562   2.651  16.636  1.0685  0.6627  0.0101
 3215SOL     OW21280   3.332   4.019  16.262  0.7962 -0.0275  0.2692
 3215SOL    HW121281   3.405   3.957  16.258  0.9766  0.0712  2.0367
 3215SOL    HW221282   3.352   4.096  16.208  1.7286 -0.6468 -0.2783
 3216SOL     OW21283   1.849   1.637   8.125  0.3974  0.5445  0.2293
 3216SOL    HW121284   1.819   1.606   8.040 -0.1108  0.6011  0.3878
 3216SOL    HW221285   1.938   1.658   8.097 -0.0846  0.0129 -1.6677
 3217SOL     OW21286   0.463   0.290   4.828  0.6911 -0.0495 -0.9026
 3217SOL    HW121287   0.453   0.326   4.739  2.3088  0.0833 -1.0256
 3217SOL    HW221288   0.515   0.212   4.811  1.5099 -0.0665  1.6784
 3218SOL     OW21289   0.831   4.345  17.215  0.2743  0.2653  0.2334
 3218SOL    HW121290   0.760   4.397  17.177  2.1337  1.6197 -1.3605
 3218SOL    HW221291   0.783   4.296  17.282  0.4732  2.7075  2.1383
 3219SOL     OW21292   2.176   4.582   5.602 -0.3520 -0.1201  0.0078
 3219SOL    HW121293   2.155   4.505   5.549  1.2569  1.1373 -2.4354
 3219SOL    HW221294   2.256   4.556   5.647  0.1711  0.2567 -0.7072
 3220SOL     OW21295   1.986   1.615   7.063  0.0173 -0.1101  0.1885
 3220SOL    HW121296   2.004   1.652   7.149  0.0269 -0.4613  0.3376
 3220SOL    HW221297   1.986   1.524   7.092  3.3531  0.3179  1.5637
 3221SOL     OW21298   0.244   2.488  13.165  0.0481  0.2572 -0.3413
 3221SOL    HW121299   0.261   2.399  13.198 -1.3053 -0.2421 -0.9962
 3221SOL    HW221300   0.261   2.465  13.074 -0.3983 -1.2734 -0.0341
 3222SOL     OW21301   3.987   3.937   7.220 -0.0846  0.0417 -0.5213
 3222SOL    HW121302   4.051   3.967   7.284 -2.0164  1.7860  0.5999
 3222SOL    HW221303   4.001   4.001   7.150  1.3825 -0.0861 -0.3456
 3223SOL     OW21304   1.092   3.293   4.792 -0.5720 -0.4563  0.1528
 3223SOL    HW121305   1.104   3.278   4.698 -0.3876  0.4142  0.0329
 3223SOL    HW221306   1.028   3.224   4.809  0.1148 -1.0913  0.1339
 3224SOL     OW21307   3.950   1.839   4.551  0.0180 -0.3265 -0.0168
 3224SOL    HW121308   3.965   1.757   4.598 -0.3846 -1.1651 -1.3629
 3224SOL    HW221309   4.025   1.857   4.495 -0.4112  1.3298 -0.0835
 3225SOL     OW21310   0.491   0.501   6.993 -0.0776 -0.2395  0.3474
 3225SOL    HW121311   0.468   0.590   6.967  0.1442 -0.3421 -0.1957
 3225SOL    HW221312   0.473   0.455   6.911  0.0073  2.2528 -1.0570
 3226SOL     OW21313   4.110   2.024   7.126  0.1467  0.4117 -0.0365
 3226SOL    HW121314   4.022   1.997   7.151 -0.0122  0.0577 -0.9534
 3226SOL    HW221315   4.089   2.077   7.049  1.9216  1.6132  0.3061
 3227SOL     OW21316   2.397   4.561   7.951  0.0806 -0.0370  0.0914
 3227SOL    HW121317   2.353   4.547   7.867  0.5804  0.1805 -0.2032
 3227SOL    HW221318   2.455   4.486   7.960 -2.6235 -1.9925  1.0808
 3228SOL     OW21319   1.084   0.096   3.761 -0.2937 -0.3014 -0.4616
 3228SOL    HW121320   1.003   0.142   3.739  1.1108  0.9707 -2.9530
 3228SOL    HW221321   1.094   0.030   3.692 -1.5608 -0.0523 -0.8948
 3229SOL     OW21322   1.514   4.218  16.606  0.3185 -0.5019  0.5692
 3229SOL    HW121323   1.487   4.280  16.673 -3.5601  0.6970 -2.0831
 3229SOL    HW221324   1.461   4.150  16.647 -0.6552 -1.3863 -2.1347
 3230SOL     OW21325   3.080   2.645   1.457  0.2157 -0.1121 -0.3069
 3230SOL    HW121326   3.014   2.702   1.496 -0.7793 -1.0047 -0.7147
 3230SOL    HW221327   3.024   2.571   1.438 -0.3523 -0.2131  1.7665
 3231SOL     OW21328   4.193   1.728   5.473 -0.5150  0.2055 -0.1573
 3231SOL    HW121329   4.237   1.804   5.435  0.5783 -0.9753 -1.3064
 3231SOL    HW221330   4.196   1.666   5.400 -0.7523 -0.8233  0.7043
 3232SOL     OW21331   0.487   0.529   1.902 -0.3360  0.4020  0.1051
 3232SOL    HW121332   0.417   0.536   1.836 -1.1627  1.7052  1.1178
 3232SOL    HW221333   0.489   0.613   1.948 -3.5094  1.0471 -0.9132
 3233SOL     OW21334   1.485   0.663   2.183  0.0037 -0.3371  0.1075
 3233SOL    HW121335   1.552   0.623   2.238  1.6763  2.3552  0.0559
 3233SOL    HW221336   1.430   0.694   2.255 -0.0684 -0.8915  0.2913
 3234SOL     OW21337   3.672   1.545   6.008  0.2720  0.0718 -0.3884
 3234SOL    HW121338   3.610   1.618   6.015  0.7266  0.5361 -1.3300
 3234SOL    HW221339   3.658   1.515   6.098 -2.3133  0.8859 -0.5280
 3235SOL     OW21340   2.912   3.956   6.222  0.1516  0.0786  0.2748
 3235SOL    HW121341   2.908   3.991   6.311  1.7687 -1.0579  0.7963
 3235SOL    HW221342   2.826   3.918   6.205  0.1462  0.7329 -1.1172
 3236SOL     OW21343   1.083   3.274   5.103 -0.2046  0.2670  0.0436
 3236SOL    HW121344   1.034   3.192   5.105 -3.1302  2.0283  0.4809
 3236SOL    HW221345   1.167   3.238   5.131  0.8641  1.7579 -1.1905
 3237SOL     OW21346   3.642   1.162   7.039  0.2554 -0.1496  0.3706
 3237SOL    HW121347   3.731   1.197   7.049 -0.3884  1.1637  1.5318
 3237SOL    HW221348   3.650   1.073   7.071  3.2244  0.5915  1.6510
 3238SOL     OW21349   3.611   0.646   7.293  0.6435 -0.2049  0.5820
 3238SOL    HW121350   3.684   0.585   7.303  0.1312 -1.4328 -3.3711
 3238SOL    HW221351   3.530   0.598   7.312  0.8767 -0.3855  1.1105
 3239SOL     OW21352   4.702   3.694   9.519  0.0198  0.2236  0.3843
 3239SOL    HW121353   4.707   3.666   9.610  1.5045  0.2205  0.3057
 3239SOL    HW221354   4.620   3.742   9.515  1.2791  2.3688  0.5497
 3240SOL     OW21355   4.650   3.811   6.254  0.4053 -0.2787 -0.4582
 3240SOL    HW121356   4.721   3.790   6.315  0.6602  0.3178 -0.5520
 3240SOL    HW221357   4.583   3.801   6.322  1.5108  0.3461  0.7148
 3241SOL     OW21358   4.079   1.473  13.892 -0.5396 -0.6583 -0.3110
 3241SOL    HW121359   4.034   1.405  13.842 -0.7539  0.2705 -1.3681
 3241SOL    HW221360   4.031   1.554  13.873  0.3499  0.4435  2.0300
 3242SOL     OW21361   2.303   4.661   3.738 -0.4205 -0.4387 -0.1215
 3242SOL    HW121362   2.239   4.626   3.799  2.5126 -2.5544  1.7386
 3242SOL    HW221363   2.370   4.592   3.738 -0.1155 -0.1424 -1.9513
 3243SOL     OW21364   2.221   0.494   8.938  0.1353 -0.0610 -0.1399
 3243SOL    HW121365   2.209   0.525   9.028 -3.2480  0.6796 -0.8263
 3243SOL    HW221366   2.129   0.498   8.909  0.2534 -1.4308 -0.7071
 3244SOL     OW21367   4.118   4.485  17.053  0.2276  0.4514  0.2953
 3244SOL    HW121368   4.095   4.575  17.029  1.1527  0.8518  0.9042
 3244SOL    HW221369   4.103   4.494  17.147 -0.2433  0.9636  0.1713
 3245SOL     OW21370   3.865   2.451   2.079  0.1537 -0.5141  0.0285
 3245SOL    HW121371   3.841   2.483   1.992  1.0774  1.1903  0.4045
 3245SOL    HW221372   3.783   2.410   2.106 -0.5057 -0.5998 -2.0911
 3246SOL     OW21373   2.546   2.759   3.556 -0.1670 -0.1144  0.0902
 3246SOL    HW121374   2.637   2.731   3.560 -0.0227  0.1343 -1.2980
 3246SOL    HW221375   2.509   2.710   3.629 -2.8936  1.5458 -0.1750
 3247SOL     OW21376   2.634   1.962   6.200  0.2522 -0.1841  0.2329
 3247SOL    HW121377   2.710   1.903   6.204 -0.0641 -0.3131  4.1064
 3247SOL    HW221378   2.613   1.956   6.293  2.1623 -0.7209  0.6387
 3248SOL     OW21379   1.833   1.578   8.993 -0.8159 -0.3815 -0.2099
 3248SOL    HW121380   1.926   1.565   9.014 -0.6535  0.2741 -0.5165
 3248SOL    HW221381   1.804   1.602   9.081  3.4658 -0.4644  1.2351
 3249SOL     OW21382   0.947   4.161   8.418 -0.0219  0.3376 -0.2782
 3249SOL    HW121383   0.968   4.125   8.504  0.1071 -0.7430 -0.7530
 3249SOL    HW221384   0.874   4.104   8.393  0.4393  0.5347 -2.0977
 3250SOL     OW21385   1.824   0.385   8.992 -0.5036 -0.1927 -0.4227
 3250SOL    HW121386   1.760   0.315   9.003  1.0484 -1.0972  2.7001
 3250SOL    HW221387   1.893   0.341   8.942  1.7385  0.2874  2.2613
 3251SOL     OW21388   0.125   2.199   2.478 -0.0464 -0.0370 -0.5351
 3251SOL    HW121389   0.083   2.205   2.564  1.3927 -1.1891  0.2658
 3251SOL    HW221390   0.064   2.139   2.434 -1.1499  0.9983 -0.3988
 3252SOL     OW21391   0.731   0.996   7.575  0.0489 -0.2868 -0.3426
 3252SOL    HW121392   0.637   0.991   7.554 -0.6416 -0.6070  2.8356
 3252SOL    HW221393   0.745   0.901   7.581  2.4934 -0.0556 -2.1605
 3253SOL     OW21394   3.474   1.182   2.136  0.6291  0.5162  0.0095
 3253SOL    HW121395   3.428   1.125   2.197 -0.7165  0.6527 -0.8693
 3253SOL    HW221396   3.518   1.245   2.193  0.1781  1.5702 -0.7985
 3254SOL     OW21397   0.457   0.978   7.216 -0.1592  0.3005 -0.4106
 3254SOL    HW121398   0.421   0.983   7.128  0.2702  1.6618 -0.5095
 3254SOL    HW221399   0.550   0.968   7.196  0.4654  0.1345  2.4974
 3255SOL     OW21400   3.756   1.200  17.196 -0.3440 -0.0515 -0.2349
 3255SOL    HW121401   3.797   1.228  17.114 -1.3401  1.6269 -0.1653
 3255SOL    HW221402   3.738   1.288  17.230  1.2260  1.0757 -2.3167
 3256SOL     OW21403   4.377   2.414   5.183  0.0722  0.0112  0.5980
 3256SOL    HW121404   4.434   2.403   5.106  0.3065 -1.5950  0.9914
 3256SOL    HW221405   4.336   2.499   5.165 -0.7980 -0.4902  0.1660
 3257SOL     OW21406   2.336   2.641   0.304 -0.3155  0.2802 -0.3840
 3257SOL    HW121407   2.313   2.616   0.215  2.1978 -1.8274 -0.4704
 3257SOL    HW221408   2.252   2.674   0.336  0.0146  1.4473 -0.7229
 3258SOL     OW21409   0.282   0.440   6.499  0.0387 -0.0500 -0.0005
 3258SOL    HW121410   0.202   0.415   6.546 -1.4678  0.6824 -2.1972
 3258SOL    HW221411   0.321   0.355   6.477  1.3045 -0.3557  3.3558
 3259SOL     OW21412   1.649   2.010   3.305  0.1471  0.0443  0.1144
 3259SOL    HW121413   1.558   1.983   3.300 -0.0307  0.7343 -0.4158
 3259SOL    HW221414   1.651   2.104   3.326 -0.5977 -0.5057  2.5769
 3260SOL     OW21415   3.854   3.935   9.072 -0.2221 -0.2849  0.8082
 3260SOL    HW121416   3.917   4.000   9.104  0.2563 -1.2050  1.7146
 3260SOL    HW221417   3.862   3.867   9.139 -0.8606  0.2880  1.4731
 3261SOL     OW21418   0.097   0.911   2.454 -0.1355 -0.5135  0.1015
 3261SOL    HW121419   0.148   0.837   2.486  0.5533  0.7383  1.9099
 3261SOL    HW221420   0.169   0.974   2.452  0.5006 -1.2290  0.7302
 3262SOL     OW21421   2.965   3.804  17.546  0.1482 -0.1511 -0.4244
 3262SOL    HW121422   3.049   3.760  17.527  0.6232  0.5974 -0.0661
 3262SOL    HW221423   2.946   3.752  17.624 -0.0351 -0.4872 -0.6925
 3263SOL     OW21424   2.580   0.884   6.531 -0.3139  0.7792  1.0808
 3263SOL    HW121425   2.625   0.960   6.569  3.1098 -0.0584 -1.3019
 3263SOL    HW221426   2.656   0.829   6.509 -0.8706  0.5590 -0.3297
 3264SOL     OW21427   3.067   0.628  17.057 -0.0718  0.6668 -0.0081
 3264SOL    HW121428   3.161   0.616  17.067  0.0000  3.3923  2.6667
 3264SOL    HW221429   3.045   0.538  17.033  0.9547 -0.1448  2.1555
 3265SOL     OW21430   3.907   2.648   6.791  0.4492  0.3587  0.4691
 3265SOL    HW121431   3.934   2.564   6.752  1.8474  1.6321 -1.3508
 3265SOL    HW221432   3.820   2.633   6.828  0.3761 -0.0986  0.1203
 3266SOL     OW21433   1.873   4.165  17.317  0.3120 -0.4422  0.0745
 3266SOL    HW121434   1.821   4.236  17.281  0.2685 -0.9279 -0.8228
 3266SOL    HW221435   1.920   4.208  17.389 -0.8497 -2.1279  1.8662
 3267SOL     OW21436   0.073   3.780  12.733 -0.2089  0.7865  0.6044
 3267SOL    HW121437   0.021   3.767  12.653  0.5558  2.3018 -0.1373
 3267SOL    HW221438   0.079   3.875  12.722 -2.6255  0.8015 -0.6553
 3268SOL     OW21439   1.227   3.422   7.747  0.1243  0.2622  0.4627
 3268SOL    HW121440   1.214   3.499   7.691  0.7406 -2.2877 -3.2009
 3268SOL    HW221441   1.309   3.447   7.789  0.0532 -1.1953  1.4517
 3269SOL     OW21442   0.575   1.935   1.670 -0.1167  0.2229 -0.1092
 3269SOL    HW121443   0.626   1.878   1.613 -0.6005  0.9826 -1.3075
 3269SOL    HW221444   0.620   2.017   1.647  0.3508  0.0582  0.2005
 3270SOL     OW21445   4.589   4.026  11.095 -0.1972 -0.2494 -0.1677
 3270SOL    HW121446   4.634   3.946  11.067  1.5127  0.8595 -0.6051
 3270SOL    HW221447   4.565   4.063  11.009 -1.0997  1.6103  0.8898
 3271SOL     OW21448   4.170   0.867   7.432  0.2427 -0.0731  0.0500
 3271SOL    HW121449   4.235   0.833   7.494  0.5408  0.7524  0.1887
 3271SOL    HW221450   4.116   0.926   7.483  1.7592 -1.5080  3.3271
 3272SOL     OW21451   2.475   1.518   3.410 -0.7226  0.0008  0.3676
 3272SOL    HW121452   2.423   1.489   3.485  1.8362 -1.1963  1.7019
 3272SOL    HW221453   2.444   1.608   3.403 -1.7929 -0.3483  0.6156
 3273SOL     OW21454   2.824   0.904   7.438  0.1621  0.1524  0.0161
 3273SOL    HW121455   2.755   0.965   7.465 -1.2868 -1.3641 -0.2298
 3273SOL    HW221456   2.797   0.881   7.349 -0.5423 -1.6899  0.7040
 3274SOL     OW21457   2.915   1.169  17.624 -0.5071 -0.5723 -0.0130
 3274SOL    HW121458   2.821   1.161  17.606 -0.9693  1.9481  1.4040
 3274SOL    HW221459   2.928   1.107  17.695 -0.8548 -1.6283 -0.8632
 3275SOL     OW21460   1.979   0.655   1.981 -0.1117  0.4942  0.0223
 3275SOL    HW121461   2.045   0.723   1.965 -2.3553  2.5789 -0.3252
 3275SOL    HW221462   1.959   0.675   2.072 -0.6652 -1.0421  0.2421
 3276SOL     OW21463   0.524   4.014   3.187 -0.2202  1.0786 -0.1104
 3276SOL    HW121464   0.511   4.039   3.095  0.7139  1.8827 -0.0341
 3276SOL    HW221465   0.613   3.978   3.175 -0.1390  1.2462 -0.0100
 3277SOL     OW21466   2.343   0.967   6.781 -0.0599 -0.6889  0.4981
 3277SOL    HW121467   2.363   0.888   6.732  1.2438  0.1215 -0.2898
 3277SOL    HW221468   2.410   1.030   6.754 -0.3967 -0.6968 -0.3766
 3278SOL     OW21469   3.110   3.222   7.795  0.0297 -0.7559  0.5871
 3278SOL    HW121470   3.154   3.243   7.712 -2.0646 -0.3636 -0.4317
 3278SOL    HW221471   3.174   3.177   7.850 -0.5974 -1.8597  0.4227
 3279SOL     OW21472   2.558   1.279   8.303 -0.3183  0.1859 -0.0127
 3279SOL    HW121473   2.601   1.208   8.350 -1.8352 -0.5685  0.2325
 3279SOL    HW221474   2.514   1.332   8.370 -1.9462 -1.8194  0.4941
 3280SOL     OW21475   4.416   3.214   9.634  0.0130  0.6010  0.0090
 3280SOL    HW121476   4.367   3.295   9.646 -1.1495 -0.0237 -0.5956
 3280SOL    HW221477   4.496   3.261   9.610  0.5962  0.6659  2.0240
 3281SOL     OW21478   3.925   2.444   3.829 -0.1802 -0.2786  0.0919
 3281SOL    HW121479   3.865   2.441   3.903  2.5238  0.4831  2.2900
 3281SOL    HW221480   4.005   2.412   3.870  0.5181 -0.0650 -1.0961
 3282SOL     OW21481   2.976   3.741   8.383  0.1576 -0.4277  0.5636
 3282SOL    HW121482   2.894   3.716   8.423 -0.7038 -1.6396 -1.9421
 3282SOL    HW221483   2.962   3.819   8.328 -1.5081 -1.0911  0.0695
 3283SOL     OW21484   2.508   3.927   6.018 -0.2286  0.1774  0.2705
 3283SOL    HW121485   2.453   3.960   5.947  1.2809 -0.3470 -1.1357
 3283SOL    HW221486   2.583   3.984   6.009  0.0700 -0.5336 -1.6069
 3284SOL     OW21487   4.563   2.242  11.007 -0.3424  0.1030  0.1505
 3284SOL    HW121488   4.540   2.288  10.927 -3.1666 -3.5850 -1.1828
 3284SOL    HW221489   4.637   2.300  11.023 -0.3125 -0.2120  1.2051
 3285SOL     OW21490   3.947   0.164   2.929 -0.8421  0.0290 -0.1797
 3285SOL    HW121491   3.939   0.253   2.964  1.6102  0.6871 -1.2863
 3285SOL    HW221492   3.869   0.156   2.873 -0.5265  0.6396 -0.7057
 3286SOL     OW21493   2.203   0.172   3.666  0.0889  0.2144 -0.0312
 3286SOL    HW121494   2.172   0.147   3.579 -1.2364 -1.0408  0.7918
 3286SOL    HW221495   2.247   0.094   3.700 -1.0043 -0.8556 -1.0895
 3287SOL     OW21496   2.061   2.806  10.640  0.3209  0.2849  0.2242
 3287SOL    HW121497   2.018   2.877  10.689  2.1206  1.8949 -0.5576
 3287SOL    HW221498   2.029   2.725  10.680 -0.3328 -0.3944 -1.6674
 3288SOL     OW21499   1.321   1.697   9.393 -0.2524  0.1481  0.0082
 3288SOL    HW121500   1.415   1.678   9.384 -0.1546  1.3019 -1.3494
 3288SOL    HW221501   1.309   1.683   9.487  1.9387 -0.7286  0.1702
 3289SOL     OW21502   3.916   0.019   6.266  0.0587  0.0154  0.1668
 3289SOL    HW121503   3.827   0.042   6.239 -0.3382  0.3992  1.8152
 3289SOL    HW221504   3.931   0.072   6.344 -2.0389 -1.3967  1.5086
 3290SOL     OW21505   1.894   3.038  17.268 -0.4426 -0.2545 -0.3411
 3290SOL    HW121506   1.836   3.053  17.342 -1.7744  1.1126 -1.6714
 3290SOL    HW221507   1.829   3.017  17.201 -0.3854  0.4866 -0.6244
 3291SOL     OW21508   0.256   1.277   3.808 -0.4339 -0.4052  0.1058
 3291SOL    HW121509   0.171   1.244   3.838 -0.3725  0.8325  1.5942
 3291SOL    HW221510   0.231   1.367   3.787  0.3284 -0.4248 -0.9218
 3292SOL     OW21511   3.527   2.344   6.282 -0.2271  0.5104 -0.2684
 3292SOL    HW121512   3.431   2.344   6.284 -0.2152 -0.2234  0.4538
 3292SOL    HW221513   3.545   2.289   6.359  0.9874  1.6945  0.2992
 3293SOL     OW21514   3.196   3.507   7.788  0.4892  0.2697 -0.2614
 3293SOL    HW121515   3.290   3.526   7.785  0.7530 -0.8706  1.2061
 3293SOL    HW221516   3.198   3.425   7.738  0.1925  0.1229 -0.0340
 3294SOL     OW21517   4.473   2.124   5.202  0.0181 -0.1971  0.1854
 3294SOL    HW121518   4.511   2.152   5.285 -0.2986  1.3605 -0.1985
 3294SOL    HW221519   4.409   2.195   5.192  4.2071  3.8271  2.2761
 3295SOL     OW21520   0.755   3.116   3.271  0.8798  0.5832 -0.3564
 3295SOL    HW121521   0.850   3.113   3.265  0.9756  1.3580  0.7974
 3295SOL    HW221522   0.736   3.208   3.290  0.0527  0.2305  0.5971
 3296SOL     OW21523   4.523   0.082  14.107 -0.2966 -0.2218 -0.1159
 3296SOL    HW121524   4.546   0.140  14.034  1.3336  0.4513  0.9232
 3296SOL    HW221525   4.460   0.141  14.149 -0.2797  0.0159 -0.4203
 3297SOL     OW21526   2.313   0.882  10.217  0.1659  0.4056  0.3578
 3297SOL    HW121527   2.262   0.867  10.296  0.7559  0.5124  0.7586
 3297SOL    HW221528   2.340   0.792  10.199 -1.7932 -0.1656  0.2990
 3298SOL     OW21529   4.158   1.236   7.899 -0.7043  0.3832  0.2941
 3298SOL    HW121530   4.172   1.277   7.814  1.1570 -0.2741  0.2762
 3298SOL    HW221531   4.208   1.298   7.953 -0.3672  1.4169 -1.1881
 3299SOL     OW21532   1.520   0.540  11.342 -0.1432 -0.6515 -0.7623
 3299SOL    HW121533   1.506   0.524  11.249  0.8858  0.2280 -1.0630
 3299SOL    HW221534   1.472   0.622  11.354 -1.2273 -1.0183 -2.7141
 3300SOL     OW21535   3.340   1.106   8.832  0.0437  0.2078  0.7942
 3300SOL    HW121536   3.410   1.053   8.869 -0.2443 -0.3287  0.5671
 3300SOL    HW221537   3.275   1.037   8.819 -0.2905  0.8840 -1.2007
 3301SOL     OW21538   0.250   0.302   6.198 -0.6614  0.0628  0.2092
 3301SOL    HW121539   0.244   0.212   6.167 -3.1857  0.1769  0.3861
 3301SOL    HW221540   0.337   0.334   6.175  0.0088 -1.7263  0.3194
 3302SOL     OW21541   3.484   1.199   6.008 -0.2762  0.1976 -0.2862
 3302SOL    HW121542   3.566   1.162   6.041 -1.7512 -1.4324  1.5552
 3302SOL    HW221543   3.454   1.251   6.083 -1.6678 -1.0380  0.0132
 3303SOL     OW21544   4.151   4.538   3.575 -0.5027 -0.0917 -0.2545
 3303SOL    HW121545   4.072   4.488   3.596 -0.6773 -0.2670 -1.3430
 3303SOL    HW221546   4.136   4.557   3.482 -0.6383 -0.8015 -0.3789
 3304SOL     OW21547   1.990   0.417   3.650 -0.2496  0.2057 -0.5762
 3304SOL    HW121548   2.019   0.344   3.704  0.1256  2.2995  2.0979
 3304SOL    HW221549   2.012   0.491   3.707 -0.4824 -0.0575 -0.1445
 3305SOL     OW21550   3.725   3.333   3.458  0.0245  0.3174  0.3802
 3305SOL    HW121551   3.744   3.240   3.445  0.4793  0.8845 -3.0156
 3305SOL    HW221552   3.644   3.338   3.408  1.5643  1.1118 -2.0252
 3306SOL     OW21553   1.692   4.027   7.660 -0.1406 -0.2960 -0.6571
 3306SOL    HW121554   1.689   4.044   7.755  2.0730  2.8990 -1.1530
 3306SOL    HW221555   1.693   3.932   7.648 -2.3272 -0.4738  0.5240
 3307SOL     OW21556   1.102   1.461   5.650 -0.7449  0.3239  0.0676
 3307SOL    HW121557   1.189   1.501   5.646  0.3423 -2.0370  0.2806
 3307SOL    HW221558   1.071   1.485   5.562 -0.7060 -2.9319 -0.8302
 3308SOL     OW21559   4.608   3.694  12.913  0.0771  0.4733 -0.0707
 3308SOL    HW121560   4.693   3.731  12.890 -1.2526  3.1282 -0.7453
 3308SOL    HW221561   4.550   3.767  12.894  0.4779  1.8850  4.1258
 3309SOL     OW21562   0.218   3.594   2.291 -0.3211 -0.2945  0.1949
 3309SOL    HW121563   0.307   3.567   2.312 -0.4887  0.7352  2.3063
 3309SOL    HW221564   0.221   3.688   2.270 -2.0071 -0.2344  0.1571
 3310SOL     OW21565   4.511   1.819   2.322  0.3747  0.9020  1.2764
 3310SOL    HW121566   4.558   1.812   2.405  1.4898  0.7086  0.6366
 3310SOL    HW221567   4.494   1.725   2.314  2.3433  0.5189  1.6747
 3311SOL     OW21568   2.057   4.183   2.625 -0.1957  0.2975 -0.4057
 3311SOL    HW121569   2.134   4.167   2.571  0.0904 -1.9351  0.6823
 3311SOL    HW221570   2.060   4.275   2.651  5.5388  0.1435 -0.5465
 3312SOL     OW21571   1.957   2.829  17.622 -0.0796 -0.3553  0.5413
 3312SOL    HW121572   1.915   2.814  17.707  0.3020 -0.6262  0.6809
 3312SOL    HW221573   1.963   2.741  17.587 -0.8934 -0.9421  1.8722
 3313SOL     OW21574   2.429   1.091   2.207  0.5072  0.6748  0.2581
 3313SOL    HW121575   2.463   1.180   2.198 -1.2309  1.2244 -0.9971
 3313SOL    HW221576   2.464   1.058   2.290  0.3783 -1.2102 -0.4326
 3314SOL     OW21577   1.764   1.488   4.144 -0.2919 -0.2115 -0.2507
 3314SOL    HW121578   1.800   1.573   4.171 -0.2610 -0.2162 -0.2770
 3314SOL    HW221579   1.717   1.516   4.065 -0.9621  1.0528  0.6010
 3315SOL     OW21580   1.947   3.001  12.422  0.9040  0.2608 -0.5821
 3315SOL    HW121581   1.981   2.913  12.436 -1.9638 -0.7346  0.0444
 3315SOL    HW221582   1.853   2.995  12.440  0.8402  2.1173 -0.3113
 3316SOL     OW21583   1.635   1.961   5.230  0.2725  0.1730  0.5875
 3316SOL    HW121584   1.703   2.020   5.261  2.7998 -1.6594 -1.4833
 3316SOL    HW221585   1.557   1.998   5.273  0.6047  1.5959 -0.0256
 3317SOL     OW21586   4.440   2.098  17.476  0.1123  0.9656 -0.5111
 3317SOL    HW121587   4.401   2.186  17.484  0.1131  0.8334  1.0079
 3317SOL    HW221588   4.486   2.093  17.560  1.4723 -0.2398 -1.3433
 3318SOL     OW21589   2.751   2.954   2.464  0.5229 -0.2117 -0.2450
 3318SOL    HW121590   2.806   2.976   2.539  2.1179 -0.5089 -1.3407
 3318SOL    HW221591   2.771   3.034   2.415  3.4278 -2.1467 -2.1980
 3319SOL     OW21592   3.816   2.883   8.785  0.6370 -0.5172 -0.6142
 3319SOL    HW121593   3.811   2.942   8.709 -1.8873 -0.7291 -0.5802
 3319SOL    HW221594   3.852   2.802   8.750 -1.2190 -0.3396 -2.9244
 3320SOL     OW21595   1.369   3.476  10.963 -0.3176 -0.4441  0.6262
 3320SOL    HW121596   1.464   3.487  10.955 -0.6547 -0.1056 -2.8919
 3320SOL    HW221597   1.341   3.535  10.893 -1.6014  0.5623  1.9966
 3321SOL     OW21598   1.466   3.137   7.258 -0.6700  0.1577 -0.0490
 3321SOL    HW121599   1.518   3.115   7.335  1.3964  1.3242 -1.1251
 3321SOL    HW221600   1.460   3.231   7.273  0.0954  0.3733 -1.1763
 3322SOL     OW21601   0.151   3.390   2.977  0.2311 -0.1741 -0.2193
 3322SOL    HW121602   0.191   3.474   3.000  0.6189 -0.0785 -1.2173
 3322SOL    HW221603   0.078   3.417   2.921 -1.0967 -1.0979  1.0721
 3323SOL     OW21604   1.186   2.092   6.878  0.5239  0.8032 -0.0886
 3323SOL    HW121605   1.162   2.132   6.794 -1.1766 -0.4024 -0.1724
 3323SOL    HW221606   1.095   2.070   6.897  0.5586 -2.0915 -3.2123
 3324SOL     OW21607   1.211   1.323   4.441 -0.4462  0.4466  0.3040
 3324SOL    HW121608   1.277   1.392   4.445 -1.6750  1.6640 -0.6544
 3324SOL    HW221609   1.137   1.371   4.480 -1.0692 -0.3975  0.1504
 3325SOL     OW21610   2.984   2.656   4.672 -0.1201  0.5023  0.3052
 3325SOL    HW121611   3.064   2.604   4.666 -0.4402  0.1248 -0.7844
 3325SOL    HW221612   2.933   2.591   4.720 -2.6871  0.3966 -2.4873
 3326SOL     OW21613   3.296   1.933  10.705 -0.5468  0.7012 -0.2720
 3326SOL    HW121614   3.303   1.976  10.620 -1.4088  1.5189  0.0692
 3326SOL    HW221615   3.202   1.914  10.704 -0.6394  0.9528  2.6331
 3327SOL     OW21616   3.460   3.816   5.701  0.0590 -0.3046  0.3330
 3327SOL    HW121617   3.420   3.750   5.758 -1.2334 -3.8244 -4.6658
 3327SOL    HW221618   3.396   3.887   5.709  0.9936  0.5933 -0.2030
 3328SOL     OW21619   2.792   3.879   3.253 -0.1570 -0.4005  0.0437
 3328SOL    HW121620   2.880   3.844   3.250 -0.0230  0.1213 -2.1286
 3328SOL    HW221621   2.785   3.905   3.161  0.1712  2.7732  0.8951
 3329SOL     OW21622   0.628   4.614   1.833 -0.5536  0.0375 -0.0500
 3329SOL    HW121623   0.712   4.580   1.865  0.5088  2.6333 -0.0538
 3329SOL    HW221624   0.608   4.690   1.888  1.3677 -0.2325  1.0253
 3330SOL     OW21625   0.452   3.301   7.571 -0.5234 -0.0393  0.0517
 3330SOL    HW121626   0.451   3.272   7.479  1.9007  1.5931 -0.4953
 3330SOL    HW221627   0.395   3.237   7.612 -1.5164  0.5843 -0.3473
 3331SOL     OW21628   2.425   1.358   7.693 -0.1642 -0.0576  0.0148
 3331SOL    HW121629   2.440   1.272   7.655  2.8426  0.1423  0.7222
 3331SOL    HW221630   2.508   1.403   7.679 -1.5608  2.7014  0.5900
 3332SOL     OW21631   2.005   2.257  13.346 -0.0558  0.1624 -0.7101
 3332SOL    HW121632   1.913   2.266  13.320 -0.0407  2.6608  0.1362
 3332SOL    HW221633   2.001   2.287  13.437 -0.0406 -2.8586  0.3152
 3333SOL     OW21634   3.525   2.060   7.044 -0.8158  0.2332 -0.4057
 3333SOL    HW121635   3.513   2.079   7.137 -1.5988  0.0943 -0.4713
 3333SOL    HW221636   3.434   2.055   7.012 -0.5959 -1.0183 -0.8356
 3334SOL     OW21637   2.405   3.732   1.937  0.5598  0.0092  0.1355
 3334SOL    HW121638   2.394   3.827   1.933  0.8787  0.1210  1.7983
 3334SOL    HW221639   2.407   3.709   1.844 -0.3796  1.6049 -0.2845
 3335SOL     OW21640   2.101   0.080  10.287  0.7577 -0.6220  0.0731
 3335SOL    HW121641   2.171   0.125  10.335 -0.4879 -0.1936  1.5008
 3335SOL    HW221642   2.039   0.052  10.354  2.7569 -1.7196  1.4483
 3336SOL     OW21643   4.338   2.165   1.920 -0.1982  0.4039  0.1580
 3336SOL    HW121644   4.263   2.135   1.970  0.4592 -0.1589  0.7986
 3336SOL    HW221645   4.297   2.186   1.835 -1.8031  4.5180  1.9544
 3337SOL     OW21646   3.679   3.763   8.009  0.4617  0.0242 -0.7438
 3337SOL    HW121647   3.726   3.797   7.933  0.5824 -1.3810 -1.3024
 3337SOL    HW221648   3.660   3.852   8.039  0.9927  0.3940 -1.5148
 3338SOL     OW21649   3.195   4.541   6.537 -0.0660  0.0446  0.6434
 3338SOL    HW121650   3.246   4.572   6.462 -0.0854 -0.4967  0.4070
 3338SOL    HW221651   3.110   4.579   6.514  0.0975  0.2696  0.4054
 3339SOL     OW21652   2.617   1.840   2.070  0.0599 -0.2070  0.4888
 3339SOL    HW121653   2.645   1.782   1.999 -3.1094  0.7627 -1.5585
 3339SOL    HW221654   2.678   1.824   2.143  0.8081  1.4792  0.2310
 3340SOL     OW21655   4.710   3.997   6.971  0.0658  0.0948 -0.0670
 3340SOL    HW121656   4.647   4.069   6.960  1.4103  1.1416 -0.8678
 3340SOL    HW221657   4.679   3.927   6.914 -2.8568  1.4926 -0.1937
 3341SOL     OW21658   1.133   3.076   3.014 -0.4706 -0.6810 -0.7001
 3341SOL    HW121659   1.220   3.071   2.973  0.2661 -0.1994  0.8110
 3341SOL    HW221660   1.078   3.039   2.945  0.5353 -0.3851 -1.6780
 3342SOL     OW21661   3.701   4.617   6.932 -0.3495 -0.2665 -0.3939
 3342SOL    HW121662   3.760   4.654   6.998 -1.5045 -0.4227  0.7192
 3342SOL    HW221663   3.623   4.671   6.939  0.9331  1.8792 -2.5347
 3343SOL     OW21664   0.895   3.810   5.695  0.3099  0.0160  0.1530
 3343SOL    HW121665   0.849   3.873   5.752  0.4609 -0.9279  1.3156
 3343SOL    HW221666   0.906   3.866   5.618  0.7606  2.3618  1.8862
 3344SOL     OW21667   3.437   1.821   9.613 -0.5354  0.0552  0.4902
 3344SOL    HW121668   3.350   1.825   9.653 -1.2868 -2.4716 -0.8638
 3344SOL    HW221669   3.430   1.731   9.581 -1.9709  0.5191 -0.5309
 3345SOL     OW21670   4.301   4.423  15.672 -0.0869 -0.4024 -0.3256
 3345SOL    HW121671   4.381   4.371  15.668  0.4954  0.4384  0.7382
 3345SOL    HW221672   4.307   4.490  15.739  0.5372 -0.4707 -0.3159
 3346SOL     OW21673   4.605   2.959  15.851  0.5431 -0.3821  0.1240
 3346SOL    HW121674   4.677   2.957  15.789  0.8928  2.5162  0.3982
 3346SOL    HW221675   4.529   2.963  15.793  0.2686  0.3526  0.5218
 3347SOL     OW21676   0.737   4.023   7.738  0.0998 -0.0690  0.6968
 3347SOL    HW121677   0.651   4.014   7.696 -0.3897 -1.8541  2.0569
 3347SOL    HW221678   0.733   3.964   7.814 -0.5368 -0.2573  0.5168
 3348SOL     OW21679   0.568   3.076   5.079  0.3060 -0.4596  0.6125
 3348SOL    HW121680   0.525   3.080   5.165  0.5404  0.6244  0.6818
 3348SOL    HW221681   0.542   3.161   5.041  0.4009 -0.3404  0.8160
 3349SOL     OW21682   3.803   4.374  17.716 -0.4866  0.1135  0.1771
 3349SOL    HW121683   3.880   4.355  17.663  0.3656  2.5849  0.5195
 3349SOL    HW221684   3.830   4.458  17.753  0.5472  0.1455 -0.6617
 3350SOL     OW21685   1.689   2.907   8.218 -0.1176  0.6718  0.1091
 3350SOL    HW121686   1.633   2.955   8.156 -1.0262 -1.0655 -0.4054
 3350SOL    HW221687   1.660   2.945   8.302  1.7008  2.5581 -0.0977
 3351SOL     OW21688   2.207   0.918   2.203  0.0262 -0.2840 -0.5807
 3351SOL    HW121689   2.266   0.990   2.226 -1.6458  0.2975  2.0036
 3351SOL    HW221690   2.151   0.930   2.280  0.4746 -1.6458 -0.0466
 3352SOL     OW21691   2.619   1.214   9.363 -0.3868 -0.3571  0.1508
 3352SOL    HW121692   2.625   1.218   9.458  1.5582 -0.6307  0.0394
 3352SOL    HW221693   2.644   1.305   9.344 -0.5216 -0.5090 -0.7891
 3353SOL     OW21694   0.229   2.765  14.055 -0.0078 -0.4753  0.2429
 3353SOL    HW121695   0.158   2.827  14.038  0.1126 -0.5335 -0.4998
 3353SOL    HW221696   0.271   2.777  13.970 -0.5581  1.4573  0.2397
 3354SOL     OW21697   0.928   2.018   6.928  0.2264  0.5110 -0.2011
 3354SOL    HW121698   0.887   2.019   7.014 -1.3783  0.0937 -0.9663
 3354SOL    HW221699   0.864   1.975   6.872  1.4238 -1.2473 -0.2616
 3355SOL     OW21700   0.853   2.691   3.992  0.5721 -0.1177  0.1247
 3355SOL    HW121701   0.775   2.671   4.045  0.0733 -0.5333 -0.7727
 3355SOL    HW221702   0.836   2.786   3.987  0.0610 -0.1575  1.0969
 3356SOL     OW21703   1.215   3.892   6.200 -0.0442  0.1366 -0.2220
 3356SOL    HW121704   1.241   3.823   6.139 -2.3828 -3.3254  2.7130
 3356SOL    HW221705   1.137   3.859   6.243  1.0779 -1.8014  0.2994
 3357SOL     OW21706   3.473   4.331   2.282  0.1410  0.0871  0.7386
 3357SOL    HW121707   3.548   4.333   2.222 -1.6563 -2.0496 -1.5250
 3357SOL    HW221708   3.399   4.347   2.225  0.7509 -0.6004 -0.2493
 3358SOL     OW21709   4.032   0.313  11.540 -0.2284  0.1544  0.0349
 3358SOL    HW121710   4.064   0.223  11.542 -1.2103 -0.1926 -0.0010
 3358SOL    HW221711   3.977   0.307  11.618 -0.6882  1.1635 -0.2093
 3359SOL     OW21712   2.688   4.660  11.014  0.6651 -0.2532  0.1262
 3359SOL    HW121713   2.711   4.605  10.938  0.5595 -1.0599  0.6744
 3359SOL    HW221714   2.772   4.704  11.013  0.7132 -0.3469 -0.0125
 3360SOL     OW21715   3.123   3.932   9.255  0.3852 -0.1724  0.5790
 3360SOL    HW121716   3.125   3.945   9.160  2.6323 -0.5254  0.5739
 3360SOL    HW221717   3.167   4.011   9.287 -0.7118  0.3780  0.7097
 3361SOL     OW21718   0.194   1.128   9.309  0.6443 -0.8447 -0.5661
 3361SOL    HW121719   0.113   1.106   9.262  0.5838  1.6469 -1.6381
 3361SOL    HW221720   0.237   1.043   9.307 -0.8969 -1.6361 -0.3491
 3362SOL     OW21721   0.842   0.153   6.839  0.2354  0.0278 -0.7922
 3362SOL    HW121722   0.816   0.231   6.789 -0.2011 -0.7464 -1.7761
 3362SOL    HW221723   0.752   0.127   6.855  0.1123  1.9274  1.4690
 3363SOL     OW21724   3.188   4.112   2.975  0.0981  0.0863  0.0766
 3363SOL    HW121725   3.259   4.149   3.027  1.5320 -0.6679 -1.3298
 3363SOL    HW221726   3.184   4.179   2.907  0.9156  0.3761  0.3122
 3364SOL     OW21727   2.524   3.405   5.901  0.9635 -0.8617 -0.1294
 3364SOL    HW121728   2.460   3.467   5.864  0.6828 -0.5794  0.8280
 3364SOL    HW221729   2.578   3.390   5.823  0.2156 -2.2340 -0.3737
 3365SOL     OW21730   1.826   4.241   2.435  0.4214 -0.9167  0.1799
 3365SOL    HW121731   1.905   4.214   2.483  0.3061  0.4171  1.1214
 3365SOL    HW221732   1.762   4.174   2.459  0.7985 -1.2023  0.3969
 3366SOL     OW21733   3.531   0.222   8.260  0.0385  0.5824 -0.1893
 3366SOL    HW121734   3.623   0.202   8.280 -0.0613  1.2681  0.9825
 3366SOL    HW221735   3.499   0.225   8.350 -0.8180  0.8284 -0.5014
 3367SOL     OW21736   3.738   0.800  17.541 -0.0448  0.3341  0.3074
 3367SOL    HW121737   3.683   0.723  17.553 -0.6888  0.5188 -1.4676
 3367SOL    HW221738   3.790   0.782  17.619  4.3173 -5.1364 -3.8991
 3368SOL     OW21739   3.066   4.167   6.654  0.2046 -0.0103  0.3857
 3368SOL    HW121740   3.107   4.163   6.567  1.4487 -0.0788  0.9801
 3368SOL    HW221741   2.987   4.116   6.636 -0.8983  1.0393  2.2613
 3369SOL     OW21742   2.445   1.256   6.847 -0.4393  0.5635 -0.0271
 3369SOL    HW121743   2.365   1.234   6.896 -0.1468  0.1815  0.2854
 3369SOL    HW221744   2.453   1.348   6.869 -1.5957  0.9861 -1.3698
 3370SOL     OW21745   0.835   4.614  11.120  0.1205  0.9454  0.2962
 3370SOL    HW121746   0.779   4.678  11.164 -0.7540  1.1143 -1.0759
 3370SOL    HW221747   0.786   4.579  11.046 -1.1003  1.9819  0.6202
 3371SOL     OW21748   4.695   0.742  16.087 -0.2549  0.3221 -0.0934
 3371SOL    HW121749   4.708   0.835  16.104  2.8752 -0.7311  3.2163
 3371SOL    HW221750   0.020   0.703  16.146 -2.7740  0.1462  2.5672
 3372SOL     OW21751   1.148   0.241   6.299  0.3117  0.2126  0.0130
 3372SOL    HW121752   1.117   0.278   6.216 -0.1444  1.6798  0.8242
 3372SOL    HW221753   1.182   0.318   6.345 -0.2154 -0.4018  1.4328
 3373SOL     OW21754   0.093   1.777   8.794  0.1607 -0.4737  0.0780
 3373SOL    HW121755   0.027   1.817   8.850  0.5846  0.0397  0.2063
 3373SOL    HW221756   0.168   1.832   8.817 -1.0077  0.4081  1.7610
 3374SOL     OW21757   2.862   2.859  13.989 -0.0154  0.3864 -0.5436
 3374SOL    HW121758   2.782   2.857  14.042  0.7187 -0.7887  0.5009
 3374SOL    HW221759   2.816   2.872  13.907 -2.5920  1.5273  1.0593
 3375SOL     OW21760   1.150   2.939   0.012  0.4501  0.5320 -0.6739
 3375SOL    HW121761   1.095   3.017   0.021 -2.3751 -1.7493  1.4834
 3375SOL    HW221762   1.109   2.895  17.694  2.2182  0.3970 -1.5590
 3376SOL     OW21763   4.707   0.559   1.736 -0.3875  0.3354 -0.3716
 3376SOL    HW121764   4.680   0.468   1.739 -1.4265  0.6706  0.3694
 3376SOL    HW221765   4.621   0.592   1.709  0.4934  2.0599 -1.1405
 3377SOL     OW21766   4.460   0.787   2.983 -0.6346  0.3682  0.5876
 3377SOL    HW121767   4.430   0.696   2.975 -0.5860  0.3971  0.0757
 3377SOL    HW221768   4.424   0.834   2.909 -1.7998  0.5531  1.2710
 3378SOL     OW21769   2.819   4.076   2.418  0.4557  0.4623  0.1474
 3378SOL    HW121770   2.864   4.000   2.380  1.1158  1.2545 -0.6569
 3378SOL    HW221771   2.733   4.035   2.433  1.1494 -0.8664  0.4707
 3379SOL     OW21772   0.306   3.089   6.113 -0.1977 -0.6875 -0.0113
 3379SOL    HW121773   0.308   3.066   6.021  2.1425  0.3766 -0.2185
 3379SOL    HW221774   0.342   3.178   6.114 -1.8712 -0.0262  2.1709
 3380SOL     OW21775   2.329   4.705  15.619  0.1987  0.3432 -0.1311
 3380SOL    HW121776   2.392   4.638  15.593 -0.4287 -1.4274  2.9621
 3380SOL    HW221777   2.244   4.662  15.604  0.3084 -0.1536  0.7106
 3381SOL     OW21778   2.661   3.566   8.084  0.0869 -0.1317  0.3590
 3381SOL    HW121779   2.576   3.548   8.125  0.6034 -1.0261  1.0394
 3381SOL    HW221780   2.674   3.659   8.104  0.5434  0.4478 -2.7571
 3382SOL     OW21781   2.621   2.002  11.914  0.1042  0.0656  0.1596
 3382SOL    HW121782   2.717   1.992  11.911 -0.0229 -1.4351  1.6196
 3382SOL    HW221783   2.598   1.926  11.966 -0.7403  0.3893  0.2576
 3383SOL     OW21784   1.854   1.060  10.146  0.0480  0.3535  0.1047
 3383SOL    HW121785   1.826   0.993  10.207 -1.5218  0.4954 -0.4781
 3383SOL    HW221786   1.886   1.127  10.206  0.2369  1.1093 -0.8284
 3384SOL     OW21787   1.709   0.498   8.755 -0.7063  0.2040 -0.4840
 3384SOL    HW121788   1.706   0.592   8.776  0.0852  0.7288 -2.7098
 3384SOL    HW221789   1.724   0.461   8.842  1.5590  1.4972 -0.3092
 3385SOL     OW21790   4.737   1.456   7.049  0.3388  0.0672  0.0671
 3385SOL    HW121791   4.646   1.481   7.062  0.0767 -0.3360 -1.0402
 3385SOL    HW221792   4.730   1.378   6.995  0.6140  2.4638 -3.4528
 3386SOL     OW21793   3.037   1.781   2.021  0.4197 -0.6325 -0.1795
 3386SOL    HW121794   3.098   1.710   2.003  1.4733 -0.1778  1.5092
 3386SOL    HW221795   2.983   1.756   2.096  1.0903 -0.0902  0.4917
 3387SOL     OW21796   4.144   1.245   2.184  0.4152 -0.3723  0.4929
 3387SOL    HW121797   4.174   1.193   2.259  1.0887 -1.0261 -0.2177
 3387SOL    HW221798   4.064   1.197   2.165 -0.3739  1.9739 -1.9981
 3388SOL     OW21799   3.754   4.220   1.211 -0.0559  0.0856  0.8534
 3388SOL    HW121800   3.713   4.306   1.223  1.1243  0.7793 -0.1347
 3388SOL    HW221801   3.678   4.164   1.226 -0.9900  1.3388  0.7702
 3389SOL     OW21802   4.455   2.510   6.409  0.2431  0.3997 -0.4746
 3389SOL    HW121803   4.483   2.534   6.497 -1.0111  2.3794 -0.6009
 3389SOL    HW221804   4.436   2.584   6.350 -0.7186  0.5403  0.0086
 3390SOL     OW21805   4.208   2.498   5.539  0.1052 -0.0704 -0.0580
 3390SOL    HW121806   4.242   2.557   5.472 -1.7490 -0.3909 -1.2634
 3390SOL    HW221807   4.165   2.553   5.604  0.0394  0.2658 -0.3882
 3391SOL     OW21808   1.519   0.897   8.651 -0.6303 -0.0968  0.2183
 3391SOL    HW121809   1.478   0.822   8.609 -0.2387 -0.5524  0.6633
 3391SOL    HW221810   1.443   0.955   8.664 -0.0728  0.5495  0.5736
 3392SOL     OW21811   0.003   2.657   8.867 -0.5434  0.1676 -0.1825
 3392SOL    HW121812   4.691   2.577   8.859  1.2912 -1.0470 -0.1371
 3392SOL    HW221813   4.705   2.725   8.811  1.7143  0.6299 -1.1485
 3393SOL     OW21814   3.329   0.709  14.452  0.1719  0.0159 -0.1213
 3393SOL    HW121815   3.412   0.663  14.440  0.4181  0.4344 -0.0357
 3393SOL    HW221816   3.268   0.668  14.390 -3.4807  3.3466  1.2568
 3394SOL     OW21817   4.558   0.368  12.937  0.5854  0.0696  0.0559
 3394SOL    HW121818   4.597   0.424  12.870 -1.0800 -1.6080 -2.2948
 3394SOL    HW221819   4.474   0.406  12.963  1.7780  1.6965  1.5726
 3395SOL     OW21820   2.120   4.183   8.091  0.0816 -0.8375 -0.0692
 3395SOL    HW121821   2.069   4.239   8.149  0.8578 -0.1761 -0.0314
 3395SOL    HW221822   2.211   4.185   8.120  0.4529 -1.3158 -1.1768
 3396SOL     OW21823   2.561   0.061   3.471 -0.4061 -0.1933 -0.2867
 3396SOL    HW121824   2.619   0.065   3.395 -1.9860 -0.7021 -1.5181
 3396SOL    HW221825   2.489   0.012   3.433  0.6050  0.0996 -2.5865
 3397SOL     OW21826   0.782   0.832   9.011 -0.2926 -0.6806  0.1898
 3397SOL    HW121827   0.810   0.750   9.052 -1.1855  0.1047  2.3690
 3397SOL    HW221828   0.794   0.812   8.918 -2.5556 -1.8993  0.1656
 3398SOL     OW21829   2.104   2.876   0.582 -0.1022  0.0173  0.1127
 3398SOL    HW121830   2.183   2.931   0.579  1.0501 -1.7230 -1.4591
 3398SOL    HW221831   2.155   2.796   0.597  0.2120  0.2665  0.3739
 3399SOL     OW21832   1.607   4.480   4.959 -0.0849 -0.1470 -0.0598
 3399SOL    HW121833   1.514   4.480   4.935 -0.6286  3.5533  2.0335
 3399SOL    HW221834   1.622   4.388   4.936 -0.9390 -0.5884  1.1247
 3400SOL     OW21835   1.536   1.599   5.850 -0.1333 -0.1336  0.0483
 3400SOL    HW121836   1.616   1.613   5.901 -1.3556  2.1832  1.3404
 3400SOL    HW221837   1.532   1.683   5.805 -0.5699 -0.1632  0.0374
 3401SOL     OW21838   0.495   0.975   3.426  0.2203 -0.0683 -0.6523
 3401SOL    HW121839   0.468   0.993   3.516 -4.8587 -0.3751 -2.1266
 3401SOL    HW221840   0.422   1.017   3.381  0.1804  2.4825  1.7716
 3402SOL     OW21841   4.345   1.099   3.002  0.1997 -0.5577  0.3164
 3402SOL    HW121842   4.418   1.044   2.975 -0.9303 -2.7860  1.8320
 3402SOL    HW221843   4.386   1.179   3.034  0.0519 -0.7912  1.0877
 3403SOL     OW21844   1.138   1.594   0.312  0.3318 -0.3908 -0.5865
 3403SOL    HW121845   1.221   1.567   0.352 -0.6541  0.3822  1.9626
 3403SOL    HW221846   1.079   1.590   0.388  2.2926  0.7359  0.9939
 3404SOL     OW21847   3.615   0.261   9.121  0.0715 -0.6409  0.5928
 3404SOL    HW121848   3.664   0.244   9.202 -0.2908  0.1859  0.9894
 3404SOL    HW221849   3.685   0.320   9.093  0.1503 -0.2136  1.6933
 3405SOL     OW21850   2.099   3.632   8.105 -0.1443  0.0695 -0.4609
 3405SOL    HW121851   2.147   3.670   8.031 -0.9418 -1.0591 -1.5533
 3405SOL    HW221852   2.152   3.667   8.177 -0.3530 -0.1147 -0.2201
 3406SOL     OW21853   1.760   0.434  14.571  0.1256  0.0750 -0.1640
 3406SOL    HW121854   1.840   0.421  14.520 -0.1953  1.8169 -1.0938
 3406SOL    HW221855   1.774   0.375  14.645  1.2892 -0.7449 -1.0278
 3407SOL     OW21856   3.649   0.902   3.448  0.1499 -0.6214  0.3144
 3407SOL    HW121857   3.572   0.889   3.392 -0.1682 -1.9585  1.0658
 3407SOL    HW221858   3.609   0.968   3.504 -0.0504 -0.9732  0.5839
 3408SOL     OW21859   0.384   0.680  14.012 -0.2753  0.1350 -0.6710
 3408SOL    HW121860   0.310   0.724  14.053 -0.7104 -0.2565 -1.0506
 3408SOL    HW221861   0.416   0.626  14.085  2.1051 -0.2377 -1.9812
 3409SOL     OW21862   1.206   0.386   3.392 -0.0137  0.0567 -0.0755
 3409SOL    HW121863   1.132   0.337   3.426  0.7338 -2.2784 -1.8061
 3409SOL    HW221864   1.161   0.463   3.360  0.5133  0.6294  0.5509
 3410SOL     OW21865   2.391   3.697   2.257 -0.1925  0.0059 -0.6197
 3410SOL    HW121866   2.299   3.711   2.280 -0.0942 -0.8989  0.2715
 3410SOL    HW221867   2.394   3.699   2.161  0.0450  0.0928 -0.6115
 3411SOL     OW21868   4.371   0.773   8.352  0.4951 -0.2946 -0.2979
 3411SOL    HW121869   4.303   0.706   8.354  0.0995  0.0812 -0.9734
 3411SOL    HW221870   4.427   0.746   8.425 -1.7975 -2.0742  0.8040
 3412SOL     OW21871   4.597   1.975   3.398  0.2330 -0.1638 -0.0915
 3412SOL    HW121872   4.665   2.041   3.388  1.6166 -1.5980 -0.2450
 3412SOL    HW221873   4.567   1.965   3.308 -1.4802 -0.6578  0.5481
 3413SOL     OW21874   3.375   3.448   2.513  0.0482  0.1623 -0.0987
 3413SOL    HW121875   3.386   3.531   2.466 -0.2655 -1.2465 -2.6569
 3413SOL    HW221876   3.451   3.403   2.476  0.4685 -0.8331  1.9862
 3414SOL     OW21877   4.316   3.174   5.624 -0.0563  0.2143 -0.1766
 3414SOL    HW121878   4.366   3.231   5.566 -1.3581  0.3881 -1.1216
 3414SOL    HW221879   4.236   3.172   5.571 -0.1464 -0.3050 -0.0195
 3415SOL     OW21880   2.359   3.948  10.000  0.0105  0.4170  0.6953
 3415SOL    HW121881   2.452   3.954   9.980  0.0532  0.9988  1.0469
 3415SOL    HW221882   2.366   4.016  10.067 -2.8124 -0.9058  2.3332
 3416SOL     OW21883   1.286   2.581   7.323 -0.9188  0.1210 -0.5347
 3416SOL    HW121884   1.285   2.543   7.235 -1.6073  0.6448 -0.7493
 3416SOL    HW221885   1.192   2.593   7.339 -0.4795  1.1730  1.2951
 3417SOL     OW21886   4.197   1.407   7.663  0.4008  0.2680  0.0091
 3417SOL    HW121887   4.112   1.400   7.618 -0.2704  3.4839  0.8298
 3417SOL    HW221888   4.214   1.500   7.671  0.6516  0.3091 -0.9991
 3418SOL     OW21889   4.133   3.717  16.255 -0.0796 -0.7058  0.4397
 3418SOL    HW121890   4.183   3.793  16.224  0.8507 -1.4595  0.1083
 3418SOL    HW221891   4.074   3.713  16.180 -0.5171  0.0070  0.7414
 3419SOL     OW21892   4.179   2.798  14.760 -0.3263  0.0834 -0.1003
 3419SOL    HW121893   4.092   2.830  14.784 -0.0369 -1.3208  2.9125
 3419SOL    HW221894   4.223   2.870  14.715 -0.0839 -0.5151 -0.8193
 3420SOL     OW21895   1.207   3.561   6.761  0.1789 -0.1235 -0.0558
 3420SOL    HW121896   1.256   3.479   6.771  0.6696  0.0661 -0.8574
 3420SOL    HW221897   1.206   3.588   6.852  2.3927  0.4055 -0.2024
 3421SOL     OW21898   2.034   4.659   5.227  0.9659 -0.1311 -0.1248
 3421SOL    HW121899   2.011   0.004   5.189 -0.9742 -0.4028  0.4505
 3421SOL    HW221900   1.967   4.637   5.292  0.0402 -3.2442 -2.1104
 3422SOL     OW21901   1.961   0.321   5.938  0.0328  0.6267 -0.4331
 3422SOL    HW121902   2.004   0.241   5.908  1.0877  1.4895 -1.2395
 3422SOL    HW221903   1.911   0.351   5.862 -0.3643 -1.0605 -0.8293
 3423SOL     OW21904   1.408   3.620  11.600 -0.5711  0.0027  0.8888
 3423SOL    HW121905   1.500   3.616  11.574 -0.2917  1.0200  1.7177
 3423SOL    HW221906   1.395   3.533  11.638 -0.6501 -0.5580 -0.4205
 3424SOL     OW21907   0.407   2.937  10.486 -0.2090  0.0349 -0.1289
 3424SOL    HW121908   0.424   2.867  10.423 -0.9395 -0.1568 -0.1137
 3424SOL    HW221909   0.455   3.011  10.449  1.5908  0.4576  3.0380
 3425SOL     OW21910   0.542   2.836  15.469  0.2113  0.0998  0.2446
 3425SOL    HW121911   0.515   2.840  15.561 -0.8092 -2.9166  0.0941
 3425SOL    HW221912   0.473   2.778  15.437 -0.5335  1.4397 -0.5461
 3426SOL     OW21913   3.816   3.377  13.256  0.3338 -0.0298  0.4619
 3426SOL    HW121914   3.785   3.323  13.328  1.2508  1.1960  1.7689
 3426SOL    HW221915   3.850   3.456  13.299 -0.8601  1.1486 -0.7394
 3427SOL     OW21916   0.914   2.773   5.112 -0.3348  0.4907 -0.1335
 3427SOL    HW121917   0.871   2.806   5.033  0.5125  2.6932  0.3034
 3427SOL    HW221918   1.003   2.776   5.074 -0.8885  0.0295 -1.4806
 3428SOL     OW21919   2.010   3.450   5.616 -0.3422 -0.5940  0.1234
 3428SOL    HW121920   2.052   3.518   5.669  0.4614 -1.3380  0.4448
 3428SOL    HW221921   1.920   3.464   5.647  0.6515  1.4757  2.0505
 3429SOL     OW21922   4.301   1.227  15.753  0.7411 -0.4623  0.0592
 3429SOL    HW121923   4.229   1.206  15.811 -0.2225 -1.3827 -1.4509
 3429SOL    HW221924   4.366   1.262  15.813  0.7469  1.2931 -0.9574
 3430SOL     OW21925   0.836   2.994   6.178  0.2198 -1.0697 -0.5358
 3430SOL    HW121926   0.921   2.952   6.194  0.8031  1.1878  2.2025
 3430SOL    HW221927   0.846   3.010   6.084 -0.2090 -1.1623 -0.5982
 3431SOL     OW21928   1.392   2.409   8.559 -0.3933  0.3163 -0.2820
 3431SOL    HW121929   1.413   2.501   8.578 -0.9088  0.7151 -1.5927
 3431SOL    HW221930   1.431   2.402   8.472  1.2580  0.7057  0.4290
 3432SOL     OW21931   3.993   2.844   8.986  0.6854  0.5148 -0.2166
 3432SOL    HW121932   3.935   2.889   8.925  0.9381 -1.7495 -2.0904
 3432SOL    HW221933   4.021   2.761   8.948 -1.4902  0.8006 -2.4262
 3433SOL     OW21934   0.989   1.480   0.999  0.5516  0.4504 -0.2040
 3433SOL    HW121935   1.064   1.480   0.940  0.0652  0.3291 -0.8256
 3433SOL    HW221936   1.030   1.540   1.062  1.2074  1.3316 -1.4601
 3434SOL     OW21937   3.524   4.665   7.900  0.4558 -0.2399 -0.2832
 3434SOL    HW121938   3.496   4.713   7.978  0.5093  0.4948 -0.7224
 3434SOL    HW221939   3.437   4.659   7.861  1.3899 -2.7787 -2.0518
 3435SOL     OW21940   4.339   4.023   1.493  0.3814 -0.2173 -0.4743
 3435SOL    HW121941   4.325   3.990   1.582  2.3243  1.3526  0.4099
 3435SOL    HW221942   4.332   4.118   1.505 -1.4948 -0.4203  0.0185
 3436SOL     OW21943   1.013   3.092   3.794 -0.1804  0.5429 -0.5507
 3436SOL    HW121944   1.048   3.163   3.740  2.1098  0.0113  0.2433
 3436SOL    HW221945   1.090   3.057   3.839 -0.3022  0.4247 -0.4332
 3437SOL     OW21946   1.840   0.369  15.896 -0.9752  0.8352  0.5415
 3437SOL    HW121947   1.778   0.389  15.826  0.8903 -0.8713 -1.5609
 3437SOL    HW221948   1.871   0.459  15.905  3.8029 -0.9321  1.4581
 3438SOL     OW21949   3.688   4.256   4.297  0.3377  0.8909  0.6404
 3438SOL    HW121950   3.783   4.271   4.301  0.6477 -0.8671 -0.1896
 3438SOL    HW221951   3.649   4.334   4.259  2.7984  1.6241 -0.3974
 3439SOL     OW21952   0.198   0.147   8.451  0.7767 -0.5308 -0.0523
 3439SOL    HW121953   0.139   0.160   8.377 -0.7183  3.8357  1.9196
 3439SOL    HW221954   0.283   0.158   8.407 -0.8846  2.2589 -2.5498
 3440SOL     OW21955   1.645   0.751   3.192 -0.7260 -0.1758 -0.6741
 3440SOL    HW121956   1.594   0.753   3.273 -0.6549  3.3095 -0.7132
 3440SOL    HW221957   1.696   0.671   3.207 -2.6863 -1.3592 -0.2590
 3441SOL     OW21958   4.317   4.526   7.441 -0.5313 -0.2398  0.2396
 3441SOL    HW121959   4.382   4.568   7.385  0.7547  0.3833  2.2379
 3441SOL    HW221960   4.315   4.596   7.506  1.5612 -1.1269  1.2552
 3442SOL     OW21961   4.106   1.994  15.213 -0.2052 -0.0277  0.0722
 3442SOL    HW121962   4.023   2.004  15.260  0.3936 -1.5366  1.4674
 3442SOL    HW221963   4.121   2.085  15.186  0.1363 -0.5080 -1.3325
 3443SOL     OW21964   1.501   0.446   3.475  0.3479 -0.7552  0.2475
 3443SOL    HW121965   1.509   0.536   3.506  2.2390 -0.2219 -1.7872
 3443SOL    HW221966   1.422   0.421   3.524  0.1737  2.4293  1.5432
 3444SOL     OW21967   0.738   3.307   2.509  0.1570 -0.1120  0.2994
 3444SOL    HW121968   0.735   3.213   2.529  1.4832 -0.6156 -1.7955
 3444SOL    HW221969   0.807   3.315   2.443  0.0838 -0.9005  0.1268
 3445SOL     OW21970   4.432   3.508   5.074 -0.1077  0.0777  0.5539
 3445SOL    HW121971   4.465   3.539   5.159  0.7684 -1.4539  0.7742
 3445SOL    HW221972   4.390   3.588   5.044  0.2836  0.4087  0.8766
 3446SOL     OW21973   1.285   3.406  11.787  0.5918  0.2099 -0.8295
 3446SOL    HW121974   1.192   3.381  11.788  0.9488 -1.1090  0.5270
 3446SOL    HW221975   1.291   3.429  11.880 -0.2105 -1.5302 -0.3456
 3447SOL     OW21976   1.019   0.901  10.002  0.3172  0.7225 -0.2227
 3447SOL    HW121977   0.954   0.970  10.009 -0.4285 -0.0535  0.4693
 3447SOL    HW221978   0.974   0.824  10.036 -0.0112  0.6647 -0.7942
 3448SOL     OW21979   3.118   0.345   4.538  0.3941 -0.4259 -0.0506
 3448SOL    HW121980   3.090   0.303   4.456  0.1976 -1.4552  0.5393
 3448SOL    HW221981   3.103   0.438   4.522 -0.9060 -0.6275 -0.0638
 3449SOL     OW21982   4.112   2.405   4.947  0.4265 -0.6897 -0.6119
 3449SOL    HW121983   4.156   2.320   4.936  0.1040 -0.9154 -0.1708
 3449SOL    HW221984   4.027   2.370   4.920  0.1743 -1.6386  1.3812
 3450SOL     OW21985   2.969   2.604   6.712  0.0206  0.1233  0.3987
 3450SOL    HW121986   3.024   2.677   6.740 -0.0013  0.3985 -0.2660
 3450SOL    HW221987   3.004   2.535   6.767  1.2742  0.7577  0.3805
 3451SOL     OW21988   2.748   2.898   7.435 -0.5189 -0.0354 -0.1478
 3451SOL    HW121989   2.821   2.940   7.481 -0.0844  0.7037 -1.4991
 3451SOL    HW221990   2.701   2.857   7.507  0.7953 -1.0938  0.1090
 3452SOL     OW21991   2.300   1.581  14.996  0.2689 -1.0166 -0.1199
 3452SOL    HW121992   2.258   1.541  15.072  1.2031  2.1010  2.0384
 3452SOL    HW221993   2.293   1.510  14.932 -3.6394 -0.4224 -0.3407
 3453SOL     OW21994   1.627   3.783   4.651 -0.1827  0.5995  0.1349
 3453SOL    HW121995   1.584   3.845   4.592  0.6958  0.8017 -0.2962
 3453SOL    HW221996   1.572   3.786   4.729 -0.8183  0.4291 -0.3015
 3454SOL     OW21997   3.590   4.012  12.162 -0.0145  0.2711  0.1733
 3454SOL    HW121998   3.557   3.924  12.176 -0.7312  0.3884 -0.7938
 3454SOL    HW221999   3.592   4.009  12.066  0.0658  0.8681  0.1533
 3455SOL     OW22000   3.480   1.822   6.495  0.2270  0.3314 -0.0566
 3455SOL    HW122001   3.515   1.888   6.435  0.2972  0.5937  0.2729
 3455SOL    HW222002   3.390   1.855   6.503  0.4954  0.5540  2.0652
 3456SOL     OW22003   0.736   3.122  13.252  0.2589 -0.0987 -0.1997
 3456SOL    HW122004   0.786   3.105  13.332  1.3099 -0.2686 -0.8806
 3456SOL    HW222005   0.650   3.093  13.283 -0.0338  1.7794  0.6927
 3457SOL     OW22006   4.191   3.047   3.995  0.2685 -0.2460  0.1102
 3457SOL    HW122007   4.103   3.032   3.958 -0.1033 -0.7677  1.2081
 3457SOL    HW222008   4.248   3.024   3.922  0.9035  0.3636  0.4228
 3458SOL     OW22009   0.389   0.444   8.349 -0.0385  0.1184 -0.5469
 3458SOL    HW122010   0.404   0.538   8.354  0.1970  0.1527 -1.9977
 3458SOL    HW222011   0.475   0.403   8.343  1.3183  2.7926  0.7316
 3459SOL     OW22012   1.121   0.784   7.850  0.4787 -0.7070  0.6547
 3459SOL    HW122013   1.117   0.698   7.891  2.6804 -1.4879 -0.7784
 3459SOL    HW222014   1.212   0.791   7.821 -0.0664 -1.0199 -1.0997
 3460SOL     OW22015   4.643   2.342   4.245 -0.6473  0.4156  0.3792
 3460SOL    HW122016   4.557   2.368   4.277 -1.1665  1.5439 -1.9208
 3460SOL    HW222017   4.626   2.249   4.225 -0.1553  0.1986  0.9729
 3461SOL     OW22018   4.026   2.081  13.447  0.3721 -0.2593  0.0139
 3461SOL    HW122019   3.933   2.060  13.445  0.6070 -1.3743  0.7389
 3461SOL    HW222020   4.066   2.003  13.410 -0.7775 -0.6078 -0.4610
 3462SOL     OW22021   4.388   0.994   9.077 -0.1767 -0.4001  0.1960
 3462SOL    HW122022   4.337   1.068   9.110  0.8367 -0.2938  1.5288
 3462SOL    HW222023   4.327   0.959   9.011  1.9277  2.2767 -3.1950
 3463SOL     OW22024   3.001   0.490   8.266 -0.2033  0.0501  0.0879
 3463SOL    HW122025   3.074   0.433   8.291  0.1842 -0.1120 -1.4103
 3463SOL    HW222026   2.938   0.430   8.226  1.8400 -2.0645 -0.0198
 3464SOL     OW22027   2.862   4.269   4.737 -0.9179  0.3010 -0.2966
 3464SOL    HW122028   2.838   4.179   4.713 -0.3251 -0.6268  2.5934
 3464SOL    HW222029   2.780   4.305   4.702 -2.0102 -1.4003  0.4913
 3465SOL     OW22030   3.260   1.954   6.111  0.5407  0.5231  0.2079
 3465SOL    HW122031   3.242   1.871   6.155 -0.4379  0.7174  0.1709
 3465SOL    HW222032   3.172   1.991   6.112 -0.3247 -1.5516 -1.6363
 3466SOL     OW22033   4.548   2.382   4.964 -0.4713 -0.7007 -0.1299
 3466SOL    HW122034   4.566   2.468   4.925  1.4716 -0.6388  0.9151
 3466SOL    HW222035   4.638   2.351   4.971  0.2544  1.4756  0.1619
 3467SOL     OW22036   1.084   3.237   4.528 -0.0382  0.1925 -0.2440
 3467SOL    HW122037   1.121   3.201   4.447 -2.7462 -1.1157 -0.8909
 3467SOL    HW222038   1.041   3.156   4.554 -2.1440  1.1940 -0.6050
 3468SOL     OW22039   1.770   1.437  16.428 -0.1993 -0.3647  0.5690
 3468SOL    HW122040   1.761   1.437  16.523  1.5150 -0.4393  0.7441
 3468SOL    HW222041   1.744   1.350  16.400  0.3580 -0.8666  1.6211
 3469SOL     OW22042   0.253   0.464   4.263  0.1875  0.7236 -0.4268
 3469SOL    HW122043   0.326   0.408   4.239  0.3556  1.7384 -2.2765
 3469SOL    HW222044   0.218   0.481   4.176  2.6950 -1.2083 -1.8130
 3470SOL     OW22045   1.847   2.535   2.232 -0.4442  0.3533 -0.7485
 3470SOL    HW122046   1.876   2.620   2.266  0.5665 -0.7822  1.2305
 3470SOL    HW222047   1.869   2.483   2.310 -0.4900  0.8758 -0.3814
 3471SOL     OW22048   0.727   0.225  14.849 -0.1248 -0.0097 -0.0623
 3471SOL    HW122049   0.694   0.156  14.906  0.0092  0.9653  1.2014
 3471SOL    HW222050   0.658   0.291  14.856 -1.3996 -1.2953 -0.5797
 3472SOL     OW22051   0.793   2.404  11.485  0.2070  0.0487 -0.3286
 3472SOL    HW122052   0.787   2.483  11.539 -0.2978 -0.1235 -0.1341
 3472SOL    HW222053   0.753   2.334  11.536 -0.4673  1.1718  0.6859
 3473SOL     OW22054   3.312   1.034  13.457  0.3541  0.1109  0.1198
 3473SOL    HW122055   3.274   1.056  13.372  0.8461 -2.0583 -0.6627
 3473SOL    HW222056   3.384   1.096  13.464 -1.1389  1.9520 -0.7310
 3474SOL     OW22057   0.427   0.082   7.166  0.4486  0.1380  0.0197
 3474SOL    HW122058   0.496   0.137   7.203 -0.0794 -0.5436  1.9738
 3474SOL    HW222059   0.359   0.149   7.164  0.4204  0.0931 -0.6783
 3475SOL     OW22060   3.956   2.705  16.468  0.7614 -0.0728  0.1083
 3475SOL    HW122061   4.016   2.683  16.396 -0.3599  0.1167 -0.8828
 3475SOL    HW222062   4.022   2.733  16.531  1.0416  0.6464 -0.5076
 3476SOL     OW22063   4.647   0.965  16.470 -0.3235  0.3370  0.0188
 3476SOL    HW122064   4.575   0.985  16.410  1.3917  2.8449 -1.2010
 3476SOL    HW222065   4.716   0.971  16.404  0.8194  1.4581  1.3244
 3477SOL     OW22066   3.606   1.735  12.777 -0.0223 -0.9508 -0.8363
 3477SOL    HW122067   3.683   1.774  12.735  0.7246 -2.3218 -0.7403
 3477SOL    HW222068   3.576   1.812  12.826 -0.6508  0.1334 -2.8947
 3478SOL     OW22069   4.541   1.758   0.315  0.2454 -0.4561 -0.0957
 3478SOL    HW122070   4.506   1.747   0.403 -0.5197  2.4844 -0.0110
 3478SOL    HW222071   4.608   1.825   0.331  1.6356 -1.6467 -0.8959
 3479SOL     OW22072   4.454   3.510   4.338  1.0194  0.7319  0.0089
 3479SOL    HW122073   4.413   3.560   4.409  1.0436  1.7479 -0.6878
 3479SOL    HW222074   4.386   3.474   4.280  0.4830  2.1086 -0.2183
 3480SOL     OW22075   0.048   2.920   1.744  0.7160 -0.4638 -0.0014
 3480SOL    HW122076   0.092   2.933   1.828 -1.0495 -0.3546  0.9025
 3480SOL    HW222077   0.028   2.827   1.749 -2.7077  0.2868  0.0535
 3481SOL     OW22078   4.351   4.460   2.483  0.3941 -0.5764  0.4027
 3481SOL    HW122079   4.383   4.370   2.493  0.7996 -0.5362 -0.5296
 3481SOL    HW222080   4.304   4.468   2.566  2.3283 -1.3918  1.5723
 3482SOL     OW22081   0.344   3.528   6.334 -0.2017 -0.2764 -0.5059
 3482SOL    HW122082   0.395   3.448   6.349 -2.1146 -1.6178 -1.0356
 3482SOL    HW222083   0.266   3.499   6.287 -0.7588 -1.9898  1.4637
 3483SOL     OW22084   0.006   1.309  10.123  0.3824 -0.0590  0.6598
 3483SOL    HW122085   0.031   1.394  10.086 -0.2865 -0.7882 -1.5065
 3483SOL    HW222086   0.092   1.290  10.159  0.2968  1.1496  1.5128
 3484SOL     OW22087   1.275   0.979   6.783  0.0034  0.4222  0.0936
 3484SOL    HW122088   1.358   0.944   6.815  0.8197  0.0516 -2.4354
 3484SOL    HW222089   1.247   0.904   6.730  0.3167  0.5944 -0.3126
 3485SOL     OW22090   3.119   0.075  12.660  0.8425  0.1506 -0.2198
 3485SOL    HW122091   3.147   0.067  12.751  0.7992 -1.2841 -0.3315
 3485SOL    HW222092   3.162   0.003  12.614 -0.1308 -0.7898  0.3326
 3486SOL     OW22093   2.047   2.960  16.852 -0.1044 -0.1042 -0.0185
 3486SOL    HW122094   2.030   3.046  16.814 -0.0050  0.1316  0.4745
 3486SOL    HW222095   2.132   2.979  16.891  0.9400  1.1135 -2.8977
 3487SOL     OW22096   3.124   0.455   2.904 -0.1582  0.1101 -0.2473
 3487SOL    HW122097   3.163   0.525   2.958  2.3035 -1.0322 -0.5394
 3487SOL    HW222098   3.035   0.484   2.885 -0.7976 -0.2405  2.1492
 3488SOL     OW22099   1.496   2.205   2.856 -0.3761  0.3623 -0.2868
 3488SOL    HW122100   1.574   2.156   2.831 -0.6490  0.3875 -1.1819
 3488SOL    HW222101   1.422   2.149   2.833  2.6975 -2.4911 -3.2799
 3489SOL     OW22102   1.656   0.034   4.808  0.4691 -0.2573  0.1673
 3489SOL    HW122103   1.620   0.117   4.840 -2.7524 -2.1891  1.5099
 3489SOL    HW222104   1.720   0.016   4.877  1.2661 -0.4103 -0.6138
 3490SOL     OW22105   2.740   1.690  13.082  0.6857 -0.4475  0.1194
 3490SOL    HW122106   2.793   1.704  13.003 -1.5554  0.6194 -1.1907
 3490SOL    HW222107   2.788   1.752  13.136 -0.8568 -1.2229  2.3462
 3491SOL     OW22108   3.607   4.159   9.526  0.1478 -0.5995 -0.0427
 3491SOL    HW122109   3.700   4.183   9.529 -0.1679  0.6719 -0.4199
 3491SOL    HW222110   3.605   4.128   9.436 -0.2500  0.6495 -0.4699
 3492SOL     OW22111   0.363   3.840   6.795 -0.1735  0.0636 -0.4198
 3492SOL    HW122112   0.394   3.924   6.761 -1.0081 -0.1293 -1.6613
 3492SOL    HW222113   0.369   3.798   6.709 -1.9895 -0.6993 -0.1772
 3493SOL     OW22114   1.847   1.859   4.875 -0.3231  0.5630  0.2270
 3493SOL    HW122115   1.799   1.825   4.950  1.0398  0.2070  0.9401
 3493SOL    HW222116   1.937   1.856   4.908  0.1357 -1.5346 -1.1889
 3494SOL     OW22117   2.711   1.199   4.981 -0.1456 -0.2382  0.3656
 3494SOL    HW122118   2.619   1.219   5.001 -0.6115 -0.2443 -1.7525
 3494SOL    HW222119   2.755   1.242   5.055 -1.6033  0.0971  1.0424
 3495SOL     OW22120   3.584   1.982   2.659 -0.0507 -0.0663 -0.2103
 3495SOL    HW122121   3.628   2.056   2.701 -0.1879  0.0425 -0.2566
 3495SOL    HW222122   3.660   1.924   2.654 -0.0106  0.0249 -0.7375
 3496SOL     OW22123   0.956   4.369   6.940 -0.3780 -0.4323  0.7091
 3496SOL    HW122124   0.966   4.339   7.030 -2.4036  0.6026  1.2901
 3496SOL    HW222125   0.929   4.461   6.948  1.8361  0.1391  1.4408
 3497SOL     OW22126   3.355   3.927   5.992  0.6213  0.5307 -0.0262
 3497SOL    HW122127   3.402   3.918   6.075 -0.0257 -2.4296 -0.0026
 3497SOL    HW222128   3.410   3.975   5.930  0.6829  1.4491  0.7318
 3498SOL     OW22129   3.156   0.149   6.238 -0.4008 -0.2035  0.0697
 3498SOL    HW122130   3.164   0.228   6.292  0.6587 -2.0421  2.6228
 3498SOL    HW222131   3.122   0.176   6.154  0.0382 -1.7918 -0.6269
 3499SOL     OW22132   0.205   2.016   0.171  0.2045 -0.1684  0.3646
 3499SOL    HW122133   0.262   1.982   0.240 -0.2359 -1.1714  0.2267
 3499SOL    HW222134   0.170   1.932   0.142 -1.7644  1.2333 -1.2985
 3500SOL     OW22135   1.860   4.477   7.605 -0.0705 -0.3721  0.2408
 3500SOL    HW122136   1.848   4.525   7.522  1.3609 -1.5385 -0.6369
 3500SOL    HW222137   1.796   4.406   7.600 -2.2995  1.7066 -1.1949
 3501SOL     OW22138   1.180   4.046   2.299  0.4037 -0.5428 -0.4838
 3501SOL    HW122139   1.141   3.959   2.308  0.2231 -0.4360 -0.2575
 3501SOL    HW222140   1.159   4.050   2.205 -1.5375  0.4193 -0.0006
 3502SOL     OW22141   0.895   0.726   1.892 -0.2103  0.4640 -0.4932
 3502SOL    HW122142   0.965   0.754   1.832  0.4385  3.7379  1.8350
 3502SOL    HW222143   0.855   0.811   1.908 -0.2645  0.4999 -0.8071
 3503SOL     OW22144   4.688   1.123   6.203 -0.7304  0.4658  0.0907
 3503SOL    HW122145   0.019   1.059   6.210 -2.0579 -0.8969  1.0915
 3503SOL    HW222146   4.739   1.204   6.200 -1.7188  1.1278  1.3228
 3504SOL     OW22147   2.351   4.642   9.548  0.4036 -0.7942 -0.6286
 3504SOL    HW122148   2.261   4.672   9.559  1.1262  0.6422  1.2355
 3504SOL    HW222149   2.387   4.694   9.620 -1.7989  0.9989 -0.8494
 3505SOL     OW22150   1.352   0.084  11.488  0.0214 -0.4249 -0.2157
 3505SOL    HW122151   1.372   0.178  11.480 -0.7050 -0.2327  0.1677
 3505SOL    HW222152   1.436   0.047  11.513 -0.2453 -1.5824 -1.0355
 3506SOL     OW22153   4.141   3.995  11.307 -0.3843 -0.5352 -0.6099
 3506SOL    HW122154   4.130   4.011  11.401  1.3996 -2.6195 -0.0513
 3506SOL    HW222155   4.082   3.921  11.293  1.3053 -2.1070  0.6235
 3507SOL     OW22156   4.042   0.661   7.291  0.3790 -0.2692  0.3354
 3507SOL    HW122157   3.963   0.713   7.274  1.8879  2.0581  0.4742
 3507SOL    HW222158   4.109   0.725   7.313  0.3935  0.3796 -1.6536
 3508SOL     OW22159   4.400   2.706  12.314 -0.0530 -0.3174 -0.5476
 3508SOL    HW122160   4.341   2.696  12.239 -2.9939  0.7468  1.5937
 3508SOL    HW222161   4.341   2.691  12.388  1.1440 -1.3650  0.1991
 3509SOL     OW22162   1.382   4.492   8.099 -0.0653  0.5132  0.4623
 3509SOL    HW122163   1.443   4.451   8.037  0.5145  1.1930  0.5826
 3509SOL    HW222164   1.433   4.546   8.160  2.5223 -1.5542  0.1310
 3510SOL     OW22165   2.342   4.194   3.858  0.3083  0.0474 -0.0203
 3510SOL    HW122166   2.301   4.141   3.926  3.0040 -1.1504  0.6905
 3510SOL    HW222167   2.420   4.142   3.839 -0.1278  0.0422 -1.8365
 3511SOL     OW22168   0.110   4.588   8.753  0.2289  0.4663  0.5528
 3511SOL    HW122169   0.064   4.644   8.691 -0.4684  2.6405  3.0556
 3511SOL    HW222170   0.114   4.507   8.702  5.1178  0.5992  0.6966
 3512SOL     OW22171   2.725   1.892   8.789  0.2797  0.1228 -0.1844
 3512SOL    HW122172   2.801   1.945   8.814 -0.3291  0.3123  1.2937
 3512SOL    HW222173   2.666   1.965   8.772 -0.5917 -0.5832 -0.2091
 3513SOL     OW22174   0.772   4.635   7.898 -0.4270  0.1679  0.0291
 3513SOL    HW122175   0.744   4.632   7.807 -1.0309  0.8614  0.1887
 3513SOL    HW222176   0.697   4.587   7.935  0.6828 -1.7380 -0.2101
 3514SOL     OW22177   4.320   3.215   6.605 -1.0023 -0.4251  0.0544
 3514SOL    HW122178   4.241   3.161   6.607 -1.5922  0.3955 -1.7613
 3514SOL    HW222179   4.328   3.213   6.510 -1.5481  0.6913 -0.0164
 3515SOL     OW22180   4.284   2.175   7.474  0.5260 -0.7696  0.6702
 3515SOL    HW122181   4.252   2.239   7.538 -1.4404  0.2197 -1.3099
 3515SOL    HW222182   4.316   2.235   7.407  0.8274 -1.1115  0.5077
 3516SOL     OW22183   3.038   2.361   8.344 -0.3493  0.2263  0.2799
 3516SOL    HW122184   3.062   2.269   8.350 -1.3440  0.0008  0.8287
 3516SOL    HW222185   3.113   2.406   8.384  0.1687  0.6217 -1.1636
 3517SOL     OW22186   1.106   4.330   3.322 -0.3087  0.1044 -1.1303
 3517SOL    HW122187   1.156   4.248   3.323 -2.6919 -1.3492 -1.0763
 3517SOL    HW222188   1.116   4.352   3.414 -0.8580  0.0594 -1.0652
 3518SOL     OW22189   4.179   1.961   4.416  0.1900  0.0678  0.3234
 3518SOL    HW122190   4.248   1.908   4.454 -0.6367 -1.0969  0.2165
 3518SOL    HW222191   4.221   2.047   4.409 -1.2361  0.8190  0.7659
 3519SOL     OW22192   2.903   0.337   6.104  0.0985  0.4459  0.0596
 3519SOL    HW122193   2.841   0.391   6.056  1.2869  1.5791 -0.1724
 3519SOL    HW222194   2.983   0.389   6.100  0.5396 -0.1925  0.4478
 3520SOL     OW22195   1.800   2.594   5.643 -0.1635  0.5613 -0.1612
 3520SOL    HW122196   1.785   2.668   5.584  0.4932  0.4205 -0.4999
 3520SOL    HW222197   1.716   2.583   5.688  1.0869 -0.2792  1.9221
 3521SOL     OW22198   4.377   0.825   4.635  0.5793  0.1855  0.0197
 3521SOL    HW122199   4.372   0.921   4.630  0.1297  0.1605 -0.0180
 3521SOL    HW222200   4.316   0.810   4.707 -0.3593  0.6741 -0.6668
 3522SOL     OW22201   0.262   2.450   9.124  0.7301  0.2267 -0.1814
 3522SOL    HW122202   0.198   2.460   9.194  0.8473 -0.5826  0.0500
 3522SOL    HW222203   0.301   2.364   9.143  0.3116 -0.2493 -1.4599
 3523SOL     OW22204   1.366   2.288  15.822 -0.9795 -0.6391  0.2294
 3523SOL    HW122205   1.425   2.302  15.749 -0.5942  1.1472  0.8695
 3523SOL    HW222206   1.418   2.337  15.887 -1.2797 -2.0162  1.5131
 3524SOL     OW22207   2.787   1.718  10.917 -0.5918 -0.1337 -0.3507
 3524SOL    HW122208   2.793   1.752  11.006  0.1018 -2.7585  0.6041
 3524SOL    HW222209   2.864   1.661  10.912  0.7460  1.7253 -1.1526
 3525SOL     OW22210   1.774   3.971   3.967 -0.2074  0.1056 -0.7641
 3525SOL    HW122211   1.680   3.958   3.964  0.0507 -1.6930 -1.0496
 3525SOL    HW222212   1.783   4.057   4.006  0.4295  0.7968 -2.4252
 3526SOL     OW22213   3.935   1.496  17.674 -0.3553 -0.6581 -0.4758
 3526SOL    HW122214   3.872   1.546  17.622  2.0702  1.2499 -1.5686
 3526SOL    HW222215   3.913   1.412  17.632 -0.0468 -0.5325 -0.8895
 3527SOL     OW22216   3.665   1.374   5.629 -0.0437 -0.1489  0.2228
 3527SOL    HW122217   3.589   1.319   5.649  0.9563 -2.6055 -2.8211
 3527SOL    HW222218   3.704   1.386   5.715  1.2939 -0.9684 -0.2693
 3528SOL     OW22219   1.126   3.664   5.958 -0.2071  0.9947 -0.1525
 3528SOL    HW122220   1.061   3.632   5.896  0.5408 -2.3220  0.7702
 3528SOL    HW222221   1.070   3.647   6.034 -0.8868 -0.6432 -1.0175
 3529SOL     OW22222   2.371   3.139  12.691 -0.0337  0.6213  0.2481
 3529SOL    HW122223   2.288   3.163  12.733  0.4688 -0.2826  1.7460
 3529SOL    HW222224   2.341   3.149  12.600 -2.9677 -1.2334  1.0159
 3530SOL     OW22225   1.048   1.294   7.786 -0.1828 -0.2643  0.0279
 3530SOL    HW122226   1.097   1.342   7.720  2.2825 -0.5173  1.6814
 3530SOL    HW222227   0.984   1.258   7.724  0.6283 -1.3433 -0.1979
 3531SOL     OW22228   3.904   4.423  11.165 -0.0096  0.1075  0.0015
 3531SOL    HW122229   3.944   4.345  11.203  0.1309 -1.1467 -2.7960
 3531SOL    HW222230   3.824   4.388  11.127 -0.1347  0.7780 -0.3511
 3532SOL     OW22231   3.413   3.644   2.327 -0.4760  0.1910  0.1718
 3532SOL    HW122232   3.446   3.564   2.285 -0.3106  0.8587 -0.9512
 3532SOL    HW222233   3.495   3.692   2.331  0.3343 -1.0808 -1.3250
 3533SOL     OW22234   3.590   2.346   4.342  0.3721 -0.1010  0.0748
 3533SOL    HW122235   3.531   2.398   4.396 -0.6479 -0.3933 -0.7545
 3533SOL    HW222236   3.665   2.405   4.348 -0.5741  1.1500 -0.4319
 3534SOL     OW22237   4.247   1.274  15.466  0.4172 -0.8748 -0.1160
 3534SOL    HW122238   4.172   1.333  15.452  1.8502  0.5713 -1.6286
 3534SOL    HW222239   4.269   1.278  15.559 -0.6545 -0.7073  0.1348
 3535SOL     OW22240   0.928   1.389   1.868 -0.6585  0.2546 -0.4665
 3535SOL    HW122241   0.986   1.329   1.820 -0.1331 -0.9076  1.6360
 3535SOL    HW222242   0.851   1.338   1.888  0.7015 -2.0487 -1.1427
 3536SOL     OW22243   1.013   3.618   1.551  0.2877 -0.3888  0.1489
 3536SOL    HW122244   1.022   3.674   1.474 -0.5940 -1.3478 -0.6631
 3536SOL    HW222245   1.095   3.571   1.536  1.2000  1.1019  0.4974
 3537SOL     OW22246   1.075   4.618   5.321 -0.1207 -0.3182  0.2563
 3537SOL    HW122247   1.038   4.690   5.269  1.9393  1.2982  0.9812
 3537SOL    HW222248   1.157   4.659   5.350 -0.5276 -0.2349  1.2744
 3538SOL     OW22249   4.105   0.066   1.339  0.3481  0.1917 -0.5526
 3538SOL    HW122250   4.041   0.118   1.291  0.5599 -0.0082 -1.0495
 3538SOL    HW222251   4.181   0.122   1.331  1.3134 -1.4756 -3.0586
 3539SOL     OW22252   0.425   1.600   7.769 -0.2501 -0.4702 -0.1590
 3539SOL    HW122253   0.428   1.695   7.784  1.4655 -0.7199  0.9483
 3539SOL    HW222254   0.482   1.560   7.834 -1.4685  1.1595  1.9048
 3540SOL     OW22255   3.673   3.746   3.071 -0.2591 -0.2714 -0.2426
 3540SOL    HW122256   3.715   3.761   2.986 -0.3612  1.5220  0.0374
 3540SOL    HW222257   3.638   3.659   3.054  0.7416 -0.7111 -0.0705
 3541SOL     OW22258   3.862   4.443   2.239  0.0527  0.0016  0.0314
 3541SOL    HW122259   3.904   4.367   2.198 -0.3220 -1.4367  2.2918
 3541SOL    HW222260   3.771   4.439   2.211 -0.1927 -1.8283  1.0822
 3542SOL     OW22261   1.015   2.813   3.419  0.4644 -0.0963 -0.3429
 3542SOL    HW122262   1.055   2.782   3.501 -1.1794  1.1010  0.9181
 3542SOL    HW222263   1.088   2.808   3.358 -0.0415  0.0884 -0.9618
 3543SOL     OW22264   2.077   3.028   6.815 -0.3664  0.1666 -0.3157
 3543SOL    HW122265   2.015   3.071   6.873 -0.7479 -2.6130  1.3171
 3543SOL    HW222266   2.071   2.940   6.852  3.7126 -0.3508 -0.8035
 3544SOL     OW22267   0.840   3.484  11.551 -0.2459  0.3409 -0.2063
 3544SOL    HW122268   0.917   3.492  11.494  0.7365 -0.7722  0.9667
 3544SOL    HW222269   0.799   3.414  11.501  0.1505 -0.4725  0.6029
 3545SOL     OW22270   3.996   1.756   8.640 -0.2308  0.0121 -0.0560
 3545SOL    HW122271   3.906   1.740   8.612  0.4812 -3.1897 -0.5706
 3545SOL    HW222272   4.033   1.712   8.563 -0.7649 -2.0328  0.8522
 3546SOL     OW22273   2.870   3.175   6.461 -0.2983 -0.3247  0.1287
 3546SOL    HW122274   2.848   3.257   6.417 -0.5884  0.0390  0.9464
 3546SOL    HW222275   2.833   3.187   6.549  0.1916 -0.7853  0.4000
 3547SOL     OW22276   1.190   2.785   7.045  0.2875  0.0087  0.0362
 3547SOL    HW122277   1.227   2.834   7.119  1.7996 -0.3381 -0.4804
 3547SOL    HW222278   1.263   2.789   6.982 -1.4479  0.2934 -1.9389
 3548SOL     OW22279   3.133   2.996   8.895  0.2775 -0.2465  0.8190
 3548SOL    HW122280   3.153   3.002   8.802 -2.1720 -0.9855  0.2443
 3548SOL    HW222281   3.219   2.986   8.936  1.4413 -2.5282 -2.1679
 3549SOL     OW22282   2.356   1.533  17.684  0.0927  0.5823 -0.2369
 3549SOL    HW122283   2.310   1.458  17.647 -0.3193  1.2406 -1.0789
 3549SOL    HW222284   2.447   1.521  17.658  1.1082  2.2747  2.5430
 3550SOL     OW22285   3.960   3.454   6.289 -0.4967  0.4941 -0.6652
 3550SOL    HW122286   3.991   3.519   6.226  0.8818  1.5919  1.1228
 3550SOL    HW222287   3.870   3.441   6.259 -0.9303  1.1134  0.3746
 3551SOL     OW22288   3.385   0.124   8.050 -0.5706 -0.4815  0.2836
 3551SOL    HW122289   3.447   0.182   8.094  1.8634 -2.4109 -0.5809
 3551SOL    HW222290   3.321   0.192   8.031 -2.3640 -2.0246  0.7609
 3552SOL     OW22291   3.068   2.217   4.180 -0.0294 -0.2297  0.8641
 3552SOL    HW122292   3.124   2.142   4.198  2.1159  0.9846 -0.7966
 3552SOL    HW222293   3.042   2.259   4.262 -1.4473  0.2877  0.1529
 3553SOL     OW22294   2.933   0.786   2.221 -0.2083 -0.1814  0.0990
 3553SOL    HW122295   2.936   0.704   2.171  1.6997  1.1537 -2.0359
 3553SOL    HW222296   2.943   0.849   2.149  3.4687 -0.6801  0.1324
 3554SOL     OW22297   1.149   3.144  17.462  0.0334  0.2623 -0.3548
 3554SOL    HW122298   1.160   3.070  17.402 -1.2584 -0.5352  0.3864
 3554SOL    HW222299   1.223   3.130  17.521 -0.5662  0.4734  0.4508
 3555SOL     OW22300   1.311   1.695   6.064  0.2042 -0.7676  0.4773
 3555SOL    HW122301   1.252   1.714   5.991  0.9715  1.2177  0.3526
 3555SOL    HW222302   1.320   1.777   6.112  0.6599 -1.0828  0.9268
 3556SOL     OW22303   0.332   4.471  10.805 -0.7063 -0.2365 -0.7435
 3556SOL    HW122304   0.412   4.419  10.817 -0.0780  1.0166  0.4614
 3556SOL    HW222305   0.353   4.534  10.874 -2.9787  2.0596 -2.1557
 3557SOL     OW22306   2.150   1.746  13.103 -0.5305  1.0386 -0.4142
 3557SOL    HW122307   2.218   1.751  13.036  0.5878 -0.5224  0.5908
 3557SOL    HW222308   2.158   1.653  13.128 -1.5214  1.1255  0.2290
 3558SOL     OW22309   3.465   3.176   8.541  0.2292  0.0001  0.2339
 3558SOL    HW122310   3.490   3.212   8.626  1.7922  3.5763 -1.7530
 3558SOL    HW222311   3.392   3.234   8.519 -0.3286 -0.3390  1.1831
 3559SOL     OW22312   1.055   2.142   5.581  0.5354 -0.4553 -0.0871
 3559SOL    HW122313   1.099   2.133   5.666 -0.0884 -1.8229  0.0925
 3559SOL    HW222314   0.993   2.070   5.595 -0.4757  0.4180 -0.1284
 3560SOL     OW22315   1.881   2.605   6.555  0.2815  0.3863 -0.0591
 3560SOL    HW122316   1.922   2.611   6.641  0.1912  2.8319 -0.1889
 3560SOL    HW222317   1.912   2.691   6.526  0.7795 -0.8840 -3.2827
 3561SOL     OW22318   1.395   3.803   6.469 -0.0584 -0.4701  0.1150
 3561SOL    HW122319   1.427   3.819   6.558 -1.8947  0.1101  0.6667
 3561SOL    HW222320   1.416   3.885   6.424  0.4652 -1.7493 -2.0015
 3562SOL     OW22321   3.705   2.661   1.276  0.3034  0.0084  0.5072
 3562SOL    HW122322   3.729   2.576   1.238  1.8755  1.3391 -1.4877
 3562SOL    HW222323   3.614   2.674   1.248 -0.4359 -1.2257  2.3718
 3563SOL     OW22324   0.061   1.341  10.492  0.2189 -0.2086 -0.3103
 3563SOL    HW122325   4.725   1.335  10.550  0.9278  0.7285  0.7054
 3563SOL    HW222326   0.023   1.350  10.405 -0.1736 -0.5408 -0.1738
 3564SOL     OW22327   3.810   3.842  12.303 -0.0181 -0.1084  0.3944
 3564SOL    HW122328   3.806   3.937  12.309 -2.1995 -0.1433 -0.4586
 3564SOL    HW222329   3.719   3.817  12.286 -0.0181  0.3171 -0.2242
 3565SOL     OW22330   1.829   3.584   6.255 -0.0812 -0.1208 -0.2883
 3565SOL    HW122331   1.890   3.545   6.317  0.7880  2.5932  0.5917
 3565SOL    HW222332   1.800   3.512   6.199  0.8365 -0.7980  0.1128
 3566SOL     OW22333   1.943   0.521   4.885  0.9079  0.1840 -0.3460
 3566SOL    HW122334   1.862   0.529   4.936  0.8344 -2.2251 -0.0550
 3566SOL    HW222335   1.917   0.533   4.793 -1.1568  1.5189  0.4313
 3567SOL     OW22336   4.050   1.472   1.683 -0.2639 -0.0387 -0.3046
 3567SOL    HW122337   4.141   1.497   1.664 -0.2840 -1.6597 -2.5492
 3567SOL    HW222338   4.059   1.434   1.770 -0.8347 -0.5455 -0.4659
 3568SOL     OW22339   0.865   4.028   4.255  0.0727  0.0423  0.2588
 3568SOL    HW122340   0.803   4.089   4.214  0.4966 -1.7640 -3.0599
 3568SOL    HW222341   0.886   4.069   4.339  0.0941  0.9288 -0.1808
 3569SOL     OW22342   1.128   2.424  12.621 -0.0620 -0.0757 -0.7605
 3569SOL    HW122343   1.091   2.474  12.548 -0.4060  0.1891 -0.4102
 3569SOL    HW222344   1.216   2.457  12.639 -0.3422  3.2702 -5.6074
 3570SOL     OW22345   3.472   1.914   2.916 -0.6247  0.5641  0.1254
 3570SOL    HW122346   3.546   1.968   2.944  0.0594 -0.2330 -0.1285
 3570SOL    HW222347   3.493   1.916   2.823 -1.0275  1.7672  0.0660
 3571SOL     OW22348   0.782   3.764   3.439  0.3000 -0.0025  0.1025
 3571SOL    HW122349   0.767   3.824   3.366  2.3359 -0.7058 -0.8858
 3571SOL    HW222350   0.704   3.782   3.491 -0.9048 -0.6801 -1.4725
 3572SOL     OW22351   4.412   0.006   9.340  0.2007 -0.4314 -0.1563
 3572SOL    HW122352   4.435   0.065   9.412 -2.5382 -0.2684  0.5824
 3572SOL    HW222353   4.440   0.063   9.269 -0.4752  0.2547  0.1168
 3573SOL     OW22354   2.091   0.654  11.877  0.5756  0.5712 -0.3676
 3573SOL    HW122355   2.032   0.729  11.877  0.5420  0.5467 -1.6299
 3573SOL    HW222356   2.155   0.680  11.810  0.0887  0.2512 -0.9576
 3574SOL     OW22357   4.283   4.254   9.639  0.0780  0.1593 -0.7006
 3574SOL    HW122358   4.247   4.299   9.715  1.8944  0.6348 -0.1255
 3574SOL    HW222359   4.362   4.304   9.618  0.4428 -1.0347 -2.2298
 3575SOL     OW22360   4.302   1.524   3.281  0.3292  0.2864  0.0412
 3575SOL    HW122361   4.361   1.511   3.355  0.7327  2.0076  0.0057
 3575SOL    HW222362   4.244   1.585   3.327 -1.8883 -1.3446 -0.5467
 3576SOL     OW22363   2.038   2.225   6.256 -0.0962 -0.7998  0.1704
 3576SOL    HW122364   2.031   2.316   6.286 -0.6066 -1.5707  2.3933
 3576SOL    HW222365   2.132   2.225   6.240 -0.0800 -0.4637  0.2594
 3577SOL     OW22366   0.604   4.289   7.562 -0.2791  0.0737  0.2390
 3577SOL    HW122367   0.526   4.332   7.529  0.1024 -0.6325 -1.5911
 3577SOL    HW222368   0.580   4.196   7.564  1.2868 -0.3137  1.0584
 3578SOL     OW22369   2.215   2.881   3.778 -0.0135 -0.2325 -0.7861
 3578SOL    HW122370   2.205   2.844   3.691 -0.0286  0.9354 -1.2855
 3578SOL    HW222371   2.185   2.966   3.745 -2.9665 -1.3857 -1.0388
 3579SOL     OW22372   0.453   4.155   2.895  0.6534 -0.1458 -0.0194
 3579SOL    HW122373   0.394   4.140   2.821  0.9832 -3.2300  0.3555
 3579SOL    HW222374   0.517   4.219   2.862 -0.4410  0.2186 -1.4030
 3580SOL     OW22375   1.897   2.583   1.980 -0.3601  0.2074  0.3051
 3580SOL    HW122376   1.946   2.660   2.008  0.4104 -0.3036  0.3777
 3580SOL    HW222377   1.863   2.555   2.065  0.4154 -2.7723 -0.3472
 3581SOL     OW22378   1.473   0.243  15.535  0.2593  0.2518 -0.4241
 3581SOL    HW122379   1.406   0.289  15.484  1.4580  1.8298 -0.5773
 3581SOL    HW222380   1.510   0.187  15.467  0.0865 -1.5229  0.9454
 3582SOL     OW22381   2.366   1.727  13.476 -0.1586 -0.0890  0.0484
 3582SOL    HW122382   2.381   1.689  13.389  0.0644 -1.0382  0.5066
 3582SOL    HW222383   2.310   1.800  13.449 -0.7985 -0.2373  1.0093
 3583SOL     OW22384   4.486   4.188   5.114  0.0111  0.1012  0.3468
 3583SOL    HW122385   4.553   4.167   5.178  0.2049  0.6940  0.3401
 3583SOL    HW222386   4.491   4.115   5.053  0.7231  1.7736 -1.5774
 3584SOL     OW22387   0.282   3.649  15.034 -0.3587 -0.3165 -0.4407
 3584SOL    HW122388   0.208   3.605  15.075 -0.6267 -0.9856 -1.6628
 3584SOL    HW222389   0.268   3.736  15.073 -1.1370 -1.2634  1.3998
 3585SOL     OW22390   4.297   1.013   3.845  0.3406 -0.7432 -0.2398
 3585SOL    HW122391   4.305   0.996   3.752 -1.2116 -1.4604 -0.2560
 3585SOL    HW222392   4.313   0.924   3.877  0.8918 -0.3565  0.5559
 3586SOL     OW22393   0.234   0.450  15.843  0.4183  0.5298  0.5003
 3586SOL    HW122394   0.182   0.525  15.871  2.6753  1.6036  1.8492
 3586SOL    HW222395   0.320   0.490  15.828  0.8626 -0.3164  0.7838
 3587SOL     OW22396   4.628   1.043   1.061  0.3653  0.8078 -0.3261
 3587SOL    HW122397   4.538   1.016   1.044  0.2952 -0.9442  2.8486
 3587SOL    HW222398   4.674   0.965   1.092 -1.2581  0.1308  0.3459
 3588SOL     OW22399   2.825   0.816   7.710 -0.1720  0.3925  0.3852
 3588SOL    HW122400   2.738   0.811   7.670 -0.5978 -0.1431  1.3701
 3588SOL    HW222401   2.869   0.882   7.657  1.2257 -0.2717  0.7037
 3589SOL     OW22402   1.820   1.967   2.514  0.1971 -0.0085  0.2269
 3589SOL    HW122403   1.808   2.020   2.435 -0.2771 -0.4840 -0.0207
 3589SOL    HW222404   1.905   1.925   2.509 -1.3349 -3.1627  0.4798
 3590SOL     OW22405   3.771   3.242  13.479  0.0673  0.8696  0.3405
 3590SOL    HW122406   3.827   3.255  13.556  0.7074 -4.3108  0.7799
 3590SOL    HW222407   3.784   3.149  13.458 -2.3268  0.3768  1.0789
 3591SOL     OW22408   2.841   1.491   5.692  0.1159  0.0142 -0.1256
 3591SOL    HW122409   2.766   1.518   5.745  0.6262 -2.3233  1.7880
 3591SOL    HW222410   2.912   1.527   5.745  0.5732 -0.2579 -0.5491
 3592SOL     OW22411   1.904   1.037   9.342 -0.3600 -0.0308 -0.2261
 3592SOL    HW122412   1.848   0.961   9.327  1.9829 -1.7727 -0.0139
 3592SOL    HW222413   1.984   0.990   9.322 -1.1714 -0.9972 -1.2041
 3593SOL     OW22414   1.074   3.921  15.752 -0.1314 -0.2563  0.0260
 3593SOL    HW122415   1.048   3.848  15.696  4.3263 -3.0491  1.6272
 3593SOL    HW222416   1.038   3.995  15.703 -1.9318 -1.3068 -0.2719
 3594SOL     OW22417   0.578   1.265   7.917 -0.1459  0.3736 -0.1784
 3594SOL    HW122418   0.654   1.208   7.934  1.7583  2.4387 -1.7270
 3594SOL    HW222419   0.508   1.206   7.945  0.7115 -0.6475 -0.1642
 3595SOL     OW22420   3.816   4.598   0.754 -0.3665  0.1403  0.5385
 3595SOL    HW122421   3.775   4.525   0.800 -0.6466 -0.2853 -0.3942
 3595SOL    HW222422   3.889   4.554   0.711 -0.7745 -0.3475  0.3487
 3596SOL     OW22423   2.493   0.325   9.908 -0.2020  0.5079  0.5389
 3596SOL    HW122424   2.437   0.274   9.966 -0.3772 -0.0864 -0.1589
 3596SOL    HW222425   2.461   0.414   9.924  0.2967  0.6030  1.0333
 3597SOL     OW22426   1.778   1.360   5.053 -0.2612  0.4098 -0.1293
 3597SOL    HW122427   1.840   1.390   4.987 -0.3525  2.7083  0.8002
 3597SOL    HW222428   1.763   1.273   5.017  0.9466 -0.3553  1.2308
 3598SOL     OW22429   3.602   1.779  14.868 -0.2158  0.4564 -0.2324
 3598SOL    HW122430   3.617   1.721  14.793 -2.6462 -1.3394  0.6488
 3598SOL    HW222431   3.693   1.794  14.894 -0.2738 -1.4767  1.0423
 3599SOL     OW22432   1.472   0.618   0.457 -0.2922 -0.2484 -0.3580
 3599SOL    HW122433   1.503   0.583   0.373 -3.4288 -3.2565 -0.2902
 3599SOL    HW222434   1.464   0.536   0.507  1.5184 -0.9103 -1.1522
 3600SOL     OW22435   1.317   0.733   8.568 -0.0361 -0.0188  0.1992
 3600SOL    HW122436   1.285   0.644   8.582 -0.9991  0.3947  0.6711
 3600SOL    HW222437   1.246   0.784   8.608 -0.0417 -1.6495  2.2379
 3601SOL     OW22438   0.771   3.057   3.687 -0.2058  0.2012 -0.3106
 3601SOL    HW122439   0.756   3.139   3.640  2.1686  0.7163 -0.1663
 3601SOL    HW222440   0.862   3.080   3.709 -0.2739 -0.7874  0.9975
 3602SOL     OW22441   1.491   0.408   4.182  0.0726  0.4877 -1.2831
 3602SOL    HW122442   1.542   0.408   4.100 -1.0670 -0.1327 -2.0002
 3602SOL    HW222443   1.548   0.456   4.242  0.0108 -0.3705 -0.5383
 3603SOL     OW22444   3.293   2.203  12.752 -0.1452 -0.6392 -0.0383
 3603SOL    HW122445   3.287   2.280  12.696  0.3088 -0.0810  0.6793
 3603SOL    HW222446   3.342   2.232  12.829  0.1032 -0.6303 -0.1990
 3604SOL     OW22447   2.396   2.245   7.449  0.3808  0.2964  0.0018
 3604SOL    HW122448   2.422   2.167   7.400  0.2679  0.7052 -0.7055
 3604SOL    HW222449   2.312   2.216   7.485  1.1185  1.0685  2.3388
 3605SOL     OW22450   2.244   0.968   8.278 -0.1813  0.0018 -0.5432
 3605SOL    HW122451   2.156   1.005   8.266 -0.1822  0.2580  0.2714
 3605SOL    HW222452   2.238   0.887   8.328 -1.2867  1.8008  2.2768
 3606SOL     OW22453   1.497   1.805   8.084  0.0749 -0.4907 -0.7126
 3606SOL    HW122454   1.562   1.809   8.155 -1.2958  0.4638  0.5063
 3606SOL    HW222455   1.493   1.898   8.061 -0.4749 -0.2973  0.1666
 3607SOL     OW22456   0.624   0.054   9.178 -0.3245  0.1521  0.0223
 3607SOL    HW122457   0.627   4.704   9.145  1.4330 -0.8914  3.0506
 3607SOL    HW222458   0.549   0.048   9.238 -0.2421 -2.7886 -0.1896
 3608SOL     OW22459   2.575   1.497  17.542  0.5210  0.0587 -0.2212
 3608SOL    HW122460   2.592   1.575  17.488 -1.2050  1.0760  0.7285
 3608SOL    HW222461   2.663   1.458  17.540 -0.3776 -1.9774  0.2758
 3609SOL     OW22462   2.935   1.479   2.534 -0.2053  0.4078 -0.5123
 3609SOL    HW122463   2.990   1.452   2.607  0.5814 -2.2319 -2.0596
 3609SOL    HW222464   2.974   1.564   2.513  1.2378 -0.0227  0.4126
 3610SOL     OW22465   1.274   2.701   5.744  0.2006 -0.1224  0.5215
 3610SOL    HW122466   1.255   2.608   5.756  0.8391 -0.2088  0.8479
 3610SOL    HW222467   1.314   2.717   5.659 -1.1794 -1.8635 -0.4780
 3611SOL     OW22468   1.271   3.858  10.597  0.0521 -0.4018 -0.3910
 3611SOL    HW122469   1.289   3.947  10.625  1.5394 -0.8102 -0.0560
 3611SOL    HW222470   1.288   3.863  10.503 -1.6431  2.5393 -0.5366
 3612SOL     OW22471   3.400   0.869   7.471 -0.0417  0.3593  0.1612
 3612SOL    HW122472   3.462   0.798   7.487 -1.7040 -1.4715 -1.5355
 3612SOL    HW222473   3.346   0.870   7.550 -1.8136 -1.5599 -1.0302
 3613SOL     OW22474   4.286   2.876   8.681  0.0717  0.8293 -0.1940
 3613SOL    HW122475   4.282   2.963   8.719 -0.0105  0.2167  1.1964
 3613SOL    HW222476   4.265   2.898   8.590 -1.0311  1.1021  0.1268
 3614SOL     OW22477   1.370   1.999   5.327 -1.5187 -0.3482  0.0393
 3614SOL    HW122478   1.312   1.924   5.317  1.4872 -2.7584  0.4490
 3614SOL    HW222479   1.377   2.011   5.421 -0.6964 -2.2917  0.2110
 3615SOL     OW22480   4.390   1.727  13.204  0.0832 -0.5644 -0.1412
 3615SOL    HW122481   4.417   1.635  13.201  0.8110 -0.2990 -1.8861
 3615SOL    HW222482   4.393   1.752  13.111  0.2595  1.1040  0.3208
 3616SOL     OW22483   0.283   2.529   2.403  0.1763  0.5746  0.0020
 3616SOL    HW122484   0.301   2.439   2.430 -0.4749  0.3766 -0.2293
 3616SOL    HW222485   0.285   2.577   2.485  2.6523  1.7802 -0.7512
 3617SOL     OW22486   0.114   0.934  16.270  0.1301  0.3130  0.5108
 3617SOL    HW122487   0.200   0.893  16.274 -0.0298 -0.0954 -0.3104
 3617SOL    HW222488   0.139   1.024  16.290  0.3595  0.0700  1.3116
 3618SOL     OW22489   1.719   2.643  12.476  0.1515  0.4574 -0.8291
 3618SOL    HW122490   1.770   2.580  12.528 -1.3578  0.2120  0.3532
 3618SOL    HW222491   1.639   2.591  12.476  0.6266 -0.2758 -0.4755
 3619SOL     OW22492   2.953   4.674  11.887  0.2809 -0.3010  0.9027
 3619SOL    HW122493   2.908   4.654  11.969 -2.4834 -1.5533 -0.9629
 3619SOL    HW222494   3.043   4.663  11.918  0.4854 -1.6980 -0.2109
 3620SOL     OW22495   3.980   2.240   2.773  0.2527 -0.4721  0.0316
 3620SOL    HW122496   3.888   2.245   2.798  0.0728  1.8898 -1.1111
 3620SOL    HW222497   3.979   2.213   2.681  0.3564  2.8502 -0.9334
 3621SOL     OW22498   3.007   3.865   7.003  0.4517 -0.0387 -0.3803
 3621SOL    HW122499   3.030   3.957   7.020 -0.8929  0.4360 -1.1239
 3621SOL    HW222500   3.093   3.826   7.020  0.5998  0.0335 -0.9633
 3622SOL     OW22501   1.314   3.868   3.468  0.0649 -0.0297  0.4889
 3622SOL    HW122502   1.235   3.818   3.488  0.7789 -1.3674 -0.0641
 3622SOL    HW222503   1.365   3.803   3.420 -1.4557 -0.7990 -0.0885
 3623SOL     OW22504   3.381   0.764   6.875  0.6638  0.0745 -0.4514
 3623SOL    HW122505   3.451   0.798   6.820 -1.1611  4.1231 -0.2596
 3623SOL    HW222506   3.340   0.845   6.903  1.9192  0.6456 -0.2729
 3624SOL     OW22507   0.371   1.280   4.119  0.7215  0.0009  0.1349
 3624SOL    HW122508   0.338   1.271   4.030  1.2852 -1.2776  0.0550
 3624SOL    HW222509   0.298   1.258   4.177 -0.6412 -0.1957 -1.6775
 3625SOL     OW22510   2.395   0.442   7.649 -0.0390  0.4005  0.0375
 3625SOL    HW122511   2.333   0.510   7.676 -2.6506 -0.9105 -2.6453
 3625SOL    HW222512   2.436   0.504   7.588 -0.3049  0.6600  0.1249
 3626SOL     OW22513   4.024   2.567   9.435  0.1611  0.2113 -0.2325
 3626SOL    HW122514   4.062   2.616   9.362  0.9147 -1.4302 -0.9508
 3626SOL    HW222515   4.032   2.632   9.504 -0.4712  0.2965 -0.2448
 3627SOL     OW22516   2.293   0.057   1.789 -0.2318  0.1700  0.5913
 3627SOL    HW122517   2.298   4.708   1.826  1.0699  0.1329  0.3223
 3627SOL    HW222518   2.222   0.046   1.726 -1.7423  0.6551  2.1859
 3628SOL     OW22519   0.798   1.386   5.524 -0.1505 -0.7019  0.1973
 3628SOL    HW122520   0.757   1.423   5.602 -0.6994 -0.0147 -0.4207
 3628SOL    HW222521   0.752   1.427   5.451  1.2032 -0.6946 -0.6549
 3629SOL     OW22522   2.075   2.520   3.766 -0.2926  0.1718  0.0157
 3629SOL    HW122523   2.119   2.442   3.802 -0.6459  0.7317  1.6878
 3629SOL    HW222524   2.113   2.587   3.824 -0.3638  1.3177 -1.2569
 3630SOL     OW22525   0.133   2.334   0.772 -0.0466  0.1565  0.1599
 3630SOL    HW122526   0.068   2.371   0.831  2.2481  0.6451  2.3718
 3630SOL    HW222527   0.147   2.410   0.716 -0.7175  0.4862  0.4481
 3631SOL     OW22528   2.773   0.130   4.234  0.7704  0.7840 -0.1412
 3631SOL    HW122529   2.838   0.108   4.302 -1.7524  1.1922  2.3935
 3631SOL    HW222530   2.724   0.048   4.240 -1.9212  2.4370  0.3711
 3632SOL     OW22531   2.801   2.086   6.468 -0.4525 -0.3124  0.4578
 3632SOL    HW122532   2.794   2.136   6.387  0.6811 -2.4655 -0.9727
 3632SOL    HW222533   2.752   2.134   6.535 -0.0852 -0.6937  1.0074
 3633SOL     OW22534   0.569   4.359   2.023  0.3085  0.5971 -0.0526
 3633SOL    HW122535   0.630   4.394   1.958  0.9232 -0.0276  0.1922
 3633SOL    HW222536   0.554   4.268   1.996 -1.8084  1.1545 -0.8012
 3634SOL     OW22537   1.792   4.022   3.701  1.1723 -0.5553 -0.0142
 3634SOL    HW122538   1.709   3.997   3.660  1.0800  2.0250 -1.4712
 3634SOL    HW222539   1.778   4.002   3.793 -0.0246 -0.4459 -0.1635
 3635SOL     OW22540   2.757   4.198  10.105 -0.5216 -0.5395 -0.3238
 3635SOL    HW122541   2.708   4.117  10.096 -1.5792  0.0553  0.0227
 3635SOL    HW222542   2.731   4.239  10.022  1.2669 -1.2162 -1.2268
 3636SOL     OW22543   4.307   2.317   2.141 -0.3699  0.2784  0.3969
 3636SOL    HW122544   4.355   2.284   2.065 -1.0582 -0.3875  0.2495
 3636SOL    HW222545   4.293   2.409   2.119 -1.5852  0.0553  0.2438
 3637SOL     OW22546   1.173   2.465   1.750 -0.2553 -0.1540 -0.0468
 3637SOL    HW122547   1.130   2.417   1.680  1.3375  0.1466 -1.2448
 3637SOL    HW222548   1.178   2.401   1.822 -0.5544  0.4237  0.4906
 3638SOL     OW22549   3.720   1.360   1.357 -0.2492  0.2073 -0.0253
 3638SOL    HW122550   3.806   1.360   1.314  0.1218  0.8074  0.7298
 3638SOL    HW222551   3.751   1.415   1.429 -0.6117 -1.0074  1.0659
 3639SOL     OW22552   0.284   3.824  16.979 -0.0001  0.4672  0.0602
 3639SOL    HW122553   0.279   3.904  16.925 -0.5759 -2.1520 -3.7758
 3639SOL    HW222554   0.378   3.816  16.965 -0.1432 -0.3217 -0.4124
 3640SOL     OW22555   4.543   2.558   5.434  0.1170  0.1993 -0.0823
 3640SOL    HW122556   4.504   2.627   5.487 -1.4092  0.8419 -2.0243
 3640SOL    HW222557   4.476   2.550   5.366  0.4657 -2.0394 -0.1843
 3641SOL     OW22558   3.800   4.640   1.232 -0.1423  1.0673  0.0972
 3641SOL    HW122559   3.714   4.604   1.211  0.7881 -0.0187 -1.9047
 3641SOL    HW222560   3.813   4.703   1.161 -4.2596  0.6658 -1.0173
 3642SOL     OW22561   0.651   2.319  13.372  0.0791  0.5176  1.0156
 3642SOL    HW122562   0.561   2.351  13.379 -0.1865 -0.3007  1.3313
 3642SOL    HW222563   0.652   2.225  13.389  2.2201  0.3796  0.1477
 3643SOL     OW22564   0.140   3.855  17.666 -0.2610 -0.4322 -0.6785
 3643SOL    HW122565   0.157   3.765  17.696  0.6794  0.3222  1.0413
 3643SOL    HW222566   0.097   3.844  17.581 -1.3152 -1.4858 -0.0175
 3644SOL     OW22567   0.244   4.330   3.312 -0.4082  0.1108 -0.8966
 3644SOL    HW122568   0.190   4.368   3.382  2.0164 -0.3859  1.2506
 3644SOL    HW222569   0.185   4.259   3.286 -0.8993 -0.9795  3.1888
 3645SOL     OW22570   1.593   3.145   1.359  0.2855  0.4958  0.0852
 3645SOL    HW122571   1.615   3.234   1.331 -0.8395  0.4458 -0.9894
 3645SOL    HW222572   1.651   3.117   1.430  1.1020 -0.9944 -1.1784
 3646SOL     OW22573   2.780   0.285  14.384  0.6125  0.0196 -0.4028
 3646SOL    HW122574   2.799   0.301  14.477 -2.2864 -1.4245  0.4615
 3646SOL    HW222575   2.720   0.211  14.388 -0.3233  0.7364 -0.9829
 3647SOL     OW22576   1.059   2.510  16.293 -0.2627 -0.6023 -0.0054
 3647SOL    HW122577   0.986   2.451  16.313 -1.2618  0.1889 -1.3785
 3647SOL    HW222578   1.052   2.514  16.198  0.4765  1.0559  0.0272
 3648SOL     OW22579   0.530   0.497   5.001  0.2362 -0.0475  0.5756
 3648SOL    HW122580   0.553   0.562   4.935  1.0533 -1.4844 -0.5585
 3648SOL    HW222581   0.539   0.418   4.947 -0.5281 -0.7973  1.5568
 3649SOL     OW22582   0.831   4.085   0.040 -0.0912 -0.5519  0.7305
 3649SOL    HW122583   0.755   4.080   0.098  0.5585  0.7733  1.7010
 3649SOL    HW222584   0.885   4.015   0.075 -0.2602 -0.0581  2.0018
 3650SOL     OW22585   2.240   3.914   4.302 -0.6712 -0.3230  0.3016
 3650SOL    HW122586   2.334   3.910   4.314 -0.4913  0.9184 -0.6855
 3650SOL    HW222587   2.205   3.843   4.355 -0.1792  0.0011  1.0577
 3651SOL     OW22588   2.055   0.014   9.059  0.1107 -0.1431 -0.0830
 3651SOL    HW122589   2.128   4.702   9.093 -0.6623 -1.4852 -0.4740
 3651SOL    HW222590   2.003   4.678   9.035 -1.0664  1.3959 -2.4423
 3652SOL     OW22591   4.732   0.131   3.722  0.1566 -0.4135  0.2006
 3652SOL    HW122592   4.670   0.060   3.740  1.3343 -1.9232 -1.5598
 3652SOL    HW222593   0.058   0.082   3.671  0.3414  0.4234 -0.3638
 3653SOL     OW22594   3.456   2.844   8.760  0.2278 -0.0757  0.4380
 3653SOL    HW122595   3.548   2.841   8.733 -0.8640  0.2139 -3.2917
 3653SOL    HW222596   3.417   2.872   8.677  0.5339 -3.3177 -0.7801
 3654SOL     OW22597   1.956   1.886   9.113 -0.1366 -0.0762  0.3206
 3654SOL    HW122598   1.976   1.804   9.068  0.3972 -0.8849  2.0261
 3654SOL    HW222599   1.999   1.870   9.198  0.8547  1.1501  0.0590
 3655SOL     OW22600   3.285   4.139  10.883 -0.0530 -0.2608 -0.6920
 3655SOL    HW122601   3.248   4.151  10.970  0.6032  0.6579 -0.5397
 3655SOL    HW222602   3.360   4.080  10.888 -0.1512 -0.3482 -0.2252
 3656SOL     OW22603   1.769   4.039  10.432  0.2235  0.0638 -0.2957
 3656SOL    HW122604   1.746   4.078  10.348 -3.8368  1.0681  1.3010
 3656SOL    HW222605   1.681   4.029  10.469  0.6058 -0.1259  0.5749
 3657SOL     OW22606   1.513   1.518   3.504  0.1634 -0.1220 -0.2304
 3657SOL    HW122607   1.508   1.566   3.586 -0.1547  0.1734 -0.4178
 3657SOL    HW222608   1.420   1.527   3.480  0.4933  1.2144 -1.0054
 3658SOL     OW22609   2.060   4.043   9.688 -0.1532 -0.3456  0.3623
 3658SOL    HW122610   2.130   3.978   9.692 -0.2499 -0.4673  0.1166
 3658SOL    HW222611   2.110   4.121   9.663  0.0002 -0.7384 -0.5615
 3659SOL     OW22612   1.166   1.696  11.972  0.0868  0.0988  0.3015
 3659SOL    HW122613   1.221   1.636  12.024  0.4558  0.5371  0.4149
 3659SOL    HW222614   1.135   1.757  12.038  0.6550  2.3607 -1.5437
 3660SOL     OW22615   1.678   3.836  10.010  0.0605 -0.4148 -0.2336
 3660SOL    HW122616   1.715   3.871   9.929 -0.0766 -0.0935 -0.1596
 3660SOL    HW222617   1.649   3.749   9.984  1.9604 -1.1412  0.0670
 3661SOL     OW22618   4.045   4.079  16.969  0.2178 -0.7281  0.5702
 3661SOL    HW122619   4.007   3.994  16.949  0.7318 -0.7872 -0.1490
 3661SOL    HW222620   4.140   4.071  16.967  0.5262  2.2968  2.6449
 3662SOL     OW22621   2.707   3.297   2.494 -0.0954  0.5060 -0.3229
 3662SOL    HW122622   2.660   3.369   2.452  1.0886  2.1045  1.0747
 3662SOL    HW222623   2.666   3.217   2.461 -1.7175  1.5285 -0.7805
 3663SOL     OW22624   0.667   3.882   1.922 -0.0450  0.6054 -0.4934
 3663SOL    HW122625   0.699   3.815   1.862  2.1329 -0.7765  2.2350
 3663SOL    HW222626   0.705   3.960   1.882  2.3618  1.5975  3.6955
 3664SOL     OW22627   0.322   2.951   4.738 -0.0153 -0.3700 -0.1418
 3664SOL    HW122628   0.299   2.859   4.746 -0.3502 -0.1548  1.2902
 3664SOL    HW222629   0.410   2.941   4.701 -0.3625  2.9497 -1.8433
 3665SOL     OW22630   2.002   1.875   6.102 -0.2195  0.4332  0.0788
 3665SOL    HW122631   1.941   1.931   6.151 -1.1929  1.3412 -2.1586
 3665SOL    HW222632   2.009   1.922   6.019  1.2642  1.9286  1.0403
 3666SOL     OW22633   2.494   4.477   3.638  0.7583  0.0381  0.1325
 3666SOL    HW122634   2.504   4.451   3.546 -1.9612  2.7928 -0.9539
 3666SOL    HW222635   2.547   4.555   3.650  1.0864 -0.5124  2.1755
 3667SOL     OW22636   2.826   3.432   9.595 -0.0154  0.3116  0.2085
 3667SOL    HW122637   2.803   3.510   9.645  0.8106  0.5625  0.2060
 3667SOL    HW222638   2.790   3.464   9.513  0.6498  1.7358  0.4679
 3668SOL     OW22639   3.268   2.644   8.944 -0.0276 -0.0524 -0.4195
 3668SOL    HW122640   3.296   2.633   9.035  0.4224 -1.4513 -0.7162
 3668SOL    HW222641   3.337   2.700   8.908  1.1580 -2.3098 -1.6892
 3669SOL     OW22642   3.776   2.529  14.355  0.3181 -0.4261  0.1585
 3669SOL    HW122643   3.697   2.574  14.325 -0.3707 -0.5677  1.8063
 3669SOL    HW222644   3.839   2.538  14.284 -0.5501 -0.3561 -0.6068
 3670SOL     OW22645   3.643   4.012  17.634  0.0676 -0.3375 -0.1725
 3670SOL    HW122646   3.569   4.050  17.587 -1.3477 -2.4241  0.3917
 3670SOL    HW222647   3.619   4.039  17.722 -0.7701  0.1926 -0.5607
 3671SOL     OW22648   1.474   1.421   7.327  0.3602 -0.4585  0.7066
 3671SOL    HW122649   1.544   1.486   7.330  1.3581 -1.5344  0.6988
 3671SOL    HW222650   1.434   1.448   7.244 -1.2006 -0.4655  1.4423
 3672SOL     OW22651   0.037   0.286   6.587  0.0776 -0.2689  0.4782
 3672SOL    HW122652   0.031   0.191   6.590  0.1413 -0.2903 -0.1592
 3672SOL    HW222653   4.687   0.312   6.610 -0.8802 -1.0404 -2.3664
 3673SOL     OW22654   2.971   2.584  17.207  0.0604 -0.0197  0.0754
 3673SOL    HW122655   2.984   2.562  17.299 -0.2228  1.4780  0.4743
 3673SOL    HW222656   2.944   2.500  17.168  1.2858 -0.1540 -0.4810
 3674SOL     OW22657   2.803   3.335   6.259  0.1525 -0.5248 -0.4565
 3674SOL    HW122658   2.849   3.365   6.181 -2.9779 -0.4130 -2.2500
 3674SOL    HW222659   2.720   3.373   6.232  0.4887 -0.8954 -2.0275
 3675SOL     OW22660   2.440   0.687   8.297  0.1402 -0.3497 -0.1702
 3675SOL    HW122661   2.530   0.715   8.312  0.0965 -0.4749  0.3573
 3675SOL    HW222662   2.450   0.601   8.257 -2.1843 -0.2887 -0.8492
 3676SOL     OW22663   0.492   3.004   3.271 -0.2712 -0.0936 -0.1585
 3676SOL    HW122664   0.456   3.064   3.336 -0.6679 -2.0000  1.3911
 3676SOL    HW222665   0.584   3.018   3.292 -0.3004  0.0218 -0.1079
 3677SOL     OW22666   3.836   1.626   7.112  0.2537  0.0610  0.2324
 3677SOL    HW122667   3.866   1.604   7.200  0.9441 -0.4376 -0.1223
 3677SOL    HW222668   3.793   1.710   7.127 -1.6988 -0.7831 -0.6298
 3678SOL     OW22669   1.868   2.480  11.557 -0.1989  0.1786 -0.4094
 3678SOL    HW122670   1.961   2.503  11.563 -0.5892  1.8221 -0.8331
 3678SOL    HW222671   1.828   2.560  11.592 -0.5295  0.0302 -0.4461
 3679SOL     OW22672   0.134   2.725   6.629 -0.3775 -0.1912 -0.1725
 3679SOL    HW122673   0.138   2.675   6.710  0.5615  0.5544  0.2387
 3679SOL    HW222674   0.181   2.806   6.649  0.5828 -0.5061 -1.1327
 3680SOL     OW22675   0.603   4.001   6.372  0.2686 -0.0814 -0.2975
 3680SOL    HW122676   0.514   3.976   6.396 -0.3399  3.4054  1.1610
 3680SOL    HW222677   0.667   3.939   6.407 -0.1045 -0.8789 -1.0573
 3681SOL     OW22678   3.491   1.437   4.279 -0.2830 -0.6586  0.1255
 3681SOL    HW122679   3.505   1.517   4.229  3.2166 -1.5163 -0.2805
 3681SOL    HW222680   3.509   1.371   4.211 -0.0477 -0.5437  0.0778
 3682SOL     OW22681   2.148   1.538   4.391 -0.3401  0.2683  0.0742
 3682SOL    HW122682   2.187   1.457   4.359  1.3817  1.0221  0.2916
 3682SOL    HW222683   2.223   1.595   4.405 -0.0749  0.1016 -0.6586
 3683SOL     OW22684   0.809   2.015  14.360  0.4304  0.2011 -0.6516
 3683SOL    HW122685   0.761   2.083  14.313 -0.6320  0.1004  0.2806
 3683SOL    HW222686   0.870   2.074  14.404  1.5280 -1.5588  0.1849
 3684SOL     OW22687   1.612   1.130  17.032  0.0192  0.6275 -0.2995
 3684SOL    HW122688   1.521   1.102  17.021  0.6828 -2.8616  2.8195
 3684SOL    HW222689   1.634   1.058  17.093 -0.5606  1.0084  0.3558
 3685SOL     OW22690   1.928   2.739  12.312 -0.1516  0.5212 -0.3281
 3685SOL    HW122691   1.864   2.731  12.382 -0.4297 -1.4670 -0.7943
 3685SOL    HW222692   1.876   2.713  12.236 -2.5713  0.6323  1.3117
 3686SOL     OW22693   0.264   1.463   7.154  0.5752 -0.5992  0.0555
 3686SOL    HW122694   0.241   1.379   7.193 -0.8110  0.9663  2.6801
 3686SOL    HW222695   0.187   1.477   7.098 -0.5955  0.0024  1.8058
 3687SOL     OW22696   4.422   4.531   8.433  0.0449  0.9275  0.0857
 3687SOL    HW122697   4.423   4.627   8.427  2.1777  0.8923 -0.1429
 3687SOL    HW222698   4.498   4.509   8.378 -0.5819  1.0149 -0.8133
 3688SOL     OW22699   1.288   1.340   0.443  0.1014  0.4756  0.4746
 3688SOL    HW122700   1.283   1.258   0.493 -2.3231  0.0186 -0.5444
 3688SOL    HW222701   1.366   1.323   0.389  0.7881  1.6991  1.0837
 3689SOL     OW22702   3.233   0.024   9.296  0.4298 -0.5120 -0.5730
 3689SOL    HW122703   3.168   4.707   9.336 -0.1077 -1.3800 -2.7157
 3689SOL    HW222704   3.204   0.104   9.340  1.0774 -0.1455 -0.8072
 3690SOL     OW22705   0.018   3.049   5.087 -0.2182 -0.1397 -0.2951
 3690SOL    HW122706   4.714   3.039   5.171  3.0141 -1.2513  1.2479
 3690SOL    HW222707   4.686   3.090   5.038  0.4321 -1.6552 -2.5578
 3691SOL     OW22708   0.941   0.489   6.463 -0.1545  0.5126 -0.1037
 3691SOL    HW122709   0.933   0.394   6.469  0.6244  0.3172 -2.2996
 3691SOL    HW222710   0.909   0.507   6.375  2.6402 -0.6781 -1.3490
 3692SOL     OW22711   0.379   2.227   2.091 -0.0884  1.0409 -0.0449
 3692SOL    HW122712   0.310   2.197   2.032 -0.0505 -1.4819  1.2430
 3692SOL    HW222713   0.446   2.163   2.069 -2.6214 -1.9660  1.1236
 3693SOL     OW22714   0.631   2.885   1.319  0.2807 -0.1273  0.1016
 3693SOL    HW122715   0.583   2.899   1.237  2.3543 -0.7783 -1.2243
 3693SOL    HW222716   0.696   2.955   1.310 -1.7952  1.9154  0.9971
 3694SOL     OW22717   4.010   3.115   9.161  0.2863 -0.1689 -0.1055
 3694SOL    HW122718   4.055   3.033   9.182 -0.4711 -0.8328 -1.0370
 3694SOL    HW222719   4.056   3.139   9.080 -1.2856  0.2363 -0.8840
 3695SOL     OW22720   3.202   0.620   8.794 -0.3488 -0.3795 -0.0673
 3695SOL    HW122721   3.201   0.712   8.769 -1.2569 -0.8305 -1.6691
 3695SOL    HW222722   3.122   0.584   8.757  0.4989 -0.9293 -1.3980
 3696SOL     OW22723   0.225   1.330   4.769 -0.0814  0.0593  0.3793
 3696SOL    HW122724   0.242   1.424   4.780 -1.0276  0.3294 -0.4913
 3696SOL    HW222725   0.131   1.332   4.788 -0.3546  3.1187 -1.2891
 3697SOL     OW22726   0.135   3.318  11.410 -0.2293 -0.0160  0.1225
 3697SOL    HW122727   0.097   3.303  11.323 -2.6190 -2.2968  1.5313
 3697SOL    HW222728   0.188   3.393  11.385  1.1608 -0.9597  0.2083
 3698SOL     OW22729   4.301   2.900   1.601  0.8469  0.5003 -0.1982
 3698SOL    HW122730   4.244   2.958   1.652  0.1292 -0.5110  0.1556
 3698SOL    HW222731   4.386   2.943   1.606  1.1966 -0.2558  0.3579
 3699SOL     OW22732   2.530   2.888   7.650 -0.0963 -0.3511  0.0791
 3699SOL    HW122733   2.590   2.822   7.686  0.0210 -0.0610  0.4130
 3699SOL    HW222734   2.447   2.843   7.636 -1.0123  1.2692  0.3691
 3700SOL     OW22735   2.108   1.299  12.710  0.3207 -0.2702  0.6932
 3700SOL    HW122736   2.048   1.356  12.662  0.1185  0.4688  1.8239
 3700SOL    HW222737   2.065   1.214  12.704 -0.1585  0.1361 -1.4308
 3701SOL     OW22738   1.359   2.860   7.677 -0.9584  0.2349 -0.4347
 3701SOL    HW122739   1.384   2.821   7.593  0.2406 -1.0258  0.4942
 3701SOL    HW222740   1.390   2.788   7.733 -3.9359 -0.5451  0.2387
 3702SOL     OW22741   2.880   3.702   2.132 -0.0077  0.1854 -0.7894
 3702SOL    HW122742   2.842   3.685   2.045 -1.4844  1.9360 -0.5027
 3702SOL    HW222743   2.972   3.676   2.123 -0.9227 -3.3088  0.1344
 3703SOL     OW22744   2.923   1.540   4.885 -0.3766  0.4225 -0.6681
 3703SOL    HW122745   2.963   1.564   4.968 -0.7791 -0.8203 -0.1020
 3703SOL    HW222746   2.935   1.445   4.894  1.5426  0.4055 -3.6749
 3704SOL     OW22747   0.487   0.631  15.511  0.4021 -0.5280  0.2899
 3704SOL    HW122748   0.542   0.659  15.438  0.4629 -2.0229 -0.2469
 3704SOL    HW222749   0.428   0.569  15.469 -0.3836  0.6606 -0.3430
 3705SOL     OW22750   3.231   3.694   5.914  0.1650  0.1737 -0.8598
 3705SOL    HW122751   3.250   3.776   5.959  1.4904  0.1108 -1.3043
 3705SOL    HW222752   3.214   3.635   5.987  1.1290  1.6583  0.5477
 3706SOL     OW22753   4.575   1.134   1.424 -0.1706  0.0121  0.0627
 3706SOL    HW122754   4.497   1.078   1.426  1.0650 -1.7725 -2.1565
 3706SOL    HW222755   4.588   1.137   1.519 -2.4690 -0.9270  0.4072
 3707SOL     OW22756   1.619   2.447   7.014  0.2316 -0.4041  0.8117
 3707SOL    HW122757   1.627   2.455   6.919 -0.7845  0.3312  0.7782
 3707SOL    HW222758   1.524   2.455   7.026  0.0392  0.5395 -1.4231
 3708SOL     OW22759   2.562   0.461   9.020  0.0867 -0.1387 -0.4412
 3708SOL    HW122760   2.517   0.382   8.992  2.7848 -2.9174  3.0338
 3708SOL    HW222761   2.515   0.489   9.099 -0.9400  0.3817 -1.2276
 3709SOL     OW22762   0.733   1.870  10.616  0.4727 -0.2719  0.4482
 3709SOL    HW122763   0.825   1.887  10.635  0.4733  3.7479 -3.0755
 3709SOL    HW222764   0.705   1.938  10.555 -0.7341 -0.6115  0.6198
 3710SOL     OW22765   0.704   0.915   9.423 -0.3013 -0.0170  0.0662
 3710SOL    HW122766   0.795   0.884   9.426 -1.0785 -2.2665  0.4587
 3710SOL    HW222767   0.657   0.843   9.465  0.2025 -0.4881 -0.1785
 3711SOL     OW22768   0.967   2.594   6.600 -0.4267  0.0645 -0.2532
 3711SOL    HW122769   0.982   2.673   6.548  2.7892 -2.0097 -2.5334
 3711SOL    HW222770   0.883   2.611   6.642 -0.1985  1.2718 -0.2742
 3712SOL     OW22771   3.557   3.901  14.367 -0.0395  0.5828 -0.0521
 3712SOL    HW122772   3.465   3.903  14.340 -0.2247 -1.8258  0.3676
 3712SOL    HW222773   3.568   3.996  14.374  1.9444  0.2636  1.1737
 3713SOL     OW22774   4.629   2.659   0.684  0.7789  0.1732  0.8458
 3713SOL    HW122775   4.670   2.745   0.689  1.0505  0.0538  0.7252
 3713SOL    HW222776   4.538   2.680   0.663  1.0424  1.6368  1.1831
 3714SOL     OW22777   0.150   4.179   4.031 -0.1473  0.5975 -0.3077
 3714SOL    HW122778   0.148   4.255   4.089  1.5635  0.8683 -0.6018
 3714SOL    HW222779   0.056   4.160   4.036 -0.2089  0.8113 -0.6964
 3715SOL     OW22780   4.327   0.102   3.310 -0.0845 -0.0836 -0.1183
 3715SOL    HW122781   4.231   0.102   3.311 -0.0851 -0.2904 -0.5643
 3715SOL    HW222782   4.345   0.107   3.216  0.1372  1.4943  0.0013
 3716SOL     OW22783   0.032   0.137   1.510 -0.4328 -0.2615  0.3137
 3716SOL    HW122784   0.118   0.166   1.481 -0.2905 -0.9417  0.0407
 3716SOL    HW222785   0.025   0.041   1.503 -2.5617 -0.1732  1.2162
 3717SOL     OW22786   3.929   2.256  16.988 -1.0735 -0.0602  0.5422
 3717SOL    HW122787   3.891   2.176  16.953 -3.0733  0.4326  1.6085
 3717SOL    HW222788   3.970   2.287  16.907 -0.5434 -1.4284  0.2812
 3718SOL     OW22789   2.395   0.196   8.544  0.4218 -0.3898 -0.2141
 3718SOL    HW122790   2.315   0.248   8.542  0.7886  0.1585 -0.6872
 3718SOL    HW222791   2.399   0.154   8.458  1.2148  1.0329 -0.8790
 3719SOL     OW22792   1.891   4.682   5.905  0.4890 -0.0158  0.8019
 3719SOL    HW122793   1.976   4.684   5.949  0.3231  0.0066  1.1193
 3719SOL    HW222794   1.853   4.600   5.936 -0.7259  0.6523  1.0656
 3720SOL     OW22795   3.466   0.127   4.306  0.2519 -0.8150  0.4342
 3720SOL    HW122796   3.484   0.083   4.222  0.2951  1.0984 -0.5532
 3720SOL    HW222797   3.382   0.086   4.327  1.1455 -1.7093  2.2622
 3721SOL     OW22798   3.902   0.060   3.708 -0.1327 -0.2735 -0.2533
 3721SOL    HW122799   3.881   0.065   3.802 -0.9830  0.6365 -0.4888
 3721SOL    HW222800   3.847   0.127   3.669 -0.2168  1.6327  3.1329
 3722SOL     OW22801   4.306   2.769   3.472  0.4063 -0.1980 -0.1689
 3722SOL    HW122802   4.317   2.862   3.457  0.9903  0.1767  2.4557
 3722SOL    HW222803   4.288   2.770   3.567  0.4334  1.0294 -0.1852
 3723SOL     OW22804   2.241   3.500   0.129 -0.5852 -0.3933  0.2902
 3723SOL    HW122805   2.231   3.405   0.136  0.3893 -0.3368  2.3890
 3723SOL    HW222806   2.324   3.505   0.081 -0.0948 -2.0169  0.9716
 3724SOL     OW22807   3.228   0.231   3.096 -0.0339 -0.7729 -0.0433
 3724SOL    HW122808   3.296   0.289   3.130 -1.1503  0.3320  0.2726
 3724SOL    HW222809   3.261   0.142   3.111  0.5984 -0.1547  2.2765
 3725SOL     OW22810   3.584   0.967  17.117 -0.0911  0.4386  0.3959
 3725SOL    HW122811   3.672   0.997  17.139  0.3725 -1.1153  0.6496
 3725SOL    HW222812   3.599   0.964  17.023 -0.3677  2.1014  0.3058
 3726SOL     OW22813   1.132   4.703   2.164 -0.1234  0.1489 -0.5143
 3726SOL    HW122814   1.116   4.610   2.180  2.6854 -0.1551  0.4973
 3726SOL    HW222815   1.226   4.705   2.145 -0.1007 -0.8188 -0.5122
 3727SOL     OW22816   3.092   0.763   9.312  0.3755 -0.2953  0.2342
 3727SOL    HW122817   3.088   0.738   9.220  3.2759 -0.4428  0.1415
 3727SOL    HW222818   3.154   0.694   9.337 -0.0269 -0.7749 -0.0747
 3728SOL     OW22819   3.710   0.325   1.671 -0.2024 -0.7828 -0.2831
 3728SOL    HW122820   3.652   0.291   1.740 -2.2770  2.9007 -0.2176
 3728SOL    HW222821   3.790   0.275   1.685  0.7317  0.5776 -0.7438
 3729SOL     OW22822   0.425   2.177  14.748 -0.0165  0.0141  0.1287
 3729SOL    HW122823   0.512   2.181  14.709  0.9695 -0.8605  2.2457
 3729SOL    HW222824   0.405   2.084  14.757  0.8354 -0.1538  0.2550
 3730SOL     OW22825   0.507   0.188  10.063  0.5650  0.0344 -0.8137
 3730SOL    HW122826   0.581   0.128  10.055 -0.2196 -1.1693  0.9044
 3730SOL    HW222827   0.439   0.149  10.009  0.3531 -1.0271  0.2178
 3731SOL     OW22828   4.357   1.701  11.759  0.1672  0.3454  0.2286
 3731SOL    HW122829   4.400   1.767  11.705 -0.4729  0.7473  0.2162
 3731SOL    HW222830   4.380   1.623  11.707 -2.1078 -0.2491  0.1141
 3732SOL     OW22831   0.036   0.994   7.250 -0.0045  0.1005 -0.3685
 3732SOL    HW122832   0.033   0.946   7.332  1.7094  1.3652  0.4498
 3732SOL    HW222833   4.685   1.013   7.227 -0.0091  0.8360  0.2456
 3733SOL     OW22834   3.109   3.210   8.666 -0.2339  0.0547 -0.1078
 3733SOL    HW122835   3.106   3.199   8.570 -1.5179 -0.0744 -0.0655
 3733SOL    HW222836   3.035   3.268   8.683 -2.3272 -2.4721 -0.5330
 3734SOL     OW22837   1.003   2.192   4.455 -0.0868  0.1140  0.2760
 3734SOL    HW122838   1.096   2.171   4.458  0.0154  0.5186 -0.1045
 3734SOL    HW222839   0.976   2.110   4.497  2.4364 -0.2462  1.1976
 3735SOL     OW22840   3.813   3.471  14.368 -0.2180  0.2630  0.5158
 3735SOL    HW122841   3.750   3.465  14.296 -1.1459  0.2869  1.3250
 3735SOL    HW222842   3.761   3.531  14.420 -1.6084 -0.0229 -0.5376
 3736SOL     OW22843   4.583   2.435   2.010 -0.4765  0.0948  0.3665
 3736SOL    HW122844   4.599   2.481   1.928 -2.0996 -0.7567 -0.4428
 3736SOL    HW222845   4.500   2.477   2.033 -1.7599 -2.4957  0.4577
 3737SOL     OW22846   1.984   1.881   5.787  0.5614  0.5978 -0.3410
 3737SOL    HW122847   1.914   1.937   5.755  0.7794  0.0094 -1.8209
 3737SOL    HW222848   1.964   1.800   5.740 -0.8135  0.8662 -0.2337
 3738SOL     OW22849   3.237   3.422   5.515 -0.2613 -0.2002 -0.4794
 3738SOL    HW122850   3.227   3.438   5.421 -0.6317 -1.7261 -0.7127
 3738SOL    HW222851   3.216   3.329   5.524 -0.0284  0.1535  3.5889
 3739SOL     OW22852   0.072   2.562   2.193  0.4310 -0.1855 -0.1133
 3739SOL    HW122853   0.097   2.541   2.283  2.1675 -4.1795 -1.5306
 3739SOL    HW222854   4.737   2.503   2.190  0.2278  0.1598 -1.5816
 3740SOL     OW22855   0.087   3.476   0.394  0.1668 -0.0544 -0.1523
 3740SOL    HW122856   0.076   3.506   0.485  0.9314 -0.8209  0.1857
 3740SOL    HW222857   0.113   3.385   0.404  0.0367 -0.3195 -2.2345
 3741SOL     OW22858   3.753   2.586   5.753  0.0187  1.0551 -0.2823
 3741SOL    HW122859   3.777   2.512   5.808 -1.8906 -1.2269 -2.4912
 3741SOL    HW222860   3.670   2.614   5.792  0.1540 -0.2749  0.9398
 3742SOL     OW22861   1.405   3.528   0.995  0.3412 -0.2463 -0.8560
 3742SOL    HW122862   1.416   3.531   0.900  0.0262  0.2513 -0.8734
 3742SOL    HW222863   1.452   3.607   1.023 -1.3146  0.1177  0.8879
 3743SOL     OW22864   1.163   0.166  15.082 -0.0610  0.0644  0.0321
 3743SOL    HW122865   1.123   0.097  15.135  0.0038  0.3444  0.4547
 3743SOL    HW222866   1.097   0.169  15.013 -0.4800  0.4616  0.4451
 3744SOL     OW22867   0.260   2.102  12.274  0.1695 -0.2365  0.6617
 3744SOL    HW122868   0.274   2.160  12.349 -2.5541 -0.7131  1.5071
 3744SOL    HW222869   0.167   2.111  12.258  0.8088  3.1396 -0.9900
 3745SOL     OW22870   4.640   3.493   5.572  0.3844 -0.9105  0.3686
 3745SOL    HW122871   4.660   3.449   5.655  1.7948  1.9557  1.5263
 3745SOL    HW222872   4.579   3.559   5.602 -0.5379 -2.5133  2.0123
 3746SOL     OW22873   1.339   3.109   7.012 -0.4091 -0.0302  0.2185
 3746SOL    HW122874   1.359   3.016   7.005 -0.9111 -0.0577 -0.8500
 3746SOL    HW222875   1.387   3.137   7.090  1.3385  0.2091 -0.9437
 3747SOL     OW22876   2.574   4.311   7.261 -0.1024 -0.3289 -0.0648
 3747SOL    HW122877   2.627   4.352   7.193  1.1231  0.5616  1.4207
 3747SOL    HW222878   2.640   4.253   7.299  0.7382  0.2448 -0.6423
 3748SOL     OW22879   4.718   0.818   7.003  0.4407  0.1391 -0.2365
 3748SOL    HW122880   0.018   0.736   6.976  1.3709  0.4470  0.1897
 3748SOL    HW222881   4.690   0.859   6.921  0.0558  1.8482  0.7467
 3749SOL     OW22882   3.500   3.397   2.277 -0.3796 -0.2152 -0.3314
 3749SOL    HW122883   3.584   3.351   2.274 -0.6697 -0.6722 -1.7396
 3749SOL    HW222884   3.447   3.324   2.246  0.8452 -0.8322 -0.9567
 3750SOL     OW22885   0.308   1.589   5.068 -0.2228  0.0611 -0.6163
 3750SOL    HW122886   0.260   1.539   5.002  0.2017 -0.8201 -0.2488
 3750SOL    HW222887   0.236   1.638   5.108 -0.5239  1.9327 -3.4415
 3751SOL     OW22888   0.578   3.979  13.593 -0.6367 -0.8313 -0.1586
 3751SOL    HW122889   0.601   3.925  13.667 -2.4852 -0.3128  0.8098
 3751SOL    HW222890   0.486   3.994  13.617  0.1023  0.8069  1.6711
 3752SOL     OW22891   2.524   2.848   0.611 -1.2528  0.2184  0.1071
 3752SOL    HW122892   2.572   2.895   0.679  2.0467 -1.1006 -1.2861
 3752SOL    HW222893   2.517   2.771   0.668  0.6141 -0.3130 -0.3994
 3753SOL     OW22894   3.027   4.227   7.914 -0.1412  0.3817 -0.3962
 3753SOL    HW122895   2.977   4.302   7.946  0.8257  0.6624  0.4762
 3753SOL    HW222896   3.065   4.202   7.999  1.2396 -2.1083 -1.7410
 3754SOL     OW22897   0.825   3.631   2.298 -0.3427 -0.2555 -0.2874
 3754SOL    HW122898   0.757   3.690   2.267  0.0934 -0.2879 -1.3148
 3754SOL    HW222899   0.794   3.618   2.388 -1.4206 -0.0386 -0.6376
 3755SOL     OW22900   4.000   2.504   2.316  0.6066 -0.3305 -0.6289
 3755SOL    HW122901   4.058   2.580   2.315  0.2644 -0.0351  1.1925
 3755SOL    HW222902   3.970   2.506   2.225 -1.0344  0.9879 -0.0641
 3756SOL     OW22903   0.302   0.444  11.131  0.5912  0.2233  0.0145
 3756SOL    HW122904   0.230   0.501  11.107 -0.2024 -1.6896 -2.0820
 3756SOL    HW222905   0.297   0.450  11.227  0.5770  2.7301 -0.1566
 3757SOL     OW22906   3.875   3.145  12.541  0.4048 -0.1594 -0.1615
 3757SOL    HW122907   3.869   3.088  12.617  1.0398  2.1347  1.5907
 3757SOL    HW222908   3.873   3.236  12.572 -1.5631  0.0517 -0.8585
 3758SOL     OW22909   0.664   1.656   6.600 -0.1644 -0.2591 -0.9741
 3758SOL    HW122910   0.571   1.678   6.597 -0.1480 -0.2967 -1.7505
 3758SOL    HW222911   0.651   1.564   6.624 -2.7457  0.4639  0.3728
 3759SOL     OW22912   4.516   1.770   8.297  0.0102  0.1034  0.6729
 3759SOL    HW122913   4.423   1.751   8.305  0.1226  0.4420  2.8955
 3759SOL    HW222914   4.539   1.811   8.380 -0.8740 -0.4799  1.2096
 3760SOL     OW22915   4.063   4.285  17.635  0.7739 -0.1326  0.8080
 3760SOL    HW122916   4.154   4.300  17.660  1.1500  0.2654 -0.7709
 3760SOL    HW222917   4.045   4.209  17.690  0.0628  0.3823  1.2929
 3761SOL     OW22918   1.913   3.452  14.661 -0.3321 -0.4250  0.1815
 3761SOL    HW122919   1.864   3.512  14.718  1.6489 -0.2694  1.6941
 3761SOL    HW222920   1.850   3.427  14.593  0.2470 -1.5712  0.0686
 3762SOL     OW22921   0.376   0.339   0.408 -0.6904  0.3301 -0.1895
 3762SOL    HW122922   0.434   0.299   0.343  1.9210  1.8581  1.1845
 3762SOL    HW222923   0.427   0.316   0.486 -1.2022 -1.1129 -0.2699
 3763SOL     OW22924   2.173   3.860   2.708 -0.1564 -0.0690 -0.7063
 3763SOL    HW122925   2.221   3.935   2.673  0.2254 -0.1403 -0.3344
 3763SOL    HW222926   2.131   3.810   2.638  1.0189 -0.0568 -1.4206
 3764SOL     OW22927   3.144   4.429   7.321 -0.0417  0.3501 -0.5665
 3764SOL    HW122928   3.113   4.351   7.367 -1.6793  0.8888 -0.7481
 3764SOL    HW222929   3.141   4.404   7.228  0.7244  1.5544 -0.9268
 3765SOL     OW22930   3.151   3.217  15.875  0.0767 -0.3127  0.1793
 3765SOL    HW122931   3.189   3.130  15.883 -0.5350 -0.4467  1.8282
 3765SOL    HW222932   3.202   3.268  15.939  0.4917 -1.6408  0.9066
 3766SOL     OW22933   0.643   2.761   9.380 -0.1978 -0.0786 -0.6968
 3766SOL    HW122934   0.707   2.781   9.448  0.4355 -1.7989 -0.7798
 3766SOL    HW222935   0.653   2.840   9.327  0.9435  1.4095  1.7265
 3767SOL     OW22936   1.543   0.246   5.259 -0.3479  0.4726  0.1219
 3767SOL    HW122937   1.504   0.162   5.282  1.4812  0.5037  3.3732
 3767SOL    HW222938   1.574   0.268   5.347  1.7133 -0.1757 -0.4513
 3768SOL     OW22939   4.732   4.446   1.137 -0.1297  0.1233 -0.3804
 3768SOL    HW122940   0.008   4.362   1.093 -0.7615 -0.6563  0.8546
 3768SOL    HW222941   0.054   4.427   1.208 -3.1995 -1.3325  1.9222
 3769SOL     OW22942   1.430   1.534  12.438  0.3029 -0.0108 -0.2392
 3769SOL    HW122943   1.408   1.495  12.523 -0.6240 -0.7360 -0.8053
 3769SOL    HW222944   1.343   1.569  12.416  0.4193 -0.4541 -1.3825
 3770SOL     OW22945   3.704   4.303   6.978 -0.1917 -0.4594 -0.5246
 3770SOL    HW122946   3.629   4.254   6.944 -1.1190 -0.0779  0.9390
 3770SOL    HW222947   3.670   4.392   6.984 -0.1646 -0.6577  2.4779
 3771SOL     OW22948   0.739   2.220   6.044  0.6014 -0.5692 -0.7201
 3771SOL    HW122949   0.723   2.243   5.952 -0.8483  1.5747  0.0669
 3771SOL    HW222950   0.675   2.281   6.080  1.1494 -0.1428 -0.4742
 3772SOL     OW22951   3.844   1.860   6.618  1.2352 -0.2188 -0.5216
 3772SOL    HW122952   3.829   1.793   6.550 -1.0925 -0.2108 -0.0149
 3772SOL    HW222953   3.874   1.934   6.565  0.9194  0.0562 -0.3115
 3773SOL     OW22954   0.782   2.001  16.246  0.1350 -0.4273 -0.6993
 3773SOL    HW122955   0.788   2.004  16.150  0.8735  1.9047 -0.5855
 3773SOL    HW222956   0.689   1.977  16.254 -0.0418  0.1658 -0.9425
 3774SOL     OW22957   4.690   3.662   9.045  0.4665 -0.1824  0.3411
 3774SOL    HW122958   0.029   3.665   9.098  0.9009  1.1269 -0.3795
 3774SOL    HW222959   4.641   3.598   9.096  0.7982  1.4077  2.6194
 3775SOL     OW22960   4.690   2.357  12.937 -0.0810  0.3192 -0.4687
 3775SOL    HW122961   4.700   2.428  13.001  0.0190 -0.0811 -0.0400
 3775SOL    HW222962   4.621   2.300  12.972  0.1120 -1.4653 -3.0194
 3776SOL     OW22963   0.201   0.865   6.071 -0.3806 -0.2059 -0.5130
 3776SOL    HW122964   0.255   0.786   6.068 -1.6462 -1.2213  3.5063
 3776SOL    HW222965   0.196   0.889   6.164  1.1955 -1.8238 -0.0179
 3777SOL     OW22966   3.920   1.420   4.964 -0.0403  0.1470 -0.2593
 3777SOL    HW122967   3.938   1.333   4.928 -0.8776  0.7294 -2.0632
 3777SOL    HW222968   3.825   1.423   4.980 -0.1972  0.9408 -1.4085
 3778SOL     OW22969   2.223   1.019   5.246  0.6868  0.3698 -0.0720
 3778SOL    HW122970   2.130   1.034   5.265  0.4209 -0.2704 -0.8461
 3778SOL    HW222971   2.254   0.962   5.317 -2.3777 -0.4710  0.5940
 3779SOL     OW22972   2.754   1.737   9.764 -0.3660  0.0398  0.2721
 3779SOL    HW122973   2.730   1.699   9.680 -0.6771 -0.9676  0.8217
 3779SOL    HW222974   2.717   1.825   9.761  1.1734  0.6947  0.0513
 3780SOL     OW22975   4.617   2.683   2.582  0.4508  0.1425 -0.1027
 3780SOL    HW122976   4.608   2.589   2.562 -1.4109  0.5439 -1.1185
 3780SOL    HW222977   4.628   2.672   2.676 -0.2123 -1.1123 -0.1617
 3781SOL     OW22978   0.317   4.310   6.307  0.0268  0.4657 -0.1179
 3781SOL    HW122979   0.232   4.351   6.326 -0.0265  0.0590  0.5062
 3781SOL    HW222980   0.353   4.330   6.393 -0.7644  2.9786 -0.3739
 3782SOL     OW22981   1.569   4.520   2.539  0.6656  0.0769 -0.6202
 3782SOL    HW122982   1.654   4.538   2.579  1.7269  0.3605 -3.0501
 3782SOL    HW222983   1.553   4.429   2.566  0.0088  0.4911  0.3759
 3783SOL     OW22984   0.978   4.001   1.617 -0.4068  0.1068 -0.4332
 3783SOL    HW122985   0.901   3.948   1.596 -0.6565  1.0443 -1.9085
 3783SOL    HW222986   1.029   3.951   1.681 -1.3531  0.8682  0.9219
 3784SOL     OW22987   4.471   1.487   2.834 -0.0395 -0.0414 -0.2509
 3784SOL    HW122988   4.448   1.452   2.920 -1.8729 -0.0187 -0.7337
 3784SOL    HW222989   4.537   1.422   2.813 -0.6909 -0.8436  0.2007
 3785SOL     OW22990   1.979   0.723   4.066 -0.2998 -0.9001  0.3055
 3785SOL    HW122991   2.044   0.778   4.110 -0.0923 -0.2660 -0.7998
 3785SOL    HW222992   1.899   0.774   4.077  0.1602 -0.5879  2.2430
 3786SOL     OW22993   2.794   1.020   4.794  0.1279 -0.5429  0.4736
 3786SOL    HW122994   2.766   1.104   4.830 -0.6376 -1.5274  2.2303
 3786SOL    HW222995   2.726   0.954   4.810 -1.4765  1.1276  0.4831
 3787SOL     OW22996   0.399   3.466   2.649 -1.2210 -0.3907 -0.6376
 3787SOL    HW122997   0.428   3.403   2.583 -1.8714  0.3994 -1.6896
 3787SOL    HW222998   0.449   3.442   2.727 -1.2987  2.6637  0.3602
 3788SOL     OW22999   3.780   4.618   9.407 -0.1896 -0.0322  0.1301
 3788SOL    HW123000   3.828   4.668   9.474  0.6110 -0.4726 -0.1112
 3788SOL    HW223001   3.717   4.576   9.465 -1.9176  1.8293 -0.4364
 3789SOL     OW23002   2.274   3.927   7.587 -0.6527 -0.1647  0.2009
 3789SOL    HW123003   2.277   3.900   7.679 -0.1138  0.0797  0.2563
 3789SOL    HW223004   2.296   3.845   7.543 -3.4455 -1.2099  0.7182
 3790SOL     OW23005   3.983   3.390  14.767  0.2190 -0.1928 -0.0368
 3790SOL    HW123006   3.920   3.459  14.787  0.4529 -0.0670  0.2562
 3790SOL    HW223007   3.933   3.313  14.795 -0.6787 -0.3925 -2.1297
 3791SOL     OW23008   4.611   2.736  12.537 -0.3640  0.4232 -0.3055
 3791SOL    HW123009   4.651   2.654  12.509 -0.7665  0.9544 -2.4593
 3791SOL    HW223010   4.544   2.756  12.472 -1.8609 -2.0881  0.4616
 3792SOL     OW23011   1.120   3.138   8.121 -0.2660 -0.0912 -0.6419
 3792SOL    HW123012   1.114   3.182   8.036 -2.8130 -0.7309 -0.7940
 3792SOL    HW223013   1.210   3.152   8.151 -0.7848  0.1666  0.7777
 3793SOL     OW23014   4.342   0.713   0.279  0.4877 -0.0129  0.0553
 3793SOL    HW123015   4.436   0.728   0.266  0.6710 -0.3003  1.0280
 3793SOL    HW223016   4.336   0.627   0.321  0.9583 -0.8411 -1.5564
 3794SOL     OW23017   0.661   2.641   5.536 -0.1903  0.4774 -0.1353
 3794SOL    HW123018   0.641   2.553   5.566 -1.3437  1.3344  1.5526
 3794SOL    HW223019   0.712   2.627   5.456 -1.1142 -1.3665 -0.3873
 3795SOL     OW23020   3.065   0.141   8.130 -0.1430  0.3091  0.3334
 3795SOL    HW123021   2.991   0.194   8.103 -1.4727 -1.8145 -0.1713
 3795SOL    HW223022   3.130   0.197   8.173 -2.2401  3.1581 -0.2275
 3796SOL     OW23023   4.091   3.241   6.381  0.1544  0.3006  0.3072
 3796SOL    HW123024   4.035   3.301   6.333  0.3617 -1.7322 -2.5083
 3796SOL    HW223025   4.023   3.182   6.413 -0.7272 -0.0926 -2.3145
 3797SOL     OW23026   4.366   0.955   9.818 -0.0286 -0.3003  0.4698
 3797SOL    HW123027   4.290   0.970   9.762 -2.3627 -0.0238  3.7615
 3797SOL    HW223028   4.437   0.973   9.756  1.9389 -3.2782  1.8982
 3798SOL     OW23029   0.904   3.274   6.376 -0.3869  0.0831  0.0964
 3798SOL    HW123030   0.898   3.317   6.291  0.5192  1.0306  0.5075
 3798SOL    HW223031   0.913   3.355   6.426 -1.4425 -0.3919  1.0452
 3799SOL     OW23032   2.634   4.237   3.554 -0.4605 -0.0718  0.3119
 3799SOL    HW123033   2.672   4.224   3.468 -1.4907  1.8498 -0.4268
 3799SOL    HW223034   2.709   4.286   3.588 -0.1237 -0.4653  0.1327
 3800SOL     OW23035   3.847   3.681  13.285  0.1263  0.7414 -0.2506
 3800SOL    HW123036   3.881   3.667  13.374 -1.2153  0.3603  0.2108
 3800SOL    HW223037   3.832   3.774  13.305  0.3313  1.0962 -1.7396
 3801SOL     OW23038   0.798   2.840   8.374 -0.3004  0.4039 -0.4573
 3801SOL    HW123039   0.807   2.891   8.455  0.0715 -1.1707  0.4882
 3801SOL    HW223040   0.707   2.810   8.376  0.2653 -1.2589  0.0153
 3802SOL     OW23041   0.146   2.668   6.376  0.4157 -0.5663 -0.2743
 3802SOL    HW123042   0.138   2.671   6.471 -0.6294  3.3946 -0.4903
 3802SOL    HW223043   0.171   2.759   6.359 -1.0341 -0.6117 -2.7321
 3803SOL     OW23044   2.970   3.092  14.129  0.0709  0.0162 -0.0498
 3803SOL    HW123045   3.060   3.061  14.129  0.1746  0.3308 -2.8188
 3803SOL    HW223046   2.921   3.014  14.103  2.6321 -1.0026 -1.8525
 3804SOL     OW23047   4.362   3.939  13.225 -0.1791 -0.5657 -0.1066
 3804SOL    HW123048   4.398   3.850  13.225 -1.5283 -1.1044 -0.8554
 3804SOL    HW223049   4.446   3.984  13.224  1.1974 -3.0869 -0.3919
 3805SOL     OW23050   2.195   4.513   2.705  0.5800 -0.2796 -0.2457
 3805SOL    HW123051   2.118   4.479   2.752  1.7305  0.1364  1.9379
 3805SOL    HW223052   2.214   4.593   2.754 -0.4982 -0.1729  0.0122
 3806SOL     OW23053   2.343   3.220  14.823  0.0429 -0.6172 -0.0133
 3806SOL    HW123054   2.252   3.244  14.805  0.1204 -0.9373 -0.8156
 3806SOL    HW223055   2.334   3.192  14.915  1.8905  2.3468  1.0598
 3807SOL     OW23056   2.590   2.075   6.988  0.1319  0.2131  0.0073
 3807SOL    HW123057   2.495   2.080   7.004  0.6727  2.6380  2.6090
 3807SOL    HW223058   2.606   2.169   6.981 -1.4034  0.2916 -2.3639
 3808SOL     OW23059   3.770   2.441   8.261  0.4049 -0.7433  0.4019
 3808SOL    HW123060   3.853   2.489   8.271  0.1942 -0.2503 -0.1723
 3808SOL    HW223061   3.720   2.479   8.333 -0.6742  0.3535 -0.9278
 3809SOL     OW23062   3.144   3.407   7.345  0.6225  0.2276  0.1225
 3809SOL    HW123063   3.204   3.352   7.294  0.3616  1.5861 -1.6197
 3809SOL    HW223064   3.189   3.389   7.427  1.7998  0.2283 -0.5277
 3810SOL     OW23065   3.033   4.632   9.444  0.0585 -0.2188 -0.5545
 3810SOL    HW123066   3.014   4.550   9.397 -2.4173  0.4920 -0.7907
 3810SOL    HW223067   2.958   4.688   9.425 -1.6238 -1.4394  2.4677
 3811SOL     OW23068   2.469   0.295  12.008 -0.0490  0.1469 -0.4074
 3811SOL    HW123069   2.553   0.250  12.018  1.0293  2.8079  2.7537
 3811SOL    HW223070   2.407   0.239  12.054  2.7228 -1.6674  1.1001
 3812SOL     OW23071   1.274   4.687   5.655  0.3539  0.0574  0.3896
 3812SOL    HW123072   1.236   4.608   5.616 -1.3553  1.0499  0.0446
 3812SOL    HW223073   1.273   4.665   5.748 -0.2139  1.8769  0.8063
 3813SOL     OW23074   0.683   2.240   2.433 -0.0931 -0.1350  0.0257
 3813SOL    HW123075   0.592   2.270   2.432 -0.2346 -0.5838 -0.2488
 3813SOL    HW223076   0.673   2.175   2.503 -1.2620  1.7405  1.6181
 3814SOL     OW23077   0.556   2.617   3.447  0.1530 -0.3326  0.1665
 3814SOL    HW123078   0.512   2.637   3.530  0.0221 -1.2070  0.3070
 3814SOL    HW223079   0.634   2.674   3.447  0.2241 -0.4326 -0.4688
 3815SOL     OW23080   2.018   3.462   5.328  0.0031  0.3655 -0.0509
 3815SOL    HW123081   1.953   3.400   5.294 -1.7298  1.7446  0.7541
 3815SOL    HW223082   1.979   3.482   5.413 -0.1569  0.4676 -0.1489
 3816SOL     OW23083   2.789   2.155   7.856  0.1744  0.4797 -0.9662
 3816SOL    HW123084   2.845   2.122   7.926  1.5274  1.9448 -1.3437
 3816SOL    HW223085   2.805   2.248   7.874  1.0062  0.3366 -0.9736
 3817SOL     OW23086   3.725   1.478  12.549 -0.4446 -0.1644 -0.1446
 3817SOL    HW123087   3.764   1.419  12.614  0.5380  2.4084  1.5887
 3817SOL    HW223088   3.637   1.480  12.587 -0.8838  0.1405 -1.1778
 3818SOL     OW23089   1.091   1.755   3.079 -0.0651 -0.3880  0.0542
 3818SOL    HW123090   1.129   1.758   2.991 -1.8420  1.4100 -0.6482
 3818SOL    HW223091   1.101   1.844   3.112  1.6452 -0.4588 -0.2624
 3819SOL     OW23092   3.376   2.341   0.303  0.0728  0.0834  0.6496
 3819SOL    HW123093   3.467   2.371   0.302 -1.0751  3.4758 -0.8310
 3819SOL    HW223094   3.358   2.342   0.397 -1.1913 -0.0847  0.4053
 3820SOL     OW23095   4.132   0.315   4.394 -0.4168  0.0178 -0.0248
 3820SOL    HW123096   4.052   0.290   4.347 -1.0436 -2.3333  2.2998
 3820SOL    HW223097   4.197   0.248   4.375  0.2373  1.0112 -1.3180
 3821SOL     OW23098   3.803   0.197   1.420 -0.0557 -0.0569 -0.1240
 3821SOL    HW123099   3.790   0.270   1.481 -1.3784 -0.6262  0.2832
 3821SOL    HW223100   3.713   0.166   1.407  0.1731 -0.0656 -1.6509
 3822SOL     OW23101   1.612   0.135   5.861 -0.0467  0.1036  0.8715
 3822SOL    HW123102   1.658   0.057   5.892 -0.3027  0.3989  1.9949
 3822SOL    HW223103   1.610   0.106   5.770 -0.9165 -0.2764  1.0081
 3823SOL     OW23104   4.257   1.875  17.629  0.2438 -0.3004  0.3188
 3823SOL    HW123105   4.201   1.910  17.561  0.1741 -0.0592  0.4986
 3823SOL    HW223106   4.221   1.790  17.654 -0.8260  0.5506  1.7001
 3824SOL     OW23107   2.700   4.169   6.710  0.6095  0.2100  0.2876
 3824SOL    HW123108   2.616   4.173   6.663  0.2422 -0.1940  0.9213
 3824SOL    HW223109   2.719   4.259   6.737  0.2748  0.6910 -1.0591
 3825SOL     OW23110   2.904   2.076  15.967  0.4148 -0.4342 -0.0602
 3825SOL    HW123111   2.853   2.152  15.994  0.3799 -0.7442  0.7189
 3825SOL    HW223112   2.835   2.023  15.928 -0.7506  1.3355 -0.3601
 3826SOL     OW23113   3.209   0.384   8.457 -0.1330  0.4413  0.5387
 3826SOL    HW123114   3.275   0.446   8.487 -0.3419  0.5391  0.7892
 3826SOL    HW223115   3.229   0.323   8.528  0.9198 -0.9841 -0.9674
 3827SOL     OW23116   4.260   3.271   7.730 -0.5906  0.2091  0.8135
 3827SOL    HW123117   4.242   3.339   7.795  0.5364  1.5112 -0.2473
 3827SOL    HW223118   4.214   3.298   7.650  1.0640  0.4321 -0.0460
 3828SOL     OW23119   2.684   1.584   5.496 -0.5808  0.3525  0.7226
 3828SOL    HW123120   2.660   1.673   5.521  0.7443  0.5275  1.3870
 3828SOL    HW223121   2.755   1.559   5.555  2.3898  0.9366 -2.5996
 3829SOL     OW23122   3.739   3.415   4.029 -0.1947  0.3449  0.7385
 3829SOL    HW123123   3.667   3.365   4.067 -1.3527  0.1274 -1.7558
 3829SOL    HW223124   3.757   3.363   3.951  0.4088  0.5582  0.7307
 3830SOL     OW23125   0.532   0.273  14.625  0.0970 -0.2389  0.5294
 3830SOL    HW123126   0.455   0.236  14.667  0.5392 -0.8902  0.7701
 3830SOL    HW223127   0.582   0.206  14.578 -0.5025  0.2843 -0.8608
 3831SOL     OW23128   0.251   0.133  14.709 -0.0181 -0.2705 -0.1048
 3831SOL    HW123129   0.207   0.184  14.641  0.2011  0.2755  0.1664
 3831SOL    HW223130   0.251   0.040  14.686  0.8000  0.0163 -1.2563
 3832SOL     OW23131   0.373   3.752   7.579  0.0877  0.3340  0.7369
 3832SOL    HW123132   0.342   3.674   7.625  0.5871  0.2859  0.9960
 3832SOL    HW223133   0.289   3.791   7.555  0.8127  1.1226 -0.5155
 3833SOL     OW23134   0.764   3.443   6.736 -0.0781  0.1535  0.1087
 3833SOL    HW123135   0.835   3.465   6.676 -1.2062  1.3985 -0.7497
 3833SOL    HW223136   0.758   3.348   6.726  0.0299  0.2905 -1.1918
 3834SOL     OW23137   4.315   3.337   8.436  0.2029 -0.0273  0.2849
 3834SOL    HW123138   4.392   3.281   8.429 -0.1860 -0.2226 -2.4034
 3834SOL    HW223139   4.354   3.409   8.386  1.9649 -0.1971  1.3922
 3835SOL     OW23140   4.425   2.686   0.436 -0.0739 -0.3327  0.0076
 3835SOL    HW123141   4.344   2.659   0.393 -1.4084  1.3731  1.4747
 3835SOL    HW223142   4.435   2.779   0.418  1.9696 -1.2040 -3.1937
 3836SOL     OW23143   1.550   3.112   6.200 -0.0908 -0.0226 -0.2557
 3836SOL    HW123144   1.517   3.072   6.120  0.7456  1.2397 -1.2086
 3836SOL    HW223145   1.478   3.172   6.219  1.5007  1.3209  1.5171
 3837SOL     OW23146   4.529   3.538   1.245 -0.2395  0.8319 -0.0501
 3837SOL    HW123147   4.531   3.586   1.328  0.5121  1.8575 -0.6653
 3837SOL    HW223148   4.549   3.448   1.268  0.1494  1.2960  1.4459
 3838SOL     OW23149   4.144   3.237   0.382  0.3428 -0.5775 -0.1491
 3838SOL    HW123150   4.219   3.296   0.372 -0.0082 -0.1430 -0.1963
 3838SOL    HW223151   4.138   3.203   0.292 -0.7028  1.4412 -0.8312
 3839SOL     OW23152   2.209   2.276   3.856  0.3213  0.2182 -0.5274
 3839SOL    HW123153   2.288   2.241   3.815  1.3365  0.8156  0.9172
 3839SOL    HW223154   2.146   2.206   3.840 -2.1197  1.8257  1.9950
 3840SOL     OW23155   1.076   1.080   2.912 -0.4153  0.5636  0.3376
 3840SOL    HW123156   0.981   1.087   2.918 -0.2863  2.8792 -0.3105
 3840SOL    HW223157   1.095   1.167   2.878  0.5728 -0.5469 -1.9557
 3841SOL     OW23158   3.075   0.784   6.046  1.0842  0.3608  0.1919
 3841SOL    HW123159   3.005   0.784   5.981 -0.7646 -1.3018  2.2167
 3841SOL    HW223160   3.123   0.866   6.033 -1.3804  1.8853  0.8855
 3842SOL     OW23161   3.780   3.344   4.915  0.0136  0.0212 -0.2060
 3842SOL    HW123162   3.772   3.421   4.972 -0.6305  0.7117 -1.2361
 3842SOL    HW223163   3.769   3.270   4.974  0.1445  1.7359  1.9821
 3843SOL     OW23164   4.222   4.410   9.869  0.0470 -0.2134 -0.5595
 3843SOL    HW123165   4.249   4.477   9.933  0.4894 -1.2927  0.3803
 3843SOL    HW223166   4.191   4.468   9.799  0.9124  0.5090 -0.3480
 3844SOL     OW23167   2.615   4.442   7.680  0.0263 -0.7262 -0.2112
 3844SOL    HW123168   2.590   4.359   7.638 -0.1496  0.1715 -1.8531
 3844SOL    HW223169   2.532   4.473   7.715 -0.3885  1.0720 -2.8618
 3845SOL     OW23170   4.697   1.145   9.783  0.6157 -0.1860 -0.1236
 3845SOL    HW123171   0.026   1.189   9.733  2.0941 -1.5157  0.7364
 3845SOL    HW223172   4.644   1.223   9.799 -0.2677 -1.2583  2.1451
 3846SOL     OW23173   2.844   0.967   6.283  0.9094 -0.6762 -0.0558
 3846SOL    HW123174   2.846   0.917   6.364 -1.3575 -0.1423  0.3311
 3846SOL    HW223175   2.751   0.964   6.260  1.0598  2.7178 -1.1107
 3847SOL     OW23176   1.088   2.431   3.313 -0.1848 -0.0049 -0.0189
 3847SOL    HW123177   1.025   2.410   3.244 -0.6989  0.2813  0.3642
 3847SOL    HW223178   1.039   2.449   3.393 -1.3053 -0.5238 -0.5840
 3848SOL     OW23179   3.346   0.043   9.037 -0.4836  0.3842  0.4206
 3848SOL    HW123180   3.311   0.038   9.126  1.3462 -1.8577  1.0116
 3848SOL    HW223181   3.378   0.133   9.029  0.6049  0.3024  3.6050
 3849SOL     OW23182   3.965   2.479   7.958  0.3272  0.3516  0.4657
 3849SOL    HW123183   3.930   2.524   8.035 -1.4328 -0.7555  0.3327
 3849SOL    HW223184   3.894   2.486   7.894 -0.2268 -1.9006  0.8136
 3850SOL     OW23185   0.061   3.096   2.691 -0.2135 -0.1840  0.5401
 3850SOL    HW123186   4.736   3.049   2.743 -2.1432  0.4562 -1.2971
 3850SOL    HW223187   0.081   3.034   2.621  0.3389 -0.1671  0.6805
 3851SOL     OW23188   3.085   1.074   9.677  0.4571 -0.1744 -0.2174
 3851SOL    HW123189   3.167   1.123   9.662  0.6902 -0.4165  0.2681
 3851SOL    HW223190   3.065   1.087   9.769 -1.2218 -0.7858 -0.4946
 3852SOL     OW23191   2.701   2.930   1.850 -0.3582 -0.2286 -0.2658
 3852SOL    HW123192   2.701   2.924   1.755  2.0955  0.0708 -0.2870
 3852SOL    HW223193   2.692   2.840   1.880  0.0612  0.1119  0.8907
 3853SOL     OW23194   0.704   1.804   9.154  0.5537 -0.1344 -0.5340
 3853SOL    HW123195   0.717   1.895   9.125 -1.3327  0.6951  1.2665
 3853SOL    HW223196   0.723   1.760   9.071 -1.9689  1.3940 -1.9238
 3854SOL     OW23197   2.029   1.283   5.835  0.0406  0.0287 -0.7770
 3854SOL    HW123198   2.003   1.224   5.765 -0.2810 -1.8661  0.9221
 3854SOL    HW223199   1.943   1.278   5.876  0.5537 -1.0897  0.1648
 3855SOL     OW23200   4.093   3.672   5.588  0.0170 -0.0527  0.0986
 3855SOL    HW123201   4.022   3.668   5.651 -0.6601 -1.0963 -0.7442
 3855SOL    HW223202   4.038   3.694   5.513  0.7621 -1.8075 -0.9382
 3856SOL     OW23203   2.593   4.652   7.245 -0.4321  0.0672 -0.2957
 3856SOL    HW123204   2.572   4.576   7.190 -1.3998 -0.9256  1.4483
 3856SOL    HW223205   2.521   4.649   7.308 -0.7155 -1.3544 -0.6872
 3857SOL     OW23206   1.514   4.016   3.936  0.4840 -0.3521  0.1278
 3857SOL    HW123207   1.479   3.938   3.893  1.6646  0.5468 -2.4504
 3857SOL    HW223208   1.465   4.024   4.019  0.2683 -0.0782 -0.0244
 3858SOL     OW23209   2.446   0.209   2.233 -0.2530 -0.3484 -0.5535
 3858SOL    HW123210   2.357   0.200   2.197  0.7679  3.0120 -3.8961
 3858SOL    HW223211   2.471   0.117   2.242  1.5148  0.1857 -0.0939
 3859SOL     OW23212   4.705   3.356   9.327 -0.4329 -0.5747  0.4781
 3859SOL    HW123213   4.662   3.270   9.332  0.3097 -0.9896 -0.4016
 3859SOL    HW223214   0.056   3.327   9.326  0.8139  3.1431  3.7605
 3860SOL     OW23215   0.469   2.926   3.780 -0.0203  0.4440 -0.3336
 3860SOL    HW123216   0.468   2.840   3.740 -1.0968 -0.5161  1.7633
 3860SOL    HW223217   0.399   2.920   3.845  0.8504 -0.1482  0.5541
 3861SOL     OW23218   0.281   1.679  10.772  0.1927 -0.2859 -0.1942
 3861SOL    HW123219   0.326   1.734  10.708  0.9035  1.1136  1.5189
 3861SOL    HW223220   0.303   1.719  10.857 -0.6439 -0.2734  0.0203
 3862SOL     OW23221   2.344   4.431   7.670 -0.0749  0.2651  0.3712
 3862SOL    HW123222   2.322   4.339   7.655  0.6721  0.2997 -1.0149
 3862SOL    HW223223   2.280   4.481   7.619 -2.2201 -1.8094  1.0174
 3863SOL     OW23224   2.167   0.332   9.696 -0.2753 -0.4095 -0.0798
 3863SOL    HW123225   2.079   0.357   9.667 -0.7941 -1.2801  0.7474
 3863SOL    HW223226   2.158   0.352   9.789 -0.7345  1.3053 -0.5017
 3864SOL     OW23227   4.562   0.333   3.395 -0.2688 -0.4028 -0.1828
 3864SOL    HW123228   4.485   0.280   3.415 -0.6468 -1.1852 -3.5842
 3864SOL    HW223229   4.535   0.421   3.367  0.5219  0.2500  1.1223
 3865SOL     OW23230   3.515   1.709   9.268  0.5678  0.4307 -0.0253
 3865SOL    HW123231   3.581   1.645   9.243 -0.0233 -0.2602  0.1592
 3865SOL    HW223232   3.469   1.666   9.341  1.4672 -1.2495 -0.4582
 3866SOL     OW23233   3.302   3.942   7.271  0.4928 -0.5628 -0.0779
 3866SOL    HW123234   3.262   3.863   7.235  1.3030 -0.3468 -1.4476
 3866SOL    HW223235   3.277   4.002   7.200 -0.6835 -2.5782 -1.3777
 3867SOL     OW23236   0.619   2.761   7.461  0.2395 -0.1078  0.0928
 3867SOL    HW123237   0.560   2.814   7.407  1.6139  1.6849  0.3348
 3867SOL    HW223238   0.555   2.744   7.530  0.3641 -0.5111  0.1099
 3868SOL     OW23239   3.372   2.308   1.989  0.4177 -0.2451 -0.4215
 3868SOL    HW123240   3.389   2.393   1.950  1.4142 -0.5543 -0.6720
 3868SOL    HW223241   3.360   2.324   2.083  1.2105 -1.6941 -0.0608
 3869SOL     OW23242   4.086   4.616   2.338 -0.4725  0.2250 -0.5675
 3869SOL    HW123243   4.134   4.566   2.405  1.6557 -0.9040 -2.9133
 3869SOL    HW223244   4.128   4.597   2.254  1.6794  1.4008  0.2319
 3870SOL     OW23245   2.764   4.700   7.672  0.4318 -0.0934  0.1199
 3870SOL    HW123246   2.725   4.615   7.654 -1.0571 -0.0403  3.2226
 3870SOL    HW223247   2.773   4.707   7.767 -0.9770 -4.7404  0.5670
 3871SOL     OW23248   1.322   3.763  16.846 -0.1298  0.0301  0.3010
 3871SOL    HW123249   1.380   3.717  16.906 -1.2394 -1.9918 -0.1624
 3871SOL    HW223250   1.389   3.769  16.778 -0.2800 -1.1400  0.0578
 3872SOL     OW23251   3.086   3.990   8.983  0.2983 -0.6749 -0.0756
 3872SOL    HW123252   3.065   4.046   8.909  0.4893 -0.6473 -0.1102
 3872SOL    HW223253   3.172   4.031   8.995  0.1666  0.4419 -3.0444
 3873SOL     OW23254   2.915   0.929  16.340 -0.6823 -0.9376 -0.5859
 3873SOL    HW123255   2.930   0.927  16.435 -0.5792  0.2906 -0.5811
 3873SOL    HW223256   2.860   1.006  16.333  1.2919  0.3801 -1.5190
 3874SOL     OW23257   3.236   0.336  15.425 -0.2610 -0.0066 -0.8478
 3874SOL    HW123258   3.142   0.345  15.435 -0.3783 -0.9640 -1.0259
 3874SOL    HW223259   3.259   0.316  15.516  0.9363 -0.8550 -1.3278
 3875SOL     OW23260   1.299   1.644   9.097 -0.6769 -0.4708 -0.1011
 3875SOL    HW123261   1.266   1.717   9.045  1.6156 -0.0481 -0.9969
 3875SOL    HW223262   1.311   1.689   9.180 -1.6016 -1.6537  0.6631
 3876SOL     OW23263   0.241   2.240  10.808  0.2828  0.0121  0.3105
 3876SOL    HW123264   0.167   2.179  10.805  0.0402  0.5116 -3.2993
 3876SOL    HW223265   0.219   2.293  10.885 -0.7625 -0.4258  0.3190
 3877SOL     OW23266   0.931   0.249   2.305  0.2551 -0.2212 -0.8641
 3877SOL    HW123267   0.996   0.283   2.244  0.4058  0.1758 -0.4892
 3877SOL    HW223268   0.990   0.201   2.363 -1.2859 -1.7497 -0.5558
 3878SOL     OW23269   0.761   3.430  17.430  0.4110  0.1275 -0.1017
 3878SOL    HW123270   0.809   3.349  17.449 -1.8802 -1.0995  0.3814
 3878SOL    HW223271   0.818   3.496  17.391  1.6198 -0.7358  0.2066
 3879SOL     OW23272   4.606   2.435   6.623 -0.5483  0.5552 -1.0609
 3879SOL    HW123273   4.569   2.355   6.584  0.6665 -1.1352  1.2601
 3879SOL    HW223274   4.694   2.430   6.586  0.2160 -0.0984  0.8375
 3880SOL     OW23275   1.336   0.573   4.351  0.2094  0.2437  0.6536
 3880SOL    HW123276   1.399   0.552   4.420  0.2825  1.4100  0.9293
 3880SOL    HW223277   1.361   0.513   4.280 -3.1448 -2.3576  1.7125
 3881SOL     OW23278   0.442   0.961  17.340 -0.6903  0.3190  0.4361
 3881SOL    HW123279   0.497   0.894  17.381 -1.2226 -0.9528 -0.9356
 3881SOL    HW223280   0.474   0.970  17.250  0.3405  0.7518  0.8374
 3882SOL     OW23281   0.363   3.975  14.683 -0.1688 -0.1044  0.5138
 3882SOL    HW123282   0.402   3.914  14.746 -1.8616 -0.0062  1.6728
 3882SOL    HW223283   0.297   4.011  14.743 -0.9666  2.2233 -1.7574
 3883SOL     OW23284   3.108   2.227   6.220 -0.7056  0.5208  0.0518
 3883SOL    HW123285   3.148   2.255   6.137  0.4818 -0.8875  0.1632
 3883SOL    HW223286   3.022   2.268   6.209  0.1889  1.7517 -2.6446
 3884SOL     OW23287   4.274   2.981  16.112  0.2324  0.9678  0.3210
 3884SOL    HW123288   4.369   2.988  16.104  0.1385  0.7850 -0.9720
 3884SOL    HW223289   4.251   3.074  16.110  0.2853  0.9705 -0.2114
 3885SOL     OW23290   3.504   4.182  14.626  0.2597 -0.4743 -0.4054
 3885SOL    HW123291   3.452   4.124  14.681  1.5409 -0.2437  1.0523
 3885SOL    HW223292   3.474   4.161  14.537 -0.4879  2.0508 -0.7366
 3886SOL     OW23293   0.255   0.743   2.568 -0.8337  0.7718  0.5939
 3886SOL    HW123294   0.334   0.715   2.523 -0.5537 -0.6840  1.9752
 3886SOL    HW223295   0.204   0.662   2.566 -1.0096  0.8340  2.5131
 3887SOL     OW23296   2.014   2.446   2.448 -0.3257  0.4729  0.0208
 3887SOL    HW123297   2.057   2.390   2.513  0.7453 -0.0799 -1.1599
 3887SOL    HW223298   1.922   2.449   2.473  0.0432 -1.5843  1.7160
 3888SOL     OW23299   1.300   2.820   6.797 -0.2026  0.4709 -0.0838
 3888SOL    HW123300   1.280   2.726   6.794  0.8462  0.1923  1.8261
 3888SOL    HW223301   1.247   2.845   6.721 -1.1103 -1.4707 -0.0932
 3889SOL     OW23302   1.800   0.984  15.535  0.1941  0.4030 -0.1444
 3889SOL    HW123303   1.723   1.003  15.482 -0.0693 -1.4887 -0.4277
 3889SOL    HW223304   1.858   0.924  15.487  0.8183 -1.5565  3.1001
 3890SOL     OW23305   4.285   4.089   1.790 -0.4497  0.0811 -0.3042
 3890SOL    HW123306   4.270   4.182   1.776  0.0412  0.0450 -1.0909
 3890SOL    HW223307   4.325   4.084   1.877  0.5588 -0.9823 -0.8294
 3891SOL     OW23308   2.696   0.727   8.722  0.4093 -0.2319  0.0086
 3891SOL    HW123309   2.644   0.697   8.797  1.7922 -0.3175  0.9256
 3891SOL    HW223310   2.638   0.707   8.649 -0.7917 -0.8327  1.1291
 3892SOL     OW23311   2.917   2.517   8.593  0.6427  0.4679  0.0327
 3892SOL    HW123312   2.959   2.585   8.646 -0.2229  1.4040 -0.4777
 3892SOL    HW223313   2.953   2.516   8.504  0.4359  0.9368 -0.0579
 3893SOL     OW23314   2.102   3.538  16.941 -0.4860  0.0622  0.1178
 3893SOL    HW123315   2.079   3.631  16.946 -0.3414  0.2053 -1.8682
 3893SOL    HW223316   2.110   3.515  17.034  1.3491  0.9431  0.1777
 3894SOL     OW23317   3.142   4.234  16.908  0.7646  0.1259 -0.3152
 3894SOL    HW123318   3.203   4.185  16.964 -0.6413 -2.3765 -1.0004
 3894SOL    HW223319   3.188   4.236  16.824 -1.2088  0.4073 -1.3916
 3895SOL     OW23320   2.719   1.357  14.788  0.3005  0.6202 -0.6979
 3895SOL    HW123321   2.683   1.324  14.705  1.0302  0.3652 -0.9085
 3895SOL    HW223322   2.814   1.358  14.780  0.2858 -0.2321 -1.0111
 3896SOL     OW23323   3.368   4.237   9.717  0.3333  0.1308 -0.1265
 3896SOL    HW123324   3.376   4.289   9.637 -0.3494 -0.3259 -0.4943
 3896SOL    HW223325   3.284   4.268   9.750  0.3215  0.3270 -0.3451
 3897SOL     OW23326   4.703   1.425   5.482  0.4529  0.3556  0.0948
 3897SOL    HW123327   4.645   1.500   5.498  1.8336  1.3843  0.3083
 3897SOL    HW223328   4.640   1.354   5.475  0.5521  0.1740  1.0848
 3898SOL     OW23329   1.677   1.303  12.037 -0.1924 -0.1035 -0.0914
 3898SOL    HW123330   1.740   1.302  11.965 -0.6475  2.5217 -0.4925
 3898SOL    HW223331   1.591   1.305  11.997 -0.9325 -1.8676  1.3842
 3899SOL     OW23332   2.827   3.781   4.586 -0.4985 -0.5593  0.1471
 3899SOL    HW123333   2.810   3.699   4.540  0.3672  0.4577 -1.9925
 3899SOL    HW223334   2.866   3.835   4.517  3.6730 -0.8785  2.2522
 3900SOL     OW23335   2.928   3.280   9.768 -0.0596 -0.1275 -0.2047
 3900SOL    HW123336   2.969   3.351   9.818 -1.4547  0.8112 -0.3896
 3900SOL    HW223337   2.864   3.334   9.721  3.0170  2.2996 -1.5972
 3901SOL     OW23338   4.459   2.963   0.376 -0.1953  1.0869 -0.1010
 3901SOL    HW123339   4.511   3.012   0.312 -0.1134  1.9792  0.6452
 3901SOL    HW223340   4.485   3.008   0.457  0.9268  0.9631 -0.3895
 3902SOL     OW23341   3.642   1.985  11.690  0.2414  0.1146 -0.2287
 3902SOL    HW123342   3.685   1.940  11.763  0.1558  1.1823  0.4717
 3902SOL    HW223343   3.652   1.936  11.609  3.4729  0.2734  0.0851
 3903SOL     OW23344   4.725   0.605   2.027  0.1075 -0.2890 -0.5245
 3903SOL    HW123345   4.734   0.510   2.018  0.1964 -0.4081  0.9449
 3903SOL    HW223346   4.718   0.621   1.933  2.1104 -3.1900 -1.1564
 3904SOL     OW23347   0.074   3.233   6.774 -0.2090 -0.2452 -0.1473
 3904SOL    HW123348   0.010   3.299   6.802 -0.9641 -1.5233  1.1437
 3904SOL    HW223349   0.015   3.174   6.725 -2.5833  2.4188 -0.4959
 3905SOL     OW23350   1.886   3.582   1.026  0.4154  0.0150 -0.3421
 3905SOL    HW123351   1.877   3.498   1.071  0.0824 -1.0319 -2.3722
 3905SOL    HW223352   1.833   3.563   0.948 -2.0320 -0.9113  1.5505
 3906SOL     OW23353   4.160   2.781   3.723  0.1777  0.1084 -0.8078
 3906SOL    HW123354   4.104   2.739   3.789 -0.6828  1.6627 -0.5590
 3906SOL    HW223355   4.086   2.810   3.669  0.1788 -0.6491 -1.2270
 3907SOL     OW23356   3.247   0.366   7.823  0.6164  0.3281  0.4689
 3907SOL    HW123357   3.268   0.433   7.888 -1.6436  2.4418 -1.0160
 3907SOL    HW223358   3.170   0.320   7.858 -1.0066  3.0799  0.4966
 3908SOL     OW23359   2.101   0.742   4.733 -0.2299 -0.2707  0.0391
 3908SOL    HW123360   2.133   0.740   4.642 -1.9398 -3.0760 -0.4705
 3908SOL    HW223361   2.167   0.691   4.780 -1.7471 -0.5698  1.8109
 3909SOL     OW23362   1.351   4.056  15.635  0.8153  0.0081  0.4842
 3909SOL    HW123363   1.284   4.102  15.686 -0.3123  0.1676 -1.1317
 3909SOL    HW223364   1.427   4.112  15.651  0.5594  1.1062 -1.9863
 3910SOL     OW23365   4.521   4.435  13.855  0.1197  0.0121  0.2479
 3910SOL    HW123366   4.451   4.443  13.920  1.3311 -0.5224  1.6070
 3910SOL    HW223367   4.492   4.506  13.798  0.8025 -0.1604 -0.3190
 3911SOL     OW23368   1.865   1.058   3.552 -0.2916 -0.2037 -0.2358
 3911SOL    HW123369   1.945   1.006   3.548  1.0792  1.9531 -0.4472
 3911SOL    HW223370   1.882   1.140   3.507 -0.2223  0.1141  0.3707
 3912SOL     OW23371   3.410   0.465   0.021 -0.7220  0.7684  0.2177
 3912SOL    HW123372   3.414   0.531   0.090  0.7488 -0.0482  0.9285
 3912SOL    HW223373   3.493   0.486  17.735 -0.1639 -0.8988  0.4532
 3913SOL     OW23374   0.459   3.021   6.963 -0.1274 -0.5688 -0.4796
 3913SOL    HW123375   0.393   2.953   6.975  0.2036 -0.6804  0.7475
 3913SOL    HW223376   0.538   2.967   6.958  0.7657  0.7189 -0.5525
 3914SOL     OW23377   1.127   1.851   0.169 -0.5765 -0.0240  0.3464
 3914SOL    HW123378   1.142   1.761   0.198 -0.0478  0.2651  0.9622
 3914SOL    HW223379   1.121   1.880   0.260 -0.2204 -0.4247  0.4978
 3915SOL     OW23380   4.075   2.117  10.460 -0.0872  0.2420  0.0327
 3915SOL    HW123381   4.115   2.161  10.535  1.8289  0.5120 -1.1518
 3915SOL    HW223382   4.154   2.095  10.410  1.1815  1.1918  1.6072
 3916SOL     OW23383   0.058   1.576   4.918 -0.2511  0.0153  0.1373
 3916SOL    HW123384   4.717   1.562   4.968 -0.4966 -1.8934 -0.7889
 3916SOL    HW223385   0.042   1.661   4.879  1.6705  0.0225 -0.6259
 3917SOL     OW23386   0.886   2.209   2.262  0.1711 -0.0373  0.0846
 3917SOL    HW123387   0.814   2.202   2.325 -0.1387  0.0207 -0.2623
 3917SOL    HW223388   0.950   2.272   2.294 -0.8245  1.1942 -0.3466
 3918SOL     OW23389   2.605   1.271  13.277 -0.1439  0.0281 -0.0551
 3918SOL    HW123390   2.512   1.254  13.261  0.0176 -1.7374  0.9603
 3918SOL    HW223391   2.611   1.248  13.369  0.0020 -2.2541 -0.6373
 3919SOL     OW23392   1.365   0.609  16.525  0.3024 -0.5317 -0.4874
 3919SOL    HW123393   1.333   0.686  16.478  0.0826  0.5176  1.3873
 3919SOL    HW223394   1.442   0.647  16.568 -1.7005  1.3701  1.4674
 3920SOL     OW23395   2.085   3.938   3.071  0.1927  0.5990 -0.3386
 3920SOL    HW123396   2.012   3.877   3.085  0.5404  0.8011  2.4392
 3920SOL    HW223397   2.159   3.883   3.045 -1.1616 -0.9535 -0.9112
 3921SOL     OW23398   2.461   2.165   3.750  0.3319  0.2104  0.7972
 3921SOL    HW123399   2.465   2.185   3.844  0.8923  0.3440  0.7450
 3921SOL    HW223400   2.516   2.228   3.703  2.6002 -0.8429  2.0500
 3922SOL     OW23401   3.959   4.244   1.807  0.2128  0.0771 -0.2745
 3922SOL    HW123402   3.974   4.166   1.755  0.3073  0.2347 -0.4815
 3922SOL    HW223403   3.980   4.222   1.898 -1.4690  1.2241  0.4031
 3923SOL     OW23404   2.628   1.267   6.278  0.0643  0.6277  0.1088
 3923SOL    HW123405   2.697   1.296   6.217 -0.1485 -3.0972 -1.9485
 3923SOL    HW223406   2.672   1.259   6.362 -0.5127  0.4650  0.3926
 3924SOL     OW23407   2.785   2.509   2.375  0.2564  0.8403 -0.2626
 3924SOL    HW123408   2.750   2.595   2.397 -0.9210  0.0351  1.0283
 3924SOL    HW223409   2.737   2.494   2.293  0.5282  0.3646 -0.3360
 3925SOL     OW23410   2.324   1.162   8.947 -0.7874 -0.6633 -0.3391
 3925SOL    HW123411   2.413   1.180   8.978 -1.4141 -0.3173  1.2669
 3925SOL    HW223412   2.344   1.071   8.927 -1.4047 -1.0443  0.7596
 3926SOL     OW23413   2.627   0.993   5.888 -0.0990 -0.1924 -0.0059
 3926SOL    HW123414   2.567   0.934   5.843 -2.8611  2.4820  0.2291
 3926SOL    HW223415   2.572   1.067   5.912 -0.1370  0.9727 -3.6997
 3927SOL     OW23416   2.520   0.695   2.696  0.7321  0.2074  0.4346
 3927SOL    HW123417   2.601   0.646   2.708  0.0577 -1.1219 -0.4698
 3927SOL    HW223418   2.550   0.736   2.615 -0.8200  0.2124 -0.1385
 3928SOL     OW23419   3.958   4.279  14.791  0.8509  0.1720 -0.1626
 3928SOL    HW123420   4.022   4.347  14.807  0.6209  0.1864  0.6666
 3928SOL    HW223421   4.016   4.207  14.765  1.1392  0.8521 -1.3895
 3929SOL     OW23422   1.329   1.709  13.726  0.3471 -0.1080 -0.0873
 3929SOL    HW123423   1.306   1.798  13.698  0.7745 -0.2612 -0.9217
 3929SOL    HW223424   1.341   1.724  13.820 -1.2928  1.7743 -0.1810
 3930SOL     OW23425   3.686   1.507  11.846  0.5849 -0.4126 -0.5517
 3930SOL    HW123426   3.626   1.517  11.920  1.7786 -0.8440  0.4897
 3930SOL    HW223427   3.759   1.559  11.882 -1.2549 -0.4143  3.2099
 3931SOL     OW23428   2.026   1.309   3.414 -0.1681 -0.0672  0.3859
 3931SOL    HW123429   1.998   1.392   3.376  1.6027 -1.2241 -3.5107
 3931SOL    HW223430   1.995   1.259   3.338  0.8311 -0.5144  0.2658
 3932SOL     OW23431   1.186   3.043  16.281  0.6421  0.1785  0.1084
 3932SOL    HW123432   1.120   3.000  16.336 -0.4679 -0.0179 -1.3562
 3932SOL    HW223433   1.269   2.996  16.286 -0.1386 -1.3947 -1.3784
 3933SOL     OW23434   2.631   0.499   6.874 -0.2425  0.4400 -0.0195
 3933SOL    HW123435   2.668   0.430   6.929 -2.2156 -1.9787 -1.7639
 3933SOL    HW223436   2.705   0.561   6.877  0.7068 -0.7042  0.2500
 3934SOL     OW23437   1.407   3.254   3.459 -0.0031  0.2085  0.1448
 3934SOL    HW123438   1.378   3.210   3.379 -2.7786  1.0693  0.6922
 3934SOL    HW223439   1.354   3.333   3.458  0.6867  0.6839  1.0732
 3935SOL     OW23440   1.765   2.142   8.071 -0.2683  0.5497 -0.3653
 3935SOL    HW123441   1.856   2.142   8.101 -0.3119  1.4602 -0.2453
 3935SOL    HW223442   1.768   2.134   7.976 -1.0754  0.0971 -0.3502
 3936SOL     OW23443   3.391   3.975   8.218 -0.1514 -0.1565 -0.0590
 3936SOL    HW123444   3.467   3.992   8.162 -0.7717 -1.6159 -1.3548
 3936SOL    HW223445   3.378   4.064   8.251 -0.8596 -0.1200 -0.4393
 3937SOL     OW23446   2.696   2.404   1.750 -0.0937  0.2126  0.7770
 3937SOL    HW123447   2.774   2.371   1.795 -0.2377 -3.0701 -1.3683
 3937SOL    HW223448   2.642   2.326   1.736 -1.3454  1.1698  0.2108
 3938SOL     OW23449   0.358   4.716  11.924 -0.2711 -0.3286 -0.3375
 3938SOL    HW123450   0.403   4.697  11.842 -0.9325  1.3399 -1.0705
 3938SOL    HW223451   0.357   4.631  11.968  1.3372 -1.2914 -2.1894
 3939SOL     OW23452   3.218   4.306   4.969 -0.1631 -0.3600  0.4032
 3939SOL    HW123453   3.159   4.260   5.029  1.1441 -1.0713  1.1597
 3939SOL    HW223454   3.161   4.378   4.945  0.2315 -0.6522 -1.4156
 3940SOL     OW23455   2.051   1.112   7.917  0.3535  0.6780  0.4425
 3940SOL    HW123456   2.054   1.063   7.999 -1.5679  0.4430  0.3700
 3940SOL    HW223457   1.976   1.064   7.882 -0.3590  1.3550  1.0182
 3941SOL     OW23458   4.058   4.706   1.806 -0.1412  0.1281 -0.2049
 3941SOL    HW123459   4.118   4.691   1.733 -0.5469  1.2694 -0.7743
 3941SOL    HW223460   4.105   4.676   1.884 -0.7112 -1.0561 -0.3049
 3942SOL     OW23461   3.263   2.056   5.568 -0.3878  0.0842  0.0752
 3942SOL    HW123462   3.229   2.144   5.586 -0.7438 -0.3437  1.5320
 3942SOL    HW223463   3.201   1.994   5.607 -0.7326  0.0972 -0.4522
 3943SOL     OW23464   2.044   1.152   1.251  0.7996 -0.3887  0.5682
 3943SOL    HW123465   1.957   1.113   1.246  0.1171  1.0522  1.1128
 3943SOL    HW223466   2.094   1.071   1.241 -0.8926 -1.0858 -2.1236
 3944SOL     OW23467   3.105   4.467  13.641  0.0897  0.1885  0.9019
 3944SOL    HW123468   3.050   4.544  13.656  2.3290  1.8448  0.7410
 3944SOL    HW223469   3.194   4.494  13.664  1.0068 -2.2794  0.2480
 3945SOL     OW23470   2.203   4.046   4.820  0.6372 -0.4427 -0.5047
 3945SOL    HW123471   2.128   3.988   4.831  0.4113 -0.4696 -2.2543
 3945SOL    HW223472   2.206   4.048   4.725  1.8091  0.0505 -0.4562
 3946SOL     OW23473   0.981   4.178   4.793 -0.0911  0.2616 -0.1843
 3946SOL    HW123474   0.936   4.109   4.746  0.2171 -0.5812  0.7487
 3946SOL    HW223475   0.998   4.129   4.874  2.7110  0.4660 -0.6225
 3947SOL     OW23476   2.091   1.313   4.639 -0.1151  0.5071  0.0626
 3947SOL    HW123477   2.156   1.342   4.703 -1.3425  0.6779  1.2070
 3947SOL    HW223478   2.090   1.383   4.574 -0.3894 -0.2055 -0.7166
 3948SOL     OW23479   2.387   0.847  16.930 -0.2676 -0.2177 -0.5595
 3948SOL    HW123480   2.317   0.790  16.897 -0.4749 -0.8472  0.9520
 3948SOL    HW223481   2.456   0.782  16.945  0.9140  0.9377 -1.0577
 3949SOL     OW23482   0.979   2.156   1.456 -0.2322 -0.1929 -1.2436
 3949SOL    HW123483   1.016   2.136   1.542  1.7907  1.0826 -1.8145
 3949SOL    HW223484   0.993   2.251   1.463 -0.1750 -0.2007 -1.2590
 3950SOL     OW23485   0.694   3.369  16.302 -0.2957  0.2023 -0.4318
 3950SOL    HW123486   0.626   3.403  16.360  0.5919  2.0619 -0.4730
 3950SOL    HW223487   0.661   3.391  16.214  0.2765  0.5395 -0.5621
 3951SOL     OW23488   4.592   2.122   8.444 -0.1519  0.1159  0.2666
 3951SOL    HW123489   4.624   2.204   8.407  0.2825 -0.3441 -0.3864
 3951SOL    HW223490   4.510   2.158   8.477 -1.6832  0.1463 -3.5296
 3952SOL     OW23491   0.360   3.798   2.092 -0.2737  0.5619 -0.2792
 3952SOL    HW123492   0.344   3.877   2.144 -0.2455 -0.3759  1.1625
 3952SOL    HW223493   0.450   3.772   2.111  0.0682  0.4828 -2.0363
 3953SOL     OW23494   2.607   1.299   1.625  0.4042  0.2389  0.2304
 3953SOL    HW123495   2.628   1.213   1.663  1.2476  0.6036  0.5841
 3953SOL    HW223496   2.691   1.328   1.589  0.3818  2.4250  1.9622
 3954SOL     OW23497   4.240   2.505   8.085  0.2402 -0.0887  0.3088
 3954SOL    HW123498   4.156   2.521   8.041 -0.1618  2.2641  1.9247
 3954SOL    HW223499   4.225   2.419   8.123  1.1713  0.3047  1.5682
 3955SOL     OW23500   0.610   3.964   8.973 -0.6116  0.5080 -0.1224
 3955SOL    HW123501   0.560   4.019   9.033  0.0259  0.2213  0.6834
 3955SOL    HW223502   0.561   3.883   8.985  2.4559 -1.2690  0.3787
 3956SOL     OW23503   2.142   1.367  10.688 -0.2638 -0.3969 -0.5864
 3956SOL    HW123504   2.068   1.425  10.671  0.8346  1.2757  0.3474
 3956SOL    HW223505   2.191   1.408  10.760 -0.0395 -0.6756 -0.5791
 3957SOL     OW23506   4.549   0.347   1.628  0.2070 -0.2167 -0.1893
 3957SOL    HW123507   4.588   0.309   1.550 -0.5813  1.5154 -1.4168
 3957SOL    HW223508   4.510   0.268   1.666  1.7911 -1.7477 -1.7757
 3958SOL     OW23509   1.276   3.947  15.919 -0.8549  0.2675 -0.2364
 3958SOL    HW123510   1.335   4.000  15.866  1.0760 -0.1743  1.4348
 3958SOL    HW223511   1.204   3.926  15.859 -1.2871  1.3666 -0.1052
 3959SOL     OW23512   2.101   3.263   2.030 -0.1395  0.5192  0.5852
 3959SOL    HW123513   2.149   3.335   1.988  2.1861 -2.8333 -2.4941
 3959SOL    HW223514   2.084   3.203   1.957 -0.2032 -0.2631  1.2475
 3960SOL     OW23515   2.762   3.250  14.173  0.3369 -0.0758  0.3321
 3960SOL    HW123516   2.840   3.202  14.145  1.8348  1.5265  1.8230
 3960SOL    HW223517   2.751   3.216  14.261 -0.9235 -0.7435 -0.0757
 3961SOL     OW23518   3.802   2.401   9.414 -0.0748 -0.2302 -0.2968
 3961SOL    HW123519   3.805   2.349   9.495 -0.3142  0.7855  0.3711
 3961SOL    HW223520   3.858   2.474   9.440  1.4507 -1.4265 -0.2030
 3962SOL     OW23521   1.105   3.235   1.416  0.1641 -0.4990 -0.2281
 3962SOL    HW123522   1.059   3.165   1.369 -1.3876 -0.6248  1.4668
 3962SOL    HW223523   1.196   3.205   1.419  0.2613 -0.1564  0.4110
 3963SOL     OW23524   2.603   4.202   0.571 -0.0375  0.3872  0.2230
 3963SOL    HW123525   2.682   4.252   0.553  0.6508 -0.3673  1.1494
 3963SOL    HW223526   2.540   4.274   0.580  0.7650  1.0015  0.9242
 3964SOL     OW23527   2.696   3.784   6.321  0.6453  0.2062 -0.3766
 3964SOL    HW123528   2.629   3.843   6.356  0.3353 -0.2472 -0.1986
 3964SOL    HW223529   2.653   3.699   6.314  0.8940  0.2017 -1.7771
 3965SOL     OW23530   0.203   3.757   0.885 -0.5173  0.0669 -0.1796
 3965SOL    HW123531   0.203   3.783   0.793  0.1554 -0.0448 -0.2073
 3965SOL    HW223532   0.116   3.720   0.899 -0.1287 -0.0396  1.9595
 3966SOL     OW23533   0.911   3.426   7.033 -0.2216  0.0538  0.8319
 3966SOL    HW123534   0.949   3.508   7.003 -2.2683 -0.1378 -2.2604
 3966SOL    HW223535   0.819   3.453   7.040 -0.3462  0.9747 -4.3623
 3967SOL     OW23536   0.413   4.421   6.801 -0.3626 -0.0754 -0.0685
 3967SOL    HW123537   0.438   4.503   6.842  0.4235  0.6715 -2.0346
 3967SOL    HW223538   0.326   4.447   6.771  0.8926  1.0876 -2.7721
 3968SOL     OW23539   0.234   3.139   4.943 -0.6359 -0.0084 -0.3393
 3968SOL    HW123540   0.165   3.101   4.998 -1.5509  2.0031 -0.0802
 3968SOL    HW223541   0.262   3.057   4.903  0.9163 -0.0777  0.9000
 3969SOL     OW23542   3.605   0.314   5.185 -0.0960  0.4829 -0.3939
 3969SOL    HW123543   3.538   0.257   5.222 -0.8784  1.9275  0.4537
 3969SOL    HW223544   3.565   0.336   5.101  1.6372  0.7788 -1.1419
 3970SOL     OW23545   1.147   2.663  10.573 -0.0267 -0.0182  0.0059
 3970SOL    HW123546   1.199   2.708  10.639  0.4125  0.3606 -0.5983
 3970SOL    HW223547   1.092   2.604  10.625  0.8636 -0.8107  0.0364
 3971SOL     OW23548   2.735   3.906   9.488 -0.3865  0.2766  0.0492
 3971SOL    HW123549   2.789   3.851   9.431  0.8214  1.4332  0.0717
 3971SOL    HW223550   2.778   3.991   9.493  0.2173  0.0430 -1.0665
 3972SOL     OW23551   2.330   0.499  16.787  0.2108 -0.2831  0.4493
 3972SOL    HW123552   2.282   0.417  16.794  1.6105 -1.1536 -0.0591
 3972SOL    HW223553   2.260   0.564  16.795 -0.2420 -0.5899 -1.0058
 3973SOL     OW23554   2.688   4.334   9.601 -0.2887 -0.3822 -0.4625
 3973SOL    HW123555   2.742   4.386   9.542 -0.8905 -1.3908 -1.9100
 3973SOL    HW223556   2.622   4.298   9.541 -1.5157  0.7224  0.2126
 3974SOL     OW23557   2.435   2.728   8.341 -0.2483  0.5210 -0.6267
 3974SOL    HW123558   2.392   2.686   8.267  0.7945 -0.1865 -0.8383
 3974SOL    HW223559   2.370   2.707   8.408  1.8449 -2.5164  0.4658
 3975SOL     OW23560   3.720   3.570   8.397 -0.4882  0.0426  0.2474
 3975SOL    HW123561   3.779   3.568   8.472 -0.8381 -0.1921  0.5131
 3975SOL    HW223562   3.772   3.621   8.335 -0.4842  0.0029  0.2181
 3976SOL     OW23563   1.549   3.451   5.081  0.1821 -0.3992  0.5268
 3976SOL    HW123564   1.472   3.454   5.025  1.4979 -0.1144 -1.2767
 3976SOL    HW223565   1.529   3.525   5.138  0.0349  0.7277 -0.9715
 3977SOL     OW23566   3.338   1.491   7.899  0.5497  0.2207 -0.0478
 3977SOL    HW123567   3.369   1.450   7.980 -0.1761 -0.3006 -0.0291
 3977SOL    HW223568   3.419   1.493   7.848  1.2932 -0.0519  1.1293
 3978SOL     OW23569   4.364   3.921   7.012  0.0983 -0.3946  0.1661
 3978SOL    HW123570   4.431   3.968   7.062 -0.1590 -0.1278  0.2560
 3978SOL    HW223571   4.318   3.876   7.083 -0.5343 -1.0617 -0.6653
 3979SOL     OW23572   2.458   1.458   1.763 -0.1540  0.1664  0.2666
 3979SOL    HW123573   2.395   1.476   1.693  0.0649 -2.6892 -0.6623
 3979SOL    HW223574   2.516   1.395   1.721 -0.1131 -1.3391  2.5878
 3980SOL     OW23575   3.963   3.236  13.678 -0.4620 -0.1769 -0.1965
 3980SOL    HW123576   3.983   3.145  13.701 -2.7253 -0.4588  0.6846
 3980SOL    HW223577   4.025   3.287  13.730  1.1554 -3.3393  1.0348
 3981SOL     OW23578   4.528   1.524  10.300  0.2108 -0.2673 -0.3425
 3981SOL    HW123579   4.453   1.500  10.245 -1.0691 -0.3733  1.4628
 3981SOL    HW223580   4.599   1.522  10.236  0.8470  1.8732  0.2813
 3982SOL     OW23581   3.971   3.104  12.947  0.8724  0.4080 -0.4143
 3982SOL    HW123582   3.946   3.195  12.965  0.4903  0.5137 -1.4465
 3982SOL    HW223583   3.956   3.058  13.029  0.4378  1.3875  0.0606
 3983SOL     OW23584   3.670   3.500  17.563  0.4956  0.2356 -0.7238
 3983SOL    HW123585   3.660   3.416  17.608 -0.5185  0.0489 -1.2800
 3983SOL    HW223586   3.719   3.468  17.487  0.1568  0.5232 -1.0604
 3984SOL     OW23587   0.368   1.364  16.096 -0.1280 -0.5076 -0.3708
 3984SOL    HW123588   0.378   1.360  16.191 -0.5212 -0.9381 -0.3440
 3984SOL    HW223589   0.429   1.431  16.068 -1.4177  1.7423  2.1989
 3985SOL     OW23590   2.670   2.587  13.599  0.0464 -0.1526 -0.5868
 3985SOL    HW123591   2.727   2.533  13.545  3.6956  0.7253  2.3827
 3985SOL    HW223592   2.713   2.577  13.684 -2.2273  0.8029  0.6914
 3986SOL     OW23593   2.978   1.948  11.014 -0.1980  0.4802  0.0873
 3986SOL    HW123594   2.984   1.969  11.107 -0.9467 -1.5414  0.5884
 3986SOL    HW223595   3.014   2.033  10.989 -1.4176  1.6139  2.2363
 3987SOL     OW23596   3.767   2.408   7.746 -0.0916  0.5229  0.3643
 3987SOL    HW123597   3.677   2.439   7.750 -0.2071  0.3808 -1.0050
 3987SOL    HW223598   3.772   2.312   7.748 -2.3502  0.3734 -0.6986
 3988SOL     OW23599   2.576   4.422   3.918  0.3222 -0.2016  0.4651
 3988SOL    HW123600   2.531   4.340   3.896 -1.1655  0.4355  1.1481
 3988SOL    HW223601   2.546   4.479   3.847 -1.1663 -1.1113  0.3705
 3989SOL     OW23602   1.208   2.667  10.306 -0.1821 -0.3519  0.7351
 3989SOL    HW123603   1.185   2.664  10.399  1.2752 -1.4847  1.0713
 3989SOL    HW223604   1.246   2.579  10.297  1.6822  0.5188 -0.0010
 3990SOL     OW23605   2.664   3.213   2.764 -0.3376 -0.4065 -0.2238
 3990SOL    HW123606   2.692   3.256   2.684  0.7503 -1.0934 -0.2211
 3990SOL    HW223607   2.649   3.290   2.819 -0.6370  1.1426 -2.4901
 3991SOL     OW23608   0.281   3.193   7.756 -0.2600  0.4579  0.6750
 3991SOL    HW123609   0.321   3.209   7.841  0.6993 -1.0812  0.5045
 3991SOL    HW223610   0.202   3.246   7.770  0.7195  1.6722  1.5828
 3992SOL     OW23611   0.465   3.050  13.362  0.1328  0.9162 -0.0735
 3992SOL    HW123612   0.375   3.021  13.377  0.5923  0.9026  2.7314
 3992SOL    HW223613   0.491   3.011  13.279  0.1586  1.9419 -0.5344
 3993SOL     OW23614   2.556   2.365   9.452  0.1831 -0.0979 -0.6537
 3993SOL    HW123615   2.640   2.352   9.408  0.6068 -1.2832  0.4929
 3993SOL    HW223616   2.586   2.379   9.542  0.2929 -1.9093 -0.4035
 3994SOL     OW23617   2.490   0.109  16.618  0.0133 -0.2747 -0.7950
 3994SOL    HW123618   2.528   0.139  16.701  1.5829 -0.9528 -1.2619
 3994SOL    HW223619   2.503   0.184  16.561  2.1221  0.7649  1.0686
 3995SOL     OW23620   2.684   4.560   8.374 -0.6962 -0.1359  0.0684
 3995SOL    HW123621   2.670   4.641   8.324 -0.5354 -0.7057 -0.9142
 3995SOL    HW223622   2.679   4.599   8.461 -0.3862  2.0606 -0.8758
 3996SOL     OW23623   0.644   0.422   4.001 -0.1589  0.3012  0.8672
 3996SOL    HW123624   0.704   0.492   4.030  0.9199 -1.2981  2.5205
 3996SOL    HW223625   0.613   0.437   3.912  1.3773  0.8177  0.4062
 3997SOL     OW23626   1.546   1.046   5.052 -0.0066  1.2449 -0.0960
 3997SOL    HW123627   1.635   1.050   5.088 -0.0273  0.1781  0.0740
 3997SOL    HW223628   1.555   1.082   4.964  0.5932 -1.1930 -1.0083
 3998SOL     OW23629   2.968   0.186   6.661  0.4265  0.3861 -0.1217
 3998SOL    HW123630   2.993   0.216   6.748  2.5751  0.5280 -0.7795
 3998SOL    HW223631   2.910   0.257   6.632 -1.6821 -1.5147 -0.5309
 3999SOL     OW23632   1.043   4.655   2.936  0.1168 -0.1372  0.3294
 3999SOL    HW123633   1.019   4.642   3.028 -2.4205 -1.8369 -0.5875
 3999SOL    HW223634   1.058   0.010   2.935 -2.2715  0.2413  1.3450
 4000SOL     OW23635   3.606   3.852  16.875 -0.5737 -0.3397  0.0668
 4000SOL    HW123636   3.655   3.934  16.869 -0.9206 -0.1915 -0.7893
 4000SOL    HW223637   3.536   3.874  16.813 -1.9675  0.3120  1.8578
 4001SOL     OW23638   1.173   4.389   6.730  0.8324  0.1721  0.4774
 4001SOL    HW123639   1.111   4.379   6.803 -0.4807  0.6549 -0.5882
 4001SOL    HW223640   1.123   4.430   6.660  0.4137 -1.2265 -0.0360
 4002SOL     OW23641   0.825   2.380   1.211 -0.9256  0.8328 -0.4149
 4002SOL    HW123642   0.910   2.374   1.254 -1.0753  0.5461 -0.1588
 4002SOL    HW223643   0.831   2.297   1.163 -3.0250  0.7104 -0.4876
 4003SOL     OW23644   0.271   3.899   3.173 -0.3952 -0.0186  0.1169
 4003SOL    HW123645   0.276   3.824   3.232  0.0800  0.9807  1.3744
 4003SOL    HW223646   0.355   3.944   3.180 -0.9969  1.5504 -2.7766
 4004SOL     OW23647   2.491   0.658   3.478  0.5231  0.0998  0.0187
 4004SOL    HW123648   2.398   0.637   3.471  1.1387 -2.4482 -0.6342
 4004SOL    HW223649   2.532   0.587   3.427  0.4741  1.1235 -1.4614
 4005SOL     OW23650   1.697   0.107   2.558  0.1995  0.2111 -0.1813
 4005SOL    HW123651   1.616   0.124   2.606 -0.7457  0.9548 -2.0391
 4005SOL    HW223652   1.734   0.032   2.603 -0.6058  0.1954  0.4490
 4006SOL     OW23653   2.730   1.050   7.080  0.2651 -0.3023  0.4625
 4006SOL    HW123654   2.808   1.105   7.084 -1.2352  1.9772 -1.3043
 4006SOL    HW223655   2.691   1.080   6.997  0.3074 -1.3086  0.0848
 4007SOL     OW23656   3.283   3.559   0.382 -0.1922 -0.0682  0.4548
 4007SOL    HW123657   3.202   3.598   0.351 -0.7294 -0.7115  1.0476
 4007SOL    HW223658   3.331   3.636   0.413 -0.0109  0.2296 -0.5705
 4008SOL     OW23659   0.005   4.238  15.255 -0.0029  0.4525  0.2600
 4008SOL    HW123660   0.084   4.186  15.273 -0.3868  0.2150  1.2528
 4008SOL    HW223661   0.015   4.318  15.306  2.4165 -0.5865  1.4036
 4009SOL     OW23662   3.642   2.414  17.405 -0.0454 -0.3363  0.4743
 4009SOL    HW123663   3.688   2.417  17.322  1.0132 -4.7437  0.9434
 4009SOL    HW223664   3.644   2.323  17.433 -0.5846 -0.5030 -0.0267
 4010SOL     OW23665   0.022   1.840  12.179 -0.5451  0.3122 -0.0197
 4010SOL    HW123666   4.714   1.834  12.261 -0.3405  1.5889  0.1893
 4010SOL    HW223667   0.113   1.830  12.209 -0.7392  1.6880  0.9917
 4011SOL     OW23668   4.135   2.391  17.326  0.0380  0.2604  0.2701
 4011SOL    HW123669   4.202   2.437  17.376  0.9371 -1.6859  0.8373
 4011SOL    HW223670   4.055   2.396  17.378  0.8397  0.9438  1.4327
 4012SOL     OW23671   4.701   4.223  17.409  0.2876 -0.4619  0.8891
 4012SOL    HW123672   4.707   4.171  17.489  1.5540 -1.4667  0.1202
 4012SOL    HW223673   4.722   4.311  17.441 -1.3449 -0.9369  3.2695
 4013SOL     OW23674   3.039   1.267  16.581  0.4625  0.0017  0.1809
 4013SOL    HW123675   3.071   1.178  16.569 -0.8458 -0.3121 -0.9963
 4013SOL    HW223676   3.007   1.286  16.493 -0.1366 -1.6640  0.0526
 4014SOL     OW23677   0.240   3.369   9.802  0.2834 -0.4327  0.1096
 4014SOL    HW123678   0.258   3.423   9.880 -2.5250  0.1138  0.3868
 4014SOL    HW223679   0.195   3.427   9.740 -0.6768  0.2025  1.3788
 4015SOL     OW23680   2.420   3.313   9.090 -0.6044  0.0974 -0.8709
 4015SOL    HW123681   2.475   3.321   9.012 -1.1178  3.0028 -0.9477
 4015SOL    HW223682   2.486   3.321   9.159 -1.5270 -1.2683  0.1619
 4016SOL     OW23683   1.719   1.911   8.200  0.1209 -0.4771  0.0979
 4016SOL    HW123684   1.748   1.989   8.153  0.4548 -0.4453  0.3555
 4016SOL    HW223685   1.781   1.841   8.177  0.5618 -0.5571  1.5015
 4017SOL     OW23686   3.844   4.428   4.677 -0.5122  0.2217  0.2233
 4017SOL    HW123687   3.843   4.333   4.689 -1.2904  0.5861  3.1593
 4017SOL    HW223688   3.765   4.427   4.622 -1.0823  1.0707  1.0211
 4018SOL     OW23689   3.591   1.164   3.547  0.1722  0.6196  0.1260
 4018SOL    HW123690   3.677   1.200   3.526  1.1803 -0.8290  1.7713
 4018SOL    HW223691   3.556   1.237   3.597  2.1482  2.1552 -0.7198
 4019SOL     OW23692   4.161   4.679  13.402  0.0598 -0.3290  0.4009
 4019SOL    HW123693   4.082   4.661  13.452  0.2282 -1.3267  0.3196
 4019SOL    HW223694   4.147   4.620  13.327  1.4866  0.5916 -0.6088
 4020SOL     OW23695   1.378   2.192   3.736  0.4555 -0.0263 -0.0589
 4020SOL    HW123696   1.363   2.205   3.642 -1.7481  1.9618  0.5562
 4020SOL    HW223697   1.420   2.274   3.763 -0.9202  0.2043  1.3973
 4021SOL     OW23698   0.781   4.241  16.630 -0.3932  0.4439 -0.4289
 4021SOL    HW123699   0.800   4.152  16.659 -0.1758  1.0506  1.3273
 4021SOL    HW223700   0.813   4.241  16.540 -0.8282  0.2068 -0.5821
 4022SOL     OW23701   1.343   2.780   9.044  0.1995 -0.1967 -0.2762
 4022SOL    HW123702   1.292   2.852   9.006 -0.1883  0.7065  1.9420
 4022SOL    HW223703   1.279   2.715   9.016  0.8758 -1.2297  0.5927
 4023SOL     OW23704   3.564   3.391  16.656 -0.1980  0.3382  0.0598
 4023SOL    HW123705   3.656   3.393  16.680 -0.0678 -2.1634 -0.2492
 4023SOL    HW223706   3.559   3.436  16.571 -0.7233 -0.0036 -0.0902
 4024SOL     OW23707   0.929   3.528   1.848 -0.7755 -0.6521  0.0141
 4024SOL    HW123708   0.841   3.509   1.813 -0.1879 -1.4988 -1.0223
 4024SOL    HW223709   0.963   3.582   1.776 -1.2214  0.4543  0.6428
 4025SOL     OW23710   0.288   3.610  12.795 -0.2085 -0.1426  0.0833
 4025SOL    HW123711   0.284   3.543  12.727 -0.0673  3.0853 -3.1604
 4025SOL    HW223712   0.214   3.661  12.764 -0.2210  1.5802  2.9391
 4026SOL     OW23713   2.622   1.098   6.696  0.2140 -0.5014 -0.1059
 4026SOL    HW123714   2.585   1.159   6.760 -0.4725 -1.3464  0.3055
 4026SOL    HW223715   2.662   1.151   6.627  1.0556  1.8237  2.1679
 4027SOL     OW23716   4.159   0.973   0.799  0.0191 -0.5750  0.0157
 4027SOL    HW123717   4.175   0.924   0.718  1.6800 -0.8234  0.4899
 4027SOL    HW223718   4.228   0.941   0.857  0.5536  2.2843  0.9760
 4028SOL     OW23719   0.001   4.438   3.440 -0.1185  0.2695 -0.1313
 4028SOL    HW123720   0.016   4.512   3.381  1.4232  0.4520  0.4920
 4028SOL    HW223721   4.645   4.434   3.438  0.0029 -2.8616  1.1451
 4029SOL     OW23722   1.041   3.359  17.341  0.6932  0.2565 -0.1228
 4029SOL    HW123723   1.086   3.287  17.386 -0.1021 -0.4278 -0.4144
 4029SOL    HW223724   0.984   3.304  17.287  2.2312 -0.4599 -1.0255
 4030SOL     OW23725   3.103   1.010   3.350  0.6572  0.2804 -0.6689
 4030SOL    HW123726   3.013   0.986   3.329 -0.3840  3.2762  0.3709
 4030SOL    HW223727   3.122   1.067   3.275  2.5988 -0.2394 -0.5616
 4031SOL     OW23728   3.119   1.690  12.747 -0.1402 -0.2889  0.4257
 4031SOL    HW123729   3.159   1.777  12.753  0.3426 -0.6032  1.7952
 4031SOL    HW223730   3.160   1.673  12.662  1.7180  0.3606  1.1899
 4032SOL     OW23731   3.350   0.653   4.363 -0.3648 -0.2134  0.5384
 4032SOL    HW123732   3.303   0.643   4.446  0.4817 -4.8745  0.4336
 4032SOL    HW223733   3.389   0.740   4.356 -0.0433 -0.3439  0.7510
 4033SOL     OW23734   4.134   0.081   3.557  0.0003  0.2390 -0.3797
 4033SOL    HW123735   4.151   4.737   3.599 -2.3812 -0.3422 -0.5830
 4033SOL    HW223736   4.040   0.072   3.542  0.1609 -0.7360 -0.7670
 4034SOL     OW23737   3.222   2.099   2.978  0.5198  0.1179  0.5116
 4034SOL    HW123738   3.194   2.100   3.069  0.9394  0.7483  0.6337
 4034SOL    HW223739   3.154   2.048   2.933 -0.3088  2.0888 -0.5267
 4035SOL     OW23740   0.263   2.229   8.120 -0.0922  0.2577 -0.3702
 4035SOL    HW123741   0.254   2.141   8.084 -0.2609 -0.3028  1.0378
 4035SOL    HW223742   0.274   2.276   8.037 -1.1578  0.4504 -0.3997
 4036SOL     OW23743   1.339   4.620   6.807  0.3675 -0.5322 -0.3195
 4036SOL    HW123744   1.412   4.598   6.749  1.6985  1.9264  0.4401
 4036SOL    HW223745   1.272   4.558   6.776 -0.0049 -0.1028 -0.3799
 4037SOL     OW23746   3.127   0.595  14.328  0.3341 -0.4174 -0.1493
 4037SOL    HW123747   3.097   0.524  14.270 -0.8748  0.3026 -0.4170
 4037SOL    HW223748   3.045   0.643  14.342  0.0768 -1.3099  1.3783
 4038SOL     OW23749   0.008   3.873  13.349 -0.1505  0.6155 -0.5327
 4038SOL    HW123750   0.018   3.951  13.294  1.5010  1.1714  0.5395
 4038SOL    HW223751   0.099   3.849  13.366  0.3099  2.4873 -0.4436
 4039SOL     OW23752   4.459   3.333   2.398  0.5609 -0.2756 -0.1479
 4039SOL    HW123753   4.433   3.242   2.408  0.2359 -0.5333 -3.3578
 4039SOL    HW223754   4.549   3.321   2.427  0.1350  0.0543  1.3302
 4040SOL     OW23755   1.347   3.384  16.645 -0.1311  0.5335 -0.1984
 4040SOL    HW123756   1.419   3.365  16.704 -0.8154 -3.1642 -0.5746
 4040SOL    HW223757   1.277   3.412  16.703 -1.3320 -2.9281  0.0338
 4041SOL     OW23758   3.858   1.192   3.484  0.3244 -0.0719  0.3931
 4041SOL    HW123759   3.933   1.133   3.476  0.5545 -0.0957  2.9832
 4041SOL    HW223760   3.889   1.275   3.449  2.0763 -1.5622 -1.6599
 4042SOL     OW23761   4.414   4.677   1.418 -0.3757  0.1911  0.7000
 4042SOL    HW123762   4.450   4.648   1.334 -2.1861  2.6577 -0.9233
 4042SOL    HW223763   4.422   0.032   1.412  1.2471 -0.0187 -0.5364
 4043SOL     OW23764   0.663   1.522   5.334 -0.1991 -0.5027  0.4906
 4043SOL    HW123765   0.596   1.489   5.274  0.8274 -0.5094 -0.6523
 4043SOL    HW223766   0.710   1.567   5.265 -2.5630  0.2078 -0.6719
 4044SOL     OW23767   0.305   2.410  12.476 -0.8354 -0.7369  0.0722
 4044SOL    HW123768   0.212   2.413  12.499 -1.3474  0.3538 -2.1388
 4044SOL    HW223769   0.338   2.401  12.565 -1.3611 -1.5625  0.1906
 4045SOL     OW23770   3.643   0.627   8.012 -0.0434 -0.0094 -0.5260
 4045SOL    HW123771   3.592   0.691   7.963 -0.8566  0.1467  0.5217
 4045SOL    HW223772   3.656   0.559   7.945 -1.0666 -1.3670  0.6568
 4046SOL     OW23773   2.191   2.863   4.416  0.2575  0.5439  0.1784
 4046SOL    HW123774   2.268   2.898   4.461  1.4187 -1.2023 -0.4691
 4046SOL    HW223775   2.115   2.913   4.446  1.0353  0.9136  1.5350
 4047SOL     OW23776   2.013   3.775   5.676 -0.2649 -0.2423  0.0390
 4047SOL    HW123777   2.104   3.752   5.660 -0.0016  0.7731  0.1261
 4047SOL    HW223778   2.028   3.816   5.762  0.9702  1.0275 -0.7885
 4048SOL     OW23779   2.133   0.754   9.577  0.5132  0.2009 -0.2553
 4048SOL    HW123780   2.211   0.753   9.633 -0.6328  1.9194  1.3766
 4048SOL    HW223781   2.095   0.841   9.593  2.3867  0.7759  0.9709
 4049SOL     OW23782   1.980   2.075   0.363  0.5714  0.0723  0.1091
 4049SOL    HW123783   2.070   2.053   0.337 -0.3771  0.0638 -3.1323
 4049SOL    HW223784   1.946   1.990   0.335 -1.0002  1.5915 -2.5870
 4050SOL     OW23785   2.008   0.646   6.172 -0.0693 -0.1853 -0.3841
 4050SOL    HW123786   2.075   0.599   6.223 -2.6374 -1.3855  1.8811
 4050SOL    HW223787   2.058   0.727   6.161  0.0124 -0.1813 -0.0038
 4051SOL     OW23788   4.191   3.941   1.265 -0.0440  0.0130  0.3733
 4051SOL    HW123789   4.222   3.972   1.350  2.5886  0.4002 -0.7366
 4051SOL    HW223790   4.259   3.980   1.210 -0.0041 -0.3495  0.1663
 4052SOL     OW23791   2.037   3.176   2.266 -0.0854  0.4442  0.1006
 4052SOL    HW123792   2.059   3.086   2.242 -1.6448  0.4298 -1.2971
 4052SOL    HW223793   2.040   3.210   2.176  0.3066 -1.5186 -0.6350
 4053SOL     OW23794   1.614   2.379  11.481 -0.0858 -0.1146  0.3247
 4053SOL    HW123795   1.694   2.414  11.519 -0.3500 -0.0104  0.7859
 4053SOL    HW223796   1.613   2.413  11.391  0.9417  1.2203  0.8262
 4054SOL     OW23797   2.461   2.354   7.072  0.2590 -0.0519 -0.1861
 4054SOL    HW123798   2.416   2.402   7.142 -2.2757 -0.9659 -1.1707
 4054SOL    HW223799   2.426   2.390   6.991 -2.2068  0.0872  0.9250
 4055SOL     OW23800   0.236   0.719   2.190 -0.2397  0.5963 -0.4381
 4055SOL    HW123801   0.142   0.739   2.188 -0.1228  1.0683 -1.5320
 4055SOL    HW223802   0.240   0.624   2.196  0.9744  0.8334  2.4270
 4056SOL     OW23803   0.777   1.720   7.850  0.3816 -0.6440  0.3925
 4056SOL    HW123804   0.723   1.644   7.873 -1.9060 -0.1339 -3.4036
 4056SOL    HW223805   0.835   1.712   7.926  0.0962 -1.0296  0.5757
 4057SOL     OW23806   1.791   0.246   4.567  0.2397 -0.2701 -0.1744
 4057SOL    HW123807   1.734   0.176   4.533 -0.1042  0.4549 -1.0830
 4057SOL    HW223808   1.871   0.234   4.516  0.9089 -0.1790  0.8565
 4058SOL     OW23809   4.151   3.485   8.787  0.9375  0.2192 -0.1133
 4058SOL    HW123810   4.232   3.456   8.828  0.8040  2.5824  1.8743
 4058SOL    HW223811   4.168   3.500   8.694  1.0655  1.3669  0.0870
 4059SOL     OW23812   0.500   3.092   5.462 -0.3730 -0.3032 -0.2803
 4059SOL    HW123813   0.431   3.128   5.406  0.0144 -1.3788 -1.4675
 4059SOL    HW223814   0.466   3.005   5.486 -1.0038  0.8311  2.9032
 4060SOL     OW23815   0.107   2.413   6.509  0.1166  0.0693 -0.5071
 4060SOL    HW123816   0.110   2.333   6.456 -0.7843 -0.9108  0.8974
 4060SOL    HW223817   0.133   2.481   6.448 -1.8166  0.9593 -0.3373
 4061SOL     OW23818   1.255   3.497   8.634 -0.6142 -0.0493 -0.2415
 4061SOL    HW123819   1.230   3.538   8.551 -0.6492  0.2917 -0.0640
 4061SOL    HW223820   1.167   3.496   8.673  0.1743 -0.2320  1.5312
 4062SOL     OW23821   3.945   4.396  10.170  0.0386  0.2399  0.0239
 4062SOL    HW123822   3.921   4.360  10.255 -0.8493  0.6225 -0.0667
 4062SOL    HW223823   3.865   4.390  10.119  0.4171  1.0873 -0.6696
 4063SOL     OW23824   0.659   0.023   6.279 -0.1292  0.3065 -0.7558
 4063SOL    HW123825   0.627   4.688   6.229 -1.0825  0.2522 -0.0690
 4063SOL    HW223826   0.751   0.016   6.256  0.8671 -1.7788  3.8747
 4064SOL     OW23827   1.007   2.356  17.476  0.1321 -0.0516  0.0295
 4064SOL    HW123828   1.082   2.360  17.536  0.2801  1.1253 -0.2398
 4064SOL    HW223829   1.037   2.421  17.412  0.8862 -0.5728 -0.1591
 4065SOL     OW23830   2.128   0.719   6.486 -0.0149 -0.2308  0.7051
 4065SOL    HW123831   2.041   0.679   6.490 -0.3739  0.3244 -1.9435
 4065SOL    HW223832   2.107   0.805   6.523 -0.3744 -0.1367  0.2823
 4066SOL     OW23833   3.425   0.360  16.376 -0.1527  0.2065  0.0803
 4066SOL    HW123834   3.438   0.285  16.434 -0.5701  1.0232  1.2288
 4066SOL    HW223835   3.362   0.321  16.315 -0.2513  1.7254 -0.7763
 4067SOL     OW23836   3.630   1.286  10.050 -0.1021 -0.5197 -0.0634
 4067SOL    HW123837   3.698   1.341  10.011 -0.5187 -0.4142 -0.6456
 4067SOL    HW223838   3.568   1.351  10.082  3.0172  2.2094  0.3621
 4068SOL     OW23839   4.723   1.921   0.440 -0.0106 -0.6481  0.3423
 4068SOL    HW123840   0.011   1.965   0.521 -0.9133 -1.1381  0.9188
 4068SOL    HW223841   0.069   1.878   0.433  1.1333  1.4911  1.1545
 4069SOL     OW23842   1.375   0.071  15.230  0.1450 -0.5021 -0.5799
 4069SOL    HW123843   1.303   0.120  15.190 -1.5287 -2.0465  0.5393
 4069SOL    HW223844   1.376   4.724  15.189 -2.2620 -0.2021 -1.2756
 4070SOL     OW23845   3.512   3.090   0.029  0.6304 -0.7835 -0.1453
 4070SOL    HW123846   3.547   3.005   0.002  2.7056  0.7594 -2.3388
 4070SOL    HW223847   3.582   3.149   0.001  0.2329 -0.7500 -1.0825
 4071SOL     OW23848   0.810   0.835   8.720 -0.2529 -0.3433 -0.1054
 4071SOL    HW123849   0.903   0.840   8.698 -0.2832  3.4113  0.4540
 4071SOL    HW223850   0.772   0.765   8.668  0.3321 -2.4553  2.3189
 4072SOL     OW23851   3.908   3.047   6.406 -0.2491 -0.1214 -0.0181
 4072SOL    HW123852   3.953   2.988   6.345 -1.3486  0.3685 -1.3032
 4072SOL    HW223853   3.919   3.006   6.492  1.5576  2.8532  1.1659
 4073SOL     OW23854   2.681   3.027  10.312 -0.2290 -0.1328  0.7492
 4073SOL    HW123855   2.756   3.085  10.301  0.0008 -0.4478  0.6633
 4073SOL    HW223856   2.681   2.979  10.229  0.0490 -0.3753  0.8894
 4074SOL     OW23857   0.202   0.704   8.107 -0.1237 -0.2697  0.0397
 4074SOL    HW123858   0.245   0.742   8.184 -0.6699  1.4306 -0.4936
 4074SOL    HW223859   0.264   0.738   8.042 -0.5593 -0.8785 -0.6866
 4075SOL     OW23860   4.644   4.107   0.832 -0.2579  0.8361 -0.0294
 4075SOL    HW123861   4.723   4.140   0.790 -0.0339 -1.4450 -1.3643
 4075SOL    HW223862   4.619   4.038   0.771 -0.2474  0.5359  0.3077
 4076SOL     OW23863   0.359   1.651  15.795 -0.2218 -0.3383 -0.0400
 4076SOL    HW123864   0.269   1.678  15.814  0.3325 -0.2606  2.4500
 4076SOL    HW223865   0.402   1.720  15.847 -0.5980 -0.5212  0.5154
 4077SOL     OW23866   2.204   1.256   9.151 -0.4824 -0.4516 -0.7123
 4077SOL    HW123867   2.249   1.218   9.226 -1.9399  0.9918  0.8906
 4077SOL    HW223868   2.256   1.220   9.078 -2.6777 -0.5431 -2.2401
 4078SOL     OW23869   3.768   1.162   1.908 -0.9155  0.0657 -0.0214
 4078SOL    HW123870   3.735   1.172   1.819 -3.1064 -0.3103  0.7471
 4078SOL    HW223871   3.686   1.153   1.958 -0.8131 -0.4931  0.0508
 4079SOL     OW23872   1.348   0.445  17.365 -0.0088  0.5165 -0.2569
 4079SOL    HW123873   1.389   0.472  17.282 -1.4160 -1.0455 -1.4612
 4079SOL    HW223874   1.288   0.515  17.390  0.5053  0.0756  2.1814
 4080SOL     OW23875   1.794   2.172  10.582 -0.0629  0.6595  0.6766
 4080SOL    HW123876   1.886   2.145  10.587  0.0106  0.7758 -0.0498
 4080SOL    HW223877   1.804   2.267  10.571 -0.8948  0.5447 -1.0270
 4081SOL     OW23878   2.818   3.283   7.523 -0.1013 -0.0431 -0.2405
 4081SOL    HW123879   2.728   3.261   7.546  0.0695 -1.2269 -0.6936
 4081SOL    HW223880   2.866   3.203   7.547  2.0534  1.6539  1.1018
 4082SOL     OW23881   3.564   1.678   5.676 -0.5818 -0.3042  0.0024
 4082SOL    HW123882   3.534   1.766   5.652  0.8683 -0.1399 -1.1853
 4082SOL    HW223883   3.512   1.621   5.619  0.9184 -0.0591 -1.6241
 4083SOL     OW23884   3.385   2.072  11.700  0.2740  0.6802 -0.1989
 4083SOL    HW123885   3.394   2.167  11.708 -1.1196  0.6822  1.1296
 4083SOL    HW223886   3.479   2.051  11.703 -0.1074 -1.0071 -0.3797
 4084SOL     OW23887   0.064   1.573   4.330  0.0974 -0.6118 -0.0105
 4084SOL    HW123888   0.141   1.608   4.287 -0.6959  0.9984 -0.1202
 4084SOL    HW223889   0.098   1.495   4.374  0.9149  1.0527  2.3168
 4085SOL     OW23890   0.710   4.265   4.556 -0.3277 -0.2401 -0.6080
 4085SOL    HW123891   0.722   4.353   4.590 -1.5273  0.0031 -0.8159
 4085SOL    HW223892   0.669   4.215   4.627 -1.6793  0.2777 -1.0331
 4086SOL     OW23893   0.859   2.400   8.311  0.1046 -0.4930  0.1565
 4086SOL    HW123894   0.824   2.411   8.399 -0.0650  0.1115  0.0085
 4086SOL    HW223895   0.902   2.484   8.296 -0.8535 -0.0183  0.1492
 4087SOL     OW23896   0.595   0.216   5.819 -0.0370  1.1318  0.4400
 4087SOL    HW123897   0.600   0.237   5.726 -1.1807 -0.9515 -0.0982
 4087SOL    HW223898   0.664   0.150   5.825  0.4974  1.6103 -0.4825
 4088SOL     OW23899   4.410   4.278   3.233  0.0762 -0.1709 -0.2063
 4088SOL    HW123900   4.359   4.258   3.311  1.1566  4.2440  1.6806
 4088SOL    HW223901   4.440   4.366   3.258 -0.7791 -0.1282  0.6978
 4089SOL     OW23902   3.828   1.418   6.537 -0.1511 -0.0663  0.2048
 4089SOL    HW123903   3.789   1.448   6.619 -1.1494  1.9467 -0.9928
 4089SOL    HW223904   3.865   1.505   6.519  1.4854 -0.8518 -0.1931
 4090SOL     OW23905   3.032   2.060   2.030 -0.7051  0.2056  0.1149
 4090SOL    HW123906   3.117   2.077   1.990 -0.5732 -2.8549 -0.9344
 4090SOL    HW223907   3.007   1.970   2.009  1.2386  0.0876 -1.6499
 4091SOL     OW23908   0.491   4.704   6.560  0.6967 -0.3594 -0.6795
 4091SOL    HW123909   0.493   4.618   6.602  1.4446  0.0686  0.1699
 4091SOL    HW223910   0.584   4.710   6.541  0.7698 -2.3252 -0.9716
 4092SOL     OW23911   3.419   2.599   6.987  0.2939  0.3422  0.5946
 4092SOL    HW123912   3.393   2.509   6.973  0.2861  0.4613 -0.1590
 4092SOL    HW223913   3.356   2.642   7.046 -0.6334  1.0589 -0.9074
 4093SOL     OW23914   2.970   1.185   7.167 -0.3235  0.2833 -0.6010
 4093SOL    HW123915   2.942   1.269   7.204  1.1744 -0.2754  1.8086
 4093SOL    HW223916   3.049   1.172   7.219 -0.9285 -0.1380  0.2096
 4094SOL     OW23917   0.219   3.593   4.352 -0.1051  0.2614 -0.0209
 4094SOL    HW123918   0.233   3.569   4.444 -0.9411 -1.4690 -0.3299
 4094SOL    HW223919   0.304   3.635   4.344  1.0965 -1.8927  1.2542
 4095SOL     OW23920   0.707   2.046   1.385 -0.2250  0.2152  0.2957
 4095SOL    HW123921   0.717   2.121   1.443  2.4013  1.3191 -1.6148
 4095SOL    HW223922   0.777   2.058   1.322  0.6287  1.0940  1.4125
 4096SOL     OW23923   3.720   2.639   7.353  0.2512 -0.4415 -0.4061
 4096SOL    HW123924   3.814   2.653   7.343  0.0986 -0.2560 -1.5945
 4096SOL    HW223925   3.710   2.701   7.425  2.1084 -0.0184 -0.4942
 4097SOL     OW23926   3.955   0.769   5.225  0.4772  0.7172 -0.4078
 4097SOL    HW123927   4.007   0.692   5.203  0.1394 -0.0634  1.5720
 4097SOL    HW223928   3.930   0.744   5.314 -0.5716 -1.3636 -1.3085
 4098SOL     OW23929   1.003   1.187   3.915 -0.3335  0.3676  0.1406
 4098SOL    HW123930   0.918   1.205   3.955 -2.1562 -3.2846 -2.1232
 4098SOL    HW223931   0.974   1.193   3.824  1.0474 -0.0972 -0.3214
 4099SOL     OW23932   1.658   0.367   6.829 -0.3790 -0.0486  0.2059
 4099SOL    HW123933   1.728   0.379   6.892  0.3884 -0.2864 -0.5901
 4099SOL    HW223934   1.711   0.389   6.753 -0.6419  2.2810  0.7122
 4100SOL     OW23935   1.754   0.494   3.223  0.3200  0.0134 -0.1122
 4100SOL    HW123936   1.836   0.515   3.267  0.4835  0.5826 -0.6855
 4100SOL    HW223937   1.738   0.417   3.277 -0.4872 -1.0156 -1.8357
 4101SOL     OW23938   0.195   3.108   5.594  0.3019 -0.4004  0.1508
 4101SOL    HW123939   0.236   3.060   5.666  1.2751 -1.4586 -1.1144
 4101SOL    HW223940   0.244   3.189   5.601 -1.3315  0.7203 -1.3800
 4102SOL     OW23941   3.465   3.820   4.676 -1.1487 -0.5217  0.2254
 4102SOL    HW123942   3.559   3.806   4.682 -0.8848  1.5805  0.8402
 4102SOL    HW223943   3.444   3.847   4.765  0.5212  1.2270  0.0701
 4103SOL     OW23944   4.360   2.654   7.557  0.5587  0.2750  0.0104
 4103SOL    HW123945   4.440   2.644   7.610 -0.3605 -0.0340  1.3391
 4103SOL    HW223946   4.405   2.661   7.473 -0.3490 -0.7412 -0.5640
 4104SOL     OW23947   2.433   3.368   3.700  0.0967  0.3191  0.6342
 4104SOL    HW123948   2.356   3.326   3.737  0.7042 -1.2042  0.1719
 4104SOL    HW223949   2.509   3.310   3.697  0.7891  1.3288 -1.0839
 4105SOL     OW23950   0.419   3.655   7.122 -0.3940  0.1964 -0.2431
 4105SOL    HW123951   0.502   3.609   7.133 -1.1860 -1.4096 -1.0281
 4105SOL    HW223952   0.377   3.618   7.199 -0.4860  1.5189  0.3550
 4106SOL     OW23953   0.788   2.291   2.828 -0.5400 -0.0580 -0.5634
 4106SOL    HW123954   0.719   2.234   2.794 -1.3672  0.2505  0.6419
 4106SOL    HW223955   0.843   2.291   2.749  0.1379 -1.3453 -0.0794
 4107SOL     OW23956   4.070   4.375   6.947 -0.0338  0.1998  0.3951
 4107SOL    HW123957   4.013   4.423   6.887  0.1059  0.0934  0.1749
 4107SOL    HW223958   4.086   4.430   7.023  1.0345 -0.3644  0.5824
 4108SOL     OW23959   0.499   0.631  12.521  0.0426  0.2955 -0.0128
 4108SOL    HW123960   0.557   0.585  12.582 -0.8591  0.8060  1.2120
 4108SOL    HW223961   0.443   0.563  12.483  1.3385 -2.0253  2.2231
 4109SOL     OW23962   1.059   0.778  10.435  0.3597  0.2989 -0.1232
 4109SOL    HW123963   1.061   0.745  10.345  0.1172  0.8292 -0.3233
 4109SOL    HW223964   1.062   0.872  10.417 -0.0848  0.5131  0.9382
 4110SOL     OW23965   1.860   2.732   2.631 -0.5352  0.3448 -0.1181
 4110SOL    HW123966   1.920   2.665   2.662  0.1374  1.7962  1.7236
 4110SOL    HW223967   1.770   2.702   2.622 -1.0009  1.7313 -0.1398
 4111SOL     OW23968   3.395   2.714   3.511  0.4797 -0.4334 -0.5778
 4111SOL    HW123969   3.393   2.705   3.606 -0.1979 -1.9698 -0.7359
 4111SOL    HW223970   3.409   2.625   3.479  1.3665  0.1394 -1.7979
 4112SOL     OW23971   1.450   1.947   2.557 -0.3057  0.5888 -0.9862
 4112SOL    HW123972   1.370   1.987   2.592 -0.7021 -0.0177 -1.2094
 4112SOL    HW223973   1.502   2.027   2.544  0.7303  0.0094 -0.3768
 4113SOL     OW23974   0.111   2.077  16.166  0.0042 -0.0016  0.3948
 4113SOL    HW123975   0.093   2.171  16.169 -0.8388 -0.1654  0.5930
 4113SOL    HW223976   0.029   2.036  16.138 -1.0547  3.0356 -0.9046
 4114SOL     OW23977   2.223   4.363   6.444 -0.0513 -0.5287  0.4399
 4114SOL    HW123978   2.153   4.335   6.503 -2.0089  0.3360 -1.4603
 4114SOL    HW223979   2.249   4.446   6.483  0.8941 -0.6615  0.0830
 4115SOL     OW23980   4.734   2.432   2.736  0.0397  0.6751  0.6389
 4115SOL    HW123981   4.729   2.487   2.814 -1.7428 -0.4135  1.3043
 4115SOL    HW223982   0.042   2.359   2.774 -1.4357 -0.9628 -0.6609
 4116SOL     OW23983   0.293   0.976   6.996 -0.3093  0.3133  0.0260
 4116SOL    HW123984   0.274   1.042   6.930  0.3082 -0.9661 -1.4332
 4116SOL    HW223985   0.211   0.944   7.032 -0.7429  1.7756  0.3305
 4117SOL     OW23986   0.981   0.535   2.524 -0.1158 -0.0975  0.4326
 4117SOL    HW123987   0.895   0.523   2.566  0.1101 -0.5871  0.7509
 4117SOL    HW223988   1.007   0.621   2.555 -0.6294  0.1910  0.0644
 4118SOL     OW23989   4.374   2.431   0.024 -0.0004  0.7227  0.2845
 4118SOL    HW123990   4.424   2.353   0.052 -2.2813 -1.0556 -0.6170
 4118SOL    HW223991   4.345   2.471   0.106 -1.5980  0.9033 -0.3835
 4119SOL     OW23992   2.589   3.411  15.453  0.3825 -0.0075  0.0660
 4119SOL    HW123993   2.682   3.418  15.433 -0.0469 -0.6028 -2.0938
 4119SOL    HW223994   2.594   3.329  15.502  0.0023 -0.2597 -0.3172
 4120SOL     OW23995   2.774   3.549   3.965 -0.2507 -0.3112 -0.2136
 4120SOL    HW123996   2.803   3.595   3.886 -1.9586 -1.1672 -1.3343
 4120SOL    HW223997   2.793   3.458   3.943  1.0602 -0.4205  1.3590
 4121SOL     OW23998   1.131   3.509   1.221  0.1814  0.2234  0.4900
 4121SOL    HW123999   1.111   3.443   1.288  2.3749 -0.4221  0.5148
 4121SOL    HW224000   1.120   3.592   1.267 -2.3727 -0.9662  2.0512
 4122SOL     OW24001   2.025   3.262   3.490  1.4420 -0.0526  0.3187
 4122SOL    HW124002   2.009   3.332   3.426 -2.2314  0.6903  2.0472
 4122SOL    HW224003   2.103   3.221   3.454 -0.8615 -2.4140 -1.9771
 4123SOL     OW24004   4.661   1.589  11.179  0.1355 -0.2077 -0.3649
 4123SOL    HW124005   4.688   1.554  11.264 -0.2480  1.5707  0.4978
 4123SOL    HW224006   4.596   1.653  11.209 -0.1519 -0.9329  0.5337
 4124SOL     OW24007   3.155   2.166   9.446 -0.2032  0.1048 -0.5257
 4124SOL    HW124008   3.145   2.233   9.379 -1.1525 -0.4087 -0.8990
 4124SOL    HW224009   3.248   2.174   9.468 -1.0887  2.4755  2.3758
 4125SOL     OW24010   2.338   1.699   6.734  0.2999  0.2006 -0.1019
 4125SOL    HW124011   2.390   1.653   6.668 -0.3382  1.7990 -1.7201
 4125SOL    HW224012   2.388   1.780   6.742  0.0886  0.2724  0.4513
 4126SOL     OW24013   2.641   0.522  16.348 -0.0795  0.0028 -0.3222
 4126SOL    HW124014   2.724   0.565  16.326  0.3831  0.0643  1.5848
 4126SOL    HW224015   2.585   0.570  16.286  0.6204 -0.1014 -1.0359
 4127SOL     OW24016   2.569   3.875  15.185 -0.6367 -0.1424 -0.3846
 4127SOL    HW124017   2.483   3.915  15.195 -0.0949  1.2753 -1.3859
 4127SOL    HW224018   2.613   3.914  15.260 -0.5407  2.5629 -1.8491
 4128SOL     OW24019   4.426   2.882  12.048 -0.0388  0.5361  0.4532
 4128SOL    HW124020   4.337   2.909  12.070 -0.4250 -2.2021  2.1834
 4128SOL    HW224021   4.444   2.825  12.122 -1.2672 -0.5626 -0.0912
 4129SOL     OW24022   2.270   3.171   4.685 -0.1309 -0.7455 -0.6523
 4129SOL    HW124023   2.240   3.097   4.738  0.8651  1.5223  3.0720
 4129SOL    HW224024   2.189   3.220   4.667  0.3246 -0.1172 -0.9859
 4130SOL     OW24025   2.587   1.161   5.621  0.0873 -0.6316  0.2464
 4130SOL    HW124026   2.554   1.246   5.593 -0.6689 -1.3061 -0.9078
 4130SOL    HW224027   2.552   1.155   5.710  0.6246 -2.7207  0.3125
 4131SOL     OW24028   0.326   4.632  16.457  0.0286  0.4362 -0.1210
 4131SOL    HW124029   0.404   4.579  16.438 -0.6007 -0.6433  0.3144
 4131SOL    HW224030   0.349   4.666  16.543 -2.3241  1.0639  0.2538
 4132SOL     OW24031   3.065   3.756   2.530 -0.1413  0.2440  0.3688
 4132SOL    HW124032   3.031   3.824   2.471  0.9970  0.3150 -0.1940
 4132SOL    HW224033   3.036   3.677   2.484 -1.2118 -0.5295  2.3946
 4133SOL     OW24034   0.890   4.429   8.527  0.1264 -0.3955 -0.0136
 4133SOL    HW124035   0.873   4.345   8.484  0.8456  0.6795 -2.3799
 4133SOL    HW224036   0.906   4.484   8.450 -0.7090  0.2083  0.2375
 4134SOL     OW24037   3.293   0.628   7.351 -0.1951 -0.0604 -0.4377
 4134SOL    HW124038   3.280   0.710   7.303 -0.6548  0.5362  0.7143
 4134SOL    HW224039   3.234   0.640   7.424  0.8332  0.3169  0.3369
 4135SOL     OW24040   0.430   2.166  15.917 -0.0414  0.1633  0.4238
 4135SOL    HW124041   0.523   2.163  15.897 -0.1251  0.1385  0.0278
 4135SOL    HW224042   0.380   2.167  15.835  0.2427  2.4823  0.2799
 4136SOL     OW24043   1.033   2.071   6.598 -0.4040  0.6413  0.0530
 4136SOL    HW124044   0.995   2.158   6.613 -0.0293  0.3821  2.6160
 4136SOL    HW224045   0.952   2.024   6.581 -0.3057  1.5274 -2.8430
 4137SOL     OW24046   2.569   4.714   6.743  0.5811  0.3528  0.1659
 4137SOL    HW124047   2.619   0.020   6.675 -1.2908  0.9877 -0.7859
 4137SOL    HW224048   2.645   4.681   6.790 -1.7799 -2.9302  1.6760
 4138SOL     OW24049   1.411   1.149  14.414 -0.0035 -0.0733 -0.0156
 4138SOL    HW124050   1.505   1.170  14.406 -0.4491  1.7272 -0.6530
 4138SOL    HW224051   1.401   1.083  14.347 -0.1279 -0.6958  0.6185
 4139SOL     OW24052   0.743   2.450   4.208  0.2962  0.0346 -0.5159
 4139SOL    HW124053   0.810   2.444   4.139  0.3605 -0.5501 -0.4012
 4139SOL    HW224054   0.709   2.540   4.206 -0.8943 -0.4146  0.4194
 4140SOL     OW24055   4.304   3.598   1.055 -0.1584  0.5952  0.1640
 4140SOL    HW124056   4.397   3.613   1.073 -0.1244 -0.1269  0.5922
 4140SOL    HW224057   4.286   3.654   0.980 -3.4245 -1.5368 -0.6416
 4141SOL     OW24058   0.429   4.478   3.148  0.3615  0.4046  0.0691
 4141SOL    HW124059   0.354   4.420   3.159  0.9851 -0.6716 -1.4123
 4141SOL    HW224060   0.491   4.408   3.127  0.0245 -1.0625  4.0409
 4142SOL     OW24061   0.607   1.769  16.455 -0.2213 -0.0671  0.2601
 4142SOL    HW124062   0.635   1.810  16.537 -0.0397 -2.8853  1.6035
 4142SOL    HW224063   0.551   1.828  16.405 -2.8660 -1.9381  1.0147
 4143SOL     OW24064   2.264   1.962  14.685  0.1374  0.4228 -0.7875
 4143SOL    HW124065   2.201   1.911  14.736  1.2863 -0.9662 -0.7525
 4143SOL    HW224066   2.339   1.902  14.676  0.8647  1.0283  1.2576
 4144SOL     OW24067   0.184   0.446   8.742 -0.3179  0.6020 -0.1714
 4144SOL    HW124068   0.160   0.456   8.650 -1.5243 -4.9202 -0.4760
 4144SOL    HW224069   0.203   0.353   8.747  0.0460  0.6465 -0.7894
 4145SOL     OW24070   1.150   4.202   2.863 -0.6779  0.3562  0.2062
 4145SOL    HW124071   1.148   4.130   2.800  0.1323  1.5896 -1.2425
 4145SOL    HW224072   1.235   4.188   2.906 -0.7827  0.6284  0.5032
 4146SOL     OW24073   1.364   1.316   9.379 -0.0836  0.6569 -0.0100
 4146SOL    HW124074   1.452   1.309   9.341 -0.2788 -0.6465 -0.2395
 4146SOL    HW224075   1.387   1.340   9.469  0.7979  0.5617 -0.2067
 4147SOL     OW24076   0.926   2.320   6.646 -0.0987 -0.1259 -0.1107
 4147SOL    HW124077   0.950   2.406   6.611  0.1403  0.0760  0.5522
 4147SOL    HW224078   0.941   2.325   6.741  0.0725 -0.1416 -0.1373
 4148SOL     OW24079   1.059   3.313  10.995 -0.0630 -0.0435  0.2919
 4148SOL    HW124080   1.094   3.279  10.913  0.9940  4.0634 -0.9482
 4148SOL    HW224081   1.128   3.299  11.060  0.1321 -1.7131 -0.2894
 4149SOL     OW24082   0.526   2.357   7.320  0.1513  0.0277 -0.5156
 4149SOL    HW124083   0.553   2.288   7.259  3.5069 -1.6810  2.9325
 4149SOL    HW224084   0.574   2.426   7.274 -0.2110  1.0270  0.6350
 4150SOL     OW24085   0.196   0.133   7.689  0.2597  0.0151 -0.3569
 4150SOL    HW124086   0.141   0.173   7.621 -1.4090 -0.2941  0.8172
 4150SOL    HW224087   0.283   0.128   7.650  0.9982 -1.4501  1.4814
 4151SOL     OW24088   1.289   3.213  10.903 -0.0315  0.4140 -0.0735
 4151SOL    HW124089   1.372   3.180  10.869  0.0683  1.9300 -1.3150
 4151SOL    HW224090   1.310   3.304  10.923  0.2942 -0.3058  2.8402
 4152SOL     OW24091   0.722   1.784   7.601  0.1033 -0.0777  0.0839
 4152SOL    HW124092   0.639   1.826   7.624  1.1827  1.6237  0.9148
 4152SOL    HW224093   0.756   1.776   7.690 -0.2238  1.0301  0.3032
 4153SOL     OW24094   4.376   2.929   2.884 -0.1316 -0.0510  0.0649
 4153SOL    HW124095   4.346   2.848   2.843 -0.1619  0.9189 -1.8389
 4153SOL    HW224096   4.317   2.940   2.959 -0.9337  0.0402 -0.5810
 4154SOL     OW24097   3.629   0.831  10.135 -0.3443 -0.2383  0.0257
 4154SOL    HW124098   3.690   0.893  10.175 -1.9899  1.2506  0.2409
 4154SOL    HW224099   3.694   0.781  10.086  1.4122  1.2576  0.8231
 4155SOL     OW24100   3.468   3.809  17.426  0.7299 -0.1799  0.5343
 4155SOL    HW124101   3.400   3.841  17.486  1.1184  0.6723  0.5057
 4155SOL    HW224102   3.430   3.841  17.345 -0.4987 -0.2268  1.0857
 4156SOL     OW24103   3.539   1.927   7.563  0.3916 -0.5364 -0.2535
 4156SOL    HW124104   3.590   1.885   7.632  1.6110  1.7968  0.2752
 4156SOL    HW224105   3.462   1.871   7.573 -1.4733  1.7819 -1.5383
 4157SOL     OW24106   2.225   1.934   0.317 -0.0277 -0.6337  0.2442
 4157SOL    HW124107   2.251   1.848   0.283  0.8810 -0.1469 -0.2821
 4157SOL    HW224108   2.309   1.976   0.330 -0.8442  0.7546  1.0116
 4158SOL     OW24109   4.564   3.350   2.946  0.5087 -0.1603  0.4222
 4158SOL    HW124110   4.571   3.445   2.939  0.1944  0.0270  2.9493
 4158SOL    HW224111   4.560   3.353   3.041  0.5907 -2.8313  0.5109
 4159SOL     OW24112   3.294   1.460   9.776 -0.0053  0.0998 -0.4097
 4159SOL    HW124113   3.372   1.501   9.814  0.1456 -0.6843  0.1216
 4159SOL    HW224114   3.254   1.429   9.857 -0.8600  1.4036 -0.3341
 4160SOL     OW24115   3.021   1.466   4.408  0.0909  0.4185 -0.1663
 4160SOL    HW124116   3.085   1.397   4.390  0.9448  0.8559  1.2090
 4160SOL    HW224117   3.068   1.504   4.482  0.2071 -0.8993  0.4397
 4161SOL     OW24118   2.200   2.460  14.722  0.3380  0.5446  0.5692
 4161SOL    HW124119   2.199   2.364  14.725  1.9644  0.4806 -0.9701
 4161SOL    HW224120   2.281   2.493  14.759  0.7939  1.5994 -1.3734
 4162SOL     OW24121   1.825   4.146   5.984 -0.2014 -0.1894 -0.6496
 4162SOL    HW124122   1.766   4.092   6.036 -1.8442  2.9842  0.7741
 4162SOL    HW224123   1.898   4.106   6.031  0.2350 -2.4094 -3.2239
 4163SOL     OW24124   1.712   3.979   7.945 -0.0225 -0.5132  0.1181
 4163SOL    HW124125   1.687   4.056   7.997 -0.0603  0.3553 -1.1763
 4163SOL    HW224126   1.804   3.974   7.969 -0.1671 -1.6140  0.4302
 4164SOL     OW24127   2.219   0.018  13.803  0.0975  0.3491 -0.1057
 4164SOL    HW124128   2.253   0.032  13.714 -1.3471 -1.5979 -0.9621
 4164SOL    HW224129   2.266   4.678  13.825  1.7837  1.5095  0.5302
 4165SOL     OW24130   2.727   2.145   5.999 -0.1460 -0.0681  0.1372
 4165SOL    HW124131   2.639   2.161   5.965 -0.4845  0.3562  1.1798
 4165SOL    HW224132   2.708   2.078   6.065 -1.4896  0.5032  0.3209
 4166SOL     OW24133   3.708   2.172   5.196  0.4002  0.2042  0.7238
 4166SOL    HW124134   3.613   2.178   5.199  0.4014 -1.6646  5.0666
 4166SOL    HW224135   3.731   2.261   5.224 -0.5925 -0.4222  3.5093
 4167SOL     OW24136   2.632   1.853   7.743  0.5618 -0.3430 -0.4973
 4167SOL    HW124137   2.713   1.807   7.763  0.9984  0.9111  0.5899
 4167SOL    HW224138   2.569   1.784   7.763 -1.4469  1.5702 -0.2884
 4168SOL     OW24139   2.327   1.729  12.884  0.0442 -0.2492 -0.1405
 4168SOL    HW124140   2.353   1.812  12.844  0.6483  0.7597  2.3362
 4168SOL    HW224141   2.235   1.715  12.860 -0.2218  1.7741 -0.2740
 4169SOL     OW24142   3.043   2.707   8.029  0.1654 -0.1948 -0.1477
 4169SOL    HW124143   3.134   2.678   8.027 -0.2834 -1.6955  1.6852
 4169SOL    HW224144   3.005   2.670   7.950  1.0795 -2.0342  0.2659
 4170SOL     OW24145   2.100   4.495   9.438  0.5237  0.3073 -0.2288
 4170SOL    HW124146   2.053   4.577   9.424 -1.4154 -0.5319  1.2966
 4170SOL    HW224147   2.029   4.432   9.425  1.0865 -0.5396  0.7431
 4171SOL     OW24148   3.555   4.055   7.352 -0.2145 -0.2304  0.3206
 4171SOL    HW124149   3.477   4.004   7.330 -0.2884 -0.3199  0.7911
 4171SOL    HW224150   3.509   4.136   7.373  1.0327  0.5034  0.2059
 4172SOL     OW24151   4.391   1.567   9.526 -0.4507 -0.3965  0.0970
 4172SOL    HW124152   4.296   1.572   9.524 -0.5420 -1.3759  2.1829
 4172SOL    HW224153   4.408   1.474   9.506 -0.1036 -0.6843  1.7506
 4173SOL     OW24154   0.680   4.496  13.036  0.1216 -0.1548 -0.4704
 4173SOL    HW124155   0.602   4.507  12.982 -2.3192  1.1218  3.3082
 4173SOL    HW224156   0.735   4.441  12.981 -2.4855 -2.8714 -0.3577
 4174SOL     OW24157   0.752   0.583   2.692 -0.3661  0.4648 -0.1891
 4174SOL    HW124158   0.673   0.535   2.716  0.0707 -0.7353 -1.1638
 4174SOL    HW224159   0.788   0.613   2.775  0.0448 -2.2690  0.6107
 4175SOL     OW24160   3.953   4.336  16.889  0.0235 -0.0423  0.7394
 4175SOL    HW124161   3.983   4.390  16.962  1.7553  0.3341 -0.2449
 4175SOL    HW224162   3.989   4.255  16.924 -1.7109 -0.4850  1.5088
 4176SOL     OW24163   1.163   1.807  16.968 -0.5167  0.6566  0.7786
 4176SOL    HW124164   1.144   1.717  16.941 -0.6097  0.6469  0.8772
 4176SOL    HW224165   1.108   1.829  17.043 -1.3600 -0.9561  0.6383
 4177SOL     OW24166   0.692   4.311   5.974  0.4229 -0.6060 -0.2843
 4177SOL    HW124167   0.776   4.332   6.015 -0.1392 -1.0508  1.0640
 4177SOL    HW224168   0.647   4.251   6.033 -0.1574  1.6046  1.5184
 4178SOL     OW24169   0.720   0.924   2.134  0.0080 -0.5585 -0.4329
 4178SOL    HW124170   0.781   0.870   2.185 -2.2183 -2.0990  0.6222
 4178SOL    HW224171   0.780   0.995   2.110 -1.5987  0.7667 -0.4773
 4179SOL     OW24172   1.016   3.156   4.076 -0.2756 -0.2095 -0.1204
 4179SOL    HW124173   0.998   3.113   3.992  0.6849  1.4897 -1.1993
 4179SOL    HW224174   1.008   3.248   4.048  0.0137 -0.6211 -1.5913
 4180SOL     OW24175   4.255   1.345   5.081  0.1406 -0.0173  0.3339
 4180SOL    HW124176   4.321   1.351   5.150 -1.0265  0.0595  1.4448
 4180SOL    HW224177   4.221   1.256   5.085  0.2548 -0.1513 -1.5874
 4181SOL     OW24178   2.913   3.929  10.318 -0.5497  0.8461  0.0488
 4181SOL    HW124179   2.867   3.888  10.244  2.0974 -0.2637 -1.0218
 4181SOL    HW224180   2.859   3.897  10.390  0.0089 -2.3052 -0.9105
 4182SOL     OW24181   0.595   1.876   8.848  0.3875  0.5976 -0.0469
 4182SOL    HW124182   0.679   1.905   8.812 -0.3554  3.2037  0.3063
 4182SOL    HW224183   0.606   1.787   8.816 -0.7008  0.6641 -0.6237
 4183SOL     OW24184   3.304   0.234   2.292  0.5592  0.2924  0.0751
 4183SOL    HW124185   3.247   0.163   2.261 -0.1227  0.3755  1.1388
 4183SOL    HW224186   3.264   0.305   2.243 -0.5938 -0.1907  0.3070
 4184SOL     OW24187   1.977   4.486   7.047 -0.0617  0.2711 -0.3608
 4184SOL    HW124188   2.038   4.559   7.062 -0.3906  0.6300 -0.7543
 4184SOL    HW224189   1.981   4.440   7.131 -0.1832 -2.7244 -2.0234
 4185SOL     OW24190   3.302   1.789   4.802 -0.6462  0.0740  0.0945
 4185SOL    HW124191   3.354   1.716   4.769  0.1159 -0.1261  1.7382
 4185SOL    HW224192   3.375   1.843   4.833  0.8169 -0.5912 -2.1792
 4186SOL     OW24193   1.911   2.084  15.301 -0.5293 -0.0836  0.1931
 4186SOL    HW124194   1.885   2.107  15.212  1.0460 -1.4884 -0.6183
 4186SOL    HW224195   1.939   1.994  15.286  2.0367  0.5761  1.0792
 4187SOL     OW24196   3.788   3.330  17.361  0.3555 -0.2817  0.0622
 4187SOL    HW124197   3.847   3.376  17.302  0.0960  1.2571  0.9967
 4187SOL    HW224198   3.788   3.239  17.332 -3.3142 -0.2083 -0.1918
 4188SOL     OW24199   2.120   1.883   9.939  0.0208  0.2110 -0.6679
 4188SOL    HW124200   2.042   1.892   9.884 -0.6245 -0.5019  0.1388
 4188SOL    HW224201   2.120   1.971   9.976 -1.9472 -0.1592  0.1934
 4189SOL     OW24202   3.354   0.799   1.452  0.5831 -0.1201 -0.1476
 4189SOL    HW124203   3.399   0.719   1.425 -0.4226 -0.8475  0.3546
 4189SOL    HW224204   3.370   0.797   1.546 -0.5764  0.9525  0.0681
 4190SOL     OW24205   0.495   2.567   4.886  0.0553 -0.0693  0.3451
 4190SOL    HW124206   0.474   2.520   4.967  1.3715  1.3322  1.5144
 4190SOL    HW224207   0.575   2.613   4.912  0.7025 -1.3167  0.5161
 4191SOL     OW24208   2.708   3.613   9.374 -0.1907 -0.3004 -0.6606
 4191SOL    HW124209   2.778   3.668   9.340 -0.0857 -0.4476 -0.6831
 4191SOL    HW224210   2.655   3.683   9.412  1.0299 -0.2187  0.9242
 4192SOL     OW24211   0.109   3.892   7.564  0.0523  0.0405 -0.3708
 4192SOL    HW124212   0.023   3.880   7.604 -0.2882  0.0860 -1.0754
 4192SOL    HW224213   0.098   3.970   7.510 -2.7619  0.3211  0.5890
 4193SOL     OW24214   1.303   0.790  10.613 -0.1384  0.0845 -0.4134
 4193SOL    HW124215   1.266   0.874  10.638  0.0592  0.0058  0.1500
 4193SOL    HW224216   1.391   0.783  10.649 -0.1566  1.3677 -0.1316
 4194SOL     OW24217   2.448   2.537   3.682  0.0480  0.1644  0.4540
 4194SOL    HW124218   2.356   2.522   3.703 -0.3640  0.7059 -0.9588
 4194SOL    HW224219   2.466   2.458   3.632 -1.8378  0.4163 -0.6364
 4195SOL     OW24220   0.125   1.258   2.326 -0.4140 -0.2129  0.4681
 4195SOL    HW124221   0.191   1.299   2.270 -1.1751 -1.4829 -1.3564
 4195SOL    HW224222   0.093   1.330   2.381 -0.7111 -1.5618  2.0848
 4196SOL     OW24223   0.114   1.201  16.258  0.0593  0.0396 -0.3949
 4196SOL    HW124224   0.163   1.262  16.313  1.1797 -0.0677 -1.2718
 4196SOL    HW224225   0.093   1.265  16.190  1.1942 -0.5736 -1.3324
 4197SOL     OW24226   0.142   2.477   4.320  0.4105 -0.4638  0.0190
 4197SOL    HW124227   0.054   2.446   4.297  0.3453  0.6722 -1.2819
 4197SOL    HW224228   0.200   2.445   4.251 -0.2704  0.2160 -0.8771
 4198SOL     OW24229   0.966   1.603   2.381 -0.3711 -0.1866 -0.0833
 4198SOL    HW124230   1.035   1.620   2.446  0.1039 -0.2615 -0.5674
 4198SOL    HW224231   0.888   1.621   2.433  0.1593  1.2199  0.2487
 4199SOL     OW24232   0.970   0.061   1.212 -0.7019  0.0067  0.2902
 4199SOL    HW124233   0.945   0.015   1.132 -0.2424  1.8232 -0.9025
 4199SOL    HW224234   0.921   0.008   1.275 -0.1468 -0.6951  0.1329
 4200SOL     OW24235   4.713   4.088  13.121  0.0895 -0.4387  0.2837
 4200SOL    HW124236   4.701   4.125  13.033 -1.2491 -1.4276  0.0376
 4200SOL    HW224237   0.030   4.012  13.107  0.2814 -0.2477  0.0231
 4201SOL     OW24238   1.302   3.499   4.085  0.3125 -0.2089  0.5530
 4201SOL    HW124239   1.314   3.444   4.008  0.0097  1.2178 -0.4858
 4201SOL    HW224240   1.391   3.493   4.120 -0.3441 -0.9181  2.1236
 4202SOL     OW24241   1.641   4.366   2.042  0.1861 -0.9343 -0.5933
 4202SOL    HW124242   1.631   4.422   2.119 -0.3040 -0.0401 -1.3071
 4202SOL    HW224243   1.551   4.375   2.010  0.3069  0.0836 -0.6513
 4203SOL     OW24244   4.488   0.966   6.627  0.2094  0.1656 -0.6318
 4203SOL    HW124245   4.441   1.032   6.576  0.2546  0.6002 -0.1148
 4203SOL    HW224246   4.460   0.892   6.573 -1.4829  0.9622 -0.8459
 4204SOL     OW24247   3.944   1.054   0.589  0.2109 -0.3767  0.4035
 4204SOL    HW124248   3.990   1.080   0.509  0.0363  1.2569  0.8388
 4204SOL    HW224249   4.012   1.022   0.647  1.8985 -0.6566 -1.7338
 4205SOL     OW24250   0.264   0.149   4.532 -0.2827  1.2530 -0.0859
 4205SOL    HW124251   0.208   0.171   4.457  1.3910 -0.1226 -1.7268
 4205SOL    HW224252   0.354   0.165   4.505  0.5282 -0.5892  1.5589
 4206SOL     OW24253   3.070   1.325   9.508  0.3104  0.2762 -0.5462
 4206SOL    HW124254   2.989   1.276   9.521  1.4495 -1.0064  1.7298
 4206SOL    HW224255   3.059   1.402   9.563 -2.3067 -0.4089 -0.1141
 4207SOL     OW24256   4.106   4.538   7.879 -0.2331 -0.3922 -0.3052
 4207SOL    HW124257   4.018   4.558   7.909  0.0050 -0.1217  0.1982
 4207SOL    HW224258   4.120   4.610   7.817 -1.3252 -0.9309 -1.1820
 4208SOL     OW24259   0.061   2.406   7.129  0.1945 -0.2482 -0.2272
 4208SOL    HW124260   0.073   2.386   7.036  1.0584 -1.0130  0.0492
 4208SOL    HW224261   0.153   2.401   7.156 -0.0044  0.4975  0.5764
 4209SOL     OW24262   1.626   4.479  13.312 -0.3139 -0.1503 -0.7123
 4209SOL    HW124263   1.607   4.563  13.271 -0.2792 -0.6507 -1.7639
 4209SOL    HW224264   1.541   4.435  13.309 -0.6576  0.5766 -1.3295
 4210SOL     OW24265   1.525   3.978   4.515  0.2140 -0.0791 -0.1824
 4210SOL    HW124266   1.467   4.032   4.462 -0.8886 -2.1885 -1.1010
 4210SOL    HW224267   1.605   4.030   4.508  0.8556 -1.1632 -0.9259
 4211SOL     OW24268   1.131   0.559   9.810  0.2114 -0.5924  0.2657
 4211SOL    HW124269   1.176   0.633   9.852 -0.5797 -0.4048  0.7939
 4211SOL    HW224270   1.212   0.526   9.770  0.9856  0.3783  1.0281
 4212SOL     OW24271   1.084   1.237   9.789  0.0270 -0.7205  0.0675
 4212SOL    HW124272   1.067   1.284   9.707 -0.3751  0.3558  0.7734
 4212SOL    HW224273   0.998   1.223   9.826  0.3008 -1.5918  0.3717
 4213SOL     OW24274   2.378   0.143  12.247  0.1750  0.0507 -0.0791
 4213SOL    HW124275   2.294   0.145  12.294  0.5127  1.5590  0.4527
 4213SOL    HW224276   2.439   0.207  12.284  1.0692 -0.4054 -0.7965
 4214SOL     OW24277   2.726   2.992   7.966  0.0907  0.6543  0.2364
 4214SOL    HW124278   2.639   3.028   7.954  1.3715  3.1480 -1.5850
 4214SOL    HW224279   2.763   3.053   7.902 -0.3906  1.6968  0.9518
 4215SOL     OW24280   0.195   4.492   4.483 -0.3339  0.0021 -0.1980
 4215SOL    HW124281   0.234   4.553   4.420 -1.1422  0.2499 -0.4634
 4215SOL    HW224282   0.162   4.555   4.547  1.1802 -0.9088  1.4773
 4216SOL     OW24283   0.388   0.192   1.790  0.5026  0.3178  0.3056
 4216SOL    HW124284   0.446   0.223   1.859 -0.4343 -3.0188  2.5543
 4216SOL    HW224285   0.412   0.254   1.721 -1.3323 -0.6130 -1.1832
 4217SOL     OW24286   4.301   1.020   5.587 -0.3382  0.2133  0.3595
 4217SOL    HW124287   4.334   1.107   5.567  0.4415 -0.2660 -0.4649
 4217SOL    HW224288   4.298   1.003   5.681  1.2112  2.3873  0.7922
 4218SOL     OW24289   1.735   3.760   5.585  0.1693  0.2327 -0.3736
 4218SOL    HW124290   1.670   3.813   5.632 -0.6950 -2.3266  1.3344
 4218SOL    HW224291   1.814   3.795   5.624  0.5161  0.1939 -1.0334
 4219SOL     OW24292   2.381   0.829   1.632 -0.1178 -0.7874 -0.2094
 4219SOL    HW124293   2.417   0.786   1.709 -0.2936  0.1937  0.4130
 4219SOL    HW224294   2.407   0.919   1.652 -3.0901  0.5088 -2.2125
 4220SOL     OW24295   4.530   1.640   5.507  0.3841 -0.0312 -0.3740
 4220SOL    HW124296   4.481   1.658   5.587  1.5694  0.2062  0.3050
 4220SOL    HW224297   4.506   1.715   5.453 -0.7692 -1.0723 -1.2868
 4221SOL     OW24298   3.615   3.835   6.173 -0.2870 -0.4861 -0.1582
 4221SOL    HW124299   3.548   3.792   6.227 -0.2976 -1.4636 -0.9554
 4221SOL    HW224300   3.695   3.811   6.221 -0.1357  0.1562 -0.0944
 4222SOL     OW24301   4.519   1.029   6.893  0.7376 -0.1811 -0.5562
 4222SOL    HW124302   4.463   0.955   6.918  2.0887 -0.5709  1.2701
 4222SOL    HW224303   4.523   1.010   6.799  0.5852  2.1877 -1.0216
 4223SOL     OW24304   1.792   1.422   3.750 -0.4838  0.1217  0.4201
 4223SOL    HW124305   1.829   1.334   3.760 -1.4241 -0.2359  0.7037
 4223SOL    HW224306   1.771   1.444   3.841 -0.9786  1.1232  0.0585
 4224SOL     OW24307   1.735   3.563  12.916  0.0736  0.2047  0.3036
 4224SOL    HW124308   1.694   3.510  12.984  0.3125 -1.3770 -0.7959
 4224SOL    HW224309   1.796   3.500  12.877  0.2415  0.4759  0.1207
 4225SOL     OW24310   2.007   4.388   6.635  0.0062  0.0378 -0.7750
 4225SOL    HW124311   2.053   4.428   6.709 -0.7743 -0.5107  0.0141
 4225SOL    HW224312   1.923   4.431   6.648  0.6937  1.1148  0.1834
 4226SOL     OW24313   1.005   1.353  17.174 -0.8162  0.0714  0.2228
 4226SOL    HW124314   0.988   1.446  17.188 -2.8791 -0.0658 -1.3341
 4226SOL    HW224315   0.920   1.316  17.199  0.3168 -1.5818  1.6804
 4227SOL     OW24316   4.616   1.692   7.486 -0.0427 -0.1475  0.4664
 4227SOL    HW124317   4.633   1.786   7.486 -1.4752  0.1084 -1.0465
 4227SOL    HW224318   4.691   1.654   7.532  0.2815 -0.4683 -0.3233
 4228SOL     OW24319   3.861   3.869  15.755 -0.2769 -0.3254  0.5056
 4228SOL    HW124320   3.797   3.940  15.751 -1.1278 -1.0105  2.0914
 4228SOL    HW224321   3.819   3.818  15.686  1.0195  0.1526 -0.6430
 4229SOL     OW24322   4.050   2.003  14.829 -0.1470 -0.2551 -0.4142
 4229SOL    HW124323   4.022   1.916  14.858 -0.3455  0.0951  0.4491
 4229SOL    HW224324   3.965   2.041  14.803  0.2482  0.4989 -0.6161
 4230SOL     OW24325   2.472   4.083   5.402  0.6445 -0.3510  0.3878
 4230SOL    HW124326   2.467   4.178   5.413  0.0227 -0.3043 -0.3099
 4230SOL    HW224327   2.563   4.075   5.371  1.7750  2.5497  2.9384
 4231SOL     OW24328   2.423   0.143  10.676  0.3546  0.6171  0.2910
 4231SOL    HW124329   2.368   0.080  10.723  0.9690 -1.1274 -1.3503
 4231SOL    HW224330   2.357   0.213  10.670  0.0733  0.3859  0.6773
 4232SOL     OW24331   2.678   4.643   7.935  0.4769 -0.1311 -0.1190
 4232SOL    HW124332   2.631   4.709   7.987  0.2517  0.4671 -1.0927
 4232SOL    HW224333   2.606   4.593   7.896  1.2523 -2.1628  1.0149
 4233SOL     OW24334   2.836   2.177   4.721  0.2513 -0.0202 -0.0521
 4233SOL    HW124335   2.890   2.233   4.776  1.8429 -1.1117 -0.4966
 4233SOL    HW224336   2.831   2.233   4.643  2.4379 -0.5346 -0.5576
 4234SOL     OW24337   0.114   2.036  14.446  0.1461 -0.2539  0.3283
 4234SOL    HW124338   0.162   1.966  14.400 -0.7979  0.1381 -1.2519
 4234SOL    HW224339   0.171   2.111  14.427 -1.9660  1.4086  0.6259
 4235SOL     OW24340   2.629   4.067  17.532  0.1403 -0.0338 -0.2943
 4235SOL    HW124341   2.711   4.097  17.572  0.5496 -1.6396  0.0459
 4235SOL    HW224342   2.561   4.117  17.579 -0.3524 -0.8501 -0.1434
 4236SOL     OW24343   2.568   4.101   6.330  0.2832  0.1491  0.2279
 4236SOL    HW124344   2.572   4.035   6.260 -0.0822  0.1930  0.1669
 4236SOL    HW224345   2.530   4.038   6.391  1.6202 -0.4224  0.4799
 4237SOL     OW24346   2.859   4.371   3.128 -0.1924 -0.6704 -0.0029
 4237SOL    HW124347   2.861   4.424   3.048  0.4362 -0.6783  0.0090
 4237SOL    HW224348   2.765   4.382   3.141 -0.6549 -2.7200 -1.5701
 4238SOL     OW24349   1.752   2.679  12.106 -0.4068  0.0323 -0.1778
 4238SOL    HW124350   1.665   2.655  12.138 -0.2725 -0.5242 -0.2303
 4238SOL    HW224351   1.767   2.598  12.057  0.2625  1.6225 -2.5897
 4239SOL     OW24352   2.255   0.455   3.096  0.2702 -0.4708 -0.3861
 4239SOL    HW124353   2.339   0.498   3.080 -0.5488  0.4999 -2.0728
 4239SOL    HW224354   2.206   0.536   3.113  1.1505 -0.3432  1.4773
 4240SOL     OW24355   4.699   2.546   3.633 -0.5179 -0.2546  0.0770
 4240SOL    HW124356   4.636   2.543   3.562 -1.8750 -0.6977  1.3103
 4240SOL    HW224357   4.636   2.558   3.703  1.2826  0.4937  1.5882
 4241SOL     OW24358   3.840   3.368   7.238  0.6731  0.6003 -0.0597
 4241SOL    HW124359   3.881   3.295   7.192 -0.8705  0.2207 -0.8534
 4241SOL    HW224360   3.807   3.326   7.317  1.9224 -1.7348 -0.7865
 4242SOL     OW24361   2.845   1.459   1.556 -0.0428  0.5022 -0.3529
 4242SOL    HW124362   2.842   1.509   1.475  0.2120  3.4268  1.4419
 4242SOL    HW224363   2.848   1.370   1.521  1.5049 -0.0902  1.2409
 4243SOL     OW24364   0.561   1.313   8.960  0.2826  0.9935 -0.3125
 4243SOL    HW124365   0.480   1.361   8.943 -0.1839 -0.2671 -1.6335
 4243SOL    HW224366   0.554   1.233   8.908  0.7709 -1.7184  3.7833
 4244SOL     OW24367   3.399   3.264   7.255 -0.1303 -0.2260  0.4367
 4244SOL    HW124368   3.404   3.171   7.276 -0.5056 -0.6499 -1.3870
 4244SOL    HW224369   3.480   3.266   7.204 -0.1792 -1.4625  0.3247
 4245SOL     OW24370   3.498   3.304   8.806 -0.5317 -0.0765 -0.5106
 4245SOL    HW124371   3.405   3.323   8.817 -0.7009 -0.3701 -1.4248
 4245SOL    HW224372   3.520   3.374   8.745  0.1528 -0.1641 -0.3633
 4246SOL     OW24373   3.844   3.896  15.403 -0.0856  0.2859  0.2014
 4246SOL    HW124374   3.808   3.957  15.468  0.9669  0.1008  0.9503
 4246SOL    HW224375   3.935   3.919  15.423 -0.9161  2.8890  0.9543
 4247SOL     OW24376   4.070   1.138   1.616  0.3460  0.2524 -0.1070
 4247SOL    HW124377   4.149   1.143   1.562 -0.4998 -0.2306 -1.3979
 4247SOL    HW224378   4.095   1.183   1.696 -2.9708 -0.7192  1.5053
 4248SOL     OW24379   1.071   1.224   3.437 -0.7183 -0.3585  0.1405
 4248SOL    HW124380   1.107   1.199   3.352  0.4638  1.1063  0.2242
 4248SOL    HW224381   1.117   1.168   3.500 -1.1083  0.9494  1.6095
 4249SOL     OW24382   0.895   2.503  14.614  0.4486 -0.0950 -0.0090
 4249SOL    HW124383   0.952   2.508  14.538  0.1737 -0.9534 -0.2687
 4249SOL    HW224384   0.874   2.596  14.620  1.7166  0.1303  0.8480
 4250SOL     OW24385   3.938   2.589  17.280  0.3306  0.0494 -0.7310
 4250SOL    HW124386   4.014   2.544  17.243  0.7965 -0.1840  0.4860
 4250SOL    HW224387   3.863   2.532  17.266  0.4843 -0.1334 -0.7962
 4251SOL     OW24388   2.214   2.988   5.633  0.3076 -0.1809  0.8656
 4251SOL    HW124389   2.244   3.077   5.652  3.6717 -1.3118  0.8718
 4251SOL    HW224390   2.120   2.997   5.624  0.4890  1.6234  0.6966
 4252SOL     OW24391   2.062   4.356  17.389 -0.1867  0.4369 -0.5106
 4252SOL    HW124392   2.115   4.434  17.406  1.7350 -0.9075 -0.3557
 4252SOL    HW224393   2.122   4.301  17.339  2.3048  1.5636  1.1981
 4253SOL     OW24394   4.205   2.949   5.326 -0.0827 -0.0607  0.5870
 4253SOL    HW124395   4.116   2.980   5.345  0.4319  2.5144 -1.1964
 4253SOL    HW224396   4.232   2.938   5.417 -0.5182  0.9886  0.8520
 4254SOL     OW24397   1.325   3.292  12.435 -0.1492 -0.3380 -0.2031
 4254SOL    HW124398   1.307   3.282  12.528  0.6944  0.2659  0.0198
 4254SOL    HW224399   1.316   3.387  12.431 -2.5340 -0.5870 -1.1551
 4255SOL     OW24400   3.857   1.700  16.597  0.2793  0.2587 -0.2938
 4255SOL    HW124401   3.798   1.734  16.664  0.8368  0.4455  0.1015
 4255SOL    HW224402   3.809   1.731  16.520  1.5135 -0.7634 -1.4756
 4256SOL     OW24403   1.939   1.000   6.236  0.3400 -0.4873  0.1461
 4256SOL    HW124404   1.859   0.952   6.218  0.8270 -1.6076  0.9626
 4256SOL    HW224405   2.005   0.973   6.172  1.0298  0.4729  0.4373
 4257SOL     OW24406   3.001   1.286   0.564  0.4331  0.0877  0.7056
 4257SOL    HW124407   2.940   1.303   0.635  0.4316 -0.4862  0.8406
 4257SOL    HW224408   3.065   1.348   0.600  0.5278  1.0350 -1.0758
 4258SOL     OW24409   1.679   2.647   8.270 -0.3974 -1.0572  0.0181
 4258SOL    HW124410   1.613   2.638   8.202 -1.5887  1.6389  0.8433
 4258SOL    HW224411   1.699   2.741   8.270 -0.3404 -1.0694  0.1851
 4259SOL     OW24412   0.726   1.961   3.648 -0.2011  0.3208 -0.7230
 4259SOL    HW124413   0.710   1.994   3.560  0.4300 -2.1267 -1.7743
 4259SOL    HW224414   0.661   2.013   3.694 -0.5998  0.1442 -1.0786
 4260SOL     OW24415   0.134   1.616   1.379  0.4211 -0.7274  0.1379
 4260SOL    HW124416   0.183   1.698   1.387 -0.5883  0.1267 -2.6565
 4260SOL    HW224417   0.112   1.603   1.471 -1.8749  0.2925 -0.2777
 4261SOL     OW24418   2.238   4.182   7.559  0.3402 -0.1752  0.4635
 4261SOL    HW124419   2.145   4.172   7.581 -0.1395  1.3207 -0.8628
 4261SOL    HW224420   2.267   4.091   7.558 -0.1639 -0.3311  0.1441
 4262SOL     OW24421   1.436   4.636   5.220 -0.0498  0.3727 -0.4453
 4262SOL    HW124422   1.376   4.677   5.157  0.8517  2.1188 -0.1586
 4262SOL    HW224423   1.388   4.566   5.264 -2.3282  2.8820  1.1118
 4263SOL     OW24424   4.008   3.056  16.255 -0.4734  0.3146 -0.0143
 4263SOL    HW124425   3.969   2.975  16.287 -1.1450  0.0360 -1.5414
 4263SOL    HW224426   4.077   3.031  16.195  0.2241 -0.7770  1.2422
 4264SOL     OW24427   0.240   4.391   2.740 -0.3840 -0.2154  0.2862
 4264SOL    HW124428   0.166   4.447   2.764 -1.7852 -2.3738  0.9913
 4264SOL    HW224429   0.257   4.418   2.649 -0.2471  1.1896  0.7174
 4265SOL     OW24430   4.186   0.947  12.166 -0.4842  0.6432  0.4676
 4265SOL    HW124431   4.202   0.942  12.260 -1.2758 -1.7598  0.4678
 4265SOL    HW224432   4.276   0.947  12.132 -0.9293  1.1273 -0.7063
 4266SOL     OW24433   3.776   3.189   9.276  0.3082 -0.8092  0.4908
 4266SOL    HW124434   3.870   3.204   9.263  0.3588  0.6033  2.4702
 4266SOL    HW224435   3.769   3.101   9.240 -0.3594 -0.0427 -1.2630
 4267SOL     OW24436   3.977   2.788   7.875 -0.7374 -0.5630  0.2627
 4267SOL    HW124437   4.057   2.821   7.916  0.6944 -2.8161 -0.7081
 4267SOL    HW224438   3.918   2.769   7.948 -1.1915 -0.5213 -0.0932
 4268SOL     OW24439   2.200   4.289   9.615 -0.1312  0.4297  0.0815
 4268SOL    HW124440   2.163   4.368   9.574 -1.0382  0.6583  1.3286
 4268SOL    HW224441   2.259   4.268   9.543  0.4577 -0.3963  0.8099
 4269SOL     OW24442   1.467   2.473   3.182  0.1821 -0.1314 -0.5056
 4269SOL    HW124443   1.554   2.506   3.162  0.3646  0.0399  0.5477
 4269SOL    HW224444   1.426   2.474   3.095 -2.1474  2.5381  0.6188
 4270SOL     OW24445   1.149   3.043  15.353  0.2105 -0.0360  0.3489
 4270SOL    HW124446   1.137   2.969  15.295  0.6621 -0.3009  0.5927
 4270SOL    HW224447   1.224   3.091  15.317 -1.3820  0.9864 -1.5737
 4271SOL     OW24448   0.890   3.919   2.429 -0.2324 -0.0074 -0.2174
 4271SOL    HW124449   0.873   3.992   2.487  0.3366 -0.5168  0.5867
 4271SOL    HW224450   0.799   3.897   2.409 -0.8330  0.5337  1.9592
 4272SOL     OW24451   1.118   4.205  16.722  0.2504 -0.2901 -0.1455
 4272SOL    HW124452   1.127   4.235  16.632 -1.8639 -0.1394 -0.3161
 4272SOL    HW224453   1.196   4.150  16.726  1.4925  1.2482 -3.5903
 4273SOL     OW24454   4.120   2.242   4.182 -0.3995 -0.4035 -0.1871
 4273SOL    HW124455   4.188   2.224   4.246  0.3710 -0.6416 -1.0628
 4273SOL    HW224456   4.044   2.248   4.238 -0.2123 -0.1599  0.0450
 4274SOL     OW24457   2.145   1.991   4.349 -0.2124 -0.0781 -0.1314
 4274SOL    HW124458   2.054   1.983   4.322 -0.6885  4.2192  0.1418
 4274SOL    HW224459   2.135   2.016   4.440  0.2852 -0.8405  0.1308
 4275SOL     OW24460   0.245   1.336   5.926 -0.3864 -0.2375  0.3185
 4275SOL    HW124461   0.179   1.336   5.856  0.2728 -0.6050 -0.3070
 4275SOL    HW224462   0.291   1.256   5.904  3.3864  2.1152 -0.3062
 4276SOL     OW24463   3.129   0.712   2.627 -0.7566 -0.5496  0.3141
 4276SOL    HW124464   3.069   0.657   2.576  0.0052 -0.4552 -0.6843
 4276SOL    HW224465   3.204   0.652   2.632  1.1763  1.8545  0.3743
 4277SOL     OW24466   2.096   0.435   6.816 -0.1588 -0.0469 -0.6970
 4277SOL    HW124467   2.099   0.365   6.881  3.8935 -1.1755 -2.0447
 4277SOL    HW224468   2.189   0.460   6.816 -0.3064  0.4591  1.3244
 4278SOL     OW24469   2.550   4.131   2.422 -0.3127 -0.0137  0.3579
 4278SOL    HW124470   2.534   4.197   2.355  1.0600  2.4202  2.4261
 4278SOL    HW224471   2.528   4.046   2.384  2.3972 -0.6753  0.2558
 4279SOL     OW24472   3.446   3.458  16.924  0.5596 -0.5545 -0.2073
 4279SOL    HW124473   3.481   3.458  16.835 -0.6907  0.2906 -0.6923
 4279SOL    HW224474   3.364   3.502  16.901 -0.6446 -1.9414  1.4204
 4280SOL     OW24475   4.427   0.075   8.453 -0.2470  0.0074 -0.0171
 4280SOL    HW124476   4.493   0.123   8.404 -1.1297  0.7345 -0.4914
 4280SOL    HW224477   4.408   0.139   8.523 -0.4205 -0.1602  0.0903
 4281SOL     OW24478   3.739   4.399   1.877  0.8814 -0.4943  0.4858
 4281SOL    HW124479   3.798   4.330   1.847 -0.6117 -2.5932  2.3951
 4281SOL    HW224480   3.764   4.471   1.819  0.9585 -1.1736 -0.3247
 4282SOL     OW24481   0.632   3.705   6.047 -0.4582  0.1661 -0.0098
 4282SOL    HW124482   0.627   3.631   5.987 -2.2815 -2.9241  3.9992
 4282SOL    HW224483   0.548   3.748   6.035 -0.0197  0.8064 -0.7956
 4283SOL     OW24484   2.966   2.639   5.811 -0.3712 -0.4114 -0.5196
 4283SOL    HW124485   2.931   2.696   5.743 -0.8343  2.0452  1.8210
 4283SOL    HW224486   2.890   2.586   5.834  0.7982 -1.3374  1.2526
 4284SOL     OW24487   0.567   3.630   8.280 -0.2448  0.4952 -0.2376
 4284SOL    HW124488   0.559   3.706   8.337  2.0756 -0.3011  1.1527
 4284SOL    HW224489   0.645   3.603   8.328 -0.5213  0.9569  0.4632
 4285SOL     OW24490   1.820   0.900   2.050  0.0216  0.1551 -0.4018
 4285SOL    HW124491   1.873   0.859   2.119 -2.2471 -0.6929  0.8446
 4285SOL    HW224492   1.765   0.951   2.109  0.1036 -0.2189 -0.0005
 4286SOL     OW24493   2.022   3.652  16.186  0.2983  0.2916  0.3636
 4286SOL    HW124494   1.944   3.674  16.238 -1.3936  1.2361 -2.5696
 4286SOL    HW224495   2.090   3.626  16.248 -0.3699 -0.7942  0.6478
 4287SOL     OW24496   1.591   0.192   1.278  0.1756 -0.6483 -0.3940
 4287SOL    HW124497   1.604   0.227   1.367  1.7599 -1.7148 -0.2043
 4287SOL    HW224498   1.496   0.183   1.269 -0.2378  3.6893 -0.3943
 4288SOL     OW24499   0.293   2.814  12.041  0.2164 -0.2236 -0.0439
 4288SOL    HW124500   0.223   2.837  12.102 -2.6602 -0.5408 -3.1908
 4288SOL    HW224501   0.342   2.896  12.041  0.0297 -0.1127 -0.5261
 4289SOL     OW24502   4.388   2.978   3.780  0.0962  0.3701  0.2208
 4289SOL    HW124503   4.387   3.008   3.689 -1.0352 -0.4953 -0.0719
 4289SOL    HW224504   4.334   2.898   3.778  0.4116  0.1947 -1.4887
 4290SOL     OW24505   3.777   1.877  13.022 -0.3961 -0.1089 -0.1835
 4290SOL    HW124506   3.684   1.875  12.999 -0.0537 -1.0621 -1.5145
 4290SOL    HW224507   3.777   1.841  13.111 -1.8130 -1.8958 -0.8959
 4291SOL     OW24508   0.891   2.154  15.964 -0.1941  0.0073  0.2307
 4291SOL    HW124509   0.863   2.240  15.994 -0.6003 -0.5099  1.3263
 4291SOL    HW224510   0.953   2.181  15.895 -2.5325 -1.1053 -2.2956
 4292SOL     OW24511   1.253   1.622   1.667  0.4600  0.2763  0.0138
 4292SOL    HW124512   1.339   1.657   1.643  0.3276 -1.2327 -2.6749
 4292SOL    HW224513   1.274   1.530   1.685 -0.5219  0.3155  1.3956
 4293SOL     OW24514   2.172   0.702   5.501 -0.3151  0.1813 -0.2438
 4293SOL    HW124515   2.103   0.683   5.565 -0.2070  0.4073 -0.0619
 4293SOL    HW224516   2.243   0.721   5.561  1.9332 -2.7117 -1.9906
 4294SOL     OW24517   2.913   4.730   6.239  0.8422 -0.0301  0.2340
 4294SOL    HW124518   2.997   0.013   6.278  0.9035 -0.2148  0.2084
 4294SOL    HW224519   2.859   0.064   6.267  0.1737 -0.8458  1.1032
 4295SOL     OW24520   1.216   0.892   9.231 -0.0746 -0.4642 -0.1646
 4295SOL    HW124521   1.200   0.977   9.272 -1.3482 -1.0457  0.5405
 4295SOL    HW224522   1.148   0.838   9.270 -0.7098 -2.0063 -3.3845
 4296SOL     OW24523   2.950   1.752   0.355 -0.0738 -0.2558  0.6202
 4296SOL    HW124524   2.903   1.816   0.409  0.2621 -0.2688  0.9297
 4296SOL    HW224525   2.936   1.678   0.413 -0.3484 -0.8050 -0.1428
 4297SOL     OW24526   1.411   1.233   2.370 -0.2573  0.0286 -0.2296
 4297SOL    HW124527   1.459   1.151   2.375  2.9218  1.9630  1.2914
 4297SOL    HW224528   1.380   1.238   2.460  0.4050 -0.2487  0.0097
 4298SOL     OW24529   1.171   4.537   6.253  0.2954 -0.2894  0.1288
 4298SOL    HW124530   1.226   4.610   6.282 -2.3168  1.9689 -0.5323
 4298SOL    HW224531   1.238   4.488   6.206  0.6216  0.0564  0.2310
 4299SOL     OW24532   2.600   3.166  17.173  0.0504  0.2589  0.5373
 4299SOL    HW124533   2.675   3.150  17.115  0.6675 -0.0720  1.4126
 4299SOL    HW224534   2.568   3.076  17.180  1.2040 -0.3581 -1.9421
 4300SOL     OW24535   3.457   0.648   7.653  0.6973  0.1098  0.0270
 4300SOL    HW124536   3.418   0.561   7.643 -1.0305  0.8409  0.3804
 4300SOL    HW224537   3.386   0.700   7.690  1.6860  1.6416 -0.2530
 4301SOL     OW24538   3.364   1.487  14.639 -0.0980 -0.7764  0.3160
 4301SOL    HW124539   3.396   1.531  14.717 -1.0570  1.0461 -0.3229
 4301SOL    HW224540   3.380   1.553  14.572  2.1228  1.6412  3.2448
 4302SOL     OW24541   1.344   0.946  12.450 -0.5678  0.2405 -0.3824
 4302SOL    HW124542   1.289   0.954  12.528 -0.4354  3.0741 -0.5984
 4302SOL    HW224543   1.301   0.873  12.407  0.4009 -1.0232  0.7825
 4303SOL     OW24544   0.910   0.432  10.562 -0.0315 -0.1685 -0.3048
 4303SOL    HW124545   0.888   0.455  10.472 -0.0415  0.5291 -0.1251
 4303SOL    HW224546   1.002   0.455  10.575 -0.0969 -0.3819  0.5450
 4304SOL     OW24547   1.539   3.150  10.793  0.8364 -0.4113 -0.2893
 4304SOL    HW124548   1.575   3.114  10.712 -0.1326 -0.4205 -0.7110
 4304SOL    HW224549   1.586   3.233  10.802 -0.1971  0.2110 -0.7390
 4305SOL     OW24550   1.130   1.109   6.266 -0.6878  0.0714 -0.6821
 4305SOL    HW124551   1.182   1.166   6.322  0.3268 -0.9544 -0.5902
 4305SOL    HW224552   1.162   1.023   6.293 -0.8930  0.3901  0.5907
 4306SOL     OW24553   3.384   2.339   6.900 -0.3457  0.2419  0.2641
 4306SOL    HW124554   3.390   2.297   6.815 -2.8355  2.7915 -1.1697
 4306SOL    HW224555   3.474   2.333   6.931 -1.0131 -1.5316  1.8547
 4307SOL     OW24556   2.214   2.576   1.994  0.0473  0.3856 -0.0894
 4307SOL    HW124557   2.200   2.549   2.085 -1.0932 -3.7916 -1.4935
 4307SOL    HW224558   2.161   2.504   1.959  0.7463  0.1573 -0.6871
 4308SOL     OW24559   1.019   2.443   4.717  0.4326 -0.3422  0.5276
 4308SOL    HW124560   1.030   2.406   4.629  0.8742 -0.4939  0.6497
 4308SOL    HW224561   0.938   2.493   4.710  0.4453 -0.5086 -0.8330
 4309SOL     OW24562   1.978   0.076   7.211 -0.1620 -0.4285 -0.0404
 4309SOL    HW124563   1.908   0.015   7.231  0.0129 -1.1650 -1.6483
 4309SOL    HW224564   2.048   0.015   7.190  1.0727  1.7031 -2.1229
 4310SOL     OW24565   4.519   1.550   6.732 -0.0395 -0.7355 -0.0552
 4310SOL    HW124566   4.492   1.515   6.647  0.6007  0.9823 -0.9705
 4310SOL    HW224567   4.438   1.533   6.780 -0.6114  2.4182  0.0745
 4311SOL     OW24568   4.629   4.562  15.098 -0.4551 -0.0858  0.1031
 4311SOL    HW124569   4.669   4.613  15.028 -3.6471  0.9861 -0.9628
 4311SOL    HW224570   4.695   4.556  15.167 -0.2934  0.4346 -0.0041
 4312SOL     OW24571   3.754   3.471  15.625  0.0681 -0.5561 -0.0729
 4312SOL    HW124572   3.743   3.529  15.549  0.6252  0.2711  0.4728
 4312SOL    HW224573   3.730   3.519  15.704  1.4275 -2.1891  1.3309
 4313SOL     OW24574   2.003   3.963   7.997  0.4872  0.3647  0.7467
 4313SOL    HW124575   2.073   3.931   7.940 -0.4011 -1.4625  0.7001
 4313SOL    HW224576   2.047   4.038   8.039  0.9325 -0.6467  2.0845
 4314SOL     OW24577   0.497   0.495  15.757  0.4368 -0.1823  0.6208
 4314SOL    HW124578   0.589   0.475  15.774  0.3773 -3.1799 -2.4192
 4314SOL    HW224579   0.499   0.532  15.669 -0.2314  0.1274  0.7367
 4315SOL     OW24580   4.041   3.777  16.577  0.3069  0.4897  0.0494
 4315SOL    HW124581   4.098   3.711  16.537 -1.1610 -0.4166 -0.5180
 4315SOL    HW224582   3.976   3.801  16.511  0.0877 -0.5570 -0.1035
 4316SOL     OW24583   3.023   1.388  11.452 -0.2453  0.9549  0.6837
 4316SOL    HW124584   3.044   1.460  11.392  0.7127 -1.3728 -1.7385
 4316SOL    HW224585   2.994   1.432  11.532 -0.8084 -0.1563  1.0843
 4317SOL     OW24586   1.515   2.441   3.785 -0.1069 -0.1633  0.3672
 4317SOL    HW124587   1.573   2.488   3.845 -0.6772  0.0226  0.7765
 4317SOL    HW224588   1.552   2.479   3.705 -1.6148 -0.5523 -0.5071
 4318SOL     OW24589   3.930   3.974   3.215 -0.0392 -0.1524 -0.4063
 4318SOL    HW124590   3.927   3.954   3.121  1.2204  0.8546 -0.6528
 4318SOL    HW224591   3.859   4.038   3.227  0.4475  0.4677 -0.8428
 4319SOL     OW24592   1.183   0.129  13.447  0.1666 -0.0637  0.1993
 4319SOL    HW124593   1.184   0.052  13.504 -1.2943 -0.9013 -0.9187
 4319SOL    HW224594   1.135   0.100  13.370 -0.4897 -0.4889  0.7712
 4320SOL     OW24595   0.214   2.462   8.567 -0.6528 -0.2081 -0.6890
 4320SOL    HW124596   0.217   2.479   8.661  0.0817  1.7069 -1.0551
 4320SOL    HW224597   0.284   2.397   8.561  1.5754  2.1062  0.3168
 4321SOL     OW24598   1.193   0.361   4.547 -0.0611 -0.4853 -0.2629
 4321SOL    HW124599   1.272   0.335   4.594  0.0941  0.5988  0.0616
 4321SOL    HW224600   1.191   0.298   4.474 -1.6780 -1.2622  0.4480
 4322SOL     OW24601   3.747   1.742   5.331  0.1492 -0.6190  0.4332
 4322SOL    HW124602   3.773   1.753   5.422  1.1174 -2.7117  0.4255
 4322SOL    HW224603   3.710   1.654   5.341  1.5561 -1.1113  1.4089
 4323SOL     OW24604   3.568   0.973  16.372 -0.4121  0.1163  0.2085
 4323SOL    HW124605   3.501   0.904  16.372 -0.5022  0.2090 -0.1810
 4323SOL    HW224606   3.564   1.010  16.284  0.2503 -1.8939 -0.6745
 4324SOL     OW24607   3.936   1.641   5.991  0.2774  0.1789  0.3044
 4324SOL    HW124608   3.849   1.606   5.975  0.3432 -1.1909  2.9374
 4324SOL    HW224609   3.975   1.650   5.904 -0.8093 -1.2732 -0.3329
 4325SOL     OW24610   0.922   2.111   1.177 -0.6514  0.7402  0.0241
 4325SOL    HW124611   0.967   2.105   1.261  0.8891 -0.3400 -0.8782
 4325SOL    HW224612   0.910   2.016   1.168  0.2903  0.3185  3.1808
 4326SOL     OW24613   4.253   4.446   5.607  0.7008  0.0647 -0.1513
 4326SOL    HW124614   4.173   4.489   5.579  0.4130  0.6518  1.5781
 4326SOL    HW224615   4.261   4.485   5.694  0.6414  2.9980 -1.4725
 4327SOL     OW24616   3.649   4.236   5.572 -0.4429  0.6753  0.1362
 4327SOL    HW124617   3.563   4.274   5.587 -1.6440 -1.1236 -2.1911
 4327SOL    HW224618   3.694   4.314   5.541  1.2804  0.3353  1.7945
 4328SOL     OW24619   1.615   0.689  10.943  0.4742 -0.8280 -0.3895
 4328SOL    HW124620   1.580   0.720  10.860 -0.5797 -1.0553 -0.0310
 4328SOL    HW224621   1.534   0.673  10.992  1.2434  1.0279  1.5075
 4329SOL     OW24622   2.926   3.167   8.966  0.2586 -0.0993 -0.2096
 4329SOL    HW124623   3.014   3.135   8.948  0.1107 -1.1964  1.0092
 4329SOL    HW224624   2.877   3.087   8.985  2.0867 -0.6208  2.3404
 4330SOL     OW24625   2.136   1.583   9.640  0.4166 -0.8995 -0.2103
 4330SOL    HW124626   2.125   1.526   9.715  1.9053 -1.3882 -0.3764
 4330SOL    HW224627   2.161   1.661   9.690 -1.8903 -0.2036 -0.1460
 4331SOL     OW24628   0.092   4.398  15.619  0.0337  0.6270  0.2876
 4331SOL    HW124629   0.105   4.438  15.533 -0.5341  1.7263  0.7047
 4331SOL    HW224630   0.043   4.470  15.660 -1.3069 -0.9022  1.3785
 4332SOL     OW24631   3.333   2.683   1.581  0.0494  0.1802 -0.0345
 4332SOL    HW124632   3.414   2.634   1.568  0.1167  0.4987 -0.8045
 4332SOL    HW224633   3.270   2.633   1.528 -0.9249  0.3233  0.9775
 4333SOL     OW24634   0.603   4.245   4.322  0.3589 -0.1570  0.3143
 4333SOL    HW124635   0.656   4.221   4.398 -0.6626 -0.7360  0.8511
 4333SOL    HW224636   0.517   4.210   4.347 -0.1618 -1.0087 -2.7048
 4334SOL     OW24637   0.839   0.505   6.222  0.6670 -0.6564  0.8852
 4334SOL    HW124638   0.744   0.513   6.217  0.8373  0.6713 -0.0419
 4334SOL    HW224639   0.864   0.445   6.152 -0.2737  0.1207 -0.1181
 4335SOL     OW24640   1.787   3.683  12.608 -0.0097 -0.7363 -0.4323
 4335SOL    HW124641   1.703   3.639  12.616 -1.0006  1.3818  0.7327
 4335SOL    HW224642   1.775   3.759  12.664  1.5424 -1.5242  0.9577
 4336SOL     OW24643   0.958   3.036  15.552  0.4894 -0.5388 -0.2642
 4336SOL    HW124644   1.025   3.030  15.483  1.0313  0.4087  0.1868
 4336SOL    HW224645   0.968   3.129  15.574  0.1018 -0.6911  0.5409
 4337SOL     OW24646   2.145   1.415   9.865  0.1297 -0.3467 -0.2052
 4337SOL    HW124647   2.059   1.442   9.898  0.5049 -1.7633  1.8818
 4337SOL    HW224648   2.142   1.322   9.887 -1.5815  0.1142  1.5892
 4338SOL     OW24649   1.689   3.229   6.654 -0.4086  0.2478 -0.3790
 4338SOL    HW124650   1.655   3.184   6.731 -0.7208 -0.7980 -1.1233
 4338SOL    HW224651   1.670   3.167   6.583 -2.9876 -1.4506  1.7731
 4339SOL     OW24652   3.584   4.218  16.823  0.3850 -0.0417 -0.0589
 4339SOL    HW124653   3.580   4.258  16.910 -1.7109 -0.8084  0.1944
 4339SOL    HW224654   3.652   4.151  16.820 -0.2634 -0.6166 -1.4858
 4340SOL     OW24655   3.379   2.897   8.258  0.7140  0.2613 -0.4727
 4340SOL    HW124656   3.409   2.986   8.272 -0.6701  0.5970  0.3688
 4340SOL    HW224657   3.297   2.916   8.212  2.4876  1.0583 -3.2728
 4341SOL     OW24658   0.707   1.670   0.417  0.0473 -0.0440  0.2022
 4341SOL    HW124659   0.734   1.702   0.330  0.7725 -0.6577  0.2066
 4341SOL    HW224660   0.782   1.620   0.450  0.8523  0.9837 -0.0607
 4342SOL     OW24661   4.004   0.708   1.458  0.0577  0.7180  0.2334
 4342SOL    HW124662   4.096   0.714   1.431  0.5647 -1.8318  1.3432
 4342SOL    HW224663   4.008   0.760   1.538  1.3358  1.9492 -0.6283
 4343SOL     OW24664   1.897   3.421  12.440 -0.1788 -0.6154  0.3472
 4343SOL    HW124665   1.820   3.371  12.414 -0.3931 -0.3732  0.5193
 4343SOL    HW224666   1.865   3.483  12.505 -0.4357  0.0499 -0.4233
 4344SOL     OW24667   2.914   2.350  12.591 -0.1536 -0.1871 -0.4159
 4344SOL    HW124668   2.832   2.333  12.544 -0.1008 -0.5252 -0.3899
 4344SOL    HW224669   2.888   2.401  12.667  0.0713 -0.5341 -0.1081
 4345SOL     OW24670   0.358   4.201  15.495 -0.4114  0.8438 -0.1340
 4345SOL    HW124671   0.420   4.273  15.503  0.7089  0.0460 -1.6766
 4345SOL    HW224672   0.301   4.221  15.570  1.7662 -1.5788  2.1784
 4346SOL     OW24673   3.404   4.379   7.758 -0.4338 -0.4316 -0.1098
 4346SOL    HW124674   3.317   4.339   7.765 -0.5370 -0.2704 -0.4829
 4346SOL    HW224675   3.367   4.462   7.729  1.0749 -0.1932 -1.3469
 4347SOL     OW24676   2.014   3.792   0.650 -0.2954  0.2676  0.4283
 4347SOL    HW124677   2.058   3.722   0.601 -1.6324  0.1234 -0.5591
 4347SOL    HW224678   1.922   3.766   0.650  0.1869 -1.5200 -1.4760
 4348SOL     OW24679   3.395   1.327   0.436 -0.0261 -0.4332 -0.0428
 4348SOL    HW124680   3.484   1.337   0.405  1.0042 -4.4030  1.6544
 4348SOL    HW224681   3.354   1.322   0.349 -1.3235  0.5020  0.5029
 4349SOL     OW24682   4.082   1.524   7.935 -0.5694  0.2745  0.5894
 4349SOL    HW124683   4.005   1.514   7.991  0.1933  1.2598  1.8078
 4349SOL    HW224684   4.038   1.556   7.856  0.6886 -0.5408 -0.4507
 4350SOL     OW24685   1.782   2.157  13.553 -0.2922  0.1188  0.2320
 4350SOL    HW124686   1.777   2.252  13.541  0.1761  0.1903  0.5761
 4350SOL    HW224687   1.791   2.134  13.460  0.6804  1.0858  0.0804
 4351SOL     OW24688   2.016   2.526   6.764 -0.6227 -0.3535  0.1451
 4351SOL    HW124689   2.003   2.432   6.763  0.9094 -0.5632  0.6413
 4351SOL    HW224690   1.978   2.529   6.852  0.4674 -2.9849  0.6824
 4352SOL     OW24691   1.684   1.626   8.352  0.1117  0.5394  0.2242
 4352SOL    HW124692   1.724   1.616   8.266  1.2132  1.8581  0.5829
 4352SOL    HW224693   1.718   1.550   8.399  0.7192 -0.9881 -2.6920
 4353SOL     OW24694   2.051   1.008  12.778 -0.0344  0.0450 -0.1953
 4353SOL    HW124695   2.118   0.940  12.784  0.4055  0.4559 -0.3653
 4353SOL    HW224696   2.009   1.013  12.864  2.2804  4.4998  0.7157
 4354SOL     OW24697   0.253   3.163   2.857  0.0275 -0.2725  0.5243
 4354SOL    HW124698   0.186   3.137   2.793 -0.4341  1.2404  0.4011
 4354SOL    HW224699   0.219   3.246   2.889  1.1608  0.4892 -0.2387
 4355SOL     OW24700   2.319   4.081   7.152 -0.1669 -0.3181 -0.3506
 4355SOL    HW124701   2.411   4.055   7.163  0.4020  1.5585 -0.7384
 4355SOL    HW224702   2.315   4.157   7.095  1.6667 -0.9136 -1.2668
 4356SOL     OW24703   0.350   2.542  11.366  0.4388  0.3192 -0.3777
 4356SOL    HW124704   0.348   2.630  11.328 -0.7943 -0.7208 -2.7045
 4356SOL    HW224705   0.349   2.566  11.459  0.4439 -1.9049  0.1935
 4357SOL     OW24706   2.912   4.130   6.994 -0.0990  0.5030 -0.3373
 4357SOL    HW124707   2.843   4.064   6.999  0.0399  0.3648 -0.2438
 4357SOL    HW224708   2.930   4.125   6.901 -0.1058 -0.0453 -0.3077
 4358SOL     OW24709   2.403   1.038   1.908  0.1430  0.2321 -0.4802
 4358SOL    HW124710   2.495   1.030   1.882 -0.1784  2.2076 -2.2127
 4358SOL    HW224711   2.411   1.060   2.001 -0.0120 -1.2531 -0.1157
 4359SOL     OW24712   3.683   1.050   7.644  0.0337  0.0806  0.8040
 4359SOL    HW124713   3.725   0.983   7.698  0.0592 -0.2274  0.4041
 4359SOL    HW224714   3.723   1.034   7.558  2.1025  1.5711  1.4950
 4360SOL     OW24715   0.164   3.971   3.673 -0.0537 -0.4047  0.6606
 4360SOL    HW124716   0.103   3.898   3.675  1.9289 -2.0411  1.1267
 4360SOL    HW224717   0.211   3.946   3.593 -0.1050 -0.5055  0.6620
 4361SOL     OW24718   4.675   4.656   9.057 -0.3343 -0.0872  0.3818
 4361SOL    HW124719   0.022   4.618   9.046 -0.0715  0.4387  0.6952
 4361SOL    HW224720   4.677   4.713   8.980  0.4370 -0.6392 -0.0059
 4362SOL     OW24721   1.124   1.522   2.056  0.4919 -0.1381  0.9558
 4362SOL    HW124722   1.199   1.465   2.073  0.0458 -0.4842  1.7772
 4362SOL    HW224723   1.091   1.483   1.975 -1.3461 -5.1163  4.0784
 4363SOL     OW24724   1.610   2.928  12.279  0.1511  0.8627 -0.1070
 4363SOL    HW124725   1.523   2.967  12.273  1.1558  2.9156 -1.2931
 4363SOL    HW224726   1.649   2.938  12.192  0.3318 -0.8220 -0.2259
 4364SOL     OW24727   0.593   3.877   2.662 -0.2821  0.0126  0.1935
 4364SOL    HW124728   0.604   3.793   2.706 -0.6797 -1.0063 -1.6302
 4364SOL    HW224729   0.501   3.861   2.644 -0.4540  0.4700  0.6695
 4365SOL     OW24730   3.051   0.167   9.929 -0.2749  0.0041  0.1898
 4365SOL    HW124731   3.001   0.144  10.007  1.3230 -0.4974  1.0718
 4365SOL    HW224732   3.079   0.256   9.952  1.2640 -0.4507  0.0933
 4366SOL     OW24733   4.029   1.723   8.181  0.0102  0.0866  0.2686
 4366SOL    HW124734   4.091   1.734   8.109  0.1771 -2.5959  0.0161
 4366SOL    HW224735   3.953   1.688   8.134  0.7473 -2.2101  0.8061
 4367SOL     OW24736   3.992   1.059  12.337 -0.4394 -0.2877 -0.1111
 4367SOL    HW124737   4.059   1.035  12.272 -0.3204 -0.3361  0.0293
 4367SOL    HW224738   4.021   1.142  12.375 -0.8993 -0.8762  1.4878
 4368SOL     OW24739   0.203   1.869   5.752  0.0483  0.3806  0.1964
 4368SOL    HW124740   0.130   1.823   5.793  1.7066 -2.1623  0.3125
 4368SOL    HW224741   0.240   1.805   5.691  0.9817  1.4560 -0.3857
 4369SOL     OW24742   3.398   2.396   3.229  1.0705  0.0949 -0.6909
 4369SOL    HW124743   3.468   2.332   3.225  2.7731  2.1396 -3.8969
 4369SOL    HW224744   3.380   2.409   3.135  0.1174 -1.2278 -0.6922
 4370SOL     OW24745   2.708   1.716  15.162  0.1152 -0.2072  0.1309
 4370SOL    HW124746   2.757   1.637  15.138 -0.7173 -0.3832 -1.0214
 4370SOL    HW224747   2.642   1.687  15.225 -0.8383 -0.0134 -0.7620
 4371SOL     OW24748   2.341   1.830   7.515 -0.7401 -0.3734 -0.2112
 4371SOL    HW124749   2.323   1.736   7.507 -0.5722 -0.1403 -3.6481
 4371SOL    HW224750   2.351   1.836   7.610  0.3750  3.2977 -0.5776
 4372SOL     OW24751   0.382   3.725   6.564 -0.1467 -0.0925 -0.8541
 4372SOL    HW124752   0.369   3.666   6.490 -0.1545 -0.7242 -0.3426
 4372SOL    HW224753   0.476   3.725   6.581 -0.0256 -0.0136 -1.5289
 4373SOL     OW24754   3.893   2.404   8.588 -0.4884  0.7973 -0.0976
 4373SOL    HW124755   3.965   2.343   8.577 -1.9079 -0.7985 -0.4957
 4373SOL    HW224756   3.816   2.354   8.559 -0.6959  0.4495  1.0401
 4374SOL     OW24757   0.555   2.175   5.228 -0.2862 -0.0473  0.5966
 4374SOL    HW124758   0.567   2.269   5.216  1.8804 -0.3569  0.2902
 4374SOL    HW224759   0.547   2.150   5.136 -0.3361 -0.4033  0.6967
 4375SOL     OW24760   4.578   1.276   9.296 -0.1441 -0.2808  0.2472
 4375SOL    HW124761   4.556   1.300   9.386  1.3238 -0.9393  0.7862
 4375SOL    HW224762   4.577   1.362   9.253  1.5195  0.7622  2.3151
 4376SOL     OW24763   1.767   1.314   6.848 -0.0615  0.5711 -0.0249
 4376SOL    HW124764   1.827   1.362   6.791 -1.0478 -0.5561 -2.0054
 4376SOL    HW224765   1.717   1.390   6.881  0.7081  0.9731  0.2157
 4377SOL     OW24766   4.243   2.726  11.151  0.0288  0.3876 -0.9709
 4377SOL    HW124767   4.300   2.650  11.167 -1.1245 -0.2555  0.1422
 4377SOL    HW224768   4.286   2.793  11.205 -0.0358  0.8777 -1.5393
 4378SOL     OW24769   1.216   4.383   8.531 -0.3903 -0.3486 -0.0707
 4378SOL    HW124770   1.309   4.401   8.542 -0.1727 -1.2085 -0.5032
 4378SOL    HW224771   1.220   4.379   8.435  0.4432 -2.5829  0.0550
 4379SOL     OW24772   1.387   2.203   9.394  0.0906 -0.3669 -0.1441
 4379SOL    HW124773   1.357   2.113   9.379 -0.3964  0.1282 -2.2141
 4379SOL    HW224774   1.460   2.206   9.333 -0.0899  1.0747 -0.3093
 4380SOL     OW24775   4.319   0.031   8.835 -0.1614  0.3661  0.0916
 4380SOL    HW124776   4.403   4.728   8.826  0.7055  2.2683 -0.9770
 4380SOL    HW224777   4.260   4.696   8.844  0.9944 -0.4917  0.3940
 4381SOL     OW24778   0.621   0.849   6.708 -0.6928 -0.4565  0.5531
 4381SOL    HW124779   0.580   0.792   6.773 -2.5577 -0.3971 -0.5614
 4381SOL    HW224780   0.700   0.798   6.694 -0.2789  0.8003 -1.8185
 4382SOL     OW24781   3.873   3.206   8.560 -0.5214  0.0758  0.0461
 4382SOL    HW124782   3.826   3.125   8.579 -1.0058  0.4208  0.3383
 4382SOL    HW224783   3.869   3.250   8.646 -0.2934  1.8640 -0.8578
 4383SOL     OW24784   4.412   3.236   2.050  0.4377 -0.2613  0.4230
 4383SOL    HW124785   4.329   3.201   2.017  0.4605  1.4445 -1.3953
 4383SOL    HW224786   4.470   3.175   2.006 -0.5873  0.2427 -1.6168
 4384SOL     OW24787   3.870   2.563  11.000  0.5038  0.1010 -0.4258
 4384SOL    HW124788   3.926   2.636  10.970  0.8219 -0.4810 -1.2625
 4384SOL    HW224789   3.895   2.482  10.956  1.8387  1.5991 -2.4871
 4385SOL     OW24790   0.611   2.374   3.967 -0.4114 -0.3855  0.1073
 4385SOL    HW124791   0.599   2.334   4.054 -0.9972  1.0098  0.6653
 4385SOL    HW224792   0.528   2.421   3.958 -0.3947 -0.6103 -1.1829
 4386SOL     OW24793   4.204   1.360   2.541  0.5784 -0.1540  0.4940
 4386SOL    HW124794   4.115   1.330   2.558  1.1722 -0.9401  2.2279
 4386SOL    HW224795   4.254   1.287   2.578  0.9690 -0.3185 -0.3516
 4387SOL     OW24796   4.014   1.450  15.553 -0.2968  0.1538 -0.5577
 4387SOL    HW124797   3.920   1.464  15.540 -0.5262 -0.9615 -0.0882
 4387SOL    HW224798   4.045   1.534  15.520 -0.8948  0.3875 -0.5338
 4388SOL     OW24799   1.368   1.843  17.133  0.3215 -0.1162  0.2520
 4388SOL    HW124800   1.304   1.844  17.062 -1.3587  3.4231  1.8186
 4388SOL    HW224801   1.428   1.918  17.127  0.2477 -0.0499  0.3380
 4389SOL     OW24802   1.395   0.071   3.201  0.0919  0.0098 -0.3495
 4389SOL    HW124803   1.424   0.047   3.289  0.3502 -2.2725 -1.0370
 4389SOL    HW224804   1.415   0.164   3.200 -0.0118  0.0614  1.4352
 4390SOL     OW24805   1.758   0.707  11.182  0.4061  0.0113  0.0308
 4390SOL    HW124806   1.717   0.644  11.241  0.4416 -0.4279 -0.4079
 4390SOL    HW224807   1.743   0.660  11.100  0.4003 -2.4938  1.4712
 4391SOL     OW24808   1.360   0.872  16.451  0.1702 -0.0648 -0.6942
 4391SOL    HW124809   1.286   0.929  16.430  0.0001  0.0285  0.1636
 4391SOL    HW224810   1.435   0.907  16.403  0.3979 -0.8045 -0.8916
 4392SOL     OW24811   1.836   2.176   2.323  0.1128  0.3076  0.3998
 4392SOL    HW124812   1.766   2.136   2.270  1.6886 -1.1950 -0.5697
 4392SOL    HW224813   1.895   2.191   2.249  1.0922 -0.4736  1.0127
 4393SOL     OW24814   1.507   1.420   1.564  0.3207 -0.9448  0.2030
 4393SOL    HW124815   1.560   1.392   1.489  0.2218 -1.8746  0.4808
 4393SOL    HW224816   1.568   1.476   1.611  1.5841 -1.0705 -1.2625
 4394SOL     OW24817   0.656   3.521  14.719  0.0251 -0.2488  0.1279
 4394SOL    HW124818   0.635   3.614  14.719  1.4735  0.0691 -0.8583
 4394SOL    HW224819   0.630   3.493  14.807 -2.1057 -1.6529 -0.9580
 4395SOL     OW24820   2.680   4.501   3.369  0.0372  0.5169  0.3171
 4395SOL    HW124821   2.715   4.589   3.381  1.9093  0.2445 -3.2414
 4395SOL    HW224822   2.758   4.455   3.400  1.2702  2.3616 -0.0586
 4396SOL     OW24823   0.182   1.467  14.635  0.6161 -0.4093 -0.6503
 4396SOL    HW124824   0.139   1.400  14.687 -0.8216 -0.0901 -1.4210
 4396SOL    HW224825   0.122   1.541  14.641  0.2681 -0.8138  0.7319
 4397SOL     OW24826   3.678   4.055  16.046 -0.0162 -0.3927 -0.6039
 4397SOL    HW124827   3.653   4.099  16.127 -0.9597 -0.5759 -0.7928
 4397SOL    HW224828   3.717   4.132  16.005  1.4667 -0.5346  0.5561
 4398SOL     OW24829   1.622   0.390  10.621 -0.1694  0.1475 -0.2519
 4398SOL    HW124830   1.600   0.382  10.714 -0.1367  2.1581 -0.0804
 4398SOL    HW224831   1.576   0.469  10.593  0.5543  0.3655 -0.8259
 4399SOL     OW24832   4.056   3.991   8.835  0.0505 -0.2347  0.3487
 4399SOL    HW124833   4.007   4.006   8.916  0.5129  0.5910  0.4758
 4399SOL    HW224834   4.102   4.075   8.831 -0.1610 -0.2147 -1.8127
 4400SOL     OW24835   3.571   2.411   3.505 -0.0034 -0.6215 -0.1115
 4400SOL    HW124836   3.636   2.392   3.572 -0.4497 -3.0980 -0.3713
 4400SOL    HW224837   3.504   2.347   3.531  0.3349 -0.7366  0.4766
 4401SOL     OW24838   2.372   0.428   7.950  0.5458  0.7172 -0.8120
 4401SOL    HW124839   2.400   0.435   7.859  1.6496  1.0920 -0.4404
 4401SOL    HW224840   2.343   0.337   7.939  2.1838  0.2517 -1.3175
 4402SOL     OW24841   1.168   3.532   2.518 -0.9956 -0.1417 -0.2068
 4402SOL    HW124842   1.117   3.462   2.557 -1.0026  0.9969  1.8653
 4402SOL    HW224843   1.253   3.488   2.513 -0.8731  0.4462 -3.0833
 4403SOL     OW24844   1.599   3.479   7.049  0.3184 -0.3991  0.3758
 4403SOL    HW124845   1.515   3.514   7.079  1.1466 -0.3517  2.6638
 4403SOL    HW224846   1.644   3.476   7.133  0.9392  0.2663  0.0564
 4404SOL     OW24847   1.020   0.484   4.786 -0.3183  0.1162 -0.1013
 4404SOL    HW124848   1.013   0.551   4.718  3.1046 -0.3451 -0.9150
 4404SOL    HW224849   1.105   0.507   4.824  0.1453 -2.0625  0.1961
 4405SOL     OW24850   1.829   4.581   6.529  0.5751  0.0054  0.0139
 4405SOL    HW124851   1.902   4.581   6.468  0.9769 -1.5641  0.4975
 4405SOL    HW224852   1.771   4.640   6.481  0.6460  0.3814  0.3809
 4406SOL     OW24853   2.430   2.993   3.322 -0.4088  0.0850 -0.2520
 4406SOL    HW124854   2.387   3.066   3.277  2.0221  0.3671 -2.1334
 4406SOL    HW224855   2.518   3.026   3.337 -0.9686  2.0713 -1.3192
 4407SOL     OW24856   4.129   3.587   1.278 -0.3775  0.3858 -0.1785
 4407SOL    HW124857   4.198   3.573   1.213  1.9530  2.2941  1.8751
 4407SOL    HW224858   4.161   3.534   1.351 -0.9554  1.0026  0.5186
 4408SOL     OW24859   4.643   0.592  11.440  0.2522  0.4499  0.0079
 4408SOL    HW124860   4.594   0.613  11.360 -0.4924 -2.0594 -0.2109
 4408SOL    HW224861   4.727   0.632  11.421  0.5910  0.9184  2.4440
 4409SOL     OW24862   4.707   3.303   3.998 -0.1415  0.0861 -0.1746
 4409SOL    HW124863   4.641   3.262   4.054  1.4426 -2.0385  0.1326
 4409SOL    HW224864   4.662   3.330   3.918 -0.9895 -1.0353 -0.0825
 4410SOL     OW24865   3.444   0.438   6.975  0.4202 -0.6821 -0.2597
 4410SOL    HW124866   3.414   0.435   6.884 -2.5791  0.1110  0.6732
 4410SOL    HW224867   3.509   0.507   6.974 -0.0870 -0.1770  1.3809
 4411SOL     OW24868   2.340   3.577   3.368  0.0039 -0.2415  0.2699
 4411SOL    HW124869   2.312   3.668   3.381 -1.7534 -0.7875  0.4129
 4411SOL    HW224870   2.311   3.545   3.454  0.0483  0.9300  0.7126
 4412SOL     OW24871   2.756   1.100   5.431  0.6698 -0.2112  0.0921
 4412SOL    HW124872   2.699   1.126   5.503 -0.1985 -0.4204 -0.5277
 4412SOL    HW224873   2.796   1.186   5.423 -1.1424  0.6381  0.3348
 4413SOL     OW24874   0.628   3.582   4.065 -0.5330 -0.4349  0.1567
 4413SOL    HW124875   0.617   3.651   4.130  2.9256  1.2428 -1.0206
 4413SOL    HW224876   0.666   3.511   4.118  2.3049  0.1620 -1.0620
 4414SOL     OW24877   3.647   1.577  14.679 -0.1930 -0.0919 -0.3593
 4414SOL    HW124878   3.637   1.529  14.597  1.6894  0.1915 -0.7462
 4414SOL    HW224879   3.707   1.520  14.729  0.1641 -0.8069 -1.6006
 4415SOL     OW24880   0.352   2.769   6.994 -0.1847 -0.1997 -0.5330
 4415SOL    HW124881   0.298   2.720   7.055  0.8021 -0.7980 -0.1352
 4415SOL    HW224882   0.438   2.754   7.035 -0.2150 -1.1777 -0.8529
 4416SOL     OW24883   0.906   2.202   1.829  0.1454 -0.0055  0.5041
 4416SOL    HW124884   0.922   2.125   1.884 -1.7325 -1.0820 -0.4586
 4416SOL    HW224885   0.921   2.269   1.895  1.5878  0.4435 -0.2727
 4417SOL     OW24886   3.711   4.492   7.386  0.2287 -0.0836  0.0683
 4417SOL    HW124887   3.624   4.509   7.350 -0.0565  1.1558  1.3768
 4417SOL    HW224888   3.736   4.416   7.332 -0.9809 -1.0247  0.8457
 4418SOL     OW24889   1.566   2.204   2.474 -0.3316  0.0003 -0.0514
 4418SOL    HW124890   1.535   2.287   2.510 -1.3274  0.5029 -2.0941
 4418SOL    HW224891   1.653   2.224   2.438  1.0893 -2.0759  2.1945
 4419SOL     OW24892   0.110   4.136  15.999 -0.1874 -0.1671  0.5875
 4419SOL    HW124893   0.168   4.175  15.933 -0.7356  0.5926  0.5386
 4419SOL    HW224894   0.043   4.203  16.014 -1.0220 -0.9493  0.3564
 4420SOL     OW24895   2.627   4.413  13.692 -0.4889 -0.1810  0.3456
 4420SOL    HW124896   2.570   4.361  13.636  0.5281 -0.1073 -0.7681
 4420SOL    HW224897   2.579   4.474  13.747 -0.1022  0.5743 -0.1672
 4421SOL     OW24898   1.739   0.389   0.597  0.0060  0.6583 -0.5068
 4421SOL    HW124899   1.804   0.455   0.621 -1.1996  0.6173  2.7476
 4421SOL    HW224900   1.687   0.383   0.677  1.3839 -0.4668  0.3034
 4422SOL     OW24901   2.111   4.497   8.945 -0.3805  0.7200 -0.0587
 4422SOL    HW124902   2.151   4.484   8.860 -0.2535 -0.0070  0.1125
 4422SOL    HW224903   2.132   4.410   8.981  0.4056  1.3103  0.9050
 4423SOL     OW24904   4.656   0.177  12.680 -0.3880 -0.0530  0.5220
 4423SOL    HW124905   4.684   0.264  12.708 -1.4064  0.3183  0.3960
 4423SOL    HW224906   4.636   0.131  12.761  0.1465 -1.9354 -0.4042
 4424SOL     OW24907   1.091   3.663   7.045  0.1695 -0.4207 -0.0361
 4424SOL    HW124908   1.048   3.748   7.032  0.9644 -0.4907 -3.1405
 4424SOL    HW224909   1.085   3.667   7.141 -2.7609 -0.4655 -0.2286
 4425SOL     OW24910   0.720   3.043  17.279  0.3772 -0.3502  0.3487
 4425SOL    HW124911   0.709   2.954  17.314 -3.9362  0.2035  0.4414
 4425SOL    HW224912   0.752   3.094  17.353  1.0276 -0.1062 -0.1069
 4426SOL     OW24913   2.168   2.071   6.495  0.2576 -0.3756 -0.4078
 4426SOL    HW124914   2.078   2.104   6.502 -0.3961 -2.6592  1.6486
 4426SOL    HW224915   2.159   2.000   6.431  0.2640  0.2103 -1.0632
 4427SOL     OW24916   1.630   3.740   3.978  0.1736 -0.1929 -0.1650
 4427SOL    HW124917   1.579   3.679   4.031  0.3834 -0.9308 -0.8053
 4427SOL    HW224918   1.715   3.742   4.021 -0.8097 -0.8520  1.7786
 4428SOL     OW24919   2.361   0.897   7.472  0.1701 -0.5620 -0.5679
 4428SOL    HW124920   2.273   0.883   7.439 -0.7943  4.4913 -0.1443
 4428SOL    HW224921   2.343   0.870   7.562  0.3542  0.5533 -0.1905
 4429SOL     OW24922   2.659   0.793   4.919 -0.7561 -0.0395  0.3525
 4429SOL    HW124923   2.645   0.732   4.991 -0.4068  0.4546  0.8406
 4429SOL    HW224924   2.585   0.853   4.931 -2.8418 -2.7988  1.2733
 4430SOL     OW24925   1.558   3.511   4.724  0.1860  0.3789 -0.5355
 4430SOL    HW124926   1.464   3.531   4.733  0.4479  2.1959 -1.7462
 4430SOL    HW224927   1.555   3.455   4.647 -0.6128  0.0432 -0.2613
 4431SOL     OW24928   0.495   1.535   9.890  0.2226 -0.1667  0.5136
 4431SOL    HW124929   0.511   1.462   9.830  1.2849  1.5212 -1.2477
 4431SOL    HW224930   0.417   1.505   9.937  1.3372 -1.5838  1.4637
 4432SOL     OW24931   2.304   3.220   3.116  0.1259 -0.2159  0.6897
 4432SOL    HW124932   2.317   3.211   3.021 -1.6632  0.1581  0.3981
 4432SOL    HW224933   2.239   3.291   3.110 -2.2154 -2.3824  0.5644
 4433SOL     OW24934   3.895   2.342   5.342 -0.4670 -0.3778  0.4335
 4433SOL    HW124935   3.852   2.309   5.421 -0.0400 -0.7897  0.4932
 4433SOL    HW224936   3.983   2.311   5.363 -0.5988 -0.7746  0.4008
 4434SOL     OW24937   3.331   2.759  10.328  0.4710  0.0321  0.1309
 4434SOL    HW124938   3.297   2.678  10.366 -1.1074  0.4555 -0.3857
 4434SOL    HW224939   3.266   2.788  10.264  0.7881  0.8409  0.1767
 4435SOL     OW24940   3.938   0.931  14.077 -0.1092 -0.1786  1.1185
 4435SOL    HW124941   3.945   0.890  13.990 -1.0856 -0.6242  1.2532
 4435SOL    HW224942   4.023   0.972  14.094  0.5161 -0.6947 -0.6827
 4436SOL     OW24943   0.482   1.124  16.102  0.3531  1.3846  0.7066
 4436SOL    HW124944   0.432   1.200  16.072  0.3560  1.4003  0.7408
 4436SOL    HW224945   0.499   1.076  16.021  3.8922  2.3252  0.9009
 4437SOL     OW24946   2.918   0.579  13.435 -0.3539 -0.0551 -0.6012
 4437SOL    HW124947   2.907   0.672  13.416 -1.4455 -0.6608 -2.8290
 4437SOL    HW224948   2.906   0.526  13.357  0.9169 -1.8892  0.4482
 4438SOL     OW24949   3.917   4.659   1.476 -0.1921  0.3941  0.4938
 4438SOL    HW124950   3.849   4.656   1.409  0.1637  0.2901  0.1406
 4438SOL    HW224951   3.954   0.007   1.460 -1.6546  0.9636  0.2625
 4439SOL     OW24952   0.319   1.835   2.099  0.4890  0.8020  0.1024
 4439SOL    HW124953   0.357   1.773   2.036 -0.6396 -0.2608  0.4582
 4439SOL    HW224954   0.302   1.903   2.034 -0.5634 -0.2171 -0.6887
 4440SOL     OW24955   0.929   4.692   0.980 -0.6636 -0.3167 -0.1811
 4440SOL    HW124956   0.897   4.735   0.901  0.6351  1.0698  0.0411
 4440SOL    HW224957   0.909   4.599   0.967  1.3209 -0.8634  0.5153
 4441SOL     OW24958   1.625   4.206  17.552 -0.0827  0.3397  0.1461
 4441SOL    HW124959   1.658   4.252  17.475  1.0048 -0.3773  0.1831
 4441SOL    HW224960   1.706   4.183  17.599  0.0854 -1.7495 -1.2097
 4442SOL     OW24961   2.887   1.457   7.198  0.2798  0.3510  0.0381
 4442SOL    HW124962   2.875   1.525   7.131  0.0646 -0.0315 -0.3126
 4442SOL    HW224963   2.823   1.492   7.260 -1.2505 -0.7488 -0.9208
 4443SOL     OW24964   4.571   1.337  11.768  0.2576 -0.0874 -0.3186
 4443SOL    HW124965   4.584   1.254  11.721 -0.1199  0.1417 -0.8271
 4443SOL    HW224966   4.656   1.375  11.750 -0.6977  2.9333  1.4766
 4444SOL     OW24967   1.754   1.237  12.283 -0.7881 -0.5938 -0.0197
 4444SOL    HW124968   1.721   1.248  12.194 -2.6196 -0.8977  0.6349
 4444SOL    HW224969   1.680   1.217  12.340 -0.0380 -2.0785  0.4464
 4445SOL     OW24970   1.998   4.404   2.855  0.1471  0.5781  0.4701
 4445SOL    HW124971   1.916   4.356   2.846  1.1468 -0.9191 -0.6902
 4445SOL    HW224972   2.043   4.326   2.888 -0.2617 -0.1963 -0.8258
 4446SOL     OW24973   3.008   0.338   3.218  0.2226  0.5166 -0.6529
 4446SOL    HW124974   3.055   0.399   3.274 -0.4865  0.2445  0.2545
 4446SOL    HW224975   3.082   0.302   3.170  0.7175 -0.3804  0.7783
 4447SOL     OW24976   0.484   4.332  14.632 -0.2299  0.1367  0.3045
 4447SOL    HW124977   0.435   4.315  14.551  0.4349  1.8337 -0.4549
 4447SOL    HW224978   0.410   4.345  14.692 -1.1379 -2.3054 -0.2630
 4448SOL     OW24979   3.068   3.924   2.302  0.2019 -0.2455  0.3539
 4448SOL    HW124980   3.132   3.981   2.259  0.6180  2.0355  4.0146
 4448SOL    HW224981   3.078   3.836   2.265 -0.7676 -0.1233 -0.1941
 4449SOL     OW24982   4.527   0.879   6.093  0.0706  0.9777 -0.2482
 4449SOL    HW124983   4.508   0.949   6.155 -0.8499 -0.2990  0.9094
 4449SOL    HW224984   4.622   0.879   6.100  0.0407  0.9088  0.1776
 4450SOL     OW24985   2.591   3.689  16.847 -0.4831 -0.1260 -0.5631
 4450SOL    HW124986   2.628   3.681  16.935 -0.8950  0.2072 -0.3649
 4450SOL    HW224987   2.503   3.653  16.858  0.0993 -0.9684  1.3826
 4451SOL     OW24988   4.216   3.251   7.249  0.2060  0.5700  0.2659
 4451SOL    HW124989   4.155   3.292   7.188 -1.2218  2.3124  2.8908
 4451SOL    HW224990   4.203   3.157   7.235  1.6589  0.7163 -2.1714
 4452SOL     OW24991   3.401   3.732   0.542 -0.0611 -0.5893 -0.4219
 4452SOL    HW124992   3.361   3.780   0.616  0.0465 -2.3005  0.7423
 4452SOL    HW224993   3.485   3.709   0.582 -0.0398  0.6190  0.2456
 4453SOL     OW24994   0.252   1.983   7.481 -0.4550  0.1521  0.3822
 4453SOL    HW124995   0.286   2.034   7.555  0.3170  0.6749 -0.3430
 4453SOL    HW224996   0.310   2.007   7.409 -0.9636  1.1264  0.2998
 4454SOL     OW24997   2.380   1.793   2.877  0.3294 -0.3531  0.6667
 4454SOL    HW124998   2.286   1.800   2.862  0.3161  0.3454  1.0631
 4454SOL    HW224999   2.403   1.709   2.837  1.2763 -0.1321  0.7363
 4455SOL     OW25000   4.303   4.610  14.416  0.0292 -0.2045 -0.3229
 4455SOL    HW125001   4.221   4.644  14.383 -0.2338 -1.4990 -0.9849
 4455SOL    HW225002   4.356   4.639  14.342 -1.4895 -0.9975 -1.7022
 4456SOL     OW25003   1.799   3.821   6.875  0.0360  0.5657  0.0109
 4456SOL    HW125004   1.867   3.876   6.837  0.0576  0.5073 -0.0346
 4456SOL    HW225005   1.812   3.740   6.826  2.2680 -0.1607  1.8008
 4457SOL     OW25006   0.456   1.917  14.651 -0.5854  0.3650 -0.0502
 4457SOL    HW125007   0.549   1.917  14.675 -0.5564  0.4967 -0.1633
 4457SOL    HW225008   0.426   1.828  14.635  1.5465 -0.3155 -0.2492
 4458SOL     OW25009   2.433   1.525   4.132  0.4917 -0.3344  0.1235
 4458SOL    HW125010   2.394   1.441   4.108  1.7701 -0.2888 -2.1409
 4458SOL    HW225011   2.512   1.525   4.078 -0.1026  0.4140 -0.7454
 4459SOL     OW25012   1.028   1.765   4.119 -0.8429  0.0106 -0.0489
 4459SOL    HW125013   1.031   1.858   4.096  1.1787  0.0120  0.1653
 4459SOL    HW225014   1.085   1.760   4.196 -0.8693  0.6475  0.0077
 4460SOL     OW25015   1.938   1.398   6.651 -0.0265  0.3053  0.8422
 4460SOL    HW125016   1.971   1.479   6.690 -0.8123  0.1620  1.8039
 4460SOL    HW225017   2.006   1.331   6.655  1.8163  2.0061 -2.4375
 4461SOL     OW25018   2.913   1.574   7.540  0.0663  0.5401 -0.2882
 4461SOL    HW125019   2.984   1.588   7.478 -1.1916 -1.0308 -2.0618
 4461SOL    HW225020   2.953   1.597   7.624  0.6857  1.8501 -0.9351
 4462SOL     OW25021   1.245   1.805   2.863 -0.1549 -0.7426  0.0421
 4462SOL    HW125022   1.209   1.799   2.774  0.7680  0.0480 -0.3878
 4462SOL    HW225023   1.285   1.892   2.855  1.9662 -1.7551 -0.2378
 4463SOL     OW25024   2.406   4.605   1.572  0.0813  0.5986  0.5322
 4463SOL    HW125025   2.329   4.655   1.546  1.6485  3.4416  1.3076
 4463SOL    HW225026   2.380   4.556   1.651 -2.9674  1.1361 -0.1497
 4464SOL     OW25027   2.666   1.505   3.650 -0.4083 -0.4666 -0.3282
 4464SOL    HW125028   2.761   1.492   3.638  0.2318  1.9855  2.0791
 4464SOL    HW225029   2.630   1.465   3.571 -1.7927 -1.2613  0.7116
 4465SOL     OW25030   4.234   4.627   2.030 -0.1593  0.4473 -0.9497
 4465SOL    HW125031   4.288   4.552   2.004 -0.3964 -0.1700  0.3545
 4465SOL    HW225032   4.279   4.661   2.107 -0.0110 -1.1849 -0.3028
 4466SOL     OW25033   1.488   4.116   9.285  0.4752 -0.2531 -0.1676
 4466SOL    HW125034   1.496   4.022   9.268  0.9243 -0.6376  2.1365
 4466SOL    HW225035   1.538   4.130   9.365  0.2323 -1.4538  0.1884
 4467SOL     OW25036   3.074   0.553   9.579  0.7608 -0.5202  0.3580
 4467SOL    HW125037   3.059   0.644   9.603 -0.2611  0.1501 -2.8989
 4467SOL    HW225038   3.119   0.547   9.495  1.0314 -4.4047  0.7622
 4468SOL     OW25039   1.117   2.101   8.979  0.4131 -0.4654  0.1022
 4468SOL    HW125040   1.063   2.093   8.901  0.7881 -1.4128 -0.0567
 4468SOL    HW225041   1.180   2.031   8.961 -1.6123 -1.9311 -1.1326
 4469SOL     OW25042   3.648   3.657   9.469 -0.1011  0.3324  0.6217
 4469SOL    HW125043   3.592   3.660   9.547 -0.6363 -0.3312  0.2525
 4469SOL    HW225044   3.659   3.563   9.458  1.6738  0.5871  0.1266
 4470SOL     OW25045   1.944   4.316  15.552 -0.1549  0.5840 -0.2820
 4470SOL    HW125046   1.910   4.397  15.515 -1.7768  0.7651  1.6188
 4470SOL    HW225047   1.948   4.338  15.645 -1.0354  0.6042 -0.2535
 4471SOL     OW25048   1.101   3.386   7.443  0.3010 -0.3826 -0.1646
 4471SOL    HW125049   1.135   3.334   7.516  1.4558  0.8190  0.1571
 4471SOL    HW225050   1.030   3.432   7.488 -0.8769 -0.4768 -1.9612
 4472SOL     OW25051   0.051   0.605   0.567 -0.1055  0.1421 -0.5342
 4472SOL    HW125052   0.119   0.550   0.606 -0.7973 -0.7674 -0.6085
 4472SOL    HW225053   0.109   0.658   0.513 -0.3601 -0.7669 -1.7032
 4473SOL     OW25054   3.995   3.466   9.173  0.5514  0.0958 -0.3516
 4473SOL    HW125055   3.914   3.425   9.140  1.9451 -1.1901 -2.1781
 4473SOL    HW225056   4.049   3.394   9.205 -0.1266  0.3579  1.3752
 4474SOL     OW25057   0.003   4.390   9.510 -0.8269  0.3617  0.0230
 4474SOL    HW125058   0.069   4.343   9.562 -1.1117 -0.6511 -0.5173
 4474SOL    HW225059   0.069   4.440   9.462  0.1539  0.3076  1.2999
 4475SOL     OW25060   3.218   4.131   7.088 -0.1571  0.5876 -0.0410
 4475SOL    HW125061   3.169   4.203   7.127 -0.7076  0.7559 -1.0584
 4475SOL    HW225062   3.241   4.170   7.003 -1.2851 -1.3692 -1.2333
 4476SOL     OW25063   0.997   1.374   8.327  0.5710 -0.1177  0.4891
 4476SOL    HW125064   1.014   1.347   8.237 -0.3105 -2.0279  0.8936
 4476SOL    HW225065   1.041   1.459   8.332  0.7888 -0.2578  1.0342
 4477SOL     OW25066   1.419   0.900   5.226 -0.1365 -0.2260  0.0564
 4477SOL    HW125067   1.458   0.956   5.159 -2.0005 -0.4390 -1.2223
 4477SOL    HW225068   1.324   0.913   5.222 -0.2687 -1.1485  0.2323
 4478SOL     OW25069   2.373   4.258   8.563  0.4704 -0.2153 -0.2323
 4478SOL    HW125070   2.414   4.239   8.647 -0.0344 -1.8227 -0.3543
 4478SOL    HW225071   2.414   4.341   8.539 -0.3466  0.0876 -0.5732
 4479SOL     OW25072   2.461   1.694   9.880  0.2127 -0.0817 -0.7471
 4479SOL    HW125073   2.556   1.701   9.870  0.3550 -1.4630 -0.4349
 4479SOL    HW225074   2.454   1.670   9.972  1.5184 -1.4379 -0.9979
 4480SOL     OW25075   4.487   3.170   4.124 -0.3103 -0.2658  0.4402
 4480SOL    HW125076   4.496   3.097   4.184 -2.3186 -0.9312 -0.0628
 4480SOL    HW225077   4.407   3.211   4.156 -1.2009 -0.3689 -1.6354
 4481SOL     OW25078   0.489   1.602   4.507 -0.6527  0.3452  0.5154
 4481SOL    HW125079   0.456   1.573   4.422  0.7304  0.0772  0.0694
 4481SOL    HW225080   0.406   1.641   4.534 -1.0250  2.1316 -3.1113
 4482SOL     OW25081   3.906   1.677   7.384  0.3994  0.2314 -0.5795
 4482SOL    HW125082   3.856   1.722   7.452  0.0577 -0.5912 -0.2915
 4482SOL    HW225083   3.994   1.695   7.418  1.3002 -1.6640 -1.8902
 4483SOL     OW25084   1.812   3.456   0.516 -0.4409  0.0821  0.4662
 4483SOL    HW125085   1.779   3.433   0.603  1.4971 -2.0046  0.6559
 4483SOL    HW225086   1.784   3.372   0.479 -0.3893 -0.1466  0.9384
 4484SOL     OW25087   1.038   2.842   5.775 -0.2007  0.2676  0.4432
 4484SOL    HW125088   1.124   2.803   5.757  0.1267  0.7823  0.9398
 4484SOL    HW225089   0.991   2.759   5.788 -0.5903  0.4194 -0.0018
 4485SOL     OW25090   2.260   1.323   4.293 -0.0013 -1.4312 -0.0255
 4485SOL    HW125091   2.189   1.261   4.309 -0.3205 -0.1655  3.3836
 4485SOL    HW225092   2.342   1.274   4.295  1.1952  0.5123 -1.4211
 4486SOL     OW25093   3.446   3.232   5.233 -0.2526 -0.1959  0.1285
 4486SOL    HW125094   3.444   3.316   5.186  1.4739 -0.3924 -0.2793
 4486SOL    HW225095   3.441   3.180   5.153 -0.5455 -0.3078  0.2183
 4487SOL     OW25096   2.281   1.535   9.170 -0.0750 -0.3243 -0.1251
 4487SOL    HW125097   2.305   1.554   9.261 -3.0121  0.4083  0.5030
 4487SOL    HW225098   2.268   1.440   9.169 -1.2647 -0.1914  1.9125
 4488SOL     OW25099   4.301   0.600   3.571  0.0190  0.1459 -0.0071
 4488SOL    HW125100   4.232   0.635   3.515  1.0318  0.3085 -1.1280
 4488SOL    HW225101   4.260   0.596   3.658  0.1795 -1.8004 -0.0302
 4489SOL     OW25102   0.965   0.548  13.552  0.7664 -0.4445 -0.3500
 4489SOL    HW125103   0.889   0.602  13.572  0.8633 -0.5094  0.1847
 4489SOL    HW225104   1.005   0.542  13.639 -1.2307  0.7059  0.6416
 4490SOL     OW25105   4.278   2.172   2.948  0.7550  0.2500  0.3305
 4490SOL    HW125106   4.245   2.098   3.000  0.2275 -0.3659 -0.8897
 4490SOL    HW225107   4.212   2.239   2.970 -0.2667 -0.7129  0.2061
 4491SOL     OW25108   1.310   3.664   1.756  0.1854  0.1751  0.7803
 4491SOL    HW125109   1.272   3.587   1.712  0.3204  1.3513 -1.3838
 4491SOL    HW225110   1.388   3.624   1.795  2.5090  2.2743 -1.7311
 4492SOL     OW25111   0.942   3.946   5.453 -0.1154 -0.4407 -0.0441
 4492SOL    HW125112   1.030   3.979   5.432  0.4236 -1.0098  1.3676
 4492SOL    HW225113   0.937   3.874   5.391 -0.0234  0.0004 -0.5699
 4493SOL     OW25114   0.323   4.477   7.749 -0.4956  0.0561 -0.3097
 4493SOL    HW125115   0.302   4.385   7.736  1.5605 -0.3370 -0.8381
 4493SOL    HW225116   0.314   4.507   7.659 -0.1358  1.2679  0.0542
 4494SOL     OW25117   2.798   1.987  15.207  0.9059  0.1047  0.1348
 4494SOL    HW125118   2.880   1.977  15.158  2.4399  0.9662  2.5177
 4494SOL    HW225119   2.776   1.896  15.226  1.5179  0.3867  2.2307
 4495SOL     OW25120   0.031   2.379  12.694  0.2961  0.4845 -0.2955
 4495SOL    HW125121   0.063   2.467  12.678 -1.4190  1.1823  0.0874
 4495SOL    HW225122   4.729   2.380  12.781  0.7173 -1.5639 -0.0785
 4496SOL     OW25123   4.223   1.161  11.728 -0.6858  0.1756 -0.8948
 4496SOL    HW125124   4.295   1.102  11.707  0.8722  2.3359 -1.6209
 4496SOL    HW225125   4.163   1.109  11.782 -0.3180 -0.1476 -0.8006
 4497SOL     OW25126   3.708   1.765   8.352  0.3277 -0.1948 -0.5092
 4497SOL    HW125127   3.736   1.716   8.430  0.7298 -0.0413 -0.5582
 4497SOL    HW225128   3.622   1.724   8.339  0.0570  0.2980 -0.2572
 4498SOL     OW25129   4.125   1.097   4.089  0.1630 -0.3924 -0.0224
 4498SOL    HW125130   4.186   1.059   4.026  0.5822  1.2930 -0.6251
 4498SOL    HW225131   4.050   1.038   4.091  0.3447 -0.5535  2.0206
 4499SOL     OW25132   0.634   0.132   1.997 -0.3427 -0.0996  0.0319
 4499SOL    HW125133   0.664   0.074   2.067 -0.3178  0.7205  0.7054
 4499SOL    HW225134   0.617   0.214   2.044  0.3118 -1.0023  1.8448
 4500SOL     OW25135   1.545   3.099  11.073  0.5643  0.2346 -0.0843
 4500SOL    HW125136   1.552   3.115  10.979  1.3202 -0.7410 -0.1906
 4500SOL    HW225137   1.638   3.107  11.094  0.2581  0.5832  1.0974
 4501SOL     OW25138   0.647   0.650   5.206 -0.3130 -0.3753 -0.3451
 4501SOL    HW125139   0.636   0.716   5.137  1.3633  2.1182  1.8108
 4501SOL    HW225140   0.631   0.574   5.149  2.1347  0.0896 -1.6610
 4502SOL     OW25141   3.274   1.311   3.701  0.2764  0.1221  0.4061
 4502SOL    HW125142   3.231   1.374   3.643  2.0761  0.7997 -0.1879
 4502SOL    HW225143   3.227   1.233   3.669  0.5939  1.0799 -2.4025
 4503SOL     OW25144   0.822   4.676   3.761  0.0088 -0.0401  0.0841
 4503SOL    HW125145   0.833   4.581   3.761  1.5614  0.1400 -1.0316
 4503SOL    HW225146   0.751   4.678   3.697 -0.3950 -1.9476  0.4676
 4504SOL     OW25147   1.566   3.120   5.270  0.0836  0.2641  0.1776
 4504SOL    HW125148   1.596   3.123   5.179 -1.5585  1.2636 -0.3315
 4504SOL    HW225149   1.561   3.025   5.276 -0.9337  0.3401  0.4619
 4505SOL     OW25150   4.276   1.241   9.250 -0.2811  0.1745  0.1417
 4505SOL    HW125151   4.368   1.254   9.271 -0.4637  1.9923 -0.1788
 4505SOL    HW225152   4.270   1.300   9.174 -0.4994 -0.6647 -0.4939
 4506SOL     OW25153   1.676   4.518   5.213  0.1714 -0.4110  0.7190
 4506SOL    HW125154   1.598   4.573   5.220 -0.1137 -0.6112 -0.8667
 4506SOL    HW225155   1.652   4.475   5.131  0.2079  0.7170  0.1116
 4507SOL     OW25156   4.670   0.978  15.520 -0.0923 -0.1115 -0.6071
 4507SOL    HW125157   4.587   0.986  15.567  1.3798  2.1351  1.5959
 4507SOL    HW225158   4.733   1.020  15.578  0.0903  2.0433 -2.3822
 4508SOL     OW25159   2.276   0.760   8.484  0.5095 -0.4382 -0.2689
 4508SOL    HW125160   2.273   0.688   8.547 -1.6103 -1.5703 -1.6922
 4508SOL    HW225161   2.322   0.720   8.410 -0.5922  1.5307 -2.0319
 4509SOL     OW25162   1.755   0.417   5.791  0.4642  0.1046  0.1472
 4509SOL    HW125163   1.697   0.345   5.817  1.4252  0.1630  2.4829
 4509SOL    HW225164   1.750   0.411   5.696  0.0599  1.5811  0.0773
 4510SOL     OW25165   2.200   0.961   3.764  0.7303 -0.1491  0.3171
 4510SOL    HW125166   2.160   0.981   3.679 -1.5055 -0.6197  1.2829
 4510SOL    HW225167   2.265   0.895   3.739  0.4377 -1.0421  1.9211
 4511SOL     OW25168   0.193   2.144   1.911 -0.0163  0.8289 -0.3337
 4511SOL    HW125169   0.121   2.113   1.965 -0.1103 -3.3992 -2.8660
 4511SOL    HW225170   0.147   2.144   1.827  1.0123 -1.4377 -0.9303
 4512SOL     OW25171   2.790   1.734   4.139 -0.6817 -0.0060  0.4452
 4512SOL    HW125172   2.762   1.700   4.224 -0.3234 -1.1824  0.0968
 4512SOL    HW225173   2.840   1.659   4.107  0.8629  0.6441  1.3336
 4513SOL     OW25174   1.424   1.378   8.523  0.0522 -0.0275 -0.3783
 4513SOL    HW125175   1.509   1.336   8.536  0.4869  1.0162  0.1847
 4513SOL    HW225176   1.439   1.468   8.553  2.0224 -0.2557 -0.7226
 4514SOL     OW25177   0.062   1.611  14.257 -1.1658 -0.4547  0.3835
 4514SOL    HW125178   0.075   1.517  14.260 -1.8271 -0.5384  0.8467
 4514SOL    HW225179   4.721   1.617  14.308 -0.4530  2.2623  1.1890
 4515SOL     OW25180   3.895   3.925   5.738  0.0550 -0.0204 -0.0319
 4515SOL    HW125181   3.827   3.951   5.800 -0.0016 -1.5653  0.5425
 4515SOL    HW225182   3.892   3.829   5.743 -0.6862 -0.0062 -0.2013
 4516SOL     OW25183   4.068   0.758   5.780 -0.7597 -0.0808 -0.0463
 4516SOL    HW125184   4.138   0.703   5.814 -0.8376  0.1785  0.5269
 4516SOL    HW225185   3.995   0.704   5.810 -1.0724 -0.4770 -1.5042
 4517SOL     OW25186   0.201   4.032   1.429  0.9287  0.4918  0.2138
 4517SOL    HW125187   0.116   3.988   1.431 -0.1617  2.6047  0.0284
 4517SOL    HW225188   0.240   3.975   1.363  0.2726  2.3945 -1.8149
 4518SOL     OW25189   2.324   1.620   9.422  0.1770  0.4485  0.6193
 4518SOL    HW125190   2.316   1.714   9.438 -2.5609  0.0424  1.6065
 4518SOL    HW225191   2.282   1.594   9.504 -0.1618 -1.3315 -0.1317
 4519SOL     OW25192   3.442   2.640  13.615  0.1777  0.1795 -0.4433
 4519SOL    HW125193   3.369   2.585  13.585  1.3890 -2.0245  0.6210
 4519SOL    HW225194   3.484   2.576  13.673  1.1136  1.0320 -0.1721
 4520SOL     OW25195   3.918   3.587   3.150 -0.8229 -0.3217  0.3681
 4520SOL    HW125196   3.856   3.648   3.110 -0.7793  0.0621  0.8801
 4520SOL    HW225197   3.933   3.613   3.241 -2.0558 -1.1452  0.8095
 4521SOL     OW25198   3.750   2.069   3.885 -0.1193  0.4020 -0.3668
 4521SOL    HW125199   3.834   2.031   3.908 -1.2423 -1.4185  0.7122
 4521SOL    HW225200   3.721   2.108   3.967  0.4129  0.7692 -0.3580
 4522SOL     OW25201   2.056   0.743   8.119  0.3428  0.4575 -0.2408
 4522SOL    HW125202   2.053   0.782   8.206 -0.1163 -0.8091  0.3119
 4522SOL    HW225203   1.965   0.714   8.113 -0.4028  2.7865 -0.2116
 4523SOL     OW25204   1.305   4.410   5.314  0.3052  0.4075 -0.2133
 4523SOL    HW125205   1.275   4.377   5.398 -0.2466  0.4682 -0.3891
 4523SOL    HW225206   1.310   4.337   5.253 -0.2064 -0.9561  1.3901
 4524SOL     OW25207   0.253   3.963   4.166 -0.4900 -0.5935 -0.2720
 4524SOL    HW125208   0.169   3.916   4.165 -0.8297 -0.0329  1.7845
 4524SOL    HW225209   0.250   4.017   4.087 -0.3492 -0.2984 -0.0740
 4525SOL     OW25210   3.660   2.783  17.067 -0.2165 -0.4149  0.0772
 4525SOL    HW125211   3.599   2.845  17.027  1.9420  1.3066 -0.5867
 4525SOL    HW225212   3.742   2.833  17.074 -0.3381 -0.4090  1.6364
 4526SOL     OW25213   2.049   4.235   5.810  0.0106 -0.1836  0.4186
 4526SOL    HW125214   2.109   4.299   5.848 -0.1120 -0.2739  0.7659
 4526SOL    HW225215   1.988   4.234   5.884 -2.0054 -3.1234 -1.3093
 4527SOL     OW25216   4.497   1.237   5.575 -0.2148  0.4798  0.6564
 4527SOL    HW125217   4.571   1.184   5.605 -0.7604 -1.6010 -1.6776
 4527SOL    HW225218   4.495   1.298   5.649  0.1956 -0.2755  1.2971
 4528SOL     OW25219   3.408   0.554  16.183  0.3004 -0.0692 -0.0866
 4528SOL    HW125220   3.324   0.550  16.138 -1.0331  0.9853  2.3178
 4528SOL    HW225221   3.387   0.489  16.251 -0.0435 -2.8617 -2.9002
 4529SOL     OW25222   3.042   1.023   6.800 -0.7558 -0.4973 -0.1211
 4529SOL    HW125223   3.006   1.106   6.829  0.1968 -0.0908 -0.1069
 4529SOL    HW225224   3.131   1.053   6.779  0.5026 -2.5929  2.1944
 4530SOL     OW25225   4.027   1.872   6.816 -0.1654 -0.2927  0.1970
 4530SOL    HW125226   4.088   1.925   6.766  0.8234  0.0164  1.7289
 4530SOL    HW225227   3.959   1.871   6.748 -0.8107 -1.3601  0.8564
 4531SOL     OW25228   4.120   1.105   4.994  0.1869 -0.1837  0.1198
 4531SOL    HW125229   4.080   1.060   4.920 -1.8075  0.5071  0.7650
 4531SOL    HW225230   4.081   1.057   5.067  1.1267 -1.5134 -0.2461
 4532SOL     OW25231   3.523   3.744   7.587 -0.1063  0.2797 -0.2581
 4532SOL    HW125232   3.540   3.819   7.644 -1.4766  0.3184  0.0976
 4532SOL    HW225233   3.429   3.750   7.570 -0.3962  0.8347  1.4602
 4533SOL     OW25234   1.788   1.886   0.680 -0.1836  0.1132  0.2604
 4533SOL    HW125235   1.762   1.800   0.645 -0.3390 -0.8266  2.6676
 4533SOL    HW225236   1.869   1.854   0.720  0.0516 -1.9226 -1.8250
 4534SOL     OW25237   3.800   0.668  13.535 -0.2202 -0.1258 -0.1355
 4534SOL    HW125238   3.717   0.716  13.535 -0.5369 -0.6877  0.3967
 4534SOL    HW225239   3.855   0.728  13.485  0.7928  0.1811  1.3775
 4535SOL     OW25240   2.447   0.464  12.587 -0.2900  0.2350  0.4310
 4535SOL    HW125241   2.372   0.483  12.532 -0.0177  0.5570  0.1705
 4535SOL    HW225242   2.470   0.376  12.556  0.9192  0.6494  0.1238
 4536SOL     OW25243   0.819   2.896  16.201 -0.0963 -0.1434  0.2715
 4536SOL    HW125244   0.832   2.991  16.195  0.6212 -0.2964 -0.5900
 4536SOL    HW225245   0.846   2.861  16.116  1.3264  0.2213  0.5828
 4537SOL     OW25246   2.637   4.061   7.895  0.0577  0.4373  0.4969
 4537SOL    HW125247   2.624   4.010   7.975  1.9145 -2.2462 -0.8771
 4537SOL    HW225248   2.724   4.037   7.864 -0.1402  0.7732 -0.3330
 4538SOL     OW25249   1.726   1.474   9.668  0.8465  0.4612  0.6669
 4538SOL    HW125250   1.796   1.460   9.733  1.9900  0.9611 -0.4645
 4538SOL    HW225251   1.779   1.492   9.591 -0.4795  1.2512 -0.0655
 4539SOL     OW25252   4.373   1.934   4.067  0.4524 -0.2667 -0.0255
 4539SOL    HW125253   4.333   2.009   4.025 -0.1191  0.6949  2.2249
 4539SOL    HW225254   4.297   1.876   4.074  0.5816 -0.4180  0.1323
 4540SOL     OW25255   0.745   1.198  17.120  0.0306  0.1677 -0.9944
 4540SOL    HW125256   0.744   1.139  17.044 -0.3182  0.3685 -1.1491
 4540SOL    HW225257   0.654   1.218  17.145  0.7260 -1.6516  2.9167
 4541SOL     OW25258   0.975   3.588   8.720  0.6359 -0.1065  0.0920
 4541SOL    HW125259   1.001   3.667   8.672  0.6609 -1.1520 -1.6003
 4541SOL    HW225260   0.915   3.621   8.787 -1.4855 -0.0727 -1.8124
 4542SOL     OW25261   2.996   2.133  13.839  0.1410  0.0910 -0.5219
 4542SOL    HW125262   3.022   2.050  13.800 -1.3286 -0.7542  0.2779
 4542SOL    HW225263   3.075   2.171  13.878 -1.2071 -0.3693  2.6793
 4543SOL     OW25264   1.534   4.509  12.753 -0.3197 -0.1813 -0.4004
 4543SOL    HW125265   1.523   4.593  12.796 -0.5938  0.6076 -1.9893
 4543SOL    HW225266   1.539   4.445  12.823 -0.5306 -0.7890 -0.9350
 4544SOL     OW25267   3.967   4.290  11.732 -0.5461 -0.0426  0.6632
 4544SOL    HW125268   4.029   4.280  11.804 -0.8864 -0.2888  0.9294
 4544SOL    HW225269   3.997   4.374  11.700  0.2085 -1.0469 -1.2934
 4545SOL     OW25270   0.264   3.447  10.210  0.0772 -0.0842  0.2049
 4545SOL    HW125271   0.193   3.505  10.183 -0.7495 -0.9134  0.6066
 4545SOL    HW225272   0.324   3.503  10.259 -0.9740  1.5159 -0.3634
 4546SOL     OW25273   1.726   3.144   0.098 -0.4678 -0.3009 -0.0576
 4546SOL    HW125274   1.723   3.237   0.122 -0.4110 -0.2767 -0.1456
 4546SOL    HW225275   1.639   3.105   0.103 -0.2152 -0.5331  2.6663
 4547SOL     OW25276   1.424   4.273  16.864 -0.1041 -0.8165 -0.8670
 4547SOL    HW125277   1.400   4.181  16.876  0.5476 -0.6494  1.8452
 4547SOL    HW225278   1.346   4.319  16.895  0.9439  0.5769 -0.2772
 4548SOL     OW25279   4.282   1.021  15.397 -0.6485  0.4732  0.6802
 4548SOL    HW125280   4.255   1.112  15.411  1.1490  1.0290  0.5202
 4548SOL    HW225281   4.352   1.013  15.461  0.6766 -0.2636 -0.8640
 4549SOL     OW25282   3.059   0.647   4.576 -0.0382  0.2034 -0.1863
 4549SOL    HW125283   2.973   0.634   4.536  0.0030 -2.4476  0.5381
 4549SOL    HW225284   3.082   0.739   4.569 -1.6235  0.5120 -1.4219
 4550SOL     OW25285   4.298   4.554  10.217 -0.3016  0.4122 -0.5007
 4550SOL    HW125286   4.383   4.598  10.214  0.1368 -0.6964 -4.8359
 4550SOL    HW225287   4.256   4.581  10.135 -2.9181  1.7590  1.2850
 4551SOL     OW25288   2.499   2.432   5.044 -0.2501  0.1924  0.2101
 4551SOL    HW125289   2.468   2.367   5.107  0.0220  2.2962  2.5047
 4551SOL    HW225290   2.490   2.394   4.957  2.7559  0.5873 -0.2799
 4552SOL     OW25291   0.723   1.509   4.209  0.1191 -0.3043 -0.3631
 4552SOL    HW125292   0.703   1.598   4.238  0.1811 -1.5103  3.3866
 4552SOL    HW225293   0.723   1.460   4.292 -1.2150  2.7011  1.4246
 4553SOL     OW25294   1.875   3.675   4.256  0.5131 -0.0084 -0.0494
 4553SOL    HW125295   1.792   3.719   4.275  0.2647 -0.3379 -0.3690
 4553SOL    HW225296   1.909   3.693   4.343  2.1466  0.3454 -0.7538
 4554SOL     OW25297   3.294   2.807   5.239  0.1279 -0.1028  0.2783
 4554SOL    HW125298   3.371   2.817   5.183  1.6761 -2.4970  1.9976
 4554SOL    HW225299   3.294   2.715   5.266  1.1793 -0.1210  0.2349
 4555SOL     OW25300   4.421   1.855   9.955  0.2523  0.3419  0.3539
 4555SOL    HW125301   4.358   1.927   9.959 -0.8314 -0.6209  0.4878
 4555SOL    HW225302   4.409   1.812  10.039  1.0483  0.4821  0.5425
 4556SOL     OW25303   2.336   3.237   8.352  0.1719  0.2249  0.6475
 4556SOL    HW125304   2.393   3.221   8.277  0.4728 -1.1163  1.1490
 4556SOL    HW225305   2.359   3.160   8.405  1.5280 -0.0116 -0.2815
 4557SOL     OW25306   1.661   2.179  13.787  0.3294 -0.2358  0.0769
 4557SOL    HW125307   1.701   2.266  13.793  2.1256 -1.3344  3.7110
 4557SOL    HW225308   1.722   2.133  13.729 -0.4502 -0.9073 -0.2106
 4558SOL     OW25309   1.630   4.310   9.755 -0.1440  0.0182 -0.0358
 4558SOL    HW125310   1.710   4.350   9.720 -0.1456 -0.4832 -0.6211
 4558SOL    HW225311   1.670   4.276   9.835 -2.6061 -0.5863  0.9394
 4559SOL     OW25312   3.471   4.592   9.644 -0.3956 -0.3366 -0.1195
 4559SOL    HW125313   3.434   4.680   9.638  0.6027  0.0103 -1.1306
 4559SOL    HW225314   3.446   4.565   9.556 -3.4231  1.1935  0.2712
 4560SOL     OW25315   4.402   1.704  11.234 -0.1796  0.6906 -0.0185
 4560SOL    HW125316   4.323   1.682  11.284  0.8497 -1.6836  0.5842
 4560SOL    HW225317   4.393   1.798  11.216 -1.6197  0.5250 -0.1340
 4561SOL     OW25318   4.042   2.813   9.258  0.2334 -0.7053  0.3827
 4561SOL    HW125319   4.008   2.823   9.169 -1.5607 -0.4663  1.0953
 4561SOL    HW225320   3.964   2.829   9.311  0.2634  2.5560 -0.5965
 4562SOL     OW25321   1.041   4.356   8.731  0.3192  0.3486  0.2956
 4562SOL    HW125322   1.115   4.344   8.672  1.3195 -0.4779  1.7168
 4562SOL    HW225323   0.983   4.389   8.662  0.2228 -0.7861 -0.1676
 4563SOL     OW25324   0.957   3.582   7.556 -0.0079 -0.5767 -0.1093
 4563SOL    HW125325   0.892   3.636   7.511 -1.2504  0.0426  2.4205
 4563SOL    HW225326   0.982   3.634   7.633  0.5657 -0.8606 -0.1062
 4564SOL     OW25327   0.205   1.846   9.390  0.1284 -0.3336  0.5256
 4564SOL    HW125328   0.252   1.923   9.356 -2.5277  0.8997 -0.3419
 4564SOL    HW225329   0.175   1.798   9.313  2.4696 -1.7945  0.4942
 4565SOL     OW25330   1.412   0.913   3.637  0.7011 -0.8083  0.2019
 4565SOL    HW125331   1.453   0.947   3.557 -0.6258 -0.0975 -0.1849
 4565SOL    HW225332   1.455   0.829   3.651 -0.9940 -1.8755 -1.0876
 4566SOL     OW25333   2.827   1.222   3.960  0.0829  0.6232  0.1640
 4566SOL    HW125334   2.822   1.170   4.040 -2.1031  0.3658 -0.1539
 4566SOL    HW225335   2.857   1.307   3.993 -0.0770  0.6576  0.2243
 4567SOL     OW25336   0.365   2.142   7.684  0.0258  0.0030 -0.0002
 4567SOL    HW125337   0.319   2.221   7.713 -0.2960 -0.8964  1.8629
 4567SOL    HW225338   0.438   2.184   7.637 -0.5463 -0.7598 -1.5810
 4568SOL     OW25339   2.736   3.037  14.931 -0.1282  0.8600 -0.1235
 4568SOL    HW125340   2.708   3.127  14.912 -2.3157  0.2321  0.0802
 4568SOL    HW225341   2.758   3.043  15.024  0.6767  1.6273 -0.3617
 4569SOL     OW25342   0.688   1.171   5.765 -0.2188  0.2660 -0.5831
 4569SOL    HW125343   0.688   1.117   5.843  1.9240  0.7559 -0.2511
 4569SOL    HW225344   0.609   1.144   5.718 -0.5131 -0.1465  0.1534
 4570SOL     OW25345   2.892   0.265   8.539 -0.0076 -0.1521 -0.0866
 4570SOL    HW125346   2.962   0.201   8.526  0.3623  0.0278  1.0448
 4570SOL    HW225347   2.936   0.304   8.614 -0.7366  2.5047 -1.0442
 4571SOL     OW25348   0.829   3.966   3.840  0.0107 -0.3511 -0.1127
 4571SOL    HW125349   0.741   3.931   3.858 -0.5798  0.4370 -1.4275
 4571SOL    HW225350   0.877   3.950   3.921 -0.6236  1.9633  0.7246
 4572SOL     OW25351   2.839   3.395   9.098 -0.0159 -0.1714  0.2172
 4572SOL    HW125352   2.767   3.361   9.151  0.7301 -2.8124 -0.4971
 4572SOL    HW225353   2.878   3.314   9.065 -2.9052 -1.3514 -0.3515
 4573SOL     OW25354   0.073   1.681   9.208  0.9345  0.1733  0.4406
 4573SOL    HW125355   0.131   1.629   9.152  0.0353 -1.7043  1.2460
 4573SOL    HW225356   0.020   1.727   9.143 -0.0874 -0.1263  1.0642
 4574SOL     OW25357   3.031   2.010   6.871  0.1078  0.1910  0.2718
 4574SOL    HW125358   2.972   2.043   6.803 -1.2141  1.5286  2.0886
 4574SOL    HW225359   2.967   1.965   6.927 -0.2868  0.2760 -0.1114
 4575SOL     OW25360   2.427   2.849  16.930 -0.1468  0.0497 -0.0206
 4575SOL    HW125361   2.382   2.906  16.868 -2.8024  0.0538  1.9308
 4575SOL    HW225362   2.396   2.762  16.902 -0.9312  0.5942 -0.8586
 4576SOL     OW25363   3.203   0.130  15.221  0.2605 -0.5169 -0.1346
 4576SOL    HW125364   3.126   0.185  15.238  0.1087 -0.5932 -0.5580
 4576SOL    HW225365   3.267   0.201  15.224  0.0287 -0.4475  2.8359
 4577SOL     OW25366   0.618   3.027   8.135 -0.0757  0.3578  0.3764
 4577SOL    HW125367   0.674   3.104   8.146 -0.3848  0.6437 -0.0484
 4577SOL    HW225368   0.621   3.018   8.039  2.4530  1.2200  0.3780
 4578SOL     OW25369   3.600   1.602   7.432  0.2052  0.1589 -0.2212
 4578SOL    HW125370   3.514   1.642   7.427  0.1731  0.0033 -0.9004
 4578SOL    HW225371   3.639   1.644   7.355  0.7251  0.1771  0.0496
 4579SOL     OW25372   1.600   2.661   2.849  0.1209 -0.2730  0.8837
 4579SOL    HW125373   1.662   2.646   2.920  1.0965 -0.6609 -0.0474
 4579SOL    HW225374   1.632   2.738   2.801  1.4160 -1.4711 -0.1950
 4580SOL     OW25375   1.955   1.650  10.642  0.0678  0.0262  0.1983
 4580SOL    HW125376   2.010   1.677  10.716  1.1739 -0.2566 -0.5158
 4580SOL    HW225377   1.881   1.709  10.652  1.6428  1.6552  2.3086
 4581SOL     OW25378   3.783   0.119   0.704  0.0010  0.4099 -0.2304
 4581SOL    HW125379   3.813   0.028   0.702  0.3235  0.5130 -0.0656
 4581SOL    HW225380   3.865   0.160   0.731 -0.2707  0.3622  0.6588
 4582SOL     OW25381   4.326   1.006   8.220  0.3250  0.2597  0.3599
 4582SOL    HW125382   4.366   0.970   8.140  0.6047  1.2983  0.0355
 4582SOL    HW225383   4.358   0.937   8.278 -0.8886 -0.6283 -0.0175
 4583SOL     OW25384   4.188   0.615  13.173 -0.6746  0.4828  0.5128
 4583SOL    HW125385   4.174   0.598  13.080  0.2763  2.0802  0.0610
 4583SOL    HW225386   4.272   0.662  13.170 -0.7339  0.5523 -0.3143
 4584SOL     OW25387   2.147   3.734   6.156 -0.8667 -0.0627  0.0670
 4584SOL    HW125388   2.095   3.723   6.077 -0.0764  3.3136 -0.9264
 4584SOL    HW225389   2.158   3.643   6.181 -1.0136 -0.4580 -1.3255
 4585SOL     OW25390   2.565   2.370   8.465 -0.5382  0.7108 -0.3605
 4585SOL    HW125391   2.492   2.413   8.422 -0.2559  0.9576 -0.5908
 4585SOL    HW225392   2.529   2.297   8.515 -1.6171  1.2365 -0.3707
 4586SOL     OW25393   3.293   0.927   5.151  0.4206 -0.6888 -0.2572
 4586SOL    HW125394   3.234   0.948   5.079  0.5370  2.2238  0.5004
 4586SOL    HW225395   3.232   0.927   5.224 -0.7381  1.4812 -1.2412
 4587SOL     OW25396   2.835   4.652  17.299  0.1469 -0.0251  0.3205
 4587SOL    HW125397   2.883   4.733  17.317 -1.1360  0.6822  0.5796
 4587SOL    HW225398   2.776   4.680  17.230  0.5231  0.9410  0.3792
 4588SOL     OW25399   3.096   2.588  16.086  0.0072 -0.3399 -0.3993
 4588SOL    HW125400   3.110   2.565  16.178  1.8010 -1.8556 -1.0484
 4588SOL    HW225401   3.096   2.503  16.043  2.2962 -0.9468  0.7984
 4589SOL     OW25402   3.751   3.321   8.295  0.1745  0.2086 -0.0664
 4589SOL    HW125403   3.741   3.411   8.326 -0.3911 -0.1384  0.7435
 4589SOL    HW225404   3.833   3.299   8.339  0.9585 -0.0870 -1.6846
 4590SOL     OW25405   2.312   4.104  17.626  0.3193  0.0702 -0.2896
 4590SOL    HW125406   2.368   4.182  17.616 -0.1871  0.5117  0.3288
 4590SOL    HW225407   2.266   4.125  17.707 -1.6807  2.7996 -2.1156
 4591SOL     OW25408   0.818   2.289   7.657  0.1471  0.7888  0.1134
 4591SOL    HW125409   0.809   2.356   7.590 -2.9052 -0.8897 -1.1723
 4591SOL    HW225410   0.908   2.262   7.643  0.0015 -0.1115  0.8724
 4592SOL     OW25411   3.295   1.416   6.760  0.5038  0.1031 -0.0947
 4592SOL    HW125412   3.256   1.413   6.673  0.2498  1.5498 -0.0314
 4592SOL    HW225413   3.221   1.391   6.816 -0.5196  1.6432 -0.7646
 4593SOL     OW25414   3.612   0.572   5.947  0.5414  0.0455  0.3130
 4593SOL    HW125415   3.542   0.532   5.999  0.8850  1.4140  1.8076
 4593SOL    HW225416   3.660   0.494   5.920 -0.7184 -0.5250 -0.2814
 4594SOL     OW25417   3.810   4.436   5.992 -0.3343  0.0347  0.2039
 4594SOL    HW125418   3.893   4.401   5.959  0.1253  1.9123 -0.6776
 4594SOL    HW225419   3.807   4.414   6.085 -1.0187  2.4926  0.7593
 4595SOL     OW25420   0.194   2.544   3.106 -0.1577 -0.1415  0.3538
 4595SOL    HW125421   0.230   2.608   3.167 -1.4177  1.6279 -0.7431
 4595SOL    HW225422   0.115   2.590   3.077 -1.1642 -0.1053  3.1683
 4596SOL     OW25423   1.193   0.445  14.871 -0.4347  0.2216  0.3591
 4596SOL    HW125424   1.250   0.411  14.802 -1.3696  0.4726 -0.5403
 4596SOL    HW225425   1.128   0.375  14.877 -0.5816  0.4172  1.1419
 4597SOL     OW25426   3.572   0.831   7.100  0.2330  0.4107 -0.3106
 4597SOL    HW125427   3.577   0.757   7.161  1.6387 -0.3841 -1.3701
 4597SOL    HW225428   3.565   0.785   7.016  0.8391  1.8181 -1.1383
 4598SOL     OW25429   0.066   4.461   7.457  0.5388 -0.6686 -0.2349
 4598SOL    HW125430   4.727   4.488   7.504  1.8558 -0.0186  1.5949
 4598SOL    HW225431   0.036   4.373   7.434  0.6111 -0.6770 -0.2957
 4599SOL     OW25432   2.877   4.406   3.523 -0.5133  0.0876  0.3452
 4599SOL    HW125433   2.923   4.480   3.563 -1.2125  0.5540  0.3022
 4599SOL    HW225434   2.936   4.334   3.543 -1.2371 -0.4282  0.6373
 4600SOL     OW25435   1.713   0.585   6.328 -0.2857  0.3783  0.1943
 4600SOL    HW125436   1.745   0.632   6.250  1.0719 -0.9482 -0.0637
 4600SOL    HW225437   1.664   0.512   6.291  0.3079 -0.2349  0.6090
 4601SOL     OW25438   1.204   2.041   5.811  0.0997 -0.3222  0.2504
 4601SOL    HW125439   1.163   2.098   5.876  1.8110  0.4746  0.6404
 4601SOL    HW225440   1.231   1.962   5.857  0.6056 -0.9488 -1.1128
 4602SOL     OW25441   2.379   3.209  15.146 -0.5281 -0.1820 -0.9172
 4602SOL    HW125442   2.401   3.120  15.173 -2.9919 -0.1867  1.0377
 4602SOL    HW225443   2.328   3.246  15.218 -0.5474 -1.4909 -0.2585
 4603SOL     OW25444   1.119   0.130   2.468 -0.4791 -0.1021 -0.0912
 4603SOL    HW125445   1.188   0.182   2.426 -2.1397  2.3728  0.1882
 4603SOL    HW225446   1.152   0.116   2.557 -0.2422 -0.5262 -0.2497
 4604SOL     OW25447   0.137   1.226   1.723 -0.0877  0.1704 -0.0791
 4604SOL    HW125448   0.138   1.313   1.762  0.2201 -0.2615  0.8720
 4604SOL    HW225449   0.181   1.175   1.790  0.0897  0.3238 -0.0792
 4605SOL     OW25450   1.955   3.345   4.960 -0.4000 -0.5775 -0.5415
 4605SOL    HW125451   1.924   3.307   5.042 -0.5020 -0.3137 -0.4561
 4605SOL    HW225452   2.038   3.380   4.995 -0.0835  0.6951 -2.5378
 4606SOL     OW25453   2.292   1.433   2.907  0.1462  0.4426 -0.1542
 4606SOL    HW125454   2.308   1.340   2.887 -1.1302  0.6153 -1.9767
 4606SOL    HW225455   2.323   1.442   2.997 -1.7639  0.3635  0.5179
 4607SOL     OW25456   1.491   0.092   5.548  0.0351  0.4174 -0.2595
 4607SOL    HW125457   1.410   0.042   5.562  0.3470 -0.3777 -1.2861
 4607SOL    HW225458   1.552   0.021   5.567  0.3475  0.9965  0.9422
 4608SOL     OW25459   4.436   0.557   1.468 -0.5187  0.1746  0.4516
 4608SOL    HW125460   4.376   0.518   1.532  1.0754 -2.6691  0.2583
 4608SOL    HW225461   4.510   0.496   1.463  1.2416  2.3304  0.5981
 4609SOL     OW25462   1.826   1.931   8.722  0.3749  0.0873  0.3087
 4609SOL    HW125463   1.868   1.854   8.760  1.4579 -0.3647 -1.7952
 4609SOL    HW225464   1.819   1.892   8.634  0.6757 -0.1357  0.3851
 4610SOL     OW25465   0.665   3.806   9.264  0.4455 -0.2980  0.2087
 4610SOL    HW125466   0.751   3.764   9.251  1.8224  1.8810  2.4298
 4610SOL    HW225467   0.672   3.880   9.204 -2.2429  1.0257  1.5661
 4611SOL     OW25468   3.696   4.729   5.181 -0.4311 -0.1003 -0.2871
 4611SOL    HW125469   3.756   0.021   5.249  0.6311  0.8054 -1.6546
 4611SOL    HW225470   3.708   0.054   5.111  3.1829 -1.4668 -0.9132
 4612SOL     OW25471   2.118   1.345  13.676 -0.0922 -0.1577 -0.4274
 4612SOL    HW125472   2.025   1.324  13.670 -0.0659  0.2527 -2.3486
 4612SOL    HW225473   2.128   1.343  13.771  4.1197  0.5216 -0.8598
 4613SOL     OW25474   3.591   4.180   8.515  0.0447  0.5049  0.1422
 4613SOL    HW125475   3.601   4.091   8.480  0.2014  0.5520  0.0675
 4613SOL    HW225476   3.619   4.227   8.437  0.0246 -0.0906 -0.2218
 4614SOL     OW25477   1.057   1.619  13.671  0.1939 -0.3794 -0.8285
 4614SOL    HW125478   1.053   1.591  13.580 -1.1405  0.5712 -1.0635
 4614SOL    HW225479   1.152   1.629  13.670 -0.3826  4.7959 -1.7120
 4615SOL     OW25480   1.923   1.501   9.493 -0.3434  0.3733  0.1586
 4615SOL    HW125481   2.001   1.541   9.532  0.1058  1.9159 -2.2478
 4615SOL    HW225482   1.947   1.501   9.400  1.6092 -1.4910  0.6633
 4616SOL     OW25483   0.899   3.975   0.545  0.2721 -0.2882 -0.6962
 4616SOL    HW125484   0.829   3.933   0.594 -0.2883  0.5431 -0.7959
 4616SOL    HW225485   0.851   4.027   0.482 -1.7308  1.3106  2.1590
 4617SOL     OW25486   0.764   3.846  14.052  0.2103 -0.3686  0.1061
 4617SOL    HW125487   0.811   3.924  14.081 -2.6575  2.4694 -2.7578
 4617SOL    HW225488   0.734   3.804  14.133  0.4586  3.2079  2.0821
 4618SOL     OW25489   2.029   0.353   2.291  0.6962 -0.3813  0.1429
 4618SOL    HW125490   1.957   0.356   2.354 -0.6945  2.7741 -1.6135
 4618SOL    HW225491   2.028   0.442   2.255 -1.4713 -1.2521 -1.9701
 4619SOL     OW25492   0.253   1.361   8.136 -0.0796 -0.2697  0.0691
 4619SOL    HW125493   0.322   1.348   8.202  1.0296 -2.8442 -1.6192
 4619SOL    HW225494   0.186   1.364   8.205  0.4216 -0.6304  0.5744
 4620SOL     OW25495   4.615   4.428   4.996 -0.2731  0.2921  0.7705
 4620SOL    HW125496   4.567   4.511   4.996 -0.9743 -0.1099  0.2954
 4620SOL    HW225497   4.563   4.368   4.942 -1.5070  1.9982  0.0854
 4621SOL     OW25498   1.747   2.339   0.191  0.1467  0.2417 -0.0214
 4621SOL    HW125499   1.797   2.266   0.154 -1.5800  0.2817 -2.3716
 4621SOL    HW225500   1.670   2.345   0.136 -0.8420 -3.1457  0.9391
 4622SOL     OW25501   2.185   2.949   6.206 -0.1349  0.1758  0.0872
 4622SOL    HW125502   2.125   3.010   6.248 -0.1491  0.8720 -0.9438
 4622SOL    HW225503   2.221   2.910   6.286 -1.6269 -0.8505  0.2624
 4623SOL     OW25504   0.855   0.677   2.948  0.4854 -0.5092  0.0490
 4623SOL    HW125505   0.909   0.746   2.985  1.6535 -2.4109  1.8747
 4623SOL    HW225506   0.780   0.686   3.006 -0.5924 -0.3685 -1.3576
 4624SOL     OW25507   3.036   0.013   7.686 -0.7458  0.1456 -0.4396
 4624SOL    HW125508   2.975   4.694   7.642  0.8692 -2.6872  1.1206
 4624SOL    HW225509   3.016   0.097   7.644  0.2376 -0.2365 -1.6718
 4625SOL     OW25510   4.161   1.777   3.828 -0.4853 -0.1903 -0.5796
 4625SOL    HW125511   4.214   1.698   3.835  0.3583  0.3777 -0.4416
 4625SOL    HW225512   4.135   1.774   3.920 -0.0572  0.8631 -0.4202
 4626SOL     OW25513   2.440   1.102  16.602  0.7107  0.2784  0.4276
 4626SOL    HW125514   2.532   1.120  16.622  0.2044  2.0926  1.1265
 4626SOL    HW225515   2.445   1.020  16.553  0.5473 -0.4646  1.6371
 4627SOL     OW25516   0.959   2.823  17.534 -0.2239 -0.4014  0.0655
 4627SOL    HW125517   0.904   2.853  17.462 -0.8516 -0.9525  0.3189
 4627SOL    HW225518   1.048   2.820  17.499  0.0540  1.5528  0.6400
 4628SOL     OW25519   0.404   3.956   6.150 -0.3315  0.6125 -0.1129
 4628SOL    HW125520   0.365   3.971   6.236 -0.9061  2.3932 -0.7039
 4628SOL    HW225521   0.454   4.036   6.133  0.5542 -0.0717 -0.7580
 4629SOL     OW25522   0.788   1.859  16.933 -0.0994  0.3377 -0.4736
 4629SOL    HW125523   0.740   1.783  16.900  0.8565  0.5887 -2.4734
 4629SOL    HW225524   0.720   1.912  16.975 -0.6804  0.1405 -1.1663
 4630SOL     OW25525   4.560   4.596  10.243  0.2728 -0.2745  0.1650
 4630SOL    HW125526   4.625   4.573  10.177  0.6628 -0.2889  0.5472
 4630SOL    HW225527   4.583   4.689  10.247 -1.8382  0.1433  1.9532
 4631SOL     OW25528   4.399   4.338   9.005  0.3778  0.7363 -0.2857
 4631SOL    HW125529   4.485   4.369   8.976  0.2495  0.8081 -0.5912
 4631SOL    HW225530   4.390   4.391   9.085  0.2863  1.1377 -0.5620
 4632SOL     OW25531   2.347   3.047   7.236 -0.1131  0.0494  0.4466
 4632SOL    HW125532   2.368   3.136   7.211 -2.2149  0.4001 -0.0650
 4632SOL    HW225533   2.431   3.005   7.222  0.8656  2.2498 -0.2245
 4633SOL     OW25534   2.252   2.710  10.971 -0.1648  0.7776 -0.2989
 4633SOL    HW125535   2.170   2.672  10.939 -0.4215  1.9256 -1.0207
 4633SOL    HW225536   2.314   2.671  10.909  2.6672  1.1997  2.2873
 4634SOL     OW25537   2.111   1.771  14.825  0.7264 -0.6063 -0.3045
 4634SOL    HW125538   2.192   1.775  14.876  0.7562  0.8002 -0.4828
 4634SOL    HW225539   2.044   1.781  14.892 -0.1495 -0.1648 -1.2516
 4635SOL     OW25540   1.917   2.884   7.566  0.2922  0.6527  0.1628
 4635SOL    HW125541   1.985   2.820   7.547 -0.7444 -0.3876 -0.0280
 4635SOL    HW225542   1.945   2.963   7.520  0.7396  0.7363  0.5763
 4636SOL     OW25543   4.007   0.163  10.064 -0.5854 -0.1575  0.0062
 4636SOL    HW125544   3.930   0.183  10.117 -0.8316  0.2324 -0.4995
 4636SOL    HW225545   4.024   0.073  10.091 -1.8805 -0.7355 -1.1501
 4637SOL     OW25546   0.171   2.476   9.407 -0.2791 -0.0772  0.0310
 4637SOL    HW125547   0.243   2.535   9.429 -0.1342 -0.2003 -0.1180
 4637SOL    HW225548   0.203   2.393   9.443 -0.7974 -0.4644 -0.3980
 4638SOL     OW25549   4.471   2.813  10.653 -0.2187 -0.1602 -0.1422
 4638SOL    HW125550   4.507   2.726  10.671 -0.7000 -0.0673  1.2335
 4638SOL    HW225551   4.408   2.793  10.584 -2.6921  2.5416  1.3695
 4639SOL     OW25552   4.700   3.977   2.441  0.3501  0.3804 -0.2233
 4639SOL    HW125553   0.046   4.020   2.446  0.0405  0.6375  3.2450
 4639SOL    HW225554   4.653   4.021   2.369  0.3385  2.0821  0.8083
 4640SOL     OW25555   4.402   4.272   5.414  0.1629  0.3127  0.2461
 4640SOL    HW125556   4.376   4.332   5.484  0.6648  2.4618 -1.3957
 4640SOL    HW225557   4.408   4.338   5.344 -0.8517  0.5279  0.3713
 4641SOL     OW25558   1.904   2.324  15.416  0.6693 -0.4485  0.2351
 4641SOL    HW125559   1.879   2.247  15.364  1.9702 -0.7144  0.0140
 4641SOL    HW225560   1.974   2.363  15.364 -0.7135  1.7448  0.0346
 4642SOL     OW25561   0.799   4.068   7.127 -0.8247  0.0857  0.5665
 4642SOL    HW125562   0.742   4.130   7.082 -0.0429  0.6909  0.4066
 4642SOL    HW225563   0.816   4.116   7.208  0.4796 -0.2418  0.5010
 4643SOL     OW25564   0.919   1.700   8.090 -0.2118 -0.0783 -0.0109
 4643SOL    HW125565   0.968   1.624   8.123  0.8528  0.2988 -0.7290
 4643SOL    HW225566   0.972   1.776   8.113 -0.9102  0.0546  1.1209
 4644SOL     OW25567   1.262   3.640   7.607 -0.3351  0.4401 -0.1048
 4644SOL    HW125568   1.260   3.699   7.682 -0.4303  0.8772 -0.4496
 4644SOL    HW225569   1.233   3.695   7.534  0.5614  1.4092  0.2702
 4645SOL     OW25570   3.046   1.292   7.958 -0.0136 -0.0024  0.5023
 4645SOL    HW125571   2.953   1.285   7.935 -0.2373  2.2588  0.6622
 4645SOL    HW225572   3.058   1.211   8.007  0.9511 -0.3507 -0.3080
 4646SOL     OW25573   1.972   1.804   0.880  0.1857 -0.4600 -0.5420
 4646SOL    HW125574   2.041   1.858   0.843  0.1317  0.0681  0.1344
 4646SOL    HW225575   1.964   1.843   0.967 -0.7005  1.4705 -1.4930
 4647SOL     OW25576   3.402   0.984   3.676  0.1040  0.4684 -0.9027
 4647SOL    HW125577   3.320   1.022   3.645 -0.4197  0.2558  0.2486
 4647SOL    HW225578   3.459   1.043   3.626  0.0395  1.8129  0.5928
 4648SOL     OW25579   1.422   4.027   6.340  0.3281 -0.1315  0.0517
 4648SOL    HW125580   1.360   4.083   6.388 -1.8165 -0.7730 -1.9621
 4648SOL    HW225581   1.360   3.988   6.278  0.3177  0.8315 -0.5391
 4649SOL     OW25582   2.580   2.861   0.313 -0.7044  0.2427  0.2575
 4649SOL    HW125583   2.647   2.928   0.331 -1.9156  1.9165 -1.4296
 4649SOL    HW225584   2.570   2.827   0.402 -0.4893  0.0480  0.2065
 4650SOL     OW25585   4.111   4.507   5.337  0.0863  0.4218 -0.1249
 4650SOL    HW125586   4.188   4.505   5.280  0.2502 -0.5532  0.1201
 4650SOL    HW225587   4.113   4.418   5.372  0.5985  0.7071  0.5799
 4651SOL     OW25588   2.316   0.165  12.537 -0.2523 -0.1237 -0.0346
 4651SOL    HW125589   2.373   0.090  12.520 -1.1449 -1.0541  1.0235
 4651SOL    HW225590   2.246   0.151  12.473  0.8448  0.8508 -1.4180
 4652SOL     OW25591   0.145   3.593   3.898  0.2252  0.2014  0.1080
 4652SOL    HW125592   0.145   3.686   3.872 -0.3423 -0.4316 -2.1911
 4652SOL    HW225593   0.143   3.599   3.993  2.7280 -0.6143  0.2260
 4653SOL     OW25594   4.397   2.209   6.843 -0.2573 -0.0904  0.4008
 4653SOL    HW125595   4.461   2.211   6.772  0.6518  1.3555  1.2837
 4653SOL    HW225596   4.408   2.121   6.880 -2.9352  0.0617  1.5677
 4654SOL     OW25597   4.599   3.315   1.630 -0.1491  0.0194 -0.6959
 4654SOL    HW125598   4.650   3.330   1.550  1.7006 -2.1745  0.0363
 4654SOL    HW225599   4.664   3.337   1.697 -0.2639  1.3017 -1.0064
 4655SOL     OW25600   2.609   4.585   2.516  0.2841 -0.1158 -0.4236
 4655SOL    HW125601   2.531   4.531   2.502  0.0379  0.1211  0.0550
 4655SOL    HW225602   2.583   4.636   2.592  1.2557  0.0217 -0.1843
 4656SOL     OW25603   3.997   3.644  14.230 -0.6480 -0.1439 -0.3440
 4656SOL    HW125604   3.938   3.713  14.261 -0.2134  0.5320 -1.0101
 4656SOL    HW225605   3.956   3.564  14.263 -1.7660  1.1648  1.4745
 4657SOL     OW25606   1.217   1.883   1.053 -1.0375 -0.0215  0.1083
 4657SOL    HW125607   1.221   1.791   1.027 -1.5186  0.4861 -1.7527
 4657SOL    HW225608   1.225   1.933   0.972  1.0252  2.1097  1.6440
 4658SOL     OW25609   3.279   0.129  15.719 -0.3758  0.0741  0.0225
 4658SOL    HW125610   3.271   0.063  15.788 -0.0856 -2.3596 -2.2623
 4658SOL    HW225611   3.367   0.109  15.687  0.2885  2.5376  0.2739
 4659SOL     OW25612   3.958   3.824  16.824  0.7959 -0.1260  0.4560
 4659SOL    HW125613   4.040   3.805  16.870  1.0954  0.1715  0.0404
 4659SOL    HW225614   3.979   3.820  16.731  2.6908  0.6766  0.8542
 4660SOL     OW25615   0.588   2.352   8.015 -0.1743  0.6117 -0.0690
 4660SOL    HW125616   0.596   2.343   8.109  1.1851 -1.2574 -0.3575
 4660SOL    HW225617   0.658   2.416   8.005  1.4193 -1.0714  0.2807
 4661SOL     OW25618   2.104   4.570   3.069  0.4251 -0.7269  0.2630
 4661SOL    HW125619   2.031   4.511   3.053 -0.2264  0.5705 -1.4564
 4661SOL    HW225620   2.096   4.572   3.165  0.6399  0.4622  0.2601
 4662SOL     OW25621   0.789   2.157  15.560 -0.5510  0.5006  0.2763
 4662SOL    HW125622   0.719   2.213  15.528  0.0532  0.1881 -1.6069
 4662SOL    HW225623   0.749   2.072  15.579 -2.3635  1.6168  1.4659
 4663SOL     OW25624   2.668   2.464   1.477 -0.1977 -0.3761 -0.0955
 4663SOL    HW125625   2.718   2.546   1.482 -0.1907 -0.6187  3.3218
 4663SOL    HW225626   2.665   2.429   1.566  1.2035 -1.8542 -0.6146
 4664SOL     OW25627   1.272   1.014   7.414 -0.2610 -0.1391  0.3314
 4664SOL    HW125628   1.231   1.064   7.343 -1.3172 -2.1970 -0.4920
 4664SOL    HW225629   1.304   1.083   7.473  0.9998 -2.1284  1.9669
 4665SOL     OW25630   0.969   1.768  16.691 -0.1926 -0.1433  0.1082
 4665SOL    HW125631   1.012   1.693  16.733 -1.3557 -0.9061 -0.0622
 4665SOL    HW225632   0.894   1.785  16.748 -0.8012 -2.7061  0.0698
 4666SOL     OW25633   0.665   2.058  13.487  0.1681  0.2172  0.1098
 4666SOL    HW125634   0.592   2.092  13.539 -1.7880 -1.7204 -1.3743
 4666SOL    HW225635   0.659   1.963  13.499  2.5673  0.1673  1.1010
 4667SOL     OW25636   4.139   2.925  12.632  0.7185 -0.5004 -0.3168
 4667SOL    HW125637   4.146   2.993  12.698  2.6803  0.9400 -1.9912
 4667SOL    HW225638   4.053   2.885  12.647  0.1658  0.8085 -0.0272
 4668SOL     OW25639   0.969   0.752   1.272  0.5230 -0.2517 -0.3685
 4668SOL    HW125640   0.893   0.749   1.330  1.4952 -0.5611  0.8720
 4668SOL    HW225641   0.962   0.840   1.236 -2.5217 -0.3856 -0.1083
 4669SOL     OW25642   2.885   1.559   3.212  0.2277  0.1306  0.3876
 4669SOL    HW125643   2.807   1.611   3.193  0.0590 -0.4731 -0.6112
 4669SOL    HW225644   2.844   1.491   3.266  1.0025 -0.3307  0.3936
 4670SOL     OW25645   0.731   1.268   2.452 -0.0547 -0.4996 -0.3587
 4670SOL    HW125646   0.808   1.324   2.447 -0.2135 -0.2821 -0.3753
 4670SOL    HW225647   0.729   1.261   2.547  1.8769  2.0869 -0.1371
 4671SOL     OW25648   1.100   1.591   3.433 -0.5392 -0.3713 -0.6886
 4671SOL    HW125649   1.139   1.534   3.499 -1.8283 -1.4547 -0.8493
 4671SOL    HW225650   1.052   1.651   3.491 -0.4216 -1.2861  0.3436
 4672SOL     OW25651   4.377   1.271   6.986  0.0272  0.1628 -0.0560
 4672SOL    HW125652   4.360   1.329   7.061 -0.1073 -0.2548  0.2408
 4672SOL    HW225653   4.287   1.264   6.954  0.2474 -1.0484 -0.3900
 4673SOL     OW25654   3.905   2.141  12.946 -0.5775 -0.1784 -0.1214
 4673SOL    HW125655   3.833   2.118  12.887  0.3254 -1.1709 -0.8154
 4673SOL    HW225656   3.860   2.167  13.027 -0.7059  1.4507 -0.7119
 4674SOL     OW25657   1.518   1.821  10.583 -0.2043  0.1951 -0.8082
 4674SOL    HW125658   1.536   1.914  10.596  1.3926 -0.0867 -0.9336
 4674SOL    HW225659   1.595   1.794  10.533  1.5603  0.3952  1.7872
 4675SOL     OW25660   2.938   2.827   9.575 -0.0861  0.1741 -0.4072
 4675SOL    HW125661   2.968   2.910   9.612  0.1270  0.4174 -1.1354
 4675SOL    HW225662   2.908   2.781   9.654 -0.6694 -0.4417 -0.9858
 4676SOL     OW25663   3.494   2.801   6.804  0.5940  0.1054  0.0723
 4676SOL    HW125664   3.486   2.716   6.847 -2.5363  1.1509  1.5720
 4676SOL    HW225665   3.431   2.787   6.733  0.6329  0.0436  0.0508
 4677SOL     OW25666   2.676   3.129   4.074  0.1382  0.2087  0.0220
 4677SOL    HW125667   2.623   3.099   4.148 -2.1632  0.7661 -1.4109
 4677SOL    HW225668   2.746   3.064   4.083 -0.3359 -0.1338  1.1969
 4678SOL     OW25669   1.562   2.652   1.732  0.1654 -0.3578  0.4734
 4678SOL    HW125670   1.577   2.621   1.642  1.8572  3.8569 -0.7117
 4678SOL    HW225671   1.473   2.688   1.728  0.1348 -0.4219  0.5808
 4679SOL     OW25672   1.152   4.409   5.644 -0.0979  0.3093  0.8246
 4679SOL    HW125673   1.094   4.415   5.719 -1.8197  1.3194 -0.5807
 4679SOL    HW225674   1.206   4.336   5.673 -0.9524 -0.1994  1.1137
 4680SOL     OW25675   0.937   3.599   6.140  0.5545 -0.5453  0.1273
 4680SOL    HW125676   0.871   3.559   6.196  0.5308  1.5219  1.6119
 4680SOL    HW225677   0.887   3.628   6.064 -0.6022 -1.8320  0.4032
 4681SOL     OW25678   2.021   2.366  13.585  0.5347 -0.0498  0.2578
 4681SOL    HW125679   1.970   2.434  13.629  0.3400  0.9726 -1.5201
 4681SOL    HW225680   2.043   2.326  13.669 -0.3155  2.0046  1.4556
 4682SOL     OW25681   2.236   3.297   7.420 -0.0735 -0.1586  0.1286
 4682SOL    HW125682   2.227   3.203   7.432 -3.5561 -0.1514 -2.6288
 4682SOL    HW225683   2.265   3.304   7.329  0.3643  0.3304  0.3032
 4683SOL     OW25684   2.103   1.628  14.601 -0.3761  0.1691  0.0636
 4683SOL    HW125685   2.099   1.661  14.691  0.0523 -1.2196  0.5964
 4683SOL    HW225686   2.190   1.663  14.584 -0.4932  0.9050  1.0041
 4684SOL     OW25687   0.872   3.591   5.866  0.3550  0.2090  0.4261
 4684SOL    HW125688   0.886   3.657   5.798  0.2646 -0.5237 -0.2968
 4684SOL    HW225689   0.818   3.524   5.824 -0.7765  1.4633 -0.1069
 4685SOL     OW25690   1.933   3.530  13.624  0.1049  0.0286  0.1550
 4685SOL    HW125691   1.930   3.609  13.570 -1.6473 -2.0543 -2.8127
 4685SOL    HW225692   2.026   3.510  13.636  0.7257  2.5370 -0.6072
 4686SOL     OW25693   0.892   3.507   3.402  0.1364  0.1106 -0.1881
 4686SOL    HW125694   0.916   3.480   3.491  1.3963 -1.0038 -0.8586
 4686SOL    HW225695   0.849   3.592   3.412 -0.8694 -0.3862 -0.3067
 4687SOL     OW25696   0.042   1.912   4.223  0.2212 -0.4448 -0.0964
 4687SOL    HW125697   4.729   1.927   4.302 -2.8739 -0.5704 -2.1572
 4687SOL    HW225698   0.131   1.925   4.257 -0.8168  0.4714  2.3021
 4688SOL     OW25699   3.904   3.848   1.930 -0.1599  0.7658 -0.2288
 4688SOL    HW125700   3.856   3.931   1.921 -0.6041  0.4781 -0.5255
 4688SOL    HW225701   3.983   3.860   1.877  1.4598  1.0291  2.2579
 4689SOL     OW25702   4.627   1.082   2.928 -0.0358  0.0692 -0.3319
 4689SOL    HW125703   4.618   1.112   2.837 -0.6108 -1.1748 -0.6829
 4689SOL    HW225704   4.714   1.121   2.940 -0.8874  1.2528  1.8519
 4690SOL     OW25705   1.763   0.642   0.348 -0.6210  0.5187  0.4125
 4690SOL    HW125706   1.707   0.710   0.385 -1.7877 -0.2826  0.1334
 4690SOL    HW225707   1.749   0.577   0.417 -0.4600  2.7840  2.5756
 4691SOL     OW25708   3.403   4.189   3.244 -0.1392 -0.4808 -0.2424
 4691SOL    HW125709   3.356   4.241   3.309  1.9765  1.9135 -0.6526
 4691SOL    HW225710   3.450   4.260   3.200  1.1735 -1.5695 -0.6036
 4692SOL     OW25711   0.716   1.821   0.172  0.4876 -0.1755 -0.0090
 4692SOL    HW125712   0.642   1.778   0.129 -0.2550  2.7192 -1.6071
 4692SOL    HW225713   0.707   1.915   0.159  1.1150 -0.3599 -1.8515
 4693SOL     OW25714   1.341   0.860   7.741 -0.0084  0.1703  0.3707
 4693SOL    HW125715   1.383   0.946   7.740 -1.5458  0.9158  0.4249
 4693SOL    HW225716   1.355   0.824   7.653 -1.1248 -2.9447  1.4901
 4694SOL     OW25717   3.168   1.569   0.381  0.0255 -0.1249 -0.0161
 4694SOL    HW125718   3.117   1.644   0.351 -0.4615 -0.2195  0.5646
 4694SOL    HW225719   3.111   1.548   0.455  2.1917 -2.5359  0.9613
 4695SOL     OW25720   3.534   1.120   1.674  0.1128 -0.6643  0.0662
 4695SOL    HW125721   3.438   1.119   1.669 -0.0016 -0.1638  2.4340
 4695SOL    HW225722   3.551   1.209   1.704  0.8231 -0.8228  0.1123
 4696SOL     OW25723   2.953   3.661   3.755  0.2949  0.0030  0.2647
 4696SOL    HW125724   2.959   3.706   3.671  1.9855 -1.4177 -0.3789
 4696SOL    HW225725   3.016   3.701   3.815  1.2069 -0.7441 -0.1887
 4697SOL     OW25726   2.716   4.314   2.561 -0.3549 -0.1616 -1.1299
 4697SOL    HW125727   2.642   4.340   2.506 -0.1971  0.4938 -1.0351
 4697SOL    HW225728   2.716   4.221   2.541  1.2667 -0.9612  2.5549
 4698SOL     OW25729   0.287   1.753   3.051 -0.1476  0.1278 -0.8614
 4698SOL    HW125730   0.200   1.737   3.087  1.8094 -1.4735  3.1034
 4698SOL    HW225731   0.272   1.815   2.980 -1.3285  0.5860 -0.2122
 4699SOL     OW25732   2.043   3.375   8.013 -0.2855  0.1614  0.2467
 4699SOL    HW125733   2.062   3.309   8.080  1.1824 -0.5467 -0.8464
 4699SOL    HW225734   2.084   3.453   8.051  2.7249 -1.9610  1.3994
 4700SOL     OW25735   2.879   1.645   5.268 -0.0074  0.1830  0.2715
 4700SOL    HW125736   2.787   1.648   5.292  0.5376 -0.6934  2.4413
 4700SOL    HW225737   2.888   1.729   5.223  1.7636 -0.5468 -0.7586
 4701SOL     OW25738   2.495   0.311   2.484 -0.2573  0.1532  0.2787
 4701SOL    HW125739   2.587   0.289   2.497 -0.2663  0.4093  0.8094
 4701SOL    HW225740   2.485   0.277   2.395 -0.5291 -1.2402  0.8463
 4702SOL     OW25741   1.801   0.916   9.745 -0.4263 -0.1718  0.1216
 4702SOL    HW125742   1.889   0.953   9.733  0.0644 -1.7777 -1.2241
 4702SOL    HW225743   1.804   0.839   9.689  0.0785  1.2798 -1.8503
 4703SOL     OW25744   4.061   0.580   1.787 -0.2455 -0.0364  0.0685
 4703SOL    HW125745   3.971   0.567   1.818  0.4182 -0.7121  1.7145
 4703SOL    HW225746   4.082   0.673   1.794 -0.5994 -0.0586  1.4217
 4704SOL     OW25747   2.410   4.342   3.369 -0.0073 -0.2036  0.5661
 4704SOL    HW125748   2.332   4.289   3.356 -0.1448  0.3575 -0.8479
 4704SOL    HW225749   2.481   4.277   3.369  0.8936  0.7686 -0.8691
 4705SOL     OW25750   3.924   2.079   6.507  0.2130 -0.5571  0.0097
 4705SOL    HW125751   3.986   2.071   6.434 -0.4979 -1.3232 -0.5166
 4705SOL    HW225752   3.981   2.103   6.579  0.1948  1.3990 -0.5995
 4706SOL     OW25753   0.560   2.864   6.161  0.6697  0.2970 -0.0058
 4706SOL    HW125754   0.620   2.830   6.227  0.6397 -0.1046 -0.1837
 4706SOL    HW225755   0.611   2.884   6.083  1.3070 -0.3929  0.2340
 4707SOL     OW25756   4.659   3.661   2.103  0.0602  0.1835 -0.0023
 4707SOL    HW125757   4.593   3.668   2.033 -0.3581  0.6142  0.4388
 4707SOL    HW225758   4.705   3.744   2.088  0.9867 -0.3658 -0.2421
 4708SOL     OW25759   2.050   2.566   9.414  0.2171 -0.0684 -0.5281
 4708SOL    HW125760   2.078   2.487   9.367  0.6698  0.1526 -0.6322
 4708SOL    HW225761   2.137   2.585   9.449  0.0725  0.3302 -0.3891
 4709SOL     OW25762   3.943   3.416  10.528  0.2851  0.5644 -0.4885
 4709SOL    HW125763   3.939   3.353  10.456 -0.7362 -0.9415  0.9110
 4709SOL    HW225764   4.036   3.439  10.530  0.8330 -1.6956 -0.1590
 4710SOL     OW25765   3.622   2.460   4.794 -0.1040 -0.5157 -0.3046
 4710SOL    HW125766   3.648   2.548   4.769 -0.5022 -0.7162 -1.4313
 4710SOL    HW225767   3.563   2.437   4.722 -0.8091  0.5603 -0.0619
 4711SOL     OW25768   0.342   2.515   8.213  0.3388  0.4352  0.0463
 4711SOL    HW125769   0.431   2.480   8.217  0.7680  1.3884 -1.1402
 4711SOL    HW225770   0.294   2.432   8.205  0.7331  0.0683  1.4369
 4712SOL     OW25771   4.295   1.742  15.448  0.4254 -0.1233 -0.0904
 4712SOL    HW125772   4.326   1.713  15.534 -1.2803  0.9746  0.8951
 4712SOL    HW225773   4.327   1.675  15.387  0.0629 -0.9808  0.6680
 4713SOL     OW25774   2.983   2.736   5.218 -0.2998 -0.2100  0.2470
 4713SOL    HW125775   3.039   2.781   5.156 -0.6988 -2.0343 -1.4216
 4713SOL    HW225776   2.931   2.808   5.255 -1.1472 -0.0854 -1.2044
 4714SOL     OW25777   4.699   2.278   3.401  0.1113 -0.1209  0.7786
 4714SOL    HW125778   4.715   2.369   3.375  0.8340  0.0780  1.9347
 4714SOL    HW225779   4.615   2.269   3.356  0.8252  0.0488 -0.5828
 4715SOL     OW25780   0.935   4.463  16.664  0.6023  0.3224  0.2192
 4715SOL    HW125781   0.888   4.384  16.634 -1.1558  2.3061 -2.3152
 4715SOL    HW225782   0.907   4.475  16.755 -0.7901  0.9039 -0.2790
 4716SOL     OW25783   1.170   2.168   3.910  0.4706  0.1171 -0.0751
 4716SOL    HW125784   1.186   2.261   3.927  0.4719  0.2677 -0.8906
 4716SOL    HW225785   1.248   2.158   3.856  1.2271 -1.1167  1.2344
 4717SOL     OW25786   1.910   2.549   7.786 -0.5801 -0.0866  0.0139
 4717SOL    HW125787   1.854   2.506   7.721  0.1115 -3.4359  1.6679
 4717SOL    HW225788   1.866   2.524   7.867 -0.1255 -0.2932  0.1944
 4718SOL     OW25789   3.995   3.012  11.160 -0.6005 -0.3152 -0.7605
 4718SOL    HW125790   4.077   3.058  11.177 -0.3373 -0.9639 -0.3284
 4718SOL    HW225791   4.034   2.954  11.095  2.8999 -1.8061  2.7022
 4719SOL     OW25792   3.998   0.863   6.421  0.2716 -0.3397 -0.0043
 4719SOL    HW125793   3.999   0.939   6.364  0.4303 -0.5856 -0.3284
 4719SOL    HW225794   3.974   0.789   6.365 -0.5209 -0.5362  0.5826
 4720SOL     OW25795   1.137   2.928   6.624 -0.0385 -0.0134 -0.0844
 4720SOL    HW125796   1.151   3.016   6.658  1.3056 -1.2231  2.5249
 4720SOL    HW225797   1.052   2.931   6.579  1.8147 -2.9361 -3.7948
 4721SOL     OW25798   1.737   1.382   1.361 -0.3449 -0.3443  0.1873
 4721SOL    HW125799   1.777   1.451   1.310  0.6201 -1.0807 -0.0464
 4721SOL    HW225800   1.806   1.366   1.425 -1.1311 -1.2542  0.8221
 4722SOL     OW25801   3.706   4.438   0.963  0.3814 -0.2207 -0.1602
 4722SOL    HW125802   3.651   4.484   1.027  4.1468  0.8754  2.3281
 4722SOL    HW225803   3.662   4.355   0.950  1.3033 -0.8859  0.9894
 4723SOL     OW25804   3.378   4.130   6.423 -0.1379 -0.0355  0.2940
 4723SOL    HW125805   3.360   4.075   6.499  0.8946 -1.4799 -0.5223
 4723SOL    HW225806   3.315   4.095   6.361  0.4043 -1.0995  0.3384
 4724SOL     OW25807   2.930   0.788   4.966  0.1280 -0.2958 -0.1423
 4724SOL    HW125808   2.845   0.787   4.922 -0.2458 -0.1881  0.5821
 4724SOL    HW225809   2.906   0.816   5.055 -1.7359 -1.3011 -0.3238
 4725SOL     OW25810   0.570   1.117   4.220 -0.1045 -0.5178  0.4474
 4725SOL    HW125811   0.524   1.174   4.158  0.1116  0.0685  0.8259
 4725SOL    HW225812   0.509   1.119   4.294  0.0143  0.4320  0.5162
 4726SOL     OW25813   0.536   0.661   4.794 -0.3142 -0.1211 -0.1887
 4726SOL    HW125814   0.585   0.718   4.735  0.9807 -3.8817 -2.7533
 4726SOL    HW225815   0.447   0.689   4.776 -0.1108 -0.6345 -1.9699
 4727SOL     OW25816   0.210   4.634   5.205  0.0817  0.2187 -0.1210
 4727SOL    HW125817   0.179   4.550   5.171 -0.2460 -0.1635  1.1241
 4727SOL    HW225818   0.180   4.635   5.296  0.2681  1.1723 -0.0753
 4728SOL     OW25819   0.978   3.115   9.843  0.2288 -0.0338 -0.2518
 4728SOL    HW125820   0.885   3.096   9.832 -0.2536  1.7877  0.7725
 4728SOL    HW225821   0.988   3.101   9.937  1.7682 -0.2955 -0.4586
 4729SOL     OW25822   0.849   3.765   8.867  0.4784 -0.2576  0.4164
 4729SOL    HW125823   0.767   3.772   8.916 -1.3849 -0.8251 -2.5937
 4729SOL    HW225824   0.901   3.842   8.890  0.5409 -0.2910  0.3876
 4730SOL     OW25825   3.044   4.160   8.779  0.0154 -0.2633 -0.0674
 4730SOL    HW125826   3.002   4.154   8.694 -1.2485 -0.9272  0.6070
 4730SOL    HW225827   3.135   4.167   8.751 -0.1227  0.6279 -0.3138
 4731SOL     OW25828   2.115   3.037   5.958 -0.1376 -0.4028 -0.2551
 4731SOL    HW125829   2.141   2.993   6.038  0.9082  3.5515  1.5782
 4731SOL    HW225830   2.188   3.094   5.935  0.6812 -1.0841  0.6564
 4732SOL     OW25831   2.731   0.475   7.635  0.2630 -0.1156 -0.2268
 4732SOL    HW125832   2.692   0.562   7.643  0.3055 -0.2978  2.0045
 4732SOL    HW225833   2.669   0.432   7.576  0.5729 -0.6884 -0.1350
 4733SOL     OW25834   0.228   2.019   5.114  0.0521  0.3585  0.6094
 4733SOL    HW125835   0.178   1.938   5.127  0.5127  0.0685  0.5903
 4733SOL    HW225836   0.176   2.079   5.167  0.1166  0.6854  0.3049
 4734SOL     OW25837   4.375   3.293   3.646  0.2605  0.4785  0.2917
 4734SOL    HW125838   4.453   3.313   3.595 -1.9072  3.9184 -1.6783
 4734SOL    HW225839   4.369   3.199   3.628  1.9747  0.2753  0.8549
 4735SOL     OW25840   2.189   4.137  10.640  0.2374  0.2120  0.7352
 4735SOL    HW125841   2.111   4.094  10.608  1.7744 -0.4162 -2.1403
 4735SOL    HW225842   2.159   4.199  10.706  1.3078  1.9107 -0.3682
 4736SOL     OW25843   3.332   4.293  16.727 -0.3167 -0.2547  0.0675
 4736SOL    HW125844   3.332   4.249  16.642 -1.8730 -0.4816  0.1906
 4736SOL    HW225845   3.418   4.262  16.757 -0.0220  0.8988  0.4246
 4737SOL     OW25846   0.039   4.557   2.823 -0.5633  0.1491  0.2340
 4737SOL    HW125847   0.032   4.584   2.915 -1.5373 -1.1570  0.5422
 4737SOL    HW225848   4.687   4.537   2.807 -0.9006  0.6271  1.5388
 4738SOL     OW25849   4.342   0.157   1.737 -0.1371 -0.1139  0.1551
 4738SOL    HW125850   4.262   0.208   1.721  0.7303  1.6465  1.4106
 4738SOL    HW225851   4.334   0.094   1.666 -0.2271 -0.8190  0.7823
 4739SOL     OW25852   3.312   1.659   2.336 -0.1898  0.8211 -0.6946
 4739SOL    HW125853   3.350   1.733   2.384 -1.0302 -0.3427  1.7746
 4739SOL    HW225854   3.296   1.701   2.252 -1.6566 -0.6207 -1.1422
 4740SOL     OW25855   1.594   3.438   3.361  0.3874  1.0133  1.1017
 4740SOL    HW125856   1.553   3.359   3.396  0.0803  1.3801  1.5632
 4740SOL    HW225857   1.613   3.413   3.271 -0.4640  3.2644  0.3008
 4741SOL     OW25858   0.296   1.464   6.831  0.3185  0.3567 -0.1195
 4741SOL    HW125859   0.237   1.422   6.769  2.5735  1.1196 -2.7638
 4741SOL    HW225860   0.365   1.398   6.838 -0.0367 -0.0141 -0.0758
 4742SOL     OW25861   3.621   0.992   5.042 -0.0665  0.2880  0.5571
 4742SOL    HW125862   3.585   0.914   5.085  1.7180 -0.7241  0.2254
 4742SOL    HW225863   3.703   0.998   5.091 -1.8262  0.4320  3.4436
 4743SOL     OW25864   1.882   3.158   6.940 -0.0620  0.4268 -0.4064
 4743SOL    HW125865   1.905   3.243   6.976 -0.8496  1.4850 -2.3892
 4743SOL    HW225866   1.795   3.181   6.907 -0.2921  2.7874  1.8833
 4744SOL     OW25867   2.823   1.978   8.216  0.2704  0.7387  0.0086
 4744SOL    HW125868   2.799   2.060   8.260  0.0448 -0.4269  2.0656
 4744SOL    HW225869   2.902   2.002   8.168  0.6477 -1.0374 -0.2688
 4745SOL     OW25870   1.248   1.194   7.940 -0.2182 -0.0519  0.5461
 4745SOL    HW125871   1.215   1.110   7.970 -1.2443  0.6905  1.5003
 4745SOL    HW225872   1.178   1.220   7.879 -0.1257  1.7355  1.1812
 4746SOL     OW25873   0.804   0.475   1.755 -0.2520 -0.2645  0.1996
 4746SOL    HW125874   0.859   0.487   1.677 -3.3269 -3.4534 -2.4245
 4746SOL    HW225875   0.816   0.556   1.805 -0.5839 -0.4523  0.5796
 4747SOL     OW25876   4.106   1.254   6.949 -0.5495  0.3622 -0.1905
 4747SOL    HW125877   4.032   1.203   6.918 -0.4534 -0.0358  0.2284
 4747SOL    HW225878   4.053   1.328   6.979 -1.1632  0.2411 -0.9924
 4748SOL     OW25879   1.080   3.508   3.204 -0.2062 -0.8088  0.5514
 4748SOL    HW125880   1.012   3.498   3.270 -1.6632  2.2526 -0.5060
 4748SOL    HW225881   1.045   3.458   3.130  0.7232 -0.3893 -0.1644
 4749SOL     OW25882   0.572   4.546   0.906 -0.3856 -0.0954 -0.4119
 4749SOL    HW125883   0.650   4.493   0.923 -0.1485  1.1374  2.3221
 4749SOL    HW225884   0.520   4.517   0.981 -3.0022  4.3106 -0.5445
 4750SOL     OW25885   2.900   4.442   8.007  0.2720 -0.8855  0.0789
 4750SOL    HW125886   2.810   4.463   7.982  0.4021  1.7415  1.7920
 4750SOL    HW225887   2.946   4.526   8.004 -1.0238 -0.1286  1.2722
 4751SOL     OW25888   2.327   1.610   8.351  0.1390  0.3779  0.1695
 4751SOL    HW125889   2.377   1.600   8.270 -0.1938  1.2189 -0.1419
 4751SOL    HW225890   2.364   1.548   8.414 -1.0488 -2.8388 -2.3555
 4752SOL     OW25891   1.090   2.261  15.794 -0.3326 -0.1685  0.2697
 4752SOL    HW125892   1.183   2.240  15.802 -0.0295  0.7647 -0.8514
 4752SOL    HW225893   1.090   2.354  15.817 -0.7066  0.0474 -0.5987
 4753SOL     OW25894   1.763   3.810  16.518  0.3248 -0.0379 -0.0296
 4753SOL    HW125895   1.768   3.865  16.596  1.8979  0.8705 -0.7612
 4753SOL    HW225896   1.830   3.747  16.546 -0.6803 -0.5967  1.0864
 4754SOL     OW25897   0.252   1.428   6.376 -0.1921 -0.2315  0.3476
 4754SOL    HW125898   0.272   1.518   6.350 -1.0981 -0.4205 -1.0192
 4754SOL    HW225899   0.336   1.391   6.403  0.9969  1.2561 -1.2535
 4755SOL     OW25900   2.851   2.879   8.474  0.1634 -0.2555  0.2117
 4755SOL    HW125901   2.887   2.967   8.485  0.0489 -0.2791  0.7887
 4755SOL    HW225902   2.826   2.884   8.382  1.2699  0.0939 -0.0709
 4756SOL     OW25903   1.596   3.913   2.248  0.0614 -0.2902  0.2134
 4756SOL    HW125904   1.528   3.846   2.241  0.2281 -0.3496 -0.8861
 4756SOL    HW225905   1.555   3.985   2.200  0.0493  0.9286  2.0395
 4757SOL     OW25906   0.361   0.348   2.052  0.5426  0.5615  0.1082
 4757SOL    HW125907   0.354   0.402   2.130  3.4995 -1.7985  1.9661
 4757SOL    HW225908   0.417   0.400   1.995  0.9993 -0.1431 -0.0836
 4758SOL     OW25909   3.492   1.129   4.504 -0.2736 -0.2669 -0.6923
 4758SOL    HW125910   3.469   1.054   4.559  1.1370 -1.1697 -1.3051
 4758SOL    HW225911   3.582   1.113   4.474  0.2311 -1.0574  1.2292
 4759SOL     OW25912   3.011   3.943   3.663 -0.1897  0.1366  0.9385
 4759SOL    HW125913   2.943   3.937   3.730 -1.2980 -1.3433 -0.3138
 4759SOL    HW225914   2.975   3.884   3.598  0.7713  0.7243 -0.1347
 4760SOL     OW25915   1.329   3.246   1.724 -0.1009  0.2872  0.1725
 4760SOL    HW125916   1.283   3.186   1.783 -0.4960 -0.0251 -0.4617
 4760SOL    HW225917   1.354   3.194   1.648  0.2344 -0.4230  0.7641
 4761SOL     OW25918   2.501   2.612   6.144 -0.4488 -0.0545 -0.0403
 4761SOL    HW125919   2.474   2.704   6.135 -1.2021 -0.3641 -1.0198
 4761SOL    HW225920   2.508   2.588   6.051  0.0106 -2.8158  0.7059
 4762SOL     OW25921   0.061   1.347   5.706  0.0696  0.1966 -0.0662
 4762SOL    HW125922   0.050   1.259   5.670 -0.6079  1.0046 -1.8714
 4762SOL    HW225923   0.040   1.401   5.630 -2.6446  2.4415  2.2749
 4763SOL     OW25924   1.140   2.691   4.702  0.2001  0.4593  0.5141
 4763SOL    HW125925   1.115   2.600   4.684  0.4142  0.7598 -1.2560
 4763SOL    HW225926   1.205   2.703   4.633 -0.8548  0.8435 -0.4169
 4764SOL     OW25927   1.115   3.340   3.761  0.6350 -0.3507  0.3726
 4764SOL    HW125928   1.203   3.377   3.749  0.7404 -0.4742  0.7609
 4764SOL    HW225929   1.106   3.356   3.854  0.1712 -0.0405  0.2708
 4765SOL     OW25930   2.077   3.497   4.216  0.3520  0.0426 -0.1496
 4765SOL    HW125931   2.132   3.532   4.146  0.2505  0.2470 -0.1267
 4765SOL    HW225932   2.010   3.565   4.215 -1.4571 -1.7224  0.2633
 4766SOL     OW25933   1.558   0.005   3.423 -0.0119 -0.2822 -0.2364
 4766SOL    HW125934   1.600   0.087   3.447  0.6756 -0.3255 -1.2587
 4766SOL    HW225935   1.495   4.730   3.493 -1.5104 -3.5380 -2.2318
 4767SOL     OW25936   2.862   1.426  17.501 -0.1306 -0.0817  0.0892
 4767SOL    HW125937   2.950   1.435  17.465 -0.5491  2.5497 -0.2930
 4767SOL    HW225938   2.874   1.363  17.572 -3.2978  0.5380  1.1730
 4768SOL     OW25939   3.639   1.651   2.598  0.2092 -0.1305  0.3802
 4768SOL    HW125940   3.702   1.588   2.564  1.3330  1.2510 -0.1079
 4768SOL    HW225941   3.617   1.708   2.524  2.5421 -0.8433 -0.8548
 4769SOL     OW25942   4.373   2.358  17.518  0.2624 -0.0640 -0.3593
 4769SOL    HW125943   4.371   2.436  17.462 -3.4055  1.7645  2.3486
 4769SOL    HW225944   4.357   2.398  17.603  2.0408 -1.8249  0.8111
 4770SOL     OW25945   2.196   1.918   7.307  0.0323 -0.0307 -0.6923
 4770SOL    HW125946   2.238   1.992   7.263 -1.0734  1.0728  0.0973
 4770SOL    HW225947   2.264   1.887   7.367 -2.0024 -1.4200  0.9211
 4771SOL     OW25948   0.028   2.239   6.926  0.2556 -0.2212 -0.3972
 4771SOL    HW125949   0.057   2.193   6.847  0.7557  0.6259 -0.7181
 4771SOL    HW225950   4.689   2.271   6.881 -0.1525  0.3753  0.7534
 4772SOL     OW25951   3.208   0.041   4.296  0.4082  0.2838  0.3049
 4772SOL    HW125952   3.120   0.034   4.333  0.7851 -1.9889  0.7589
 4772SOL    HW225953   3.195   4.702   4.244  1.2022  1.4315 -1.6100
 4773SOL     OW25954   3.310   3.136   3.317 -0.1414 -0.2894 -0.3348
 4773SOL    HW125955   3.328   3.068   3.251  0.6136 -1.1690  0.7876
 4773SOL    HW225956   3.359   3.205   3.272 -0.4120  0.8632  1.1562
 4774SOL     OW25957   2.718   1.163  16.632 -0.6243  0.0290 -0.2226
 4774SOL    HW125958   2.808   1.146  16.661 -1.0051 -0.7058  0.5196
 4774SOL    HW225959   2.732   1.248  16.589  2.3761 -1.0596 -1.3745
 4775SOL     OW25960   2.438   0.089  15.855  0.4600  0.2008 -0.3034
 4775SOL    HW125961   2.377   0.067  15.785  1.1069 -1.3968 -0.3754
 4775SOL    HW225962   2.431   0.184  15.854  1.9354  0.3104 -0.3307
 4776SOL     OW25963   3.487   0.069   6.569 -0.1523 -0.1535  0.0304
 4776SOL    HW125964   3.553   0.002   6.590  0.6332  0.9558  1.0945
 4776SOL    HW225965   3.542   0.147   6.578  0.9009 -0.8579 -0.2183
 4777SOL     OW25966   0.677   1.934   8.071 -0.3263  0.2287  0.4024
 4777SOL    HW125967   0.654   2.013   8.021  1.3147  0.6614  0.3136
 4777SOL    HW225968   0.672   1.865   8.006  2.9280  0.9727 -0.6203
 4778SOL     OW25969   1.260   3.687   3.109  0.0191  0.3721 -0.1968
 4778SOL    HW125970   1.196   3.621   3.137  1.4229 -0.4805  1.0149
 4778SOL    HW225971   1.242   3.700   3.016  1.9622  0.1769 -0.5954
 4779SOL     OW25972   3.438   0.687   5.407  0.4868 -0.0495 -0.3324
 4779SOL    HW125973   3.491   0.644   5.475  1.6684  1.1316 -0.4958
 4779SOL    HW225974   3.469   0.777   5.410  0.5676 -0.1514  2.1789
 4780SOL     OW25975   3.481   2.721   0.884  0.2361 -0.0876  0.2603
 4780SOL    HW125976   3.478   2.802   0.834  1.4313 -0.1319  0.1333
 4780SOL    HW225977   3.523   2.660   0.823 -1.9258 -3.2515  1.9076
 4781SOL     OW25978   3.635   1.783  16.741 -0.5090  0.3736  0.2944
 4781SOL    HW125979   3.555   1.780  16.794 -0.3078 -0.1995  0.5583
 4781SOL    HW225980   3.604   1.844  16.674  2.0381 -0.3624 -1.5758
 4782SOL     OW25981   1.460   3.787   0.158 -0.0597 -0.1758  0.1798
 4782SOL    HW125982   1.367   3.771   0.173 -0.1859 -1.4597 -1.9052
 4782SOL    HW225983   1.467   3.835   0.075  0.0851 -0.2304  0.1608
 4783SOL     OW25984   4.181   1.324   0.223 -0.2282  0.6179 -0.3618
 4783SOL    HW125985   4.102   1.377   0.227 -1.7160 -1.8068  2.7989
 4783SOL    HW225986   4.196   1.304   0.131 -1.7202  0.3886 -0.5440
 4784SOL     OW25987   2.566   3.508   2.401  0.0419  0.6893 -0.5681
 4784SOL    HW125988   2.515   3.511   2.482 -0.0077  0.2177 -0.5816
 4784SOL    HW225989   2.508   3.571   2.358 -0.1481 -0.0031 -1.3386
 4785SOL     OW25990   2.109   0.134   6.673 -0.2495 -0.9279  0.1254
 4785SOL    HW125991   2.041   0.167   6.732  0.4849  0.8622 -0.0365
 4785SOL    HW225992   2.071   0.154   6.588  1.1631  0.0592 -0.2741
 4786SOL     OW25993   0.278   4.451   3.807 -0.2829 -0.1030 -0.2318
 4786SOL    HW125994   0.253   4.383   3.869  0.6383  0.0634  0.3109
 4786SOL    HW225995   0.348   4.411   3.755 -1.5930 -1.0418 -1.2619
 4787SOL     OW25996   0.160   2.919   8.296  0.3447  0.8907  0.3014
 4787SOL    HW125997   0.253   2.920   8.274  0.4916 -2.9597  0.7847
 4787SOL    HW225998   0.114   2.879   8.222  0.6899  0.0008  0.5712
 4788SOL     OW25999   2.936   4.221   7.534  0.4888 -0.0766 -0.4683
 4788SOL    HW126000   2.876   4.272   7.589  2.0838 -0.8909  2.0555
 4788SOL    HW226001   2.869   4.178   7.482  0.2660  0.9770 -1.0531
 4789SOL     OW26002   0.316   4.074   5.782 -0.1851 -0.0986 -0.2991
 4789SOL    HW126003   0.321   4.153   5.837  0.2780 -0.0970 -0.3441
 4789SOL    HW226004   0.378   4.091   5.712 -3.0581 -0.4248 -2.9021
 4790SOL     OW26005   1.726   1.432   8.552 -0.1631 -0.3543  0.2297
 4790SOL    HW126006   1.816   1.410   8.528  1.0409  0.3163  4.1793
 4790SOL    HW226007   1.733   1.460   8.643  1.3415 -0.2360  0.0762
 4791SOL     OW26008   4.178   3.089   0.154 -0.3912 -0.2007 -0.4935
 4791SOL    HW126009   4.086   3.115   0.144 -0.0902  1.4419  0.9128
 4791SOL    HW226010   4.227   3.120   0.078 -2.0601  1.9858 -0.6907
 4792SOL     OW26011   0.794   3.895   3.211 -0.2511 -0.7893  0.1890
 4792SOL    HW126012   0.887   3.912   3.196 -0.8412  0.4223 -2.0479
 4792SOL    HW226013   0.776   3.874   3.120 -0.9915 -4.2499  1.1070
 4793SOL     OW26014   3.264   2.967  15.915 -0.0602  0.6780 -0.1868
 4793SOL    HW126015   3.349   2.948  15.876 -0.3991 -3.9739  1.3166
 4793SOL    HW226016   3.309   2.962  15.999 -0.7354  1.6146  0.2327
 4794SOL     OW26017   1.428   1.123   0.114 -0.4098 -0.2083  0.3203
 4794SOL    HW126018   1.339   1.088   0.113 -0.4413 -0.0708 -2.2222
 4794SOL    HW226019   1.452   1.132   0.022  1.3693  1.1106  0.9133
 4795SOL     OW26020   0.724   0.110   2.362 -0.0203  0.3918  0.5543
 4795SOL    HW126021   0.767   0.193   2.341  0.8484 -0.0866  0.4480
 4795SOL    HW226022   0.769   0.098   2.446  1.4743  0.1391 -0.2861
 4796SOL     OW26023   1.648   2.735   7.574  0.0349 -0.4940 -0.6692
 4796SOL    HW126024   1.733   2.774   7.553 -0.1356  0.0235 -0.3941
 4796SOL    HW226025   1.584   2.782   7.521  1.3976  1.9183 -0.1743
 4797SOL     OW26026   0.628   4.585   2.914  0.3304 -0.2294 -0.1906
 4797SOL    HW126027   0.547   4.636   2.917  0.8977  0.5954  0.9919
 4797SOL    HW226028   0.625   4.532   2.994  0.3180 -1.0600 -0.7433
 4798SOL     OW26029   3.775   2.943   4.872  0.3933 -0.3702  0.8738
 4798SOL    HW126030   3.786   2.950   4.967 -1.7682  2.3808  0.9238
 4798SOL    HW226031   3.719   3.016   4.848  0.7567  0.0730  1.3469
 4799SOL     OW26032   1.528   3.659   5.277  0.1892  0.2533 -0.6661
 4799SOL    HW126033   1.497   3.742   5.313 -1.7014 -1.1912  1.0326
 4799SOL    HW226034   1.622   3.670   5.289  0.3282 -0.3756 -1.1542
 4800SOL     OW26035   1.674   4.278   7.473 -0.0147 -0.4370  0.1036
 4800SOL    HW126036   1.587   4.288   7.434  2.0763 -1.9954 -4.9748
 4800SOL    HW226037   1.650   4.196   7.516 -0.4915  0.6028  1.8046
 4801SOL     OW26038   1.741   0.157   9.663  0.1690  0.0706  0.6871
 4801SOL    HW126039   1.724   0.250   9.650  0.9364  0.0377 -0.4758
 4801SOL    HW226040   1.800   0.172   9.737  0.2008 -2.4961  1.1948
 4802SOL     OW26041   4.414   3.712   8.128 -0.1681 -0.3053  0.3962
 4802SOL    HW126042   4.438   3.623   8.101  1.1938  0.4640 -0.9418
 4802SOL    HW226043   4.479   3.765   8.082  0.0501 -1.8608 -1.0792
 4803SOL     OW26044   2.859   2.410   3.958  0.1062  0.0221  0.4010
 4803SOL    HW126045   2.796   2.392   3.888  1.8522 -1.1799 -0.8545
 4803SOL    HW226046   2.847   2.332   4.012  0.5721  0.2766  0.8639
 4804SOL     OW26047   3.182   1.950  12.753  0.2455  0.3199 -0.0853
 4804SOL    HW126048   3.093   1.964  12.786 -0.2965  1.7312 -2.1326
 4804SOL    HW226049   3.226   2.031  12.778 -0.4952  0.7517 -0.1562
 4805SOL     OW26050   2.058   0.201   4.101  0.1415 -0.6650  0.6942
 4805SOL    HW126051   2.047   0.287   4.059  1.4780 -0.9796 -0.2923
 4805SOL    HW226052   1.975   0.161   4.073 -0.5189  2.0229 -1.2631
 4806SOL     OW26053   1.853   0.205   7.845 -0.4805 -0.1145  0.2501
 4806SOL    HW126054   1.899   0.255   7.777  1.0415  1.1111  2.1828
 4806SOL    HW226055   1.900   0.222   7.927  0.9997  1.2008 -0.8647
 4807SOL     OW26056   4.723   2.978   5.808 -0.0632 -0.0758  0.1899
 4807SOL    HW126057   4.673   2.896   5.809 -0.7926  0.3772  1.8426
 4807SOL    HW226058   0.025   2.974   5.723  0.7515 -0.5868  0.6200
 4808SOL     OW26059   1.003   3.276   5.962 -0.0870 -0.2130 -0.1615
 4808SOL    HW126060   1.081   3.317   6.000  0.9167 -0.9511 -1.4223
 4808SOL    HW226061   0.938   3.334   6.002  1.1512 -0.3963  2.1279
 4809SOL     OW26062   0.125   0.368   5.270  0.8350  0.0538 -0.4244
 4809SOL    HW126063   0.177   0.288   5.281 -1.5673 -1.6066 -0.9073
 4809SOL    HW226064   0.178   0.412   5.204  0.7019  0.4005 -0.3009
 4810SOL     OW26065   3.981   2.708   7.314  0.0049  0.1906 -0.3184
 4810SOL    HW126066   4.051   2.661   7.268  0.0063  0.1227 -0.2470
 4810SOL    HW226067   4.042   2.775   7.344  0.9518 -1.0993  0.6861
 4811SOL     OW26068   0.432   1.686   1.240  0.4806  0.5807 -0.0344
 4811SOL    HW126069   0.392   1.604   1.212  1.5414  0.2281 -0.5040
 4811SOL    HW226070   0.354   1.741   1.245 -0.3875 -0.6094 -0.4900
 4812SOL     OW26071   1.172   0.962   5.216 -0.0827  0.4372 -0.3613
 4812SOL    HW126072   1.104   0.909   5.176 -0.0528 -0.3765  0.6735
 4812SOL    HW226073   1.185   1.024   5.144  1.7400 -1.6710 -1.8519
 4813SOL     OW26074   0.443   1.015   9.125  0.1148  0.1115 -0.2263
 4813SOL    HW126075   0.363   0.984   9.081 -0.5249  0.0866  0.9341
 4813SOL    HW226076   0.438   0.977   9.213  2.5175  0.8613  0.2168
 4814SOL     OW26077   2.958   0.121   3.914  0.6340 -0.2653 -0.5896
 4814SOL    HW126078   2.896   0.085   3.977 -0.0403  1.6892 -0.1510
 4814SOL    HW226079   2.900   0.176   3.862  1.1856 -0.5537 -1.5163
 4815SOL     OW26080   0.264   4.691   3.102  0.0234  0.2079 -0.6312
 4815SOL    HW126081   0.301   4.603   3.112  0.0973  0.0352 -2.3825
 4815SOL    HW226082   0.304   4.719   3.020  0.2676  2.8693  0.4252
 4816SOL     OW26083   4.021   1.006  11.295 -0.6358  0.2898  0.1452
 4816SOL    HW126084   4.077   1.067  11.343 -1.2827  0.3343  0.8611
 4816SOL    HW226085   4.042   0.921  11.334 -1.5313  1.0057  2.1916
 4817SOL     OW26086   3.628   4.412  14.575 -0.3487  0.4097 -0.0331
 4817SOL    HW126087   3.584   4.338  14.617  0.7010  0.9982  2.0928
 4817SOL    HW226088   3.651   4.377  14.489 -2.5444 -0.0149 -0.4388
 4818SOL     OW26089   2.401   1.687  12.529  0.2210 -0.0229 -1.1579
 4818SOL    HW126090   2.359   1.603  12.548  0.3449  0.0458 -0.5747
 4818SOL    HW226091   2.483   1.684  12.579 -0.3045 -0.1999 -0.3026
 4819SOL     OW26092   2.107   3.828   2.222  0.2199  0.0582 -0.5972
 4819SOL    HW126093   2.022   3.866   2.198  0.0535 -0.9787 -1.6740
 4819SOL    HW226094   2.091   3.735   2.203 -0.3905  0.0372  0.0101
 4820SOL     OW26095   2.227   2.385   4.293 -0.2034  0.2452 -0.0528
 4820SOL    HW126096   2.139   2.418   4.311 -0.2806  0.3841 -0.6759
 4820SOL    HW226097   2.260   2.437   4.220  0.8389  1.2070  1.1133
 4821SOL     OW26098   0.914   3.029   6.497 -1.0979 -0.1585  0.0692
 4821SOL    HW126099   0.930   3.110   6.450  0.2390 -0.5730 -0.1843
 4821SOL    HW226100   0.819   3.019   6.494 -1.1173 -0.3418  1.3620
 4822SOL     OW26101   1.644   0.866   4.349 -0.3866 -0.6717  0.0455
 4822SOL    HW126102   1.610   0.831   4.266 -0.7153 -1.0079  0.3190
 4822SOL    HW226103   1.733   0.880   4.318 -0.2920 -2.3328 -0.4706
 4823SOL     OW26104   3.315   1.162  16.324 -0.1787  0.1857 -0.7357
 4823SOL    HW126105   3.232   1.135  16.283 -0.1826  0.6697 -1.0490
 4823SOL    HW226106   3.375   1.130  16.257 -1.2926 -4.1553  0.3145
 4824SOL     OW26107   2.244   2.175  13.265  0.0086 -0.3304  0.1441
 4824SOL    HW126108   2.294   2.227  13.328  0.8639 -1.5391  0.4640
 4824SOL    HW226109   2.158   2.216  13.279 -0.2930 -1.4604  1.6604
 4825SOL     OW26110   4.626   3.863   4.783 -0.1969 -0.3130 -0.1819
 4825SOL    HW126111   4.624   3.894   4.874 -1.1825 -0.0581 -0.2904
 4825SOL    HW226112   4.621   3.947   4.738 -2.5505  1.1228  2.7388
 4826SOL     OW26113   2.364   4.499   0.879  0.7959  0.1217  0.2164
 4826SOL    HW126114   2.297   4.494   0.811  1.4388 -0.5826 -0.3600
 4826SOL    HW226115   2.333   4.582   0.916  1.7536  0.8381 -0.6052
 4827SOL     OW26116   1.035   3.260  11.806  0.1401 -0.1556 -0.9884
 4827SOL    HW126117   1.075   3.184  11.764  0.6427 -0.0186 -0.7627
 4827SOL    HW226118   0.990   3.222  11.881  3.2080 -2.1551 -0.1345
 4828SOL     OW26119   1.305   4.328   7.134 -0.3469  0.4663 -0.1013
 4828SOL    HW126120   1.356   4.296   7.208  0.2134  0.3015 -0.5646
 4828SOL    HW226121   1.338   4.418   7.126  0.5382  0.2646  1.1893
 4829SOL     OW26122   3.798   0.635   4.467  0.2349  0.3318 -0.3645
 4829SOL    HW126123   3.885   0.644   4.504  0.5862 -0.2897 -1.0460
 4829SOL    HW226124   3.740   0.647   4.543  1.7758  0.1480  0.8531
 4830SOL     OW26125   3.071   2.094   6.457 -0.0285  0.0519  0.0147
 4830SOL    HW126126   2.977   2.075   6.461 -0.0975 -0.2561 -2.9812
 4830SOL    HW226127   3.075   2.141   6.373  0.7011  2.5765  1.4642
 4831SOL     OW26128   1.512   2.298  11.158  0.6440 -0.3716 -0.2426
 4831SOL    HW126129   1.537   2.381  11.199  0.1089 -0.2488 -0.1614
 4831SOL    HW226130   1.426   2.279  11.195  1.0399 -0.7968  0.4457
 4832SOL     OW26131   3.982   0.030   8.516 -1.1490 -0.0607 -0.3677
 4832SOL    HW126132   3.961   0.038   8.609  1.0268 -0.7128  0.1837
 4832SOL    HW226133   4.052   4.705   8.525 -0.5901  0.3511 -1.7772
 4833SOL     OW26134   0.993   4.186   1.418  0.4352 -0.3979  0.4285
 4833SOL    HW126135   1.069   4.239   1.445  1.5028 -3.2846  3.1309
 4833SOL    HW226136   0.983   4.131   1.496 -0.7681 -0.5470  0.1671
 4834SOL     OW26137   3.595   2.830  13.477 -0.7546  0.2750  0.1035
 4834SOL    HW126138   3.540   2.763  13.519  0.7119 -1.5563 -0.8874
 4834SOL    HW226139   3.617   2.772  13.404  1.5254 -0.7448  1.6267
 4835SOL     OW26140   1.801   3.717   5.326 -0.4612 -0.7207  0.5823
 4835SOL    HW126141   1.781   3.715   5.420  0.4070  1.3654  0.8177
 4835SOL    HW226142   1.888   3.756   5.320 -2.0423  2.5108 -1.4914
 4836SOL     OW26143   4.130   2.616  13.675  0.8102 -0.0883 -0.1710
 4836SOL    HW126144   4.199   2.649  13.732  2.3600 -4.4711  0.4923
 4836SOL    HW226145   4.175   2.607  13.591  0.5326 -1.4705 -0.1737
 4837SOL     OW26146   0.503   3.991   7.958  0.3316 -0.5372  0.1188
 4837SOL    HW126147   0.434   3.954   7.902  0.0638  1.1115 -0.6189
 4837SOL    HW226148   0.552   3.912   7.979  3.3371  1.2772 -0.1535
 4838SOL     OW26149   2.994   4.696  13.738 -0.4071 -0.0116 -0.5537
 4838SOL    HW126150   2.963   0.045  13.719 -0.6130  0.4022  1.7471
 4838SOL    HW226151   3.069   4.711  13.795 -0.4676  1.6616 -0.8832
 4839SOL     OW26152   2.874   4.441   5.077  0.2803  0.0861  0.0550
 4839SOL    HW126153   2.791   4.395   5.086  0.8721 -0.9070  0.4373
 4839SOL    HW226154   2.934   4.369   5.096 -0.2938 -0.7836 -1.4103
 4840SOL     OW26155   1.756   2.368   8.547 -0.2031  0.0831  0.5229
 4840SOL    HW126156   1.714   2.325   8.473 -0.2204  0.2713  0.4238
 4840SOL    HW226157   1.845   2.379   8.513  0.5797 -3.3682  1.4101
 4841SOL     OW26158   2.780   3.035  15.210 -0.2600  0.1093 -0.0020
 4841SOL    HW126159   2.689   3.024  15.237 -1.3510  1.2537 -3.2765
 4841SOL    HW226160   2.824   3.090  15.276 -2.1846  2.0384 -0.3310
 4842SOL     OW26161   2.320   4.212  10.146  0.5167 -0.3433 -0.7846
 4842SOL    HW126162   2.376   4.290  10.141 -1.5036  1.2458  0.9242
 4842SOL    HW226163   2.253   4.230  10.079 -2.1906 -0.1208  1.9446
 4843SOL     OW26164   4.184   1.742   9.134  0.3976 -0.0569  0.1891
 4843SOL    HW126165   4.099   1.729   9.175  0.6753  2.0833  1.4639
 4843SOL    HW226166   4.157   1.725   9.044  2.2637  0.7949 -0.5426
 4844SOL     OW26167   3.108   1.598   7.327 -0.1839  0.0181  0.1308
 4844SOL    HW126168   3.043   1.545   7.280 -0.8037  0.1256  0.8501
 4844SOL    HW226169   3.189   1.552   7.307 -0.6070  0.1269 -1.8202
 4845SOL     OW26170   0.931   3.689  12.176 -0.2824  0.2493  0.2533
 4845SOL    HW126171   1.023   3.681  12.152 -1.0989 -0.4284 -2.6154
 4845SOL    HW226172   0.901   3.748  12.107  0.2274 -0.4769 -0.5956
 4846SOL     OW26173   0.475   0.794   4.211 -0.2890  0.0484 -0.1994
 4846SOL    HW126174   0.495   0.885   4.190 -0.9966 -0.3237 -2.4607
 4846SOL    HW226175   0.504   0.797   4.302  1.0988 -1.6797 -0.5660
 4847SOL     OW26176   2.543   1.266   9.077  0.1337  0.1797  0.3363
 4847SOL    HW126177   2.593   1.346   9.060 -0.9376  0.8882  0.4966
 4847SOL    HW226178   2.583   1.231   9.157  0.5316  0.2796  0.1822
 4848SOL     OW26179   1.373   1.816  10.811 -0.1025  0.1672  0.5525
 4848SOL    HW126180   1.432   1.840  10.739 -1.4420 -1.8677 -1.2220
 4848SOL    HW226181   1.331   1.902  10.818  0.0626  0.2639  0.3355
 4849SOL     OW26182   1.977   2.248   5.951  0.0441  0.1629 -0.1343
 4849SOL    HW126183   1.917   2.288   5.888  1.2461 -0.9868 -2.0137
 4849SOL    HW226184   1.933   2.290   6.025 -2.7343 -1.7742 -0.6975
 4850SOL     OW26185   3.158   2.508   2.984  0.8745  0.2295  0.2797
 4850SOL    HW126186   3.148   2.508   3.079  0.3440  0.4460  0.2280
 4850SOL    HW226187   3.098   2.438   2.955 -0.2807  1.2728  0.1347
 4851SOL     OW26188   2.970   3.483   2.772  0.3209 -0.0445 -0.1856
 4851SOL    HW126189   3.046   3.538   2.752  2.1465 -2.5875 -0.1781
 4851SOL    HW226190   2.971   3.501   2.866 -0.6503 -1.0732  0.0171
 4852SOL     OW26191   3.943   1.719  14.024  0.1726 -0.6146 -0.6252
 4852SOL    HW126192   3.851   1.726  14.052 -0.2774  0.2590 -2.3207
 4852SOL    HW226193   3.981   1.678  14.101 -0.9157  0.7118  0.6230
 4853SOL     OW26194   0.405   0.031   2.872 -0.1141  0.1456  0.2026
 4853SOL    HW126195   0.333   0.013   2.812  1.4101  0.5493 -1.7272
 4853SOL    HW226196   0.462   0.078   2.811  1.9191 -0.3538  1.7281
 4854SOL     OW26197   3.075   2.980   7.275  0.4339 -0.2292 -0.9664
 4854SOL    HW126198   2.980   2.990   7.281  0.0781 -3.1885 -1.7367
 4854SOL    HW226199   3.091   3.014   7.187 -2.8379  3.9446  0.0131
 4855SOL     OW26200   1.578   3.093  14.409 -0.0364  0.3181  0.1321
 4855SOL    HW126201   1.625   3.030  14.354 -0.1325  0.4596 -0.1143
 4855SOL    HW226202   1.489   3.062  14.389 -0.0476 -0.1697  0.9372
 4856SOL     OW26203   3.709   1.780   8.991 -0.0188 -0.6634 -0.3259
 4856SOL    HW126204   3.695   1.696   8.948 -0.7199  0.2091 -1.7863
 4856SOL    HW226205   3.756   1.758   9.072  0.4286  1.3458 -0.0298
 4857SOL     OW26206   0.597   0.237   7.357  0.5881 -0.1153  0.0449
 4857SOL    HW126207   0.536   0.311   7.356  0.1253 -0.5193 -1.0338
 4857SOL    HW226208   0.651   0.253   7.435 -0.4822  0.5694  0.6374
 4858SOL     OW26209   2.530   4.443   6.796  0.2919 -0.8508 -0.3798
 4858SOL    HW126210   2.486   4.517   6.754  0.0718  0.0868  1.5119
 4858SOL    HW226211   2.542   4.379   6.725 -2.2032 -1.0977 -0.5653
 4859SOL     OW26212   4.154   3.879   3.974  0.1152 -0.2644 -0.2854
 4859SOL    HW126213   4.116   3.912   3.893  0.6140  0.5819 -0.1750
 4859SOL    HW226214   4.211   3.810   3.940 -0.2347  0.1056 -1.6397
 4860SOL     OW26215   2.723   2.811   5.830 -0.1714 -0.0744 -0.0364
 4860SOL    HW126216   2.702   2.849   5.745  0.4964 -0.3487 -0.3259
 4860SOL    HW226217   2.637   2.814   5.873  1.3029 -0.2480  2.9590
 4861SOL     OW26218   1.540   1.541   8.979  0.8895 -0.1144  0.6004
 4861SOL    HW126219   1.604   1.613   8.983 -0.3330  0.9645  0.7703
 4861SOL    HW226220   1.466   1.577   9.029  0.3931  0.4470 -0.5451
 4862SOL     OW26221   4.276   4.716   4.066  0.2935  0.0797  0.4297
 4862SOL    HW126222   4.337   4.677   4.003  1.2820 -0.8082  1.9416
 4862SOL    HW226223   4.209   0.020   4.013  0.2718 -0.3518  0.1017
 4863SOL     OW26224   0.358   0.088   2.351  0.3075 -1.0079 -0.2957
 4863SOL    HW126225   0.291   0.089   2.419  0.5504 -0.3299 -0.0645
 4863SOL    HW226226   0.412   0.010   2.362  0.2365 -0.9110  0.7155
 4864SOL     OW26227   3.070   4.166   5.391  0.3038 -0.2175  0.0619
 4864SOL    HW126228   2.992   4.145   5.442 -0.0336 -1.1656 -0.8544
 4864SOL    HW226229   3.133   4.210   5.448  0.2859 -0.4414  0.2548
 4865SOL     OW26230   3.888   0.635  14.820  0.4258  0.2169  0.0631
 4865SOL    HW126231   3.845   0.681  14.748 -0.4660 -0.8858 -0.1206
 4865SOL    HW226232   3.829   0.559  14.818 -2.4083  2.4292  0.1843
 4866SOL     OW26233   2.039   3.695   2.531  0.0629 -0.4566 -0.0931
 4866SOL    HW126234   1.952   3.717   2.500 -0.0616 -0.6973  0.0801
 4866SOL    HW226235   2.022   3.616   2.583  0.6436 -0.8129 -0.4384
 4867SOL     OW26236   4.101   3.915   6.873 -0.1016 -0.1518 -0.2493
 4867SOL    HW126237   4.195   3.932   6.881  0.5298 -3.3732 -1.1208
 4867SOL    HW226238   4.068   4.004   6.862  1.3415  0.6679  1.9847
 4868SOL     OW26239   2.365   1.435   6.588  0.6735 -0.3286 -0.3604
 4868SOL    HW126240   2.302   1.463   6.521 -1.6646 -0.5317  1.7709
 4868SOL    HW226241   2.318   1.369   6.639 -2.1856  0.8407 -1.4393
 4869SOL     OW26242   3.226   0.542   9.335  0.3898 -0.1924  0.0361
 4869SOL    HW126243   3.316   0.548   9.368  1.0721 -1.5033 -1.5816
 4869SOL    HW226244   3.223   0.558   9.240 -0.5412 -1.8850 -0.2160
 4870SOL     OW26245   4.361   4.514   6.312 -0.4041 -0.1691  0.1863
 4870SOL    HW126246   4.421   4.451   6.352 -1.4418  0.3911  2.6028
 4870SOL    HW226247   4.386   4.601   6.343 -0.1042 -0.5793  1.1012
 4871SOL     OW26248   1.873   1.340   0.309 -0.1283 -0.3730 -0.1310
 4871SOL    HW126249   1.946   1.366   0.365 -0.7987 -0.6609  0.8841
 4871SOL    HW226250   1.801   1.393   0.344  0.3235  0.5115 -0.5402
 4872SOL     OW26251   4.521   1.442   6.168 -0.0188 -0.3053 -0.1793
 4872SOL    HW126252   4.590   1.488   6.216 -0.1931 -0.6078  0.3617
 4872SOL    HW226253   4.571   1.390   6.106 -0.8477  1.0540 -1.9816
 4873SOL     OW26254   2.554   3.685   9.052 -0.2986  0.0858 -0.7175
 4873SOL    HW126255   2.613   3.661   8.981 -1.4510 -2.3440 -0.8751
 4873SOL    HW226256   2.603   3.751   9.100  1.0616  0.7855 -3.0593
 4874SOL     OW26257   4.122   3.979   2.913 -0.3722 -0.1573 -0.1835
 4874SOL    HW126258   4.208   4.016   2.932 -1.0855  0.9854  0.8768
 4874SOL    HW226259   4.080   4.055   2.872  0.3843 -0.4501 -1.4795
 4875SOL     OW26260   1.556   3.502   1.259 -0.2551  0.1618  0.1587
 4875SOL    HW126261   1.524   3.579   1.213 -1.9427 -0.3377  0.4825
 4875SOL    HW226262   1.615   3.467   1.193  0.6473 -0.4271  1.2650
 4876SOL     OW26263   2.589   2.329   5.702  0.0986  0.1013  0.0034
 4876SOL    HW126264   2.547   2.254   5.744  1.3289 -0.5823  0.0082
 4876SOL    HW226265   2.573   2.312   5.609  1.4683 -0.5844 -0.0972
 4877SOL     OW26266   0.423   0.832  15.691 -0.2366  0.4868  0.6106
 4877SOL    HW126267   0.514   0.861  15.682  0.1130 -0.8002  0.0453
 4877SOL    HW226268   0.422   0.766  15.621 -2.8012  1.2068 -0.0064
 4878SOL     OW26269   0.086   0.145   9.170  0.3936  0.1441  0.8752
 4878SOL    HW126270   0.071   0.052   9.185  1.6980 -0.2302 -0.2298
 4878SOL    HW226271   0.113   0.130   9.080  0.3685  2.2540  0.5082
 4879SOL     OW26272   4.322   1.544   0.198  0.2878  0.1266  0.1430
 4879SOL    HW126273   4.290   1.620   0.247 -0.3388  0.0226 -0.1027
 4879SOL    HW226274   4.273   1.471   0.236  0.1391 -0.0797 -0.4464
 4880SOL     OW26275   3.938   0.658   5.480 -0.3718 -0.1573 -0.2497
 4880SOL    HW126276   4.015   0.607   5.507 -0.6734 -1.2964 -1.5611
 4880SOL    HW226277   3.901   0.670   5.567 -3.0721  1.8181 -1.6637
 4881SOL     OW26278   1.200   2.507   9.458 -0.1330 -0.8359  0.1694
 4881SOL    HW126279   1.117   2.490   9.412  0.4749 -0.1481 -1.1795
 4881SOL    HW226280   1.218   2.589   9.413  0.6037 -1.3639 -0.5025
 4882SOL     OW26281   0.439   1.888   2.693  0.4452 -0.5414  0.0975
 4882SOL    HW126282   0.446   1.795   2.716  1.7283 -0.2230  1.0323
 4882SOL    HW226283   0.349   1.899   2.663  1.8240 -1.1521 -4.2892
 4883SOL     OW26284   0.797   0.782   1.501  0.2288  0.1840  0.1086
 4883SOL    HW126285   0.856   0.729   1.554  0.5845 -0.3538 -0.8313
 4883SOL    HW226286   0.808   0.862   1.553  1.6473  0.2519 -0.3136
 4884SOL     OW26287   2.338   0.200  10.100 -0.0337 -0.6188  0.0039
 4884SOL    HW126288   2.265   0.139  10.096 -0.8175  0.3900 -0.8110
 4884SOL    HW226289   2.370   0.172  10.186 -0.3780 -0.4884  0.1732
 4885SOL     OW26290   1.704   1.561   1.726  0.4134 -0.3572 -0.1973
 4885SOL    HW126291   1.645   1.535   1.796  2.5988 -0.4903  1.5783
 4885SOL    HW226292   1.773   1.604   1.777 -1.5166 -0.5016  2.5144
 4886SOL     OW26293   2.424   0.311   9.572 -0.3893 -0.6628  0.0110
 4886SOL    HW126294   2.455   0.254   9.643  0.9451  1.1120  0.8384
 4886SOL    HW226295   2.330   0.312   9.591  0.3777 -0.4730  3.8614
 4887SOL     OW26296   4.350   4.570   4.327  0.3932  0.0647  0.3330
 4887SOL    HW126297   4.347   4.485   4.283 -1.7138  1.1818 -1.6726
 4887SOL    HW226298   4.297   4.623   4.268  0.6864 -0.4132 -0.3484
 4888SOL     OW26299   3.067   4.276   4.143 -0.6576 -0.2093  0.4129
 4888SOL    HW126300   3.090   4.257   4.234 -1.2412  0.8535  0.7953
 4888SOL    HW226301   3.051   4.186   4.118  1.3262 -0.8084  1.2791
 4889SOL     OW26302   1.303   2.353   1.994  0.3213  0.2296 -0.0442
 4889SOL    HW126303   1.385   2.304   2.000  1.2069  1.9344  1.8053
 4889SOL    HW226304   1.331   2.444   1.993  1.7672 -0.2150  0.5186
 4890SOL     OW26305   2.236   0.009   4.658  0.6151  0.0833  0.2212
 4890SOL    HW126306   2.282   0.091   4.675 -0.5954  0.9294 -0.5901
 4890SOL    HW226307   2.188   4.736   4.739 -0.6924 -2.3475 -0.9353
 4891SOL     OW26308   2.490   4.635  12.159 -0.0048 -0.5308 -0.2663
 4891SOL    HW126309   2.400   4.615  12.185 -0.2757 -0.6400 -1.2942
 4891SOL    HW226310   2.479   4.730  12.157 -1.8408 -0.7392 -0.1720
 4892SOL     OW26311   1.233   3.045  13.572 -0.1385  0.1950 -0.7062
 4892SOL    HW126312   1.217   2.973  13.633  0.1049  0.6527 -0.0915
 4892SOL    HW226313   1.319   3.073  13.605 -0.6245  1.8619 -0.8899
 4893SOL     OW26314   4.200   4.210   3.780  0.0462 -0.0373  0.3558
 4893SOL    HW126315   4.107   4.190   3.773 -0.6572  2.0180  3.4327
 4893SOL    HW226316   4.232   4.175   3.697  2.3820 -1.3008  1.7963
 4894SOL     OW26317   4.298   1.508   1.644  0.0260 -0.0623  0.7335
 4894SOL    HW126318   4.347   1.448   1.588 -1.6218  0.2271 -0.9861
 4894SOL    HW226319   4.321   1.587   1.596 -3.4987  1.8612  2.2093
 4895SOL     OW26320   0.366   1.130  12.978  0.1810 -0.0792 -0.4393
 4895SOL    HW126321   0.459   1.151  12.974  0.2185  0.0514  0.9994
 4895SOL    HW226322   0.338   1.177  12.900 -1.6109  1.3930  1.0731
 4896SOL     OW26323   4.341   3.269   6.304  0.2952 -0.0036  0.4417
 4896SOL    HW126324   4.251   3.271   6.336  0.1641 -0.3489  0.0930
 4896SOL    HW226325   4.353   3.358   6.273  1.5082 -0.6966 -1.0968
 4897SOL     OW26326   3.493   3.781  16.228 -0.4280  0.1898  0.0018
 4897SOL    HW126327   3.469   3.734  16.308  1.2836  1.2978  1.1509
 4897SOL    HW226328   3.426   3.747  16.169  0.7352 -0.8589 -0.6951
 4898SOL     OW26329   3.054   0.101   3.518  0.1613  0.0646 -0.0727
 4898SOL    HW126330   3.139   0.143   3.504  0.2339  0.0251  0.2534
 4898SOL    HW226331   3.059   0.029   3.456 -0.4363  0.4789 -0.6023
 4899SOL     OW26332   3.639   3.216   2.894 -0.1826  0.1895  0.1159
 4899SOL    HW126333   3.735   3.216   2.885 -0.3626 -2.0927 -1.7831
 4899SOL    HW226334   3.616   3.143   2.836  1.4162 -1.4147  1.4928
 4900SOL     OW26335   0.892   2.838  15.688  0.0203 -1.0096 -0.3829
 4900SOL    HW126336   0.820   2.803  15.635 -0.9156 -1.3402  1.1190
 4900SOL    HW226337   0.918   2.909  15.629  0.3445 -1.3563 -0.6610
 4901SOL     OW26338   2.130   0.492  14.784  0.5621  0.0765 -0.6599
 4901SOL    HW126339   2.222   0.482  14.812  0.2316  1.4594  0.8759
 4901SOL    HW226340   2.148   0.437  14.707  1.2677 -0.0529 -0.4077
 4902SOL     OW26341   1.123   1.952   2.472 -0.0760  0.4520 -0.2331
 4902SOL    HW126342   1.143   2.000   2.392  0.8005 -0.1695 -0.3896
 4902SOL    HW226343   1.035   1.918   2.452  0.4459 -1.6955  1.0848
 4903SOL     OW26344   4.287   1.737   8.051  0.0399 -0.0958  0.2467
 4903SOL    HW126345   4.368   1.687   8.046  0.2385  0.5242 -3.1023
 4903SOL    HW226346   4.257   1.726   7.960 -1.7725 -1.1103  0.9588
 4904SOL     OW26347   0.754   3.152   1.356  0.0399  0.5343  0.2188
 4904SOL    HW126348   0.794   3.228   1.400 -0.9386  0.7224  0.7683
 4904SOL    HW226349   0.793   3.161   1.269 -1.7560 -0.0985 -0.6482
 4905SOL     OW26350   1.216   0.221   9.000  0.6026  0.3719  0.6484
 4905SOL    HW126351   1.290   0.207   8.940 -1.8187  0.8399 -2.4558
 4905SOL    HW226352   1.152   0.263   8.943  0.3518 -0.6880  0.1427
 4906SOL     OW26353   3.301   1.684  10.113  0.5097 -0.0538  0.2742
 4906SOL    HW126354   3.344   1.604  10.143  1.4151  0.0559 -0.7130
 4906SOL    HW226355   3.319   1.741  10.187 -1.2899  2.0433 -0.9015
 4907SOL     OW26356   4.349   3.915   8.841  0.6297 -0.6714  0.2714
 4907SOL    HW126357   4.433   3.942   8.878  0.7756  0.0628 -0.5997
 4907SOL    HW226358   4.291   3.925   8.917 -0.9551 -0.6473 -0.9551
 4908SOL     OW26359   3.014   1.965   5.998  0.3787 -0.4739 -0.5227
 4908SOL    HW126360   3.070   1.959   5.920  0.2666  0.4570 -0.6841
 4908SOL    HW226361   2.936   2.000   5.954  0.9013  1.8711  0.3912
 4909SOL     OW26362   1.172   0.367   6.796  0.3423 -0.0845 -0.4333
 4909SOL    HW126363   1.154   0.278   6.765  3.2460 -0.0782 -2.1007
 4909SOL    HW226364   1.266   0.368   6.817  0.6535 -1.2329 -1.7557
 4910SOL     OW26365   4.677   2.271  17.640  0.1713  0.2618  0.5239
 4910SOL    HW126366   0.004   2.242  17.702 -0.3287  0.1356  1.0101
 4910SOL    HW226367   4.602   2.284  17.699  0.1442  0.4175  0.4543
 4911SOL     OW26368   2.843   0.828   6.501 -0.4390 -0.1369  0.5193
 4911SOL    HW126369   2.917   0.776   6.469 -0.8813 -0.9101  0.7506
 4911SOL    HW226370   2.861   0.842   6.594 -2.0205  1.5361  0.5540
 4912SOL     OW26371   4.270   4.310  10.326  0.0585  0.4041  0.7645
 4912SOL    HW126372   4.266   4.398  10.287  1.0099  0.1780  0.1282
 4912SOL    HW226373   4.219   4.317  10.406  0.0653  1.5186  0.6793
 4913SOL     OW26374   4.209   0.549   8.147  0.0983  0.6081 -0.3254
 4913SOL    HW126375   4.124   0.592   8.160  0.4525  1.3295 -0.4339
 4913SOL    HW226376   4.213   0.514   8.236 -0.2027 -1.9438 -1.3019
 4914SOL     OW26377   3.315   4.166   9.031  0.0729  0.2620  0.4153
 4914SOL    HW126378   3.367   4.102   8.982  1.0371  1.2496  0.1486
 4914SOL    HW226379   3.375   4.240   9.038 -1.3107  1.2115  2.0660
 4915SOL     OW26380   3.109   2.171  12.534 -0.3152 -0.5441  0.5501
 4915SOL    HW126381   3.034   2.231  12.541  0.1764  0.4758 -2.9965
 4915SOL    HW226382   3.140   2.196  12.621  1.6349  1.8145 -0.8143
 4916SOL     OW26383   2.793   2.819   3.789 -0.1717  0.7515  0.2899
 4916SOL    HW126384   2.799   2.760   3.715 -0.0275  1.4421 -0.2480
 4916SOL    HW226385   2.703   2.806   3.817  0.2875 -2.4818  0.2953
 4917SOL     OW26386   0.956   2.038   7.924  0.6573 -0.2442 -0.1457
 4917SOL    HW126387   0.911   1.986   7.991 -0.5140  0.9038 -0.0649
 4917SOL    HW226388   0.944   2.124   7.965  1.1284  0.0972 -0.7282
 4918SOL     OW26389   2.837   3.048   6.204 -0.3184  0.0220 -0.1111
 4918SOL    HW126390   2.771   3.030   6.271  0.2411 -0.0045  0.4322
 4918SOL    HW226391   2.862   3.134   6.239  2.7139 -0.8831 -0.1372
 4919SOL     OW26392   1.038   0.932   5.823  0.1355 -0.0714  0.3496
 4919SOL    HW126393   1.071   0.954   5.735  0.0953 -0.3888  0.2551
 4919SOL    HW226394   1.119   0.896   5.859  1.2091  0.5266 -1.4532
 4920SOL     OW26395   3.815   1.754   2.058 -0.0295 -0.0606 -0.7298
 4920SOL    HW126396   3.883   1.779   1.996  1.1403  0.5097  0.7853
 4920SOL    HW226397   3.770   1.838   2.059 -0.9812 -0.5545 -1.6820
 4921SOL     OW26398   3.920   0.350   9.721  0.2183  0.2946  0.7601
 4921SOL    HW126399   4.005   0.305   9.719 -0.9018 -1.7259 -1.3863
 4921SOL    HW226400   3.871   0.300   9.785 -1.4325 -0.3340 -1.0139
 4922SOL     OW26401   1.237   1.252   8.367  0.3624 -0.0870  0.0071
 4922SOL    HW126402   1.160   1.300   8.395 -0.0910  0.1427 -1.6638
 4922SOL    HW226403   1.293   1.284   8.439 -1.2113 -0.4396  1.3744
 4923SOL     OW26404   1.625   3.054   2.472  0.4337 -0.1995  0.1743
 4923SOL    HW126405   1.646   3.147   2.458  0.8460 -0.5628 -1.6274
 4923SOL    HW226406   1.659   3.021   2.389  1.7976  0.0623  0.6283
 4924SOL     OW26407   0.072   4.226  14.985 -0.3719 -0.1467 -0.5606
 4924SOL    HW126408   0.052   4.314  14.953 -0.3056 -0.1076 -0.4967
 4924SOL    HW226409   0.042   4.225  15.076 -0.4647 -2.2507 -0.6173
 4925SOL     OW26410   4.101   4.202  11.966 -0.0468 -0.0280  0.2478
 4925SOL    HW126411   4.189   4.192  12.004 -0.7704  0.1856  1.9526
 4925SOL    HW226412   4.085   4.124  11.911  1.4867 -0.4214  0.3498
 4926SOL     OW26413   3.799   1.204   9.764  0.2895  0.2527  0.0313
 4926SOL    HW126414   3.826   1.113   9.776 -1.0197 -0.2533 -0.8519
 4926SOL    HW226415   3.704   1.190   9.765  0.5541 -1.5623 -1.4956
 4927SOL     OW26416   2.905   0.303   3.647  0.1451 -0.0606 -0.3347
 4927SOL    HW126417   2.865   0.339   3.568 -1.3078 -1.6385 -0.2958
 4927SOL    HW226418   2.965   0.237   3.613  0.3286  0.4404 -0.9983
 4928SOL     OW26419   1.192   1.386   1.395 -0.0353 -0.2249  0.0370
 4928SOL    HW126420   1.104   1.416   1.372  0.7468  1.0558 -1.3153
 4928SOL    HW226421   1.222   1.457   1.452  1.5200 -1.3246  0.5801
 4929SOL     OW26422   4.564   0.745   0.538  0.2408  0.2705  0.1958
 4929SOL    HW126423   4.637   0.684   0.545 -0.3774 -0.4579  0.2210
 4929SOL    HW226424   4.555   0.759   0.444  3.4997 -0.0196 -0.1760
 4930SOL     OW26425   3.506   3.438   6.638  0.1274 -0.1343 -0.0226
 4930SOL    HW126426   3.573   3.444   6.706  1.6629  0.0278 -1.5656
 4930SOL    HW226427   3.456   3.512   6.674 -0.4503  0.4207 -1.9815
 4931SOL     OW26428   3.873   0.451   4.728 -0.4955 -0.3659 -0.3940
 4931SOL    HW126429   3.953   0.478   4.683 -0.3408  1.7403  1.1560
 4931SOL    HW226430   3.917   0.405   4.800 -1.4147  0.4947  0.7175
 4932SOL     OW26431   3.910   4.062  12.628  0.3300  0.1399 -0.2391
 4932SOL    HW126432   3.853   4.058  12.551  0.6971  0.0708 -0.5043
 4932SOL    HW226433   3.974   3.995  12.607 -1.3422 -1.4945 -0.0843
 4933SOL     OW26434   0.859   4.182   2.529  0.0116 -0.0773 -0.5296
 4933SOL    HW126435   0.826   4.271   2.522 -2.9582 -1.2614 -1.8054
 4933SOL    HW226436   0.793   4.153   2.592 -0.8474  1.0917 -0.8988
 4934SOL     OW26437   4.506   3.719  13.270 -0.1434 -0.4011 -0.2781
 4934SOL    HW126438   4.479   3.634  13.305 -1.2281  0.5995  1.3017
 4934SOL    HW226439   4.602   3.714  13.274 -0.0464 -0.3171 -2.1439
 4935SOL     OW26440   2.678   1.152  14.964 -0.3968 -0.5745 -0.3612
 4935SOL    HW126441   2.704   1.234  14.922  2.9588 -0.9424  1.0123
 4935SOL    HW226442   2.743   1.091  14.929 -0.3302  0.2590 -1.6744
 4936SOL     OW26443   4.431   1.736   9.299  0.2720 -0.4051  0.2108
 4936SOL    HW126444   4.402   1.698   9.381  1.0433 -1.5252 -0.0373
 4936SOL    HW226445   4.353   1.729   9.243  0.4294  1.4985 -0.2380
 4937SOL     OW26446   0.020   1.747  15.414 -0.2370 -0.2210 -0.0984
 4937SOL    HW126447   4.680   1.732  15.465 -0.1171 -0.0093  0.1531
 4937SOL    HW226448   0.038   1.837  15.441 -1.3882  0.8097 -2.7823
 4938SOL     OW26449   3.078   1.723   8.128  0.1549 -0.3436  0.3645
 4938SOL    HW126450   3.090   1.637   8.169 -0.0876 -1.1043 -1.1703
 4938SOL    HW226451   3.150   1.772   8.169  0.4508 -0.0036 -0.5824
 4939SOL     OW26452   0.091   3.461   0.697  0.2807 -0.0692 -0.3368
 4939SOL    HW126453   0.160   3.525   0.712 -0.9309  1.2874 -0.5665
 4939SOL    HW226454   0.023   3.497   0.755 -0.4841  0.0398 -1.3123
 4940SOL     OW26455   4.409   2.239   3.334 -0.6758 -0.1553 -0.5932
 4940SOL    HW126456   4.339   2.228   3.269 -1.1627  2.1816 -0.4505
 4940SOL    HW226457   4.398   2.163   3.392 -0.7992  0.1677 -0.1957
 4941SOL     OW26458   1.460   1.623   9.904 -0.4592  0.2839 -0.2922
 4941SOL    HW126459   1.418   1.700   9.864 -2.0506 -0.4530 -0.0735
 4941SOL    HW226460   1.401   1.550   9.881 -1.4448  0.8827  0.3485
 4942SOL     OW26461   4.355   1.222   2.013 -0.4369 -0.1378  0.1594
 4942SOL    HW126462   4.286   1.231   2.079 -0.1866  0.6968  0.3116
 4942SOL    HW226463   4.429   1.231   2.073  2.0138 -1.3327 -2.6790
 4943SOL     OW26464   1.693   0.215   7.475  0.4736 -0.2043  0.2155
 4943SOL    HW126465   1.725   0.139   7.426  1.7980  1.4420 -1.4746
 4943SOL    HW226466   1.651   0.265   7.405 -1.0547 -2.0427 -0.1640
 4944SOL     OW26467   2.340   4.326   6.978  0.2640 -0.0447  0.1788
 4944SOL    HW126468   2.374   4.349   7.064 -0.0545  0.8378  0.0608
 4944SOL    HW226469   2.410   4.335   6.914  0.3862 -3.5345 -0.1788
 4945SOL     OW26470   3.214   1.113  13.184 -0.0272 -0.6813  0.0669
 4945SOL    HW126471   3.139   1.053  13.189 -0.5182 -0.0663  0.1538
 4945SOL    HW226472   3.183   1.178  13.122 -0.6649  0.5087  1.6200
 4946SOL     OW26473   4.199   2.215  13.872 -0.5239  0.5178  0.4322
 4946SOL    HW126474   4.150   2.239  13.951 -0.7200 -1.0770  0.8050
 4946SOL    HW226475   4.251   2.143  13.907  0.1767  1.1073  0.6036
 4947SOL     OW26476   2.841   2.432  10.888 -0.2110  0.4020 -0.1541
 4947SOL    HW126477   2.747   2.448  10.873 -0.3938 -0.1447  0.4266
 4947SOL    HW226478   2.836   2.356  10.945 -1.0533  0.5301 -0.0498
 4948SOL     OW26479   3.145   2.280  13.070  0.2792 -0.3821  0.0615
 4948SOL    HW126480   3.076   2.269  13.006 -0.1406 -1.6588  0.7360
 4948SOL    HW226481   3.168   2.372  13.064 -1.2505  0.0162  0.4410
 4949SOL     OW26482   3.334   3.008   4.480  0.6200 -0.1550  0.2649
 4949SOL    HW126483   3.350   2.922   4.519 -1.2455 -0.3487  0.6043
 4949SOL    HW226484   3.367   3.071   4.543  1.4496  1.6648 -1.9798
 4950SOL     OW26485   3.148   4.574   8.913  0.1093 -0.2884 -0.4521
 4950SOL    HW126486   3.200   4.630   8.971 -0.7962  0.8596 -0.7519
 4950SOL    HW226487   3.219   4.532   8.865  1.1679 -0.9129  1.6499
 4951SOL     OW26488   1.317   2.994   4.779 -0.0804 -0.3055 -0.6727
 4951SOL    HW126489   1.394   2.951   4.816 -0.3372 -0.5936 -0.4818
 4951SOL    HW226490   1.312   2.949   4.695 -0.7054  2.1688 -1.9722
 4952SOL     OW26491   1.101   3.178  12.869  0.2063  0.4140  0.4314
 4952SOL    HW126492   1.013   3.140  12.863  0.2704  0.7024 -2.0514
 4952SOL    HW226493   1.098   3.212  12.959 -0.9461 -1.0397  0.9616
 4953SOL     OW26494   1.435   0.541   5.704 -0.1709  0.3844 -0.4531
 4953SOL    HW126495   1.372   0.573   5.640 -0.2160  1.5726  0.1794
 4953SOL    HW226496   1.399   0.556   5.791 -0.1750  0.2865 -0.4374
 4954SOL     OW26497   3.243   2.273   2.283  0.3810  0.6129 -0.5407
 4954SOL    HW126498   3.323   2.311   2.320 -1.5829  3.3769  0.8776
 4954SOL    HW226499   3.199   2.358   2.284 -2.4408 -0.8856  0.6495
 4955SOL     OW26500   2.071   2.971   9.362  0.0885  0.2915 -0.3718
 4955SOL    HW126501   1.978   2.986   9.345  0.3516  1.0819 -1.1403
 4955SOL    HW226502   2.105   2.922   9.287  1.9052  1.5105 -0.3539
 4956SOL     OW26503   3.125   2.937   8.186 -0.0355 -0.0721 -0.0048
 4956SOL    HW126504   3.076   3.016   8.166 -1.1520 -0.6364  0.4844
 4956SOL    HW226505   3.071   2.877   8.135 -1.6704  2.2470 -0.9946
 4957SOL     OW26506   3.450   2.676   9.181 -0.0514 -0.2601 -0.1940
 4957SOL    HW126507   3.537   2.711   9.165  0.3753 -1.1682  0.1789
 4957SOL    HW226508   3.421   2.748   9.238  2.7380  0.1128  0.7621
 4958SOL     OW26509   4.367   1.715   5.849 -0.5567 -0.3430 -0.2188
 4958SOL    HW126510   4.389   1.764   5.927 -2.9350  0.2937  0.0528
 4958SOL    HW226511   4.422   1.763   5.787 -0.4847 -1.9795 -1.4382
 4959SOL     OW26512   2.186   0.486   7.176 -0.1621  0.2825 -0.0706
 4959SOL    HW126513   2.117   0.520   7.233  0.0098  1.5363 -0.6078
 4959SOL    HW226514   2.226   0.562   7.134  2.6590 -1.0600  0.1388
 4960SOL     OW26515   4.489   1.770   1.033 -0.6919 -0.6935 -0.7153
 4960SOL    HW126516   4.529   1.684   1.022 -0.5039 -0.3540 -2.7297
 4960SOL    HW226517   4.399   1.746   1.054 -0.9694 -0.5912 -1.7979
 4961SOL     OW26518   0.853   0.747   6.543  0.0877 -0.9694  0.0644
 4961SOL    HW126519   0.871   0.739   6.637  2.5681  0.9687 -0.2443
 4961SOL    HW226520   0.884   0.664   6.509 -0.8191 -0.7723 -1.2280
 4962SOL     OW26521   3.962   1.435   1.439  0.4738  0.3945 -0.0329
 4962SOL    HW126522   4.032   1.374   1.418  1.2269  1.4636 -0.6308
 4962SOL    HW226523   3.974   1.455   1.532 -3.9508  0.3069  0.5552
 4963SOL     OW26524   0.925   3.243  12.224 -0.0924 -0.1940 -0.0390
 4963SOL    HW126525   0.917   3.315  12.286 -1.9298  0.8424 -1.4824
 4963SOL    HW226526   0.940   3.300  12.148  0.4561 -0.3691 -0.0689
 4964SOL     OW26527   0.402   2.712   3.645 -0.7564 -0.2856  0.9030
 4964SOL    HW126528   0.378   2.655   3.718 -1.6700 -1.0070  0.0469
 4964SOL    HW226529   0.316   2.754   3.649  0.3004  1.9633 -0.2266
 4965SOL     OW26530   1.672   4.411   7.179 -0.2283 -0.4847 -0.0874
 4965SOL    HW126531   1.664   4.350   7.252  2.3777 -1.0203 -0.2408
 4965SOL    HW226532   1.651   4.363   7.099 -0.1770  0.0045 -0.3941
 4966SOL     OW26533   0.577   2.638  13.371 -0.2042 -0.3380 -0.2442
 4966SOL    HW126534   0.646   2.654  13.435  0.9947 -2.7608 -0.9379
 4966SOL    HW226535   0.541   2.558  13.409 -2.1472  0.8452  0.4160
 4967SOL     OW26536   3.733   0.780   6.725  0.0184  0.3774 -0.0950
 4967SOL    HW126537   3.727   0.876   6.730  0.5702  0.3683  0.7937
 4967SOL    HW226538   3.827   0.765   6.720 -0.2019 -1.6178  1.7660
 4968SOL     OW26539   0.793   2.341  11.805  0.4912  0.3240  0.6442
 4968SOL    HW126540   0.857   2.269  11.803 -1.7915 -1.6376 -1.7425
 4968SOL    HW226541   0.723   2.299  11.855  0.1816 -0.9056 -0.8446
 4969SOL     OW26542   2.257   0.584  13.771 -0.3840  0.4314 -0.5815
 4969SOL    HW126543   2.238   0.501  13.726  1.8316 -0.4314  0.0601
 4969SOL    HW226544   2.352   0.589  13.763 -0.2940 -0.9553 -0.3844
 4970SOL     OW26545   4.116   3.942   5.978 -0.2282 -0.2562 -0.1045
 4970SOL    HW126546   4.202   3.964   5.942  0.8700 -0.6218  2.3204
 4970SOL    HW226547   4.058   3.955   5.903  0.0057  2.7232  0.2244
 4971SOL     OW26548   4.197   1.443   9.769 -0.3042 -0.2800  0.0286
 4971SOL    HW126549   4.201   1.348   9.763  1.5496 -0.1478 -0.9495
 4971SOL    HW226550   4.150   1.460   9.687  0.1873  3.9976  0.5916
 4972SOL     OW26551   4.558   1.201   8.944 -0.1353 -0.2624 -0.2171
 4972SOL    HW126552   4.636   1.187   8.998 -0.0561  0.8795 -0.0398
 4972SOL    HW226553   4.503   1.141   8.993 -1.9302 -0.1199 -2.0436
 4973SOL     OW26554   2.674   0.778   2.073  0.2253 -0.2417 -0.8197
 4973SOL    HW126555   2.757   0.748   2.035 -0.1316  0.9013 -2.5017
 4973SOL    HW226556   2.640   0.830   2.000  2.5101  0.0347 -1.6976
 4974SOL     OW26557   0.592   2.721   8.596  0.2813  0.7732  0.0929
 4974SOL    HW126558   0.501   2.745   8.579 -0.0618 -1.0873 -0.7406
 4974SOL    HW226559   0.612   2.663   8.522 -0.0618  2.6511 -1.4658
 4975SOL     OW26560   4.707   0.632   6.643 -0.3910  0.0305 -0.3588
 4975SOL    HW126561   4.718   0.725   6.665  0.1459 -0.1861  0.2948
 4975SOL    HW226562   4.680   0.640   6.552 -0.8439  1.0923 -0.1374
 4976SOL     OW26563   2.803   4.191   4.283 -0.2410 -0.2067  0.3588
 4976SOL    HW126564   2.806   4.141   4.202  0.1757  1.3831 -0.6144
 4976SOL    HW226565   2.847   4.124   4.336 -1.0972  0.7086  2.2260
 4977SOL     OW26566   3.031   2.142  15.729 -0.6059 -0.4878  0.0380
 4977SOL    HW126567   2.974   2.214  15.701 -1.9858 -1.8130 -0.5594
 4977SOL    HW226568   2.994   2.118  15.814  0.5174 -0.7672  0.4470
 4978SOL     OW26569   0.263   0.782   4.701  0.0908 -0.1663 -1.0640
 4978SOL    HW126570   0.329   0.851   4.707  0.2739 -0.4805  0.7847
 4978SOL    HW226571   0.191   0.843   4.684 -1.1439 -1.4745 -0.5357
 4979SOL     OW26572   2.137   4.131   6.650 -0.5284 -0.7005  0.5798
 4979SOL    HW126573   2.086   4.211   6.643 -1.1385 -0.9847  1.7083
 4979SOL    HW226574   2.100   4.097   6.731 -0.9484 -0.4585  0.4886
 4980SOL     OW26575   1.961   0.593   3.024 -0.4172 -0.0926  0.1447
 4980SOL    HW126576   1.905   0.545   3.085  0.2811 -1.5987 -0.3997
 4980SOL    HW226577   1.972   0.524   2.959 -0.2633 -0.1732  0.2585
 4981SOL     OW26578   0.364   2.681   4.189 -0.0932  0.2543  0.0750
 4981SOL    HW126579   0.371   2.625   4.112 -0.6184  2.3031 -1.4871
 4981SOL    HW226580   0.270   2.699   4.193 -0.2084  0.1543 -2.2276
 4982SOL     OW26581   0.330   2.635   4.681 -0.4867  0.0576  0.2020
 4982SOL    HW126582   0.395   2.614   4.749 -0.8976 -1.4557  0.1379
 4982SOL    HW226583   0.252   2.650   4.734 -0.8166 -0.8528 -0.0145
 4983SOL     OW26584   0.796   0.041   5.816 -0.1038  0.6152  0.4042
 4983SOL    HW126585   0.773   4.695   5.782 -3.1042  1.4676  0.2153
 4983SOL    HW226586   0.891   0.034   5.819 -0.2523 -1.5822 -0.5023
 4984SOL     OW26587   0.633   0.694   3.132  0.3218  0.5997 -0.2184
 4984SOL    HW126588   0.595   0.624   3.079 -0.2854  1.1328 -0.4987
 4984SOL    HW226589   0.685   0.643   3.194 -0.0745 -1.4891 -1.6031
 4985SOL     OW26590   0.138   2.578   5.949 -0.4126  0.2662 -0.2317
 4985SOL    HW126591   0.167   2.617   6.032  0.5289 -0.7742 -0.0726
 4985SOL    HW226592   0.129   2.658   5.897  2.1187  0.9492  0.3589
 4986SOL     OW26593   0.531   4.124   1.468  0.3263 -0.6448  0.7175
 4986SOL    HW126594   0.488   4.109   1.384 -0.6838 -1.4514  1.3837
 4986SOL    HW226595   0.480   4.068   1.526 -1.1359 -0.8342 -0.7551
 4987SOL     OW26596   2.097   4.244   8.699  0.7937  0.1170 -0.0552
 4987SOL    HW126597   2.177   4.292   8.723 -0.2832  1.4679  0.8263
 4987SOL    HW226598   2.033   4.311   8.721  2.6167  2.1463 -0.9805
 4988SOL     OW26599   3.899   3.982   2.714  0.2879  0.5459 -0.2691
 4988SOL    HW126600   3.949   3.910   2.676  0.4386  2.0058 -2.8104
 4988SOL    HW226601   3.952   4.062   2.716 -0.4706  1.0230  1.2574
 4989SOL     OW26602   2.715   0.700   8.389  0.1977  0.0744  0.4885
 4989SOL    HW126603   2.810   0.713   8.380 -0.2575  3.8461  0.9650
 4989SOL    HW226604   2.717   0.608   8.416 -0.7649 -0.5051 -1.4420
 4990SOL     OW26605   0.779   3.445   1.446 -0.4854  0.0594 -0.0359
 4990SOL    HW126606   0.694   3.465   1.485 -0.6789  0.1147 -0.4848
 4990SOL    HW226607   0.842   3.477   1.510  0.0617 -0.8503 -0.1115
 4991SOL     OW26608   3.151   0.520  16.354 -0.8105 -0.0658  0.1746
 4991SOL    HW126609   3.161   0.440  16.407 -0.6781  0.5361  1.0625
 4991SOL    HW226610   3.133   0.586  16.421 -3.5180 -1.0603  0.4233
 4992SOL     OW26611   0.829   0.208   3.701 -0.6715  0.5465 -0.2128
 4992SOL    HW126612   0.750   0.251   3.666 -0.0552  0.9474 -1.1004
 4992SOL    HW226613   0.792   0.121   3.716 -0.4703  0.6621  0.9228
 4993SOL     OW26614   2.825   4.355   1.386  0.3812  0.1866  0.5637
 4993SOL    HW126615   2.740   4.393   1.407  1.0446  0.6260  2.4780
 4993SOL    HW226616   2.804   4.289   1.320  1.8210  0.2623  0.0319
 4994SOL     OW26617   1.140   3.887   1.808  0.0848 -0.1855 -0.1683
 4994SOL    HW126618   1.099   3.863   1.891  0.4492 -1.3696 -0.3332
 4994SOL    HW226619   1.206   3.819   1.798 -2.3034 -2.3954 -0.8096
 4995SOL     OW26620   4.605   1.180   1.711 -0.5030  0.5255 -0.3471
 4995SOL    HW126621   4.699   1.163   1.708 -0.0944  2.5049  1.0242
 4995SOL    HW226622   4.597   1.255   1.770  1.1697 -0.7220  1.4895
 4996SOL     OW26623   4.021   2.150   2.509 -0.5456 -0.1868 -0.1329
 4996SOL    HW126624   3.981   2.071   2.474  0.1797 -0.2016 -0.9246
 4996SOL    HW226625   4.113   2.125   2.516 -0.4176  1.3563  3.4099
 4997SOL     OW26626   0.012   0.613   5.033  0.2777 -0.3021 -0.0144
 4997SOL    HW126627   0.102   0.580   5.039  1.0894  1.7845 -0.5417
 4997SOL    HW226628   0.037   0.703   5.015 -2.3557  0.2248 -1.0297
 4998SOL     OW26629   4.227   0.337   2.477  0.1830  0.2319  0.2368
 4998SOL    HW126630   4.212   0.413   2.421  1.0860 -1.1342 -1.8855
 4998SOL    HW226631   4.309   0.303   2.439 -0.0556  1.0235 -0.9964
 4999SOL     OW26632   4.381   3.273   9.153  0.2947  0.3782 -0.3560
 4999SOL    HW126633   4.452   3.209   9.159 -1.0617 -0.8987  2.2747
 4999SOL    HW226634   4.341   3.246   9.070  0.8661 -1.3493 -0.0764
 5000SOL     OW26635   0.636   3.605  16.739 -0.4975 -0.1939  0.0547
 5000SOL    HW126636   0.608   3.558  16.661 -1.3793 -2.1452  1.5449
 5000SOL    HW226637   0.727   3.620  16.716 -0.8063  2.2211  0.3933
 5001SOL     OW26638   4.320   4.412  16.562  0.3528 -0.4047 -0.2575
 5001SOL    HW126639   4.409   4.429  16.594  0.4499 -2.7802  0.7620
 5001SOL    HW226640   4.309   4.326  16.603  0.2202  0.0488  0.6682
 5002SOL     OW26641   3.373   4.446   8.811 -0.1408  0.0813  0.0628
 5002SOL    HW126642   3.426   4.405   8.743 -0.2604 -1.0912  0.6651
 5002SOL    HW226643   3.424   4.428   8.890  1.0584 -0.4216 -0.8432
 5003SOL     OW26644   3.411   1.573   9.561  0.2280 -0.4742 -0.1067
 5003SOL    HW126645   3.500   1.564   9.596  0.2181  0.4857  0.1532
 5003SOL    HW226646   3.369   1.518   9.627 -1.0323  0.2298 -0.3271
 5004SOL     OW26647   1.793   3.531   5.753 -0.0580 -0.5704 -0.0132
 5004SOL    HW126648   1.746   3.606   5.716 -1.7260 -1.3589  0.5430
 5004SOL    HW226649   1.733   3.456   5.748  0.6324 -1.1985  1.2200
 5005SOL     OW26650   1.766   3.220   0.402 -0.3982  0.2292  0.4456
 5005SOL    HW126651   1.675   3.191   0.411 -0.3481  0.0568  0.3855
 5005SOL    HW226652   1.816   3.148   0.441  1.7337  0.9763 -0.8836
 5006SOL     OW26653   3.288   2.046   1.971  0.1087  0.2975 -0.5256
 5006SOL    HW126654   3.353   1.997   1.921  1.1363  0.8702  0.2321
 5006SOL    HW226655   3.321   2.136   1.978 -1.3674  1.0178 -2.9247
 5007SOL     OW26656   1.512   0.327   8.955 -0.2712 -0.4079 -0.1624
 5007SOL    HW126657   1.538   0.418   8.966  0.4169 -0.5520 -0.5294
 5007SOL    HW226658   1.421   0.341   8.930  0.6848  2.4395 -2.0099
 5008SOL     OW26659   1.434   3.066  13.763 -0.1431 -0.4470  0.0067
 5008SOL    HW126660   1.486   2.987  13.753 -1.3168 -1.2387  0.1339
 5008SOL    HW226661   1.492   3.142  13.758  0.5817 -1.0267 -0.4242
 5009SOL     OW26662   2.337   0.208   7.609 -0.1190  0.3448  0.3693
 5009SOL    HW126663   2.315   0.233   7.520 -2.7036  1.4460  1.3072
 5009SOL    HW226664   2.390   0.282   7.639  0.4656 -0.0866  0.4008
 5010SOL     OW26665   2.224   2.097   3.177 -0.2546  0.3454  0.7335
 5010SOL    HW126666   2.134   2.118   3.199 -0.8042 -1.9568  0.6950
 5010SOL    HW226667   2.221   2.008   3.142  0.5738  0.9814 -0.9337
 5011SOL     OW26668   4.619   0.698   1.174 -0.1217 -0.2192  0.2129
 5011SOL    HW126669   4.544   0.642   1.193  0.0930 -0.2036  1.1081
 5011SOL    HW226670   4.634   0.683   1.080  0.7230  0.7273  0.1904
 5012SOL     OW26671   3.439   0.660   5.755 -0.1832  0.1269 -0.5718
 5012SOL    HW126672   3.506   0.625   5.813 -1.8881 -3.5484 -0.7723
 5012SOL    HW226673   3.491   0.646   5.675  2.0444 -0.0341  0.8965
 5013SOL     OW26674   4.323   3.359   3.889 -0.4663  0.2609 -0.0117
 5013SOL    HW126675   4.336   3.317   3.804  0.2125 -1.4497  0.9298
 5013SOL    HW226676   4.338   3.279   3.940 -2.0888 -0.8455 -1.2607
 5014SOL     OW26677   4.378   1.264   6.484  0.0691 -0.1265 -0.4321
 5014SOL    HW126678   4.316   1.277   6.555 -0.4038  1.8143 -1.2015
 5014SOL    HW226679   4.385   1.358   6.470  1.0840 -0.3706 -1.5934
 5015SOL     OW26680   0.291   2.447  16.173  0.3404 -0.1337 -0.1737
 5015SOL    HW126681   0.241   2.502  16.112  0.3628  0.9824  0.8002
 5015SOL    HW226682   0.233   2.456  16.249 -0.2020  0.3420 -0.6420
 5016SOL     OW26683   2.769   0.015   3.264  0.3546  0.7725  0.3657
 5016SOL    HW126684   2.845   4.723   3.313  0.7876  0.3401 -0.5869
 5016SOL    HW226685   2.809   0.060   3.189  1.1170  2.3224  1.7120
 5017SOL     OW26686   3.917   0.027   2.467 -0.1934 -0.5693 -0.0635
 5017SOL    HW126687   3.980   4.722   2.410  0.2758  0.1819 -0.1481
 5017SOL    HW226688   3.835   4.726   2.439 -0.7078  2.2109 -2.6458
 5018SOL     OW26689   2.598   0.391  15.387 -0.0646  0.3740 -0.0972
 5018SOL    HW126690   2.576   0.302  15.415 -0.4885  1.0394  1.6939
 5018SOL    HW226691   2.636   0.432  15.465 -1.2220 -1.7736  1.6185
 5019SOL     OW26692   3.685   0.413   7.834  0.3254 -0.6524  0.9756
 5019SOL    HW126693   3.728   0.330   7.856 -2.0442 -1.9602  0.6217
 5019SOL    HW226694   3.646   0.385   7.752  2.0160 -1.0858  0.3178
 5020SOL     OW26695   1.148   4.493   4.373 -0.4632 -0.5189 -0.0265
 5020SOL    HW126696   1.224   4.462   4.323  1.1510  1.5243  1.1877
 5020SOL    HW226697   1.101   4.543   4.307  1.2921  0.9328 -0.1801
 5021SOL     OW26698   1.446   2.265   7.618 -0.5871  0.5823  0.2212
 5021SOL    HW126699   1.439   2.175   7.649  0.2390 -0.5057 -2.6935
 5021SOL    HW226700   1.464   2.308   7.701  0.6705 -1.1129  0.8116
 5022SOL     OW26701   2.030   4.043   6.126 -0.2767 -0.2007 -0.0561
 5022SOL    HW126702   2.041   3.984   6.200 -0.7344  0.6948  0.7169
 5022SOL    HW226703   2.095   4.107   6.152  0.3126 -1.6504  1.9791
 5023SOL     OW26704   2.800   4.553  10.787 -0.0939 -0.1635 -0.3536
 5023SOL    HW126705   2.736   4.509  10.731  1.1402 -1.4274 -0.7699
 5023SOL    HW226706   2.885   4.513  10.773 -1.2580 -2.7342  0.0416
 5024SOL     OW26707   4.611   1.127  11.627  0.3200  0.5911 -0.1104
 5024SOL    HW126708   4.553   1.055  11.652  0.5307  0.1429 -0.9299
 5024SOL    HW226709   4.598   1.131  11.532 -0.4623 -0.7874 -0.0591
 5025SOL     OW26710   0.304   0.282   7.915  0.2071  0.7103  0.0652
 5025SOL    HW126711   0.215   0.308   7.940  0.6587 -0.4596  2.8762
 5025SOL    HW226712   0.275   0.243   7.833 -1.2256  1.7349  0.0888
 5026SOL     OW26713   2.831   3.097   7.232 -0.1732  0.0305 -0.4973
 5026SOL    HW126714   2.818   3.180   7.278  0.5734 -0.9911  1.5450
 5026SOL    HW226715   2.744   3.067   7.208 -0.4093 -0.5407  1.0674
 5027SOL     OW26716   1.233   1.056  12.006  0.2018  0.0506 -0.2536
 5027SOL    HW126717   1.183   1.038  11.926 -2.0261  1.3650  0.8441
 5027SOL    HW226718   1.225   0.972  12.051  0.9040  0.2329  0.2124
 5028SOL     OW26719   3.844   1.934   3.644  0.2015 -0.5982  0.3981
 5028SOL    HW126720   3.779   1.949   3.713  0.7760 -0.8069  0.9734
 5028SOL    HW226721   3.921   1.969   3.689 -0.3112 -1.4362  1.9395
 5029SOL     OW26722   0.702   1.797   8.305 -0.3777 -0.0875  1.0411
 5029SOL    HW126723   0.743   1.734   8.246 -0.0505 -0.1666  1.3495
 5029SOL    HW226724   0.694   1.870   8.244 -2.7468 -0.3473  1.0302
 5030SOL     OW26725   4.153   2.312   9.541 -0.3333  0.1961  0.5275
 5030SOL    HW126726   4.135   2.390   9.489 -0.4422 -0.3812 -0.3082
 5030SOL    HW226727   4.070   2.274   9.513 -0.0820  0.3047 -0.3593
 5031SOL     OW26728   3.219   0.949  14.334  0.4074 -0.0948 -0.0044
 5031SOL    HW126729   3.271   0.878  14.373 -1.5488 -1.6036 -0.1311
 5031SOL    HW226730   3.215   0.924  14.242  1.5193 -0.4504  0.0356
 5032SOL     OW26731   3.373   0.821   1.753  0.3369 -0.2376  0.4232
 5032SOL    HW126732   3.393   0.853   1.841 -1.2828 -0.1005  0.7395
 5032SOL    HW226733   3.286   0.791   1.777  0.4230 -0.4556  0.4660
 5033SOL     OW26734   0.736   0.892   6.341 -0.1036 -0.4725 -0.3500
 5033SOL    HW126735   0.822   0.932   6.357 -0.5181  0.5961 -0.8144
 5033SOL    HW226736   0.747   0.840   6.420 -1.3474  1.5435  1.1423
 5034SOL     OW26737   2.263   1.245  11.070  0.2848  0.2115 -0.1135
 5034SOL    HW126738   2.347   1.210  11.042 -0.2559 -0.4689 -0.8996
 5034SOL    HW226739   2.243   1.183  11.141 -0.3044 -0.2079 -0.6463
 5035SOL     OW26740   0.344   4.269   1.777 -0.1862  0.2835  0.7670
 5035SOL    HW126741   0.383   4.327   1.712  0.6670 -1.5890 -0.4110
 5035SOL    HW226742   0.301   4.335   1.832  0.6882  2.2779 -0.9316
 5036SOL     OW26743   4.045   2.182   8.521 -0.5680 -0.3882  0.1561
 5036SOL    HW126744   4.031   2.100   8.474 -1.0344  1.0095 -2.1364
 5036SOL    HW226745   4.062   2.138   8.604  3.5176  2.3714  0.7815
 5037SOL     OW26746   1.062   3.983   6.669  0.2039  0.6708 -0.0429
 5037SOL    HW126747   1.042   3.911   6.729  1.0962 -0.0024 -0.5682
 5037SOL    HW226748   0.995   4.044   6.702 -0.5336  0.8990 -1.9603
 5038SOL     OW26749   4.723   0.857   5.498  0.3386 -0.1298 -0.6269
 5038SOL    HW126750   4.671   0.808   5.561 -2.0076  0.1660 -2.3197
 5038SOL    HW226751   4.700   0.797   5.426  0.6465 -0.0992 -0.7503
 5039SOL     OW26752   2.230   1.631  13.700  0.0443 -0.2325 -0.5332
 5039SOL    HW126753   2.188   1.559  13.653 -1.1903 -0.0253  0.2850
 5039SOL    HW226754   2.283   1.662  13.626  0.7117  0.3510  0.1877
 5040SOL     OW26755   2.009   3.402   7.736  0.0277 -0.3122  0.0384
 5040SOL    HW126756   2.010   3.393   7.832 -0.6976 -0.0935  0.0702
 5040SOL    HW226757   1.917   3.417   7.711  0.0378  1.2115  0.8378
 5041SOL     OW26758   2.260   2.695   8.551  0.2501  0.0625  0.4401
 5041SOL    HW126759   2.218   2.609   8.544 -1.4066  0.6726  2.8930
 5041SOL    HW226760   2.243   2.720   8.641 -0.6967  2.4917 -0.4203
 5042SOL     OW26761   3.610   1.032   9.547 -0.2202  0.3113  0.6909
 5042SOL    HW126762   3.625   1.038   9.641  0.5564  1.1995  0.5087
 5042SOL    HW226763   3.528   0.983   9.552 -0.6551  0.9037 -0.6121
 5043SOL     OW26764   2.505   1.976   8.081 -0.1856  0.1092  0.6924
 5043SOL    HW126765   2.585   1.924   8.069  0.1425  0.9767 -0.9225
 5043SOL    HW226766   2.544   2.062   8.063 -3.4680  1.7066  1.2076
 5044SOL     OW26767   2.941   3.491  17.048 -0.2648 -0.0719  0.2141
 5044SOL    HW126768   2.915   3.530  17.132 -2.1982  1.3959 -1.0794
 5044SOL    HW226769   2.854   3.456  17.030 -0.5837  1.1623 -0.6261
 5045SOL     OW26770   3.029   4.553  10.234 -0.1844  0.8661 -0.2623
 5045SOL    HW126771   2.955   4.499  10.206 -1.0386  1.2428  1.2519
 5045SOL    HW226772   3.089   4.555  10.160  0.2140  1.8841  0.0835
 5046SOL     OW26773   3.918   1.919   2.399 -0.5079 -0.7903  0.0396
 5046SOL    HW126774   3.984   1.852   2.381 -2.4791 -2.1534 -2.1103
 5046SOL    HW226775   3.868   1.925   2.318  0.0067 -2.7980 -0.4236
 5047SOL     OW26776   0.218   3.845   5.004 -0.3903  0.1948  0.0860
 5047SOL    HW126777   0.165   3.805   4.935  0.4641 -1.0999  0.1764
 5047SOL    HW226778   0.173   3.929   5.011  0.6166  0.9449 -2.7423
 5048SOL     OW26779   0.354   3.567  11.361 -0.9794 -0.2155  0.0912
 5048SOL    HW126780   0.334   3.588  11.452  0.4179 -2.7540  0.9865
 5048SOL    HW226781   0.421   3.500  11.374  0.4472  1.1544 -0.2475
 5049SOL     OW26782   4.576   0.706   2.433 -0.1984 -0.2061 -0.2632
 5049SOL    HW126783   4.570   0.628   2.378  0.6383 -2.1605  2.4089
 5049SOL    HW226784   4.542   0.772   2.373  0.8141  0.3806 -0.2002
 5050SOL     OW26785   4.309   1.984   5.397  0.3033  0.1343  0.3251
 5050SOL    HW126786   4.358   1.970   5.317  1.3004 -0.2336  1.0041
 5050SOL    HW226787   4.264   2.066   5.377  0.0740 -0.6756 -2.3831
 5051SOL     OW26788   4.422   2.868   5.495 -0.0704 -0.3211  0.2897
 5051SOL    HW126789   4.404   2.871   5.401 -3.4530 -2.0858  0.8778
 5051SOL    HW226790   4.509   2.907   5.506 -0.6781  1.5053 -1.2250
 5052SOL     OW26791   3.924   4.137   7.001  0.2468  0.4253 -1.0996
 5052SOL    HW126792   3.845   4.191   6.993  0.6099  1.3667  1.3985
 5052SOL    HW226793   3.980   4.215   7.006 -0.7601  0.9644  1.9632
 5053SOL     OW26794   2.648   0.266  17.292 -0.0053 -0.1005  0.5657
 5053SOL    HW126795   2.611   0.203  17.230 -0.0782  0.4093  0.0901
 5053SOL    HW226796   2.678   0.202  17.356  0.2556  0.0371  0.5782
 5054SOL     OW26797   3.098   1.463   8.226 -0.1083  0.0288 -0.3542
 5054SOL    HW126798   3.036   1.399   8.258 -0.2520  0.5595  0.4282
 5054SOL    HW226799   3.109   1.422   8.140 -2.8550 -0.0901 -0.6404
 5055SOL     OW26800   2.496   2.493  14.819 -0.2062  0.3373 -0.4337
 5055SOL    HW126801   2.496   2.447  14.903 -0.6815 -2.0910 -1.7723
 5055SOL    HW226802   2.579   2.468  14.780 -0.3453 -0.5899 -0.1252
 5056SOL     OW26803   0.758   3.244   8.001  0.2245  0.4008 -0.3228
 5056SOL    HW126804   0.844   3.241   7.959  0.2207 -0.5120 -0.2552
 5056SOL    HW226805   0.703   3.182   7.953 -0.0837 -0.6056  1.3382
 5057SOL     OW26806   2.865   4.044   1.037  0.3348 -0.5144 -0.3336
 5057SOL    HW126807   2.887   4.024   1.128  2.8110 -2.0920 -1.2830
 5057SOL    HW226808   2.835   4.135   1.036  2.5240  0.2284  0.9247
 5058SOL     OW26809   2.682   4.454   4.597 -0.3200 -0.2230 -0.0823
 5058SOL    HW126810   2.593   4.442   4.566  0.1237 -0.0924 -1.4145
 5058SOL    HW226811   2.696   4.549   4.596 -0.1666 -0.2379  0.8879
 5059SOL     OW26812   4.544   1.171  10.033  0.0636  0.9510  0.2461
 5059SOL    HW126813   4.604   1.203  10.100  2.6894 -0.1239 -1.5631
 5059SOL    HW226814   4.580   1.229   9.966  0.7294 -0.6203 -0.7801
 5060SOL     OW26815   3.753   3.068   3.406 -0.1418 -0.5594  0.4775
 5060SOL    HW126816   3.797   3.006   3.464  0.5217  0.7281  1.3448
 5060SOL    HW226817   3.798   3.065   3.321  0.1015  2.5019  0.5162
 5061SOL     OW26818   0.995   4.490   5.882  0.2532 -0.0221 -0.1033
 5061SOL    HW126819   0.988   4.431   5.957 -0.1641  0.8748  0.5680
 5061SOL    HW226820   0.906   4.486   5.849  0.2251 -0.0184 -0.0266
 5062SOL     OW26821   0.946   2.237  14.455  0.1356  1.0863  0.0658
 5062SOL    HW126822   0.976   2.327  14.442  0.8804  0.9837  1.1025
 5062SOL    HW226823   1.026   2.189  14.432  0.4674  1.7626 -0.1795
 5063SOL     OW26824   2.493   4.672  17.457  0.1548 -0.1480  0.6377
 5063SOL    HW126825   2.554   4.738  17.424 -1.5377  1.4898  0.7674
 5063SOL    HW226826   2.545   4.595  17.481 -0.9875 -0.7978  1.0238
 5064SOL     OW26827   3.990   0.392  15.242  0.0579  0.3464  0.7646
 5064SOL    HW126828   4.040   0.436  15.310  2.1079 -1.8930  0.7096
 5064SOL    HW226829   3.954   0.469  15.199 -1.0993 -1.0701 -0.7964
 5065SOL     OW26830   4.620   4.731  12.872  0.0391  0.5254  0.0262
 5065SOL    HW126831   4.583   4.676  12.802  1.5338 -1.2545  0.6465
 5065SOL    HW226832   4.590   4.675  12.944 -0.4342 -0.1938 -0.7305
 5066SOL     OW26833   3.910   4.679   5.389  0.2241  0.3766 -0.2427
 5066SOL    HW126834   3.925   0.031   5.413  2.5678 -0.7998  2.7602
 5066SOL    HW226835   3.997   4.642   5.372 -0.2163  0.0006 -1.7353
 5067SOL     OW26836   0.790   0.361   6.691 -0.9339  0.2425  0.0733
 5067SOL    HW126837   0.730   0.435   6.679 -1.3726 -0.4392 -1.8789
 5067SOL    HW226838   0.815   0.345   6.600 -0.7737  1.2507 -0.0562
 5068SOL     OW26839   4.320   4.728   5.271  0.1454 -0.5521  0.3510
 5068SOL    HW126840   4.360   0.041   5.339  1.6033 -1.8177  0.4901
 5068SOL    HW226841   4.250   0.046   5.242  1.7389  1.2741  0.1355
 5069SOL     OW26842   2.105   1.211   4.046  0.7336  0.4950  1.0258
 5069SOL    HW126843   2.164   1.273   4.002  0.4990 -0.1202 -0.1541
 5069SOL    HW226844   2.092   1.144   3.979 -0.0538  3.0760 -1.3804
 5070SOL     OW26845   2.036   3.890   6.378 -0.1008  0.0816 -0.3656
 5070SOL    HW126846   2.067   3.833   6.307 -0.1992  0.3840 -0.6514
 5070SOL    HW226847   1.941   3.883   6.381 -0.0224 -1.3209 -1.1290
 5071SOL     OW26848   1.156   2.139   2.194  0.8355 -0.0431 -0.0865
 5071SOL    HW126849   1.251   2.130   2.203  0.6947 -2.5916 -1.1553
 5071SOL    HW226850   1.139   2.201   2.123  0.9797 -0.0761 -0.1509
 5072SOL     OW26851   0.746   3.955  16.607  0.3080 -0.1100 -0.0469
 5072SOL    HW126852   0.771   3.917  16.692 -1.9796 -2.8299 -0.5875
 5072SOL    HW226853   0.774   3.883  16.550 -0.9279 -0.1975 -0.5262
 5073SOL     OW26854   2.951   3.462   6.081  0.1059 -0.3601  0.0295
 5073SOL    HW126855   3.029   3.436   6.031  0.8822  1.4748  0.3114
 5073SOL    HW226856   2.975   3.529   6.145  0.4302 -1.0037  0.5759
 5074SOL     OW26857   2.026   3.472  15.993 -0.3431  0.0883  0.0385
 5074SOL    HW126858   2.009   3.528  15.918  0.7285  3.4658  2.3379
 5074SOL    HW226859   2.031   3.542  16.058  0.5576  0.7110 -0.7194
 5075SOL     OW26860   2.258   2.667   0.620 -0.6750 -0.1035  0.5313
 5075SOL    HW126861   2.333   2.608   0.620 -1.2780 -0.8911 -1.0824
 5075SOL    HW226862   2.184   2.606   0.627  1.0587 -2.2291  0.2479
 5076SOL     OW26863   3.639   4.041   5.082  0.2400 -0.6867 -0.4275
 5076SOL    HW126864   3.579   4.086   5.140  0.2058 -2.5099  0.9713
 5076SOL    HW226865   3.702   4.112   5.065 -0.5714 -0.1011 -0.9691
 5077SOL     OW26866   2.405   4.556   8.946  0.1572  0.3546  0.1599
 5077SOL    HW126867   2.349   4.619   8.900 -1.2599  1.0114  2.7511
 5077SOL    HW226868   2.407   4.573   9.040  1.7480  3.2539 -0.3862
 5078SOL     OW26869   3.419   3.650   1.940  0.1685  0.2121  0.4203
 5078SOL    HW126870   3.412   3.746   1.940  0.0265  0.2024 -1.1445
 5078SOL    HW226871   3.504   3.632   1.898 -0.6594 -0.3182 -1.0361
 5079SOL     OW26872   3.600   0.455   2.333  0.6276 -0.7648  0.2956
 5079SOL    HW126873   3.665   0.522   2.353  1.5718 -0.9163 -2.2163
 5079SOL    HW226874   3.599   0.408   2.416  0.2997 -0.0813  0.6736
 5080SOL     OW26875   2.065   1.310   8.214 -0.2259  0.2281 -0.3394
 5080SOL    HW126876   2.146   1.336   8.170  0.3277 -1.8960 -0.6231
 5080SOL    HW226877   2.097   1.286   8.301 -0.3657 -1.7979 -0.8335
 5081SOL     OW26878   1.398   0.200   9.254 -0.5625 -0.1880  0.0471
 5081SOL    HW126879   1.338   0.165   9.319 -2.2280  2.3963 -0.0997
 5081SOL    HW226880   1.356   0.172   9.173 -0.5792  0.9739 -0.3571
 5082SOL     OW26881   3.668   3.377   9.429 -0.0191  0.0600  0.1593
 5082SOL    HW126882   3.588   3.372   9.375 -0.6217  0.4487  1.0209
 5082SOL    HW226883   3.707   3.310   9.373 -0.5119 -0.6246  0.6402
 5083SOL     OW26884   2.163   4.487   6.827 -0.3236 -0.5161 -0.5451
 5083SOL    HW126885   2.095   4.503   6.893 -0.2443 -0.0196 -0.5847
 5083SOL    HW226886   2.222   4.422   6.864 -2.2536 -2.1827 -0.4129
 5084SOL     OW26887   0.922   1.485   5.848 -0.0689  0.2304  0.0848
 5084SOL    HW126888   0.978   1.438   5.909  1.7960  1.0844 -0.9867
 5084SOL    HW226889   0.970   1.480   5.765  2.2134  0.8784  1.3830
 5085SOL     OW26890   3.995   1.963   5.859 -0.1224 -0.1217  0.5730
 5085SOL    HW126891   4.039   1.884   5.892  2.0360  1.4448  1.4322
 5085SOL    HW226892   4.011   1.946   5.766 -1.2445  1.1758  0.1487
 5086SOL     OW26893   0.076   3.144   0.362  0.3903 -0.6477  0.7594
 5086SOL    HW126894   0.031   3.093   0.430 -0.6714  1.5411  1.6906
 5086SOL    HW226895   0.005   3.143   0.297  1.7725  0.7127 -0.7675
 5087SOL     OW26896   4.283   2.648   4.349  0.0343  0.2128 -0.0723
 5087SOL    HW126897   4.198   2.614   4.321  0.5861 -1.0639 -0.2131
 5087SOL    HW226898   4.305   2.720   4.290  0.6026  1.2497  1.4050
 5088SOL     OW26899   4.423   2.414   4.419 -0.3938 -0.0784  0.6206
 5088SOL    HW126900   4.350   2.473   4.401  0.6823  1.3852  1.0520
 5088SOL    HW226901   4.480   2.467   4.474  1.4878 -0.9077 -0.5193
 5089SOL     OW26902   0.243   0.761   6.681  0.5731 -0.2906 -0.6539
 5089SOL    HW126903   0.258   0.731   6.591 -0.2411  0.4064 -1.0201
 5089SOL    HW226904   0.150   0.781   6.680  0.6414  0.0295  1.6440
 5090SOL     OW26905   2.171   4.443   5.885  0.3564 -0.1337  0.2093
 5090SOL    HW126906   2.158   4.537   5.885 -0.1858 -0.2233 -1.4852
 5090SOL    HW226907   2.204   4.439   5.975  0.6124 -0.0464  0.1183
 5091SOL     OW26908   2.675   3.437   7.146 -0.2703 -0.2339  0.0090
 5091SOL    HW126909   2.656   3.518   7.191  2.5713  0.0961  0.6311
 5091SOL    HW226910   2.763   3.417   7.179 -0.0610 -3.2918 -2.3093
 5092SOL     OW26911   1.483   3.886   6.025  0.5931  0.5018 -0.9301
 5092SOL    HW126912   1.497   3.797   5.995  0.7517  0.0406  0.5219
 5092SOL    HW226913   1.540   3.886   6.102  0.5231  1.5248 -0.8781
 5093SOL     OW26914   1.206   1.436  16.306 -0.2503 -0.2026  0.5978
 5093SOL    HW126915   1.255   1.466  16.229 -1.6233 -1.2333 -0.6871
 5093SOL    HW226916   1.132   1.497  16.304  0.0944  0.2180  0.5423
 5094SOL     OW26917   0.945   2.279   8.066 -0.2080  0.3662 -0.2062
 5094SOL    HW126918   1.011   2.347   8.051  2.0878 -2.3233 -2.2838
 5094SOL    HW226919   0.926   2.300   8.158 -2.7632 -2.8101 -0.0057
 5095SOL     OW26920   4.465   0.996   5.066  0.4917  0.3553  0.2399
 5095SOL    HW126921   4.437   0.992   5.157 -0.9805 -0.4788 -0.2500
 5095SOL    HW226922   4.419   0.923   5.024 -2.6058  1.2082  2.1585
 5096SOL     OW26923   0.770   4.073   8.784  0.2301  0.3438 -0.1231
 5096SOL    HW126924   0.715   4.023   8.844  2.3724  0.1457  1.6641
 5096SOL    HW226925   0.714   4.148   8.765  3.3236  2.9494  1.1354
 5097SOL     OW26926   1.146   0.861   3.888  0.3092 -0.2115  0.0130
 5097SOL    HW126927   1.186   0.810   3.959 -2.8274  1.6895  3.1403
 5097SOL    HW226928   1.114   0.939   3.932 -0.0233  1.6584 -3.5179
 5098SOL     OW26929   2.191   3.493   3.119 -0.3530 -0.0089  0.7753
 5098SOL    HW126930   2.254   3.537   3.176  1.1275  2.0354 -2.4101
 5098SOL    HW226931   2.192   3.536   3.033 -0.1331 -2.3183 -0.3805
 5099SOL     OW26932   4.476   1.355   4.426 -0.7191  0.3473 -0.6686
 5099SOL    HW126933   4.411   1.420   4.450 -2.3877 -1.4501 -0.2969
 5099SOL    HW226934   4.541   1.379   4.493  1.8226 -2.7933 -2.0063
 5100SOL     OW26935   2.994   4.050  12.901  0.4349 -0.3123  0.2252
 5100SOL    HW126936   3.080   4.013  12.923 -0.4999 -3.2688 -1.0050
 5100SOL    HW226937   3.013   4.090  12.817  0.8692 -0.8734  0.0542
 5101SOL     OW26938   2.107   4.177   2.941  0.0698 -0.4968 -0.0917
 5101SOL    HW126939   2.117   4.105   3.003  1.3107  1.4152  1.9162
 5101SOL    HW226940   2.070   4.134   2.864 -2.4616 -2.5386  2.2251
 5102SOL     OW26941   2.320   3.294  16.715  0.5251 -0.5176 -0.1674
 5102SOL    HW126942   2.339   3.213  16.762  1.9737 -0.6592 -1.0080
 5102SOL    HW226943   2.345   3.279  16.624 -1.0858 -2.5990 -0.2635
 5103SOL     OW26944   2.596   2.214   5.388 -0.2378  0.0723 -0.5213
 5103SOL    HW126945   2.585   2.138   5.332  0.7016  0.5305 -1.3350
 5103SOL    HW226946   2.528   2.272   5.353 -1.8356 -0.0150  2.4366
 5104SOL     OW26947   2.968   4.707   4.397 -0.4841  0.0396 -0.2837
 5104SOL    HW126948   2.903   4.715   4.466  0.3964  0.2995  0.5137
 5104SOL    HW226949   2.970   4.612   4.395 -0.0045  0.0901 -3.3479
 5105SOL     OW26950   1.208   0.511   2.417 -0.0819  0.6972  0.0697
 5105SOL    HW126951   1.218   0.601   2.385  0.1023  0.5190 -0.3683
 5105SOL    HW226952   1.123   0.526   2.459 -1.9336  1.2328 -3.9130
 5106SOL     OW26953   2.330   3.147   1.726 -0.1540  0.0947  1.1539
 5106SOL    HW126954   2.395   3.173   1.661 -1.3696  0.4148  0.0744
 5106SOL    HW226955   2.355   3.213   1.791  0.1842  0.2488  0.8687
 5107SOL     OW26956   3.372   2.233  10.258 -0.0418  0.1436  0.2373
 5107SOL    HW126957   3.381   2.183  10.177 -0.3119 -1.3799  1.1335
 5107SOL    HW226958   3.291   2.279  10.235  0.8752  1.4814 -0.2962
 5108SOL     OW26959   0.106   0.450   9.822 -0.5335  0.3002  0.3645
 5108SOL    HW126960   0.143   0.446   9.734  0.6580  2.4636  0.7579
 5108SOL    HW226961   0.050   0.528   9.814 -2.2140 -1.1220 -1.9239
 5109SOL     OW26962   0.260   2.754   1.994 -0.1738 -0.0050  0.3066
 5109SOL    HW126963   0.215   2.740   2.077  0.9223  0.4015  0.9723
 5109SOL    HW226964   0.263   2.849   1.985 -1.7063 -0.0335 -0.4688
 5110SOL     OW26965   3.315   4.308  13.513  0.3759  0.9310 -0.4075
 5110SOL    HW126966   3.237   4.331  13.563  0.0329  0.6318 -0.8061
 5110SOL    HW226967   3.274   4.278  13.432  1.3351 -0.7086 -0.2885
 5111SOL     OW26968   4.591   3.481   7.486  0.2913 -0.6649  0.6151
 5111SOL    HW126969   4.685   3.469   7.469  0.2658  1.3254 -0.8906
 5111SOL    HW226970   4.552   3.458   7.402  0.0522 -1.0927  0.8442
 5112SOL     OW26971   1.004   2.392   6.921 -0.2582 -0.0681 -0.2195
 5112SOL    HW126972   1.032   2.320   6.977 -0.1091 -0.1504 -0.4010
 5112SOL    HW226973   0.970   2.453   6.987 -0.5619 -0.4488 -0.0256
 5113SOL     OW26974   2.647   3.531   7.606  0.2578 -0.1361 -0.8602
 5113SOL    HW126975   2.683   3.532   7.695  0.2155 -0.8835 -0.8331
 5113SOL    HW226976   2.642   3.437   7.591  2.3879 -0.3828 -0.1128
 5114SOL     OW26977   2.083   3.524  15.672  0.4635  0.8528  0.0108
 5114SOL    HW126978   2.133   3.605  15.686  0.4418  1.0278 -0.9244
 5114SOL    HW226979   2.017   3.544  15.737  0.0330 -3.1051  0.7953
 5115SOL     OW26980   0.849   1.474   3.285  0.3106 -0.2804 -0.4652
 5115SOL    HW126981   0.848   1.382   3.258  2.5180 -0.2969 -0.4469
 5115SOL    HW226982   0.930   1.498   3.329 -1.0469  2.2927  0.5881
 5116SOL     OW26983   3.484   4.035   0.152  0.5666  0.4340  0.0574
 5116SOL    HW126984   3.532   4.116   0.137  0.1311  1.1066  2.2773
 5116SOL    HW226985   3.496   4.016   0.245 -0.5300  2.3472  0.5924
 5117SOL     OW26986   2.934   4.395   6.791 -0.4214  0.8563  0.2231
 5117SOL    HW126987   2.960   4.485   6.773  0.2340  0.5835 -0.2012
 5117SOL    HW226988   2.995   4.339   6.743 -1.1951 -0.1411  0.3825
 5118SOL     OW26989   1.843   3.460   2.138 -0.2855  0.1639  0.0401
 5118SOL    HW126990   1.913   3.495   2.194 -1.3823  0.1947  1.3901
 5118SOL    HW226991   1.763   3.483   2.185 -1.3708 -0.0372 -1.7071
 5119SOL     OW26992   0.438   1.699   8.326 -0.1594  0.5807 -0.0615
 5119SOL    HW126993   0.522   1.742   8.311 -0.4773  1.3145  0.2814
 5119SOL    HW226994   0.458   1.622   8.272  0.0954  1.7307 -1.5916
 5120SOL     OW26995   2.251   4.611  17.545  0.0767  0.4474  0.2332
 5120SOL    HW126996   2.302   4.559  17.607 -1.0263  2.9747  3.2101
 5120SOL    HW226997   2.328   4.650  17.502 -0.4529 -0.5787 -1.6891
 5121SOL     OW26998   4.027   2.364   3.454 -0.4861  0.2297  0.2716
 5121SOL    HW126999   4.053   2.314   3.531 -1.3853 -0.9464 -0.1959
 5121SOL    HW227000   3.933   2.347   3.456 -0.6195  0.7645 -1.7964
 5122SOL     OW27001   0.356   0.131   3.751  0.1560 -0.4964  0.1710
 5122SOL    HW127002   0.290   0.086   3.699  1.0893 -0.2358 -1.2312
 5122SOL    HW227003   0.299   0.165   3.819 -2.1738 -0.8036 -1.6395
 5123SOL     OW27004   4.051   4.198  10.897 -0.1547  0.4852 -0.1433
 5123SOL    HW127005   4.069   4.277  10.847  1.3579  0.7754  0.8924
 5123SOL    HW227006   4.104   4.201  10.976 -1.4747  1.8801  0.6824
 5124SOL     OW27007   2.579   4.164   7.632  0.0143  0.2006 -0.3258
 5124SOL    HW127008   2.577   4.077   7.591 -0.7478 -0.6066  1.4252
 5124SOL    HW227009   2.555   4.136   7.720  0.5719 -0.9106 -0.5207
 5125SOL     OW27010   4.677   1.461  13.605  0.0562  0.0822 -0.1711
 5125SOL    HW127011   4.710   1.388  13.552  2.1376  0.4400  0.6339
 5125SOL    HW227012   4.637   1.510  13.534 -1.1479 -1.0722 -0.2865
 5126SOL     OW27013   0.243   0.563   9.246 -0.5719  0.5186 -0.1534
 5126SOL    HW127014   0.197   0.638   9.209  2.9679  2.3807 -0.7693
 5126SOL    HW227015   0.334   0.592   9.248  0.5083 -2.6626 -1.7593
 5127SOL     OW27016   0.490   1.784   6.040  0.4169 -0.3427 -0.4442
 5127SOL    HW127017   0.574   1.830   6.036  0.5792 -0.7718 -1.9008
 5127SOL    HW227018   0.493   1.757   5.948  0.7309  0.6018 -0.7133
 5128SOL     OW27019   1.472   0.339   3.214 -0.6885  0.3895  0.2721
 5128SOL    HW127020   1.404   0.392   3.173  0.7106  2.0960  0.1780
 5128SOL    HW227021   1.470   0.380   3.300 -0.6384 -0.8547  0.8641
 5129SOL     OW27022   0.803   1.149   2.700  0.1065  0.2283  0.4719
 5129SOL    HW127023   0.708   1.144   2.711 -0.0133  1.8968  0.1044
 5129SOL    HW227024   0.831   1.061   2.726 -0.6363 -0.9895 -2.8954
 5130SOL     OW27025   4.647   3.157  15.399  0.2277 -0.2350 -0.6673
 5130SOL    HW127026   4.576   3.222  15.394  1.2497  0.8931 -0.5687
 5130SOL    HW227027   4.697   3.167  15.318  1.2567  1.7939  0.2108
 5131SOL     OW27028   4.683   2.402  16.898  0.2517  0.3409 -0.0015
 5131SOL    HW127029   4.647   2.381  16.984  2.0859 -2.0287  0.2155
 5131SOL    HW227030   4.611   2.381  16.839  1.2326  1.5731 -1.6271
 5132SOL     OW27031   0.886   3.914   8.601 -0.1695  0.4197 -0.2102
 5132SOL    HW127032   0.856   3.965   8.676  2.2282 -1.1965  1.8046
 5132SOL    HW227033   0.814   3.929   8.539 -0.7222 -1.3486  0.0002
 5133SOL     OW27034   4.731   0.293   0.649 -0.1882  0.2198 -0.5725
 5133SOL    HW127035   4.721   0.378   0.608  1.5962  1.1018  0.8270
 5133SOL    HW227036   0.085   0.284   0.663  0.1401  1.5043 -1.9643
 5134SOL     OW27037   4.382   3.916   4.298 -0.5776 -0.4170 -0.2605
 5134SOL    HW127038   4.318   3.946   4.362  0.1707  0.0253  0.2928
 5134SOL    HW227039   4.468   3.934   4.338 -0.8481 -0.4010  0.3091
 5135SOL     OW27040   0.213   2.108   3.856 -0.2161  0.9468  0.4181
 5135SOL    HW127041   0.197   2.182   3.797 -0.9367 -0.2574 -0.9071
 5135SOL    HW227042   0.153   2.118   3.929  1.0546 -0.1604  1.6193
 5136SOL     OW27043   4.352   3.663   4.544 -0.1752  0.0420 -0.4148
 5136SOL    HW127044   4.337   3.748   4.501 -1.1276 -0.0656 -0.3092
 5136SOL    HW227045   4.273   3.656   4.597  1.0315  1.9694  1.6265
 5137SOL     OW27046   1.514   1.571   4.936  0.2330  0.2246  0.2274
 5137SOL    HW127047   1.580   1.633   4.969  2.4161 -1.6016 -0.7066
 5137SOL    HW227048   1.540   1.566   4.844  0.9483  0.7528  0.3952
 5138SOL     OW27049   1.936   1.320   4.271 -0.3285 -0.0710 -0.0506
 5138SOL    HW127050   1.976   1.308   4.185 -0.1270  2.5660 -0.3227
 5138SOL    HW227051   1.863   1.376   4.244 -0.2443  0.2997  0.4834
 5139SOL     OW27052   0.234   1.005   8.210  0.0493 -0.0998  0.4629
 5139SOL    HW127053   0.169   1.048   8.266 -1.7505 -0.4924 -1.3324
 5139SOL    HW227054   0.177   0.968   8.143 -1.4458 -1.1357  2.3262
 5140SOL     OW27055   2.102   2.330  11.767 -0.0823 -0.3480  0.0562
 5140SOL    HW127056   2.128   2.253  11.716 -1.0101 -0.8969  0.4231
 5140SOL    HW227057   2.091   2.295  11.855  0.7261 -1.8700 -0.4568
 5141SOL     OW27058   0.807   2.818   9.644  0.2784  0.1759  0.6865
 5141SOL    HW127059   0.889   2.812   9.594  1.5246  1.2865  2.6226
 5141SOL    HW227060   0.838   2.788   9.729  1.1345  0.5147  0.5003
 5142SOL     OW27061   4.126   1.337  12.339  0.1870 -0.1213 -0.1215
 5142SOL    HW127062   4.111   1.409  12.401  0.9999  1.2806 -1.5580
 5142SOL    HW227063   4.101   1.380  12.258  0.1783 -0.8991 -0.5383
 5143SOL     OW27064   3.904   0.430   2.312  0.1725  1.1001  0.1990
 5143SOL    HW127065   3.846   0.366   2.273 -0.5237  1.9159 -0.0895
 5143SOL    HW227066   3.898   0.397   2.402 -1.5868 -0.3688 -0.4587
 5144SOL     OW27067   3.183   0.795   7.963 -0.0397  0.7117  0.1950
 5144SOL    HW127068   3.099   0.765   7.998 -0.7710  1.4792 -0.9163
 5144SOL    HW227069   3.182   0.888   7.988 -2.6440  0.8961 -0.5859
 5145SOL     OW27070   1.929   0.350  17.610 -0.1564  0.5122  0.5870
 5145SOL    HW127071   1.847   0.353  17.658 -0.1321  1.1288  0.5874
 5145SOL    HW227072   1.899   0.334  17.520 -2.5455  2.5272  1.0317
 5146SOL     OW27073   2.793   2.786  17.165 -0.0592  0.2039  0.0660
 5146SOL    HW127074   2.873   2.739  17.188  0.9593  1.3732 -1.0615
 5146SOL    HW227075   2.825   2.858  17.110 -1.1365  1.0541  0.5467
 5147SOL     OW27076   4.117   2.105   8.767 -0.2011  0.5624  0.1139
 5147SOL    HW127077   4.119   2.031   8.828 -3.4101  0.1643 -0.2814
 5147SOL    HW227078   4.139   2.181   8.820  0.4737  0.0179  0.6189
 5148SOL     OW27079   0.741   2.928   3.948  0.0379  0.3559 -0.9292
 5148SOL    HW127080   0.770   2.951   3.859  0.4982 -2.4146 -1.4877
 5148SOL    HW227081   0.654   2.967   3.946 -0.1899 -0.1409 -0.6970
 5149SOL     OW27082   3.575   1.381   2.312 -0.3607 -0.4153  0.1994
 5149SOL    HW127083   3.670   1.376   2.299 -0.7433  0.5164 -2.9960
 5149SOL    HW227084   3.570   1.477   2.309  1.2051 -0.3221  0.2430
 5150SOL     OW27085   0.293   4.563  14.936 -0.1006  0.5975 -0.5275
 5150SOL    HW127086   0.388   4.568  14.941 -0.1352 -0.2748  0.9028
 5150SOL    HW227087   0.280   4.487  14.879 -1.6131 -0.7445  1.6080
 5151SOL     OW27088   3.189   3.488   4.657 -0.0497 -0.3121  0.1115
 5151SOL    HW127089   3.258   3.529   4.604  0.2165  0.4434  1.0316
 5151SOL    HW227090   3.144   3.569   4.680  0.8341  0.1211  0.3334
 5152SOL     OW27091   4.369   1.459  10.935  0.0527 -0.0154 -0.6566
 5152SOL    HW127092   4.295   1.454  10.996  3.4744 -1.3380  3.3861
 5152SOL    HW227093   4.326   1.428  10.855 -0.8338 -0.5641  0.0302
 5153SOL     OW27094   1.454   2.123   2.215  0.2765  0.3434  0.1195
 5153SOL    HW127095   1.473   2.147   2.305 -1.9950 -0.2828  0.7664
 5153SOL    HW227096   1.518   2.166   2.158  1.5163 -0.4595  0.9309
 5154SOL     OW27097   1.098   0.777   2.642  0.5188 -0.3230 -0.1161
 5154SOL    HW127098   1.011   0.813   2.655  0.9975  1.2010 -1.1577
 5154SOL    HW227099   1.152   0.828   2.702 -0.2193  1.4697 -0.9874
 5155SOL     OW27100   0.538   3.242  13.951  0.0286  0.2034 -0.2300
 5155SOL    HW127101   0.540   3.173  14.016 -3.9443  1.8851  1.6515
 5155SOL    HW227102   0.632   3.251  13.931 -0.1552 -0.1732 -1.2605
 5156SOL     OW27103   2.063   1.006   9.710  0.5285  1.0097 -0.2840
 5156SOL    HW127104   2.076   1.062   9.786  1.8592  0.1005  0.1734
 5156SOL    HW227105   2.050   1.066   9.636 -0.1114  1.0801 -0.1138
 5157SOL     OW27106   1.467   0.455  14.568  0.2225  0.3795 -0.0220
 5157SOL    HW127107   1.548   0.413  14.538  0.8034  0.3554  1.5800
 5157SOL    HW227108   1.506   0.514  14.633 -0.3288 -0.9697  1.5110
 5158SOL     OW27109   4.632   1.968   2.606  0.0982 -0.1112  0.4453
 5158SOL    HW127110   4.621   1.990   2.698  0.4181 -1.9047  0.9244
 5158SOL    HW227111   4.548   1.925   2.589 -0.9117  1.2687  1.9521
 5159SOL     OW27112   0.432   0.071   7.523 -0.6978 -0.4310 -0.0406
 5159SOL    HW127113   0.503   0.021   7.564 -0.4977 -0.8128 -0.8631
 5159SOL    HW227114   0.488   0.133   7.476 -0.6687 -1.2857 -1.1194
 5160SOL     OW27115   2.560   2.765   9.268 -0.2443 -0.0542 -0.3650
 5160SOL    HW127116   2.519   2.680   9.288 -1.8140  0.2349 -2.2819
 5160SOL    HW227117   2.621   2.759   9.341 -0.9399  1.8153  0.3627
 5161SOL     OW27118   2.074   3.961  12.200  0.0605  0.3261 -0.3367
 5161SOL    HW127119   2.084   4.024  12.128  0.9646 -2.0413 -2.3135
 5161SOL    HW227120   2.083   3.880  12.148  2.3349 -0.1808  0.8628
 5162SOL     OW27121   1.153   1.721   3.848 -0.1753  0.6084  0.4660
 5162SOL    HW127122   1.114   1.801   3.814 -0.2867  1.4884  2.6455
 5162SOL    HW227123   1.081   1.669   3.882  0.8545  0.3148  2.1991
 5163SOL     OW27124   3.674   3.452   6.859 -0.2063 -0.1280 -0.1766
 5163SOL    HW127125   3.652   3.442   6.952  0.1717 -2.0907 -0.3138
 5163SOL    HW227126   3.737   3.384   6.836 -0.9830 -1.4139  1.4488
 5164SOL     OW27127   0.857   3.343   2.279 -0.1022 -0.2151 -0.0191
 5164SOL    HW127128   0.930   3.287   2.253  1.1655  1.2538  0.4268
 5164SOL    HW227129   0.894   3.430   2.291 -0.2892 -0.0404 -0.7187
 5165SOL     OW27130   3.334   1.867  16.837 -0.4859 -0.4182 -0.1455
 5165SOL    HW127131   3.254   1.904  16.800 -1.1993  0.0247  1.8312
 5165SOL    HW227132   3.352   1.944  16.892 -0.8119 -0.3154 -0.1823
 5166SOL     OW27133   2.578   4.140   2.940  0.6375  0.0140 -0.2713
 5166SOL    HW127134   2.527   4.176   2.867 -3.6173 -0.9714  2.2643
 5166SOL    HW227135   2.600   4.217   2.992 -1.9172  0.9851 -0.6154
 5167SOL     OW27136   3.510   0.917   7.910 -0.0728 -0.2850  0.2901
 5167SOL    HW127137   3.469   0.964   7.837  3.2651  0.3118 -1.2008
 5167SOL    HW227138   3.558   0.991   7.946  2.2337 -0.5033 -2.3118
 5168SOL     OW27139   3.780   0.243   4.605  0.1172  0.2763  0.7803
 5168SOL    HW127140   3.701   0.271   4.559  0.4135  1.2761  0.8931
 5168SOL    HW227141   3.809   0.325   4.644  1.1309 -0.2102  1.0532
 5169SOL     OW27142   0.335   2.027   2.918  0.6224  0.1913  0.2954
 5169SOL    HW127143   0.392   2.053   2.847  0.0481  1.3757  0.2628
 5169SOL    HW227144   0.364   2.101   2.971 -1.3336  0.4214  1.0641
 5170SOL     OW27145   2.950   2.973   2.253 -0.2321 -0.8068 -0.0045
 5170SOL    HW127146   3.017   2.968   2.184  1.3533 -1.5623  1.5838
 5170SOL    HW227147   2.998   2.956   2.334 -1.2735  1.8290  1.1545
 5171SOL     OW27148   3.960   2.741   3.905  0.2526 -0.1283 -0.3208
 5171SOL    HW127149   3.878   2.706   3.939  0.2517 -0.2783 -0.4806
 5171SOL    HW227150   3.945   2.832   3.931 -0.5814 -0.1844 -0.6193
 5172SOL     OW27151   3.464   3.929  16.653  0.6496  0.2913  0.5453
 5172SOL    HW127152   3.520   3.962  16.583 -1.8553  2.4855 -0.4281
 5172SOL    HW227153   3.386   3.980  16.632  0.6826 -0.7257 -2.0390
 5173SOL     OW27154   1.671   2.959   4.116 -0.3425 -0.2927  0.4568
 5173SOL    HW127155   1.707   2.999   4.037  0.2514 -1.0959  0.3238
 5173SOL    HW227156   1.700   2.869   4.100  2.4812  0.8449 -0.8134
 5174SOL     OW27157   3.150   0.018   2.204 -0.3361  0.1892 -0.7991
 5174SOL    HW127158   3.168   4.687   2.267 -2.0659 -0.5551 -1.1297
 5174SOL    HW227159   3.093   4.708   2.145 -0.4844  0.2951 -0.7477
 5175SOL     OW27160   3.376   2.064  10.476 -0.0733  0.0325 -0.3185
 5175SOL    HW127161   3.454   2.100  10.519  0.0566  0.7095 -1.1403
 5175SOL    HW227162   3.380   2.125  10.403 -2.5306  1.6246  0.8930
 5176SOL     OW27163   2.482   3.857   2.835 -0.1226  0.4861  0.3070
 5176SOL    HW127164   2.527   3.912   2.900  0.1060  0.3178  0.2938
 5176SOL    HW227165   2.426   3.923   2.795 -1.1713 -0.2840  0.5035
 5177SOL     OW27166   0.844   3.241   2.832 -0.5456 -0.0992 -0.2621
 5177SOL    HW127167   0.805   3.231   2.745  0.9736 -0.3303 -0.9168
 5177SOL    HW227168   0.818   3.164   2.883  2.6565 -0.3368  1.0170
 5178SOL     OW27169   1.036   3.407   2.945 -0.4162  0.0405 -0.2205
 5178SOL    HW127170   0.961   3.354   2.920 -1.9494  1.5336  1.1773
 5178SOL    HW227171   1.000   3.495   2.931  1.5589  0.6318 -1.5325
 5179SOL     OW27172   1.868   0.691   6.519 -0.4340  0.5606  0.2480
 5179SOL    HW127173   1.809   0.645   6.460  0.1093  0.3892 -0.1627
 5179SOL    HW227174   1.822   0.767   6.555  1.1182  0.1153  3.2550
 5180SOL     OW27175   0.821   1.382   9.077 -0.1081 -0.4638  0.6240
 5180SOL    HW127176   0.728   1.373   9.053 -0.2617  1.3118  0.5594
 5180SOL    HW227177   0.835   1.293   9.112 -0.1078 -0.5052  0.5192
 5181SOL     OW27178   4.708   3.068   8.781  0.2014 -0.3240 -0.0610
 5181SOL    HW127179   4.662   2.985   8.768 -1.4952  0.5692  0.2326
 5181SOL    HW227180   0.050   3.059   8.732 -0.5488 -2.0084 -0.9802
 5182SOL     OW27181   3.941   0.599   4.061 -0.3376 -0.0005  0.3253
 5182SOL    HW127182   3.901   0.515   4.085 -0.0345  0.2293  1.6048
 5182SOL    HW227183   4.026   0.600   4.104  0.4003 -0.3354 -1.1200
 5183SOL     OW27184   2.053   3.218   8.238  0.6263 -0.3849 -0.6692
 5183SOL    HW127185   2.033   3.147   8.299  0.8433 -0.2256 -0.4101
 5183SOL    HW227186   2.133   3.251   8.280  0.3308  1.7350 -1.7861
 5184SOL     OW27187   1.249   2.054   1.655 -0.3537  0.6701 -0.1715
 5184SOL    HW127188   1.261   2.018   1.743  1.1196  1.3487 -0.1088
 5184SOL    HW227189   1.163   2.019   1.628  0.4725  0.7843 -2.9856
 5185SOL     OW27190   2.087   0.209   2.745  0.0800 -0.0055  0.4156
 5185SOL    HW127191   2.155   0.206   2.677 -0.1244  0.4494  0.1946
 5185SOL    HW227192   2.092   0.117   2.773  0.2970 -0.6223 -1.6046
 5186SOL     OW27193   4.078   2.137   3.936 -0.1687 -0.4055  0.7721
 5186SOL    HW127194   4.073   2.153   4.030 -1.7263 -0.0918  0.6325
 5186SOL    HW227195   4.170   2.158   3.920 -0.1821 -1.0040 -0.0662
 5187SOL     OW27196   1.014   1.325   6.093  0.3292 -0.7595 -0.1335
 5187SOL    HW127197   0.920   1.336   6.080  0.8459  2.6012 -1.0601
 5187SOL    HW227198   1.022   1.257   6.160  0.0696  0.0551  0.7086
 5188SOL     OW27199   2.591   1.821   6.885  0.1225 -0.3229 -0.3064
 5188SOL    HW127200   2.626   1.815   6.797  0.1144  2.3129 -0.4746
 5188SOL    HW227201   2.603   1.912   6.912 -0.3282  0.1783 -1.8361
 5189SOL     OW27202   1.507   1.326   9.613  0.0177  0.0531  0.5258
 5189SOL    HW127203   1.571   1.390   9.581  1.9799 -1.8837  0.5831
 5189SOL    HW227204   1.556   1.244   9.598 -0.1455 -0.0681  0.6646
 5190SOL     OW27205   0.130   0.071  14.468  0.7156 -0.1368  0.5950
 5190SOL    HW127206   0.183   4.733  14.449 -0.2391 -0.1090 -2.2195
 5190SOL    HW227207   0.050   0.053  14.420  0.9201 -0.2546  0.2966
 5191SOL     OW27208   0.625   3.417   3.563  0.3844  0.4339 -0.6277
 5191SOL    HW127209   0.685   3.446   3.631  0.3841 -1.1895  0.0541
 5191SOL    HW227210   0.574   3.356   3.616  2.7494  0.5976  1.8127
 5192SOL     OW27211   3.313   3.046   5.366 -0.0344 -0.8194  0.6286
 5192SOL    HW127212   3.365   3.104   5.310  0.4089 -1.0319  0.8197
 5192SOL    HW227213   3.301   2.970   5.309  0.2483 -0.4847  0.1222
 5193SOL     OW27214   0.128   4.330   4.241  0.2771  0.0838  0.0776
 5193SOL    HW127215   0.162   4.396   4.301  0.2780  1.1052 -1.0569
 5193SOL    HW227216   0.091   4.263   4.299 -0.7876 -0.0856 -0.8087
 5194SOL     OW27217   4.309   4.337   4.210 -0.2335 -0.2455  0.1611
 5194SOL    HW127218   4.276   4.262   4.161 -1.2954  2.0504 -2.6639
 5194SOL    HW227219   4.383   4.348   4.150  0.1321 -0.2758  0.6129
 5195SOL     OW27220   0.987   2.681  13.969  0.2422 -0.3121  0.4016
 5195SOL    HW127221   0.975   2.587  13.987 -0.9183 -0.2870 -0.2196
 5195SOL    HW227222   1.054   2.706  14.032 -1.1175 -0.8157  2.0654
 5196SOL     OW27223   3.857   0.964   7.089 -0.1998  0.0110 -0.2314
 5196SOL    HW127224   3.860   1.006   7.003 -1.1561 -1.3391 -0.9129
 5196SOL    HW227225   3.922   1.015   7.137 -0.0732  0.0392 -0.4332
 5197SOL     OW27226   1.787   0.526   9.210  0.4523 -0.6601  0.2304
 5197SOL    HW127227   1.739   0.461   9.262  1.4795 -2.3483 -0.9142
 5197SOL    HW227228   1.805   0.467   9.137  2.3077 -3.0422  2.5818
 5198SOL     OW27229   3.585   1.527  12.948 -0.0412 -0.3583  0.5926
 5198SOL    HW127230   3.610   1.452  12.895  0.2710  1.0502 -1.2460
 5198SOL    HW227231   3.588   1.597  12.883 -0.8330 -0.8928 -0.0054
 5199SOL     OW27232   3.894   0.149  15.162  0.1981  0.2374 -0.4628
 5199SOL    HW127233   3.932   0.235  15.180  0.4066 -0.1348  0.8943
 5199SOL    HW227234   3.803   0.180  15.160  0.1507  0.2159  1.2060
 5200SOL     OW27235   1.260   1.851   8.925  0.7642  0.4129  0.7270
 5200SOL    HW127236   1.231   1.820   8.839  0.3308  0.0134  1.0128
 5200SOL    HW227237   1.356   1.852   8.926  0.7926  0.4503 -1.7812
 5201SOL     OW27238   3.976   0.388  14.335 -0.3771 -0.8089  0.3386
 5201SOL    HW127239   4.002   0.479  14.344  1.4383 -1.4987  2.0147
 5201SOL    HW227240   4.000   0.364  14.245 -0.6886  1.8849 -0.4412
 5202SOL     OW27241   0.704   2.434   8.524  0.3104 -0.0145  0.6571
 5202SOL    HW127242   0.774   2.451   8.587 -0.2834 -0.8847  1.5333
 5202SOL    HW227243   0.627   2.419   8.579  0.3583  0.8487  0.9524
 5203SOL     OW27244   4.137   0.351  16.056 -0.0493 -0.3167 -0.2640
 5203SOL    HW127245   4.109   0.437  16.025  1.1025 -0.5647 -2.0027
 5203SOL    HW227246   4.126   0.375  16.148 -2.9862  1.4136 -1.0699
 5204SOL     OW27247   2.254   4.192  17.224 -0.1360  0.0661 -0.4858
 5204SOL    HW127248   2.318   4.261  17.208  1.8408 -1.9365 -1.2047
 5204SOL    HW227249   2.248   4.160  17.134 -0.3965  1.1143 -0.8379
 5205SOL     OW27250   1.129   1.587  14.901  0.6200 -0.4699  0.4056
 5205SOL    HW127251   1.036   1.588  14.922  0.7681  2.5139  0.8306
 5205SOL    HW227252   1.131   1.574  14.806 -1.8169 -0.5448  0.3729
 5206SOL     OW27253   3.170   2.578   9.232 -0.0561 -0.2022  0.0931
 5206SOL    HW127254   3.105   2.646   9.252  2.2776  3.2993 -4.0551
 5206SOL    HW227255   3.245   2.613   9.281 -0.6473 -0.7101  1.3584
 5207SOL     OW27256   0.068   0.491   8.132  0.8433  0.4005 -0.4029
 5207SOL    HW127257   0.105   0.576   8.109  1.4910  0.2598  0.1189
 5207SOL    HW227258   0.046   0.458   8.045 -0.5002 -2.8931  1.2098
 5208SOL     OW27259   3.923   3.006   3.905  0.5575  1.0125 -0.4886
 5208SOL    HW127260   3.845   3.012   3.849  2.8119  0.9657 -3.6040
 5208SOL    HW227261   3.899   3.046   3.989  1.4051 -0.0956  0.2838
 5209SOL     OW27262   3.071   0.736   3.566 -0.1132  0.1660 -0.0006
 5209SOL    HW127263   2.976   0.732   3.571  0.0748 -0.9449  2.9063
 5209SOL    HW227264   3.086   0.823   3.530 -0.5538 -0.2350 -1.1539
 5210SOL     OW27265   0.381   2.076   5.833  0.5193 -0.2839 -0.3689
 5210SOL    HW127266   0.324   2.013   5.877  0.2969 -1.3238 -2.1417
 5210SOL    HW227267   0.322   2.104   5.764  1.2521  1.5089 -0.2561
 5211SOL     OW27268   0.019   3.069   2.078 -0.1355  0.3635 -0.1971
 5211SOL    HW127269   0.014   3.151   2.127 -0.7753  0.5721 -0.6269
 5211SOL    HW227270   4.720   3.007   2.139 -0.4958 -0.8008 -1.6222
 5212SOL     OW27271   4.650   3.458   6.849 -0.3919 -0.6669  0.3818
 5212SOL    HW127272   4.561   3.432   6.871 -1.3769  0.9190 -1.7588
 5212SOL    HW227273   4.652   3.550   6.876  1.2646 -0.7128  0.4089
 5213SOL     OW27274   3.428   0.655   0.205 -0.3885  0.0793  0.2905
 5213SOL    HW127275   3.402   0.666   0.297 -0.5229 -0.4040  0.3091
 5213SOL    HW227276   3.482   0.733   0.187  0.9640 -0.6933  0.9956
 5214SOL     OW27277   1.740   0.692   5.379  0.0157  0.4113 -0.1003
 5214SOL    HW127278   1.762   0.687   5.472 -2.4489 -0.2533  0.4347
 5214SOL    HW227279   1.715   0.784   5.371 -0.7185  0.4098  2.4556
 5215SOL     OW27280   3.805   2.581   2.641 -0.1541  0.2161  0.0707
 5215SOL    HW127281   3.766   2.648   2.585 -2.0200 -1.6705 -0.8827
 5215SOL    HW227282   3.810   2.510   2.578 -0.6379  0.8163 -0.6493
 5216SOL     OW27283   1.592   0.460   2.706  0.4363 -0.2723 -1.0092
 5216SOL    HW127284   1.681   0.452   2.741 -0.1256  1.3484  0.8090
 5216SOL    HW227285   1.550   0.441   2.790  0.3529  0.7003 -0.8223
 5217SOL     OW27286   2.638   3.672   8.789 -0.5495 -0.3200  0.1729
 5217SOL    HW127287   2.665   3.760   8.765  0.1357 -1.2661 -2.5845
 5217SOL    HW227288   2.542   3.667   8.785 -0.6001  0.9561 -0.0044
 5218SOL     OW27289   2.970   4.580   2.110 -0.2367 -0.2027 -0.1592
 5218SOL    HW127290   2.928   4.580   2.196 -0.3070 -1.0405 -0.1852
 5218SOL    HW227291   2.919   4.652   2.074  1.1699  1.4693  1.2267
 5219SOL     OW27292   2.106   2.245   6.772 -0.0628 -0.0201 -0.5739
 5219SOL    HW127293   2.051   2.168   6.761 -0.2113  0.0914 -0.6098
 5219SOL    HW227294   2.176   2.214   6.830  0.4796  2.7381  0.2488
 5220SOL     OW27295   0.499   2.956   9.188 -0.0883  0.2567 -0.6338
 5220SOL    HW127296   0.445   2.877   9.181 -2.3343  1.7851 -0.4104
 5220SOL    HW227297   0.528   2.955   9.097  0.8033 -2.9194 -0.3394
 5221SOL     OW27298   4.110   1.405  11.031 -0.1802  0.6889 -0.0921
 5221SOL    HW127299   4.070   1.322  11.006 -0.7221  0.9777 -0.1791
 5221SOL    HW227300   4.095   1.393  11.125  0.4029  0.8083  0.0188
 5222SOL     OW27301   4.699   4.141  12.864  0.2113 -0.2452  0.4309
 5222SOL    HW127302   4.704   4.227  12.823 -0.2204 -0.5899 -0.3372
 5222SOL    HW227303   0.020   4.087  12.814  1.6228  2.6674 -0.9615
 5223SOL     OW27304   1.776   3.492  13.845  0.0285  0.3328 -0.2548
 5223SOL    HW127305   1.737   3.432  13.782 -1.2869 -0.0331  0.8940
 5223SOL    HW227306   1.845   3.532  13.792  0.2282  0.5749  0.1892
 5224SOL     OW27307   0.448   2.742   1.458 -0.2689 -0.5941 -0.7518
 5224SOL    HW127308   0.511   2.765   1.390  0.7286 -0.8922  0.0765
 5224SOL    HW227309   0.509   2.721   1.528 -1.4927 -2.0993 -0.1325
 5225SOL     OW27310   4.614   0.958   3.852 -0.0671  0.0410 -0.1976
 5225SOL    HW127311   4.541   0.924   3.799 -0.6714  0.5004  0.3340
 5225SOL    HW227312   4.679   0.898   3.815 -0.9708 -1.3642  0.4969
 5226SOL     OW27313   2.188   3.415   5.095 -0.8690  0.7975 -0.1231
 5226SOL    HW127314   2.274   3.420   5.137 -0.6178  1.7501 -0.7512
 5226SOL    HW227315   2.142   3.437   5.176  0.0626  2.3073 -0.0100
 5227SOL     OW27316   1.617   0.379   7.274 -0.4146 -0.1759 -0.3211
 5227SOL    HW127317   1.663   0.409   7.196  0.4969  0.1448  0.3463
 5227SOL    HW227318   1.522   0.392   7.266 -0.4914 -1.1811 -1.1243
 5228SOL     OW27319   4.393   4.051   1.066  0.0911  0.2417 -0.5179
 5228SOL    HW127320   4.330   4.081   1.002 -0.3251  2.6125  1.0210
 5228SOL    HW227321   4.397   4.129   1.121 -1.9839  0.8891 -1.2929
 5229SOL     OW27322   3.423   0.702   3.589 -0.6410 -0.3997  0.0914
 5229SOL    HW127323   3.414   0.795   3.607 -3.1998 -0.3818 -1.2448
 5229SOL    HW227324   3.376   0.656   3.659 -0.0371 -2.1953 -0.6646
 5230SOL     OW27325   4.459   3.417   7.261  0.2870  0.0775  0.0037
 5230SOL    HW127326   4.393   3.480   7.233  1.3111  0.5858 -1.2717
 5230SOL    HW227327   4.419   3.338   7.225 -0.6330  0.0122  1.1750
 5231SOL     OW27328   1.683   2.471  14.049  0.1363 -0.2565 -0.5402
 5231SOL    HW127329   1.628   2.548  14.033  0.1362 -0.9047 -3.7156
 5231SOL    HW227330   1.703   2.443  13.959 -0.0112 -1.1748 -0.2834
 5232SOL     OW27331   2.585   0.739   7.609  0.8025 -0.7185 -0.4168
 5232SOL    HW127332   2.545   0.701   7.530  3.4316 -2.1272 -1.0621
 5232SOL    HW227333   2.508   0.753   7.664  1.5205  0.3588  0.2993
 5233SOL     OW27334   1.256   1.384   6.432  0.7765  0.1838  0.2839
 5233SOL    HW127335   1.244   1.416   6.343  1.3576 -1.5360 -0.4021
 5233SOL    HW227336   1.205   1.448   6.482  2.6028  0.4498  1.8422
 5234SOL     OW27337   1.762   2.306  10.105  0.2026 -0.5092 -0.0792
 5234SOL    HW127338   1.818   2.299  10.028 -0.0591 -0.0825 -0.3085
 5234SOL    HW227339   1.680   2.285  10.058 -0.7002  0.0758  1.2374
 5235SOL     OW27340   3.393   0.162   5.262  1.2137  0.1593 -0.0616
 5235SOL    HW127341   3.323   0.226   5.246 -0.4221 -1.8934 -1.1833
 5235SOL    HW227342   3.356   0.093   5.208 -0.9461  2.1891 -1.1976
 5236SOL     OW27343   3.670   1.837   1.682  0.2191 -0.1011  0.6396
 5236SOL    HW127344   3.692   1.880   1.599 -2.8041  1.7693  0.8035
 5236SOL    HW227345   3.752   1.790   1.696  0.3952  0.1655  0.5036
 5237SOL     OW27346   0.573   2.069   2.021 -0.2247  0.0752 -0.2792
 5237SOL    HW127347   0.614   2.014   2.088  4.6374  3.0616 -0.8367
 5237SOL    HW227348   0.648   2.094   1.967 -0.9929  0.0733 -1.3483
 5238SOL     OW27349   0.431   1.320   5.540 -0.4645  0.5406 -0.3748
 5238SOL    HW127350   0.429   1.307   5.445 -0.2734  0.5843 -0.3835
 5238SOL    HW227351   0.451   1.413   5.551  2.3741 -0.1950  0.5847
 5239SOL     OW27352   3.814   2.006  16.839  0.4449  0.1055 -0.3284
 5239SOL    HW127353   3.743   2.022  16.778 -0.3369  0.4374  0.6621
 5239SOL    HW227354   3.772   1.963  16.914  0.6063  1.5122  0.5834
 5240SOL     OW27355   3.366   0.817  10.797 -0.5231  0.5360  0.2840
 5240SOL    HW127356   3.412   0.733  10.801  0.0775  0.9321  1.9347
 5240SOL    HW227357   3.399   0.864  10.874 -0.4336 -0.0586  0.6139
 5241SOL     OW27358   0.232   2.861   2.892 -0.3964 -0.4928 -0.0311
 5241SOL    HW127359   0.170   2.892   2.958 -0.8666 -1.1760 -0.1535
 5241SOL    HW227360   0.261   2.946   2.860 -3.2942 -0.3809 -2.3648
 5242SOL     OW27361   2.902   2.992   5.297 -0.5824  0.2923 -0.2219
 5242SOL    HW127362   2.965   3.045   5.248  0.7847 -0.2584  0.9572
 5242SOL    HW227363   2.816   3.014   5.260  0.2523  0.0009 -2.3203
 5243SOL     OW27364   3.591   2.880   2.667 -0.0913  0.8106  0.0824
 5243SOL    HW127365   3.625   2.839   2.747  0.9981  2.9811  0.7429
 5243SOL    HW227366   3.677   2.892   2.626  0.8075 -2.0888  1.0964
 5244SOL     OW27367   1.810   2.510   3.866 -1.2281  0.5917 -0.2758
 5244SOL    HW127368   1.864   2.487   3.789 -1.8377 -0.0307 -0.5178
 5244SOL    HW227369   1.836   2.439   3.925 -3.9355 -0.5295 -0.4506
 5245SOL     OW27370   2.071   4.118  11.963 -0.1648 -0.2186  0.0286
 5245SOL    HW127371   2.021   4.177  12.019  1.0304  0.1737  0.6986
 5245SOL    HW227372   2.063   4.165  11.880 -1.1557  1.4206  1.0463
 5246SOL     OW27373   1.995   0.384   5.529  0.2695  0.2659 -0.4749
 5246SOL    HW127374   1.925   0.332   5.491 -1.0322  1.8457 -0.2532
 5246SOL    HW227375   2.056   0.409   5.460 -1.0926  0.1614 -1.7296
 5247SOL     OW27376   2.195   2.846   2.344 -0.1347 -0.3178 -0.4933
 5247SOL    HW127377   2.252   2.922   2.357 -1.4315  0.3936  1.1033
 5247SOL    HW227378   2.248   2.767   2.359 -1.3300 -0.5580  2.5425
 5248SOL     OW27379   1.290   3.325   5.586 -0.3636  0.0640 -0.0349
 5248SOL    HW127380   1.374   3.321   5.538  1.0216  0.2517  2.3960
 5248SOL    HW227381   1.258   3.415   5.582 -0.3977 -0.0544 -2.5772
 5249SOL     OW27382   4.639   1.865   8.540 -0.3684 -0.0639  0.6812
 5249SOL    HW127383   4.591   1.853   8.621 -1.5264 -1.1179 -0.1583
 5249SOL    HW227384   4.628   1.958   8.523 -0.2324  0.4998  3.7206
 5250SOL     OW27385   3.663   0.324   9.561  0.3948  0.0762 -0.4742
 5250SOL    HW127386   3.615   0.287   9.636 -0.0396 -0.9574 -1.2533
 5250SOL    HW227387   3.717   0.395   9.595  1.9168 -1.2572 -0.0957
 5251SOL     OW27388   2.893   3.392   3.090  0.0003 -0.6618  0.2283
 5251SOL    HW127389   2.808   3.375   3.049 -0.0711  0.8568 -0.2397
 5251SOL    HW227390   2.862   3.419   3.176 -2.3160 -0.3622 -0.6958
 5252SOL     OW27391   3.520   2.566   7.722  0.7406  0.0974 -0.0142
 5252SOL    HW127392   3.495   2.626   7.792  1.5376  0.5408 -0.1178
 5252SOL    HW227393   3.520   2.629   7.650  2.1503  2.5207  2.0938
 5253SOL     OW27394   2.779   3.427   7.862 -0.0105 -0.3535  0.3417
 5253SOL    HW127395   2.860   3.425   7.914  0.4904  0.0540 -0.4344
 5253SOL    HW227396   2.743   3.504   7.907 -1.4516 -1.1249  0.5159
 5254SOL     OW27397   0.635   0.637  17.135  0.8294  0.1970 -0.2547
 5254SOL    HW127398   0.628   0.731  17.114 -0.1172  0.2214  0.1649
 5254SOL    HW227399   0.552   0.617  17.177  0.1437  0.4243 -1.4975
 5255SOL     OW27400   1.513   1.180   3.611  0.0755 -0.0566  0.4275
 5255SOL    HW127401   1.592   1.234   3.605  0.8277 -1.0227  1.5628
 5255SOL    HW227402   1.553   1.093   3.618  1.8140  0.6553 -0.7546
 5256SOL     OW27403   2.451   2.149   8.567  0.2816  0.5804 -0.2591
 5256SOL    HW127404   2.480   2.058   8.559  1.9832  1.2066 -1.2005
 5256SOL    HW227405   2.437   2.160   8.661  1.5440 -0.1802  0.0219
 5257SOL     OW27406   4.581   0.498   2.261  0.0064  0.7236 -0.6442
 5257SOL    HW127407   4.542   0.425   2.308 -0.1073  0.4519 -1.1565
 5257SOL    HW227408   4.601   0.439   2.188  1.1420  0.9625 -0.5348
 5258SOL     OW27409   1.803   3.040   3.484 -0.7433 -0.1007  0.4454
 5258SOL    HW127410   1.879   3.052   3.541  0.7273 -0.1816 -1.4870
 5258SOL    HW227411   1.766   3.128   3.488 -0.7413 -0.0921  0.2762
 5259SOL     OW27412   3.726   3.812   3.391 -1.2541  0.7177 -0.2820
 5259SOL    HW127413   3.758   3.722   3.399 -0.2326  1.0444 -0.7040
 5259SOL    HW227414   3.786   3.848   3.326 -1.6930  0.4288 -0.8466
 5260SOL     OW27415   1.854   1.397   6.197  0.0731 -0.1313 -0.4646
 5260SOL    HW127416   1.804   1.399   6.278  0.6026  0.5783 -0.1537
 5260SOL    HW227417   1.912   1.472   6.203 -0.0615 -0.3622  3.5042
 5261SOL     OW27418   0.827   4.075  12.817 -0.1557  0.1155  0.1317
 5261SOL    HW127419   0.882   4.066  12.739  1.1061  1.2384  0.8855
 5261SOL    HW227420   0.762   4.009  12.792 -0.5526  0.3455  0.5613
 5262SOL     OW27421   3.787   2.362   1.632  0.2555 -1.0745 -0.3881
 5262SOL    HW127422   3.796   2.278   1.676  3.0082 -0.3792  0.4069
 5262SOL    HW227423   3.858   2.361   1.567  1.4151  0.7870  0.8552
 5263SOL     OW27424   4.314   0.489   7.664  0.9835 -0.6989  0.2713
 5263SOL    HW127425   4.328   0.531   7.748  2.3407 -0.3254 -0.1381
 5263SOL    HW227426   4.402   0.469   7.631  1.4605  0.2378  0.9872
 5264SOL     OW27427   4.545   4.081   5.597 -0.7080  0.4680 -0.2745
 5264SOL    HW127428   4.621   4.042   5.640 -0.8923 -0.5650 -0.8814
 5264SOL    HW227429   4.550   4.169   5.634 -1.2260  0.0561  0.7459
 5265SOL     OW27430   0.279   4.282   4.694 -0.6461 -0.0498 -0.1786
 5265SOL    HW127431   0.192   4.312   4.722 -0.5037  0.9138 -0.7932
 5265SOL    HW227432   0.280   4.295   4.600  1.1579 -1.1183 -0.3003
 5266SOL     OW27433   4.114   1.365   4.240 -0.2945 -0.9472  0.0670
 5266SOL    HW127434   4.199   1.406   4.259 -1.5817  1.2108  1.1451
 5266SOL    HW227435   4.131   1.314   4.161  1.2590 -1.1369  0.5261
 5267SOL     OW27436   0.786   3.281  13.848  0.4015  0.4338  0.2434
 5267SOL    HW127437   0.798   3.362  13.898 -1.3783 -0.4093  2.0252
 5267SOL    HW227438   0.870   3.245  13.878  0.7824  2.2310  1.3577
 5268SOL     OW27439   0.474   2.073   4.999  0.2988  0.4206 -0.2861
 5268SOL    HW127440   0.385   2.051   5.026  0.9889  0.7504  2.2748
 5268SOL    HW227441   0.467   2.059   4.904 -0.9320  1.0477 -0.2869
 5269SOL     OW27442   3.977   0.011  17.296 -0.2246 -0.0390 -0.0378
 5269SOL    HW127443   4.042   4.681  17.308  0.5109  0.5127 -0.8711
 5269SOL    HW227444   4.021   0.083  17.341  2.0312 -0.3507 -1.7270
 5270SOL     OW27445   3.917   4.040   5.487  0.0908  0.2818  0.3987
 5270SOL    HW127446   3.829   4.078   5.498  0.5481  1.0888  1.3188
 5270SOL    HW227447   3.921   3.994   5.571 -1.6555  0.8168  0.7859
 5271SOL     OW27448   1.049   1.879   9.588  0.0080  0.0318 -0.2618
 5271SOL    HW127449   1.004   1.852   9.508 -0.5440 -1.1817  0.4626
 5271SOL    HW227450   1.101   1.803   9.613 -1.0099 -0.3873  0.5929
 5272SOL     OW27451   0.017   1.125   4.371  0.0296  0.2153  0.1105
 5272SOL    HW127452   4.729   1.177   4.295  0.3754  0.2233 -0.0093
 5272SOL    HW227453   4.719   1.040   4.345 -1.2177  0.3173  1.5944
 5273SOL     OW27454   4.685   3.055   9.419 -0.0837  0.1673 -0.0846
 5273SOL    HW127455   4.631   2.980   9.442  0.1592 -0.1316 -0.4722
 5273SOL    HW227456   0.020   3.049   9.479  0.1305 -0.1966 -0.3923
 5274SOL     OW27457   1.025   4.167  12.363  0.7199  0.2063 -0.0318
 5274SOL    HW127458   1.026   4.099  12.295  0.2392  1.0342 -0.8581
 5274SOL    HW227459   1.109   4.205  12.340  1.2976  0.9190  3.2698
 5275SOL     OW27460   1.818   3.694   8.109 -0.8484  0.5964  0.2839
 5275SOL    HW127461   1.863   3.778   8.123  1.0511  0.1684 -3.3364
 5275SOL    HW227462   1.894   3.641   8.088 -1.7592 -0.1939 -1.0305
 5276SOL     OW27463   4.298   0.287   3.610  0.2573 -0.4744 -0.0235
 5276SOL    HW127464   4.249   0.213   3.575  0.3017  1.0566 -3.3487
 5276SOL    HW227465   4.332   0.250   3.691  0.2912 -0.4571 -0.0299
 5277SOL     OW27466   0.038   3.603   8.028 -0.0516 -0.0712 -0.1404
 5277SOL    HW127467   0.047   3.510   8.045 -0.4090 -0.2665 -1.0201
 5277SOL    HW227468   4.704   3.608   7.967  0.3042 -1.0047 -0.6331
 5278SOL     OW27469   3.925   0.808  13.347 -0.5015 -0.3755 -0.6748
 5278SOL    HW127470   4.010   0.850  13.336 -0.1594 -1.1475 -0.9952
 5278SOL    HW227471   3.906   0.775  13.259  1.3741  2.6099 -2.1731
 5279SOL     OW27472   3.043   1.505  16.727 -0.5372 -0.1574  0.8867
 5279SOL    HW127473   3.128   1.484  16.766  0.8982  0.0609 -2.1013
 5279SOL    HW227474   3.032   1.432  16.665  1.4875  0.0132  0.3175
 5280SOL     OW27475   4.351   2.101  10.893 -0.0808 -0.2539 -0.6146
 5280SOL    HW127476   4.364   2.014  10.856  1.1414 -0.3872  0.1025
 5280SOL    HW227477   4.435   2.132  10.928 -0.1066 -0.5129 -0.3241
 5281SOL     OW27478   2.394   1.819   3.843 -0.1509 -0.3508 -0.3615
 5281SOL    HW127479   2.316   1.791   3.795 -0.1162 -1.9973  0.5609
 5281SOL    HW227480   2.465   1.767   3.805  1.0520  0.8081  0.3284
 5282SOL     OW27481   1.988   2.035  15.563 -0.5894  0.1359 -0.2914
 5282SOL    HW127482   1.907   2.013  15.609  1.0282 -0.0613  2.4713
 5282SOL    HW227483   1.959   2.076  15.481  0.2893  0.4528 -0.4425
 5283SOL     OW27484   1.989   1.088   5.656 -0.2790  0.4036  0.3630
 5283SOL    HW127485   1.910   1.063   5.608  1.4186 -0.1176 -2.2160
 5283SOL    HW227486   2.049   1.082   5.581  0.0667  2.1360  0.5160
 5284SOL     OW27487   2.386   2.575   9.374  0.9364  0.2198 -0.3390
 5284SOL    HW127488   2.444   2.513   9.418  0.3202  0.9459  1.4926
 5284SOL    HW227489   2.351   2.621   9.450  0.3065  0.5052 -0.7999
 5285SOL     OW27490   1.528   4.152   8.685 -0.6360  0.3752  0.0394
 5285SOL    HW127491   1.459   4.203   8.641 -0.1405  0.4448 -0.6675
 5285SOL    HW227492   1.552   4.094   8.613 -1.2694  0.4965 -0.2687
 5286SOL     OW27493   3.027   1.072   9.960  0.3630 -0.1309  0.4262
 5286SOL    HW127494   3.023   1.107  10.049 -2.6347  0.5788  0.0095
 5286SOL    HW227495   3.005   0.979   9.967  2.0456 -0.4857  1.1313
 5287SOL     OW27496   4.065   4.530   6.554 -0.1989  0.1137 -0.0367
 5287SOL    HW127497   4.028   4.491   6.633 -0.2981 -1.2450 -0.7556
 5287SOL    HW227498   4.089   4.614   6.593 -0.7395  0.2633 -0.0135
 5288SOL     OW27499   2.689   4.232   5.705 -0.4416  0.3251  0.5394
 5288SOL    HW127500   2.623   4.236   5.774 -2.5186  1.6229 -1.5401
 5288SOL    HW227501   2.648   4.277   5.631  1.1802  1.7503  0.5082
 5289SOL     OW27502   3.595   0.119   8.720 -0.4683 -0.0653 -0.3217
 5289SOL    HW127503   3.650   0.052   8.759 -0.7943  0.3059  0.7647
 5289SOL    HW227504   3.662   0.174   8.680  1.0687 -0.0861  2.2427
 5290SOL     OW27505   4.256   4.279   1.479  0.2742  0.6362 -0.4677
 5290SOL    HW127506   4.171   4.282   1.436  0.2152  0.2913 -0.3754
 5290SOL    HW227507   4.236   4.316   1.565  1.1508  0.4033 -0.1611
 5291SOL     OW27508   4.446   0.972   5.851  0.3619  0.9744 -0.0434
 5291SOL    HW127509   4.393   1.047   5.878 -1.2130 -0.3989  0.7849
 5291SOL    HW227510   4.486   0.943   5.933 -1.0703  0.3394  0.4301
 5292SOL     OW27511   2.190   0.401   8.491  0.0395 -0.1462  0.1704
 5292SOL    HW127512   2.215   0.473   8.549 -1.8511  1.2043 -0.6915
 5292SOL    HW227513   2.097   0.399   8.512 -0.1256 -0.9260 -0.6539
 5293SOL     OW27514   4.567   3.608   4.800 -0.3195 -0.0740  0.2797
 5293SOL    HW127515   4.602   3.695   4.784 -0.7919  0.2614  1.0566
 5293SOL    HW227516   4.601   3.583   4.886  0.1693 -1.5753 -0.3490
 5294SOL     OW27517   1.139   1.592   8.231  0.0251  0.0079  0.1411
 5294SOL    HW127518   1.117   1.640   8.311 -2.0402  0.4583 -0.6824
 5294SOL    HW227519   1.234   1.604   8.233  0.0907 -0.8430  2.1443
 5295SOL     OW27520   3.638   3.101   6.781 -0.9271 -0.6075 -0.5351
 5295SOL    HW127521   3.704   3.033   6.794  0.0990  0.3514 -0.6604
 5295SOL    HW227522   3.610   3.072   6.695  0.6022 -0.4844 -1.0904
 5296SOL     OW27523   1.798   4.574   7.349  0.4254 -0.0610  0.1539
 5296SOL    HW127524   1.738   4.638   7.311  0.1219 -0.5678 -0.2265
 5296SOL    HW227525   1.757   4.498   7.308  0.2929  1.0276 -1.7429
 5297SOL     OW27526   1.611   1.886   6.083  0.2275  0.0724  0.0249
 5297SOL    HW127527   1.605   1.802   6.128 -0.9144 -0.6244 -1.4545
 5297SOL    HW227528   1.584   1.946   6.153 -0.2802 -0.4233  0.2518
 5298SOL     OW27529   3.587   0.374   3.863 -0.2476 -0.1666 -0.3751
 5298SOL    HW127530   3.560   0.292   3.821 -0.8967  0.3824 -1.0192
 5298SOL    HW227531   3.679   0.375   3.836 -0.1723 -0.4388 -0.1256
 5299SOL     OW27532   3.923   0.189   5.508 -0.0252  0.0677  0.3941
 5299SOL    HW127533   3.861   0.254   5.477 -0.0632 -1.3356 -2.4513
 5299SOL    HW227534   3.980   0.254   5.549  0.5739  0.1632 -0.6090
 5300SOL     OW27535   0.812   0.539   3.270  0.8405  0.1185 -0.4616
 5300SOL    HW127536   0.885   0.501   3.221  0.1628  0.0992 -1.4533
 5300SOL    HW227537   0.755   0.464   3.285  0.5721 -0.0631 -2.4101
 5301SOL     OW27538   2.866   4.618   9.879 -0.4120 -0.1212  0.2382
 5301SOL    HW127539   2.861   4.537   9.930 -1.3720 -0.0366  0.2784
 5301SOL    HW227540   2.936   4.599   9.817 -1.9043 -1.7326 -0.9216
 5302SOL     OW27541   2.719   3.735   7.812 -0.4006 -0.0273  0.6995
 5302SOL    HW127542   2.672   3.733   7.895 -1.3134  1.3808  0.2098
 5302SOL    HW227543   2.787   3.800   7.828 -0.6570  0.6689 -1.0751
 5303SOL     OW27544   2.934   1.048   3.771 -0.2263  0.0706  0.1980
 5303SOL    HW127545   2.885   1.116   3.818 -1.4108 -0.8141  0.2249
 5303SOL    HW227546   2.878   0.972   3.785 -0.1779  0.3015  1.5945
 5304SOL     OW27547   1.667   3.336   8.648  0.4784 -0.8999  0.3522
 5304SOL    HW127548   1.723   3.413   8.636  3.3284 -3.3424 -2.1687
 5304SOL    HW227549   1.652   3.302   8.559  0.8774 -0.0374 -0.0447
 5305SOL     OW27550   2.140   0.723  12.757 -0.7692  0.0328 -0.2283
 5305SOL    HW127551   2.223   0.686  12.784 -0.0038  1.7889 -0.1504
 5305SOL    HW227552   2.089   0.648  12.727 -1.0740  0.1526 -0.0034
 5306SOL     OW27553   0.352   2.454   6.966 -0.0662 -0.1448  0.2772
 5306SOL    HW127554   0.322   2.430   6.879  0.5167  0.4726 -0.0990
 5306SOL    HW227555   0.442   2.423   6.952 -0.1223  0.6730 -1.9406
 5307SOL     OW27556   4.386   0.632   5.259 -0.4547 -0.3476 -0.0512
 5307SOL    HW127557   4.378   0.537   5.256  0.9849 -0.5092  1.3302
 5307SOL    HW227558   4.364   0.643   5.351 -3.4621 -0.4192 -0.7631
 5308SOL     OW27559   2.394   4.430   5.709  0.0983  0.2319 -0.4300
 5308SOL    HW127560   2.346   4.391   5.783  2.3746  0.0748  0.9846
 5308SOL    HW227561   2.432   4.503   5.758  0.0582 -0.6558  0.9378
 5309SOL     OW27562   2.731   2.633   4.814 -0.2758  0.1452 -0.9384
 5309SOL    HW127563   2.722   2.714   4.864 -0.0906 -1.9401  2.5078
 5309SOL    HW227564   2.692   2.562   4.866 -1.3105  0.5118 -1.2032
 5310SOL     OW27565   1.057   3.206  13.900 -0.4824 -0.5408 -0.0059
 5310SOL    HW127566   1.041   3.113  13.914  0.0398 -0.6705 -0.2650
 5310SOL    HW227567   1.147   3.194  13.871  0.5118  3.0435  1.5462
 5311SOL     OW27568   0.419   0.739   6.879 -0.3331  0.0555 -1.0150
 5311SOL    HW127569   0.352   0.746   6.812 -0.9647  1.1635 -0.2705
 5311SOL    HW227570   0.397   0.810   6.940 -2.2188 -2.7827  1.5793
 5312SOL     OW27571   4.589   1.628   1.317 -0.4958  0.5109 -0.0872
 5312SOL    HW127572   4.605   1.701   1.257 -0.7365 -0.3180 -1.1590
 5312SOL    HW227573   4.668   1.577   1.301  0.3082  2.0359 -0.9633
 5313SOL     OW27574   3.370   4.437  13.177 -0.0057 -0.6324  0.4124
 5313SOL    HW127575   3.456   4.434  13.219 -0.6671  0.0513  1.8018
 5313SOL    HW227576   3.324   4.363  13.217 -1.5450  1.2805  2.1328
 5314SOL     OW27577   4.640   0.145   1.201 -0.4566 -0.2908  0.1749
 5314SOL    HW127578   4.598   0.061   1.223 -0.4663 -0.6392 -1.1417
 5314SOL    HW227579   4.579   0.175   1.133  1.2979  0.5386 -1.0155
 5315SOL     OW27580   1.650   3.850  13.625  0.4330 -0.1164 -0.0665
 5315SOL    HW127581   1.620   3.778  13.681 -1.5798 -0.4385 -1.5677
 5315SOL    HW227582   1.708   3.798  13.569 -0.6245  0.8054 -2.0306
 5316SOL     OW27583   0.312   0.709   6.418  0.2715 -0.1400  0.5909
 5316SOL    HW127584   0.276   0.621   6.407  0.8963 -0.4972  1.4310
 5316SOL    HW227585   0.393   0.700   6.367  0.1522 -2.5805  0.8066
 5317SOL     OW27586   3.765   0.479   4.255 -0.7315 -0.0950  0.3335
 5317SOL    HW127587   3.784   0.390   4.284 -0.3259  0.0793  0.6084
 5317SOL    HW227588   3.784   0.541   4.326  0.5930 -3.0590  2.5876
 5318SOL     OW27589   4.409   0.694   9.378  0.1550  0.4078 -0.3903
 5318SOL    HW127590   4.317   0.719   9.374  0.1868  0.5388 -0.3029
 5318SOL    HW227591   4.441   0.695   9.288  1.9514 -0.8865  0.2252
 5319SOL     OW27592   0.241   4.261  15.805 -0.2327 -0.0808  0.0973
 5319SOL    HW127593   0.167   4.295  15.754 -0.9764 -1.9676 -0.0706
 5319SOL    HW227594   0.269   4.334  15.861  2.2085  0.0474 -1.3271
 5320SOL     OW27595   2.720   4.096   7.349 -0.2379  0.0537  0.4511
 5320SOL    HW127596   2.644   4.055   7.390 -1.0770 -0.2386 -1.3830
 5320SOL    HW227597   2.751   4.021   7.297  0.8293  0.1768  0.9021
 5321SOL     OW27598   1.664   0.372   7.991 -0.6370 -0.5813 -0.6068
 5321SOL    HW127599   1.707   0.321   7.922  1.9280  0.9765 -0.1845
 5321SOL    HW227600   1.608   0.434   7.945 -0.0811  1.3143  1.2529
 5322SOL     OW27601   4.617   0.731   0.278 -0.1523 -0.5184 -0.0902
 5322SOL    HW127602   4.629   0.656   0.220  1.0519 -0.0295 -0.4756
 5322SOL    HW227603   4.706   0.758   0.300  1.2399 -3.2219 -2.5195
 5323SOL     OW27604   0.912   3.059  13.450 -0.2442 -0.0751  0.1210
 5323SOL    HW127605   0.938   2.968  13.465 -2.5459 -0.7718 -0.2183
 5323SOL    HW227606   0.863   3.079  13.530 -0.8041  0.6435 -0.4038
 5324SOL     OW27607   1.691   1.748   5.084 -0.1874  0.6650 -0.1375
 5324SOL    HW127608   1.655   1.834   5.104  1.3037  1.5935 -1.3980
 5324SOL    HW227609   1.692   1.717   5.174 -0.0960  3.0703  0.7011
 5325SOL     OW27610   3.651   3.634   9.030  0.0702 -0.3129 -0.3266
 5325SOL    HW127611   3.653   3.708   8.970 -0.3938 -0.2468 -0.2615
 5325SOL    HW227612   3.605   3.670   9.106  0.8622 -0.1537  0.0789
 5326SOL     OW27613   1.050   4.034   8.028 -0.6487 -0.2421 -0.4121
 5326SOL    HW127614   0.988   3.965   8.003 -0.6114  0.1719 -1.6248
 5326SOL    HW227615   0.995   4.110   8.045 -0.1637  0.0758 -0.2726
 5327SOL     OW27616   2.030   1.180   3.168 -0.1717 -0.5842  0.0423
 5327SOL    HW127617   2.125   1.173   3.182 -0.0280 -1.0954 -1.1248
 5327SOL    HW227618   2.013   1.086   3.154  0.2589 -0.5327 -0.8547
 5328SOL     OW27619   0.197   1.277   6.626  0.3575 -0.6898  0.3461
 5328SOL    HW127620   0.284   1.258   6.591  0.4108  0.0439  0.0686
 5328SOL    HW227621   0.167   1.332   6.554  0.5908 -1.5753 -0.4222
 5329SOL     OW27622   1.555   2.723  13.979  0.4345  0.7381 -0.4161
 5329SOL    HW127623   1.569   2.730  13.885  1.0658  0.6272 -0.3292
 5329SOL    HW227624   1.462   2.746  13.982  0.1984 -0.1854 -0.6657
 5330SOL     OW27625   1.769   3.282  14.497 -0.0263 -0.3392  0.5921
 5330SOL    HW127626   1.741   3.349  14.434 -1.6962 -0.0042  1.6948
 5330SOL    HW227627   1.714   3.211  14.463  1.0089 -0.4484 -0.8263
 5331SOL     OW27628   4.327   0.795   7.665 -0.2991 -0.1197 -0.1722
 5331SOL    HW127629   4.278   0.849   7.727 -0.0449 -0.8772  0.7011
 5331SOL    HW227630   4.398   0.761   7.720 -0.2648  0.8666  0.3891
 5332SOL     OW27631   3.688   1.018   7.318 -0.0555 -0.3361  0.0152
 5332SOL    HW127632   3.646   0.933   7.329  0.0726 -0.1783  1.7252
 5332SOL    HW227633   3.737   1.002   7.238 -1.1409  0.1125 -0.7433
 5333SOL     OW27634   3.497   1.746   5.971  0.2457 -0.0832  0.0734
 5333SOL    HW127635   3.495   1.840   5.956  4.7515 -0.8103 -4.9840
 5333SOL    HW227636   3.514   1.713   5.883  2.1093 -2.5423  1.3562
 5334SOL     OW27637   3.573   4.363   3.092  0.3521  0.7549  0.3474
 5334SOL    HW127638   3.618   4.323   3.018 -0.9555 -1.7963  0.9102
 5334SOL    HW227639   3.495   4.395   3.046 -0.4592 -0.2439  1.0203
 5335SOL     OW27640   3.869   2.797   2.431  0.1261 -0.3504  0.9284
 5335SOL    HW127641   3.937   2.730   2.439  0.1795 -0.4536 -0.3687
 5335SOL    HW227642   3.804   2.757   2.373  1.1503 -1.4729  0.5642
 5336SOL     OW27643   4.389   4.150   6.089 -0.2104  0.2024  0.2262
 5336SOL    HW127644   4.437   4.068   6.094 -3.3984 -1.6734  0.2382
 5336SOL    HW227645   4.407   4.180   5.999 -1.3993  0.8057  0.1804
 5337SOL     OW27646   1.998   3.287  17.514  0.6331 -0.1047  0.5269
 5337SOL    HW127647   2.079   3.237  17.518 -0.9805 -2.6202  1.4758
 5337SOL    HW227648   1.971   3.278  17.605  1.0147 -0.5284  0.6001
 5338SOL     OW27649   0.310   3.057  11.704 -0.2182 -0.1672  0.4304
 5338SOL    HW127650   0.296   2.963  11.713 -0.3014 -0.0959  1.0315
 5338SOL    HW227651   0.367   3.083  11.776  1.4399 -1.1626 -0.5319
 5339SOL     OW27652   2.356   4.580   9.937  0.6184  0.1060 -0.0082
 5339SOL    HW127653   2.369   4.624   9.853  0.8169  3.1034  1.5804
 5339SOL    HW227654   2.288   4.637   9.972  0.6077 -0.2764  0.5856
 5340SOL     OW27655   4.539   4.315  15.827  0.0820 -0.1124  0.2038
 5340SOL    HW127656   4.599   4.388  15.843 -0.7263  0.4418  0.6749
 5340SOL    HW227657   4.545   4.313  15.732 -1.3802  0.4992  0.0993
 5341SOL     OW27658   2.823   0.475   9.034 -0.4790 -0.3925  0.1909
 5341SOL    HW127659   2.815   0.380   9.040 -1.4101 -0.2786  0.6757
 5341SOL    HW227660   2.735   0.510   9.042  0.9678  3.0774  1.2141
 5342SOL     OW27661   1.667   4.137   8.920 -0.0344 -0.2138 -0.3202
 5342SOL    HW127662   1.627   4.057   8.956  3.7276 -0.9785  2.1236
 5342SOL    HW227663   1.619   4.148   8.838  2.2810 -1.4207 -1.8458
 5343SOL     OW27664   3.972   1.041  16.837 -0.3348  0.2184  0.2507
 5343SOL    HW127665   3.961   0.988  16.916  0.6873 -1.9911 -1.0971
 5343SOL    HW227666   4.064   1.066  16.844 -0.3174  0.8428 -2.3517
 5344SOL     OW27667   0.052   3.431   5.798  0.2652 -0.2703 -0.0600
 5344SOL    HW127668   0.039   3.520   5.829  0.8425  0.2316 -1.2483
 5344SOL    HW227669   0.135   3.435   5.751  0.5928  1.7323  0.6789
 5345SOL     OW27670   4.086   2.133   6.696 -0.3430  0.3100 -0.8993
 5345SOL    HW127671   4.045   2.120   6.781  0.0231  2.9647 -0.3219
 5345SOL    HW227672   4.161   2.186   6.723  0.6877 -1.8526  0.5026
 5346SOL     OW27673   1.560   0.261   8.210  0.3210 -0.0871 -0.5243
 5346SOL    HW127674   1.467   0.243   8.199  0.0598  0.5908  0.4924
 5346SOL    HW227675   1.597   0.266   8.122 -0.0469 -0.6136 -0.7083
 5347SOL     OW27676   1.670   0.998   1.047 -0.7418  0.1058  0.0510
 5347SOL    HW127677   1.685   1.054   1.122  0.0798  1.1087 -0.8695
 5347SOL    HW227678   1.723   0.923   1.072  0.2076  1.4722  2.1346
 5348SOL     OW27679   2.444   4.227   4.130 -0.3355 -0.2847  0.3489
 5348SOL    HW127680   2.427   4.137   4.102  0.8696 -0.0932 -0.9731
 5348SOL    HW227681   2.403   4.231   4.216  1.7810 -1.4443  1.4236
 5349SOL     OW27682   1.315   4.176  12.235 -0.6348 -0.0077  0.1033
 5349SOL    HW127683   1.359   4.115  12.176 -0.6804  0.2920 -0.2435
 5349SOL    HW227684   1.353   4.253  12.192  0.0180 -0.9685 -1.0437
 5350SOL     OW27685   1.171   3.126   4.282 -0.1573  0.2022 -0.2054
 5350SOL    HW127686   1.126   3.120   4.197 -0.6859 -0.5150  0.1193
 5350SOL    HW227687   1.259   3.092   4.265 -0.2493  0.3082 -0.9272
 5351SOL     OW27688   4.065   1.701  11.710  0.2939 -0.3589  0.2192
 5351SOL    HW127689   4.146   1.738  11.744  1.3070 -1.1143 -1.4103
 5351SOL    HW227690   4.085   1.608  11.700  0.0305 -0.6064  2.0011
 5352SOL     OW27691   3.346   1.604   5.170 -0.2864 -0.2720  0.4057
 5352SOL    HW127692   3.391   1.531   5.128 -0.1482  0.7459 -1.1941
 5352SOL    HW227693   3.405   1.679   5.162  0.9747 -1.2285  0.8617
 5353SOL     OW27694   3.310   1.038   6.776  0.1919  0.5448  0.2141
 5353SOL    HW127695   3.319   1.024   6.682  1.6073 -2.6806  0.8577
 5353SOL    HW227696   3.357   1.121   6.791  0.1829  0.5453  0.2409
 5354SOL     OW27697   3.311   4.197   3.971 -0.1962  0.3910 -0.4432
 5354SOL    HW127698   3.376   4.134   4.004  1.4491  1.6195 -1.2942
 5354SOL    HW227699   3.227   4.154   3.985 -0.1589  0.5485  0.2920
 5355SOL     OW27700   1.111   0.835   4.498 -0.3175 -0.4573  0.0465
 5355SOL    HW127701   1.123   0.752   4.544 -0.2777 -0.8854 -0.7250
 5355SOL    HW227702   1.199   0.853   4.465  0.1583 -0.6948  1.2066
 5356SOL     OW27703   4.248   0.974   8.821 -0.0094 -0.1073  0.3727
 5356SOL    HW127704   4.272   1.010   8.735 -1.9122  1.6788  0.6005
 5356SOL    HW227705   4.330   0.927   8.836  0.0792  0.1087  0.5591
 5357SOL     OW27706   0.188   2.834   0.461  0.5533  0.5722  0.6899
 5357SOL    HW127707   0.195   2.783   0.380 -2.6992 -2.0394  2.0726
 5357SOL    HW227708   0.253   2.798   0.521  0.4895 -1.0898 -0.2152
 5358SOL     OW27709   1.773   1.603   0.889  0.3494 -0.2275 -0.3417
 5358SOL    HW127710   1.844   1.668   0.894  0.7031 -0.5662 -0.9138
 5358SOL    HW227711   1.756   1.602   0.794 -0.2524  0.6639 -0.2467
 5359SOL     OW27712   3.393   4.438   5.243  0.0671  0.6064  0.1267
 5359SOL    HW127713   3.301   4.455   5.266 -0.7384 -1.0912 -1.7999
 5359SOL    HW227714   3.438   4.513   5.280 -0.0264  0.2084  1.0450
 5360SOL     OW27715   1.083   4.433   5.100 -0.1209  0.1167 -0.1748
 5360SOL    HW127716   1.115   4.497   5.163  0.6318 -1.7119  1.2616
 5360SOL    HW227717   1.147   4.362   5.100  2.2058  2.2227 -0.6907
 5361SOL     OW27718   2.569   4.498   1.391 -0.5606  0.7312 -0.5700
 5361SOL    HW127719   2.513   4.542   1.454  0.6101  0.9082  0.3337
 5361SOL    HW227720   2.556   4.554   1.314 -1.2418  0.4556 -0.6590
 5362SOL     OW27721   1.377   1.552   4.369 -1.1636 -0.0097  0.3790
 5362SOL    HW127722   1.463   1.511   4.364 -1.9971 -1.8573  1.1828
 5362SOL    HW227723   1.366   1.603   4.289  2.4720 -0.7169 -0.6063
 5363SOL     OW27724   1.398   3.065   4.142  0.5322  0.3445  0.3544
 5363SOL    HW127725   1.435   3.141   4.188  3.1491  0.5133 -2.0211
 5363SOL    HW227726   1.479   3.017   4.122 -0.4895 -0.9850 -0.5677
 5364SOL     OW27727   0.839   0.314   5.450  0.4928 -0.6190  0.0366
 5364SOL    HW127728   0.908   0.365   5.492  1.1302 -1.4865  0.0598
 5364SOL    HW227729   0.851   0.354   5.363 -1.5300  3.3471  1.6214
 5365SOL     OW27730   1.609   2.114   8.764  0.5836 -0.2567 -0.0863
 5365SOL    HW127731   1.697   2.091   8.737 -0.1675 -1.2307 -1.6996
 5365SOL    HW227732   1.607   2.210   8.766 -1.4949 -0.2894 -0.8318
 5366SOL     OW27733   3.642   3.106   4.675 -0.2090  0.5369 -0.2765
 5366SOL    HW127734   3.674   3.189   4.709 -2.6602  1.4434 -0.1987
 5366SOL    HW227735   3.553   3.135   4.655  0.4694  1.7177 -1.5791
 5367SOL     OW27736   4.622   0.248   5.659 -0.6263  0.1162 -0.2092
 5367SOL    HW127737   4.600   0.322   5.716 -4.2983 -0.7338 -0.4802
 5367SOL    HW227738   4.689   0.288   5.604 -0.8280  1.7626  0.7426
 5368SOL     OW27739   2.480   1.613  11.807  0.1277  0.2777 -1.0781
 5368SOL    HW127740   2.452   1.698  11.842  0.9093  0.8007 -1.7393
 5368SOL    HW227741   2.559   1.632  11.757 -0.2522  1.0899 -1.3669
 5369SOL     OW27742   1.401   2.035   5.615 -0.1394  0.2123 -0.2014
 5369SOL    HW127743   1.435   2.123   5.632  0.5177 -0.1336  0.2623
 5369SOL    HW227744   1.334   2.029   5.684 -0.3086  0.4816 -0.3405
 5370SOL     OW27745   4.715   0.084   5.004 -0.3317  0.8895  1.3140
 5370SOL    HW127746   0.052   0.129   4.970 -0.3975  0.6384  0.8379
 5370SOL    HW227747   0.010   0.031   5.075 -1.0237  0.5766  1.4232
 5371SOL     OW27748   0.897   0.164  14.099 -0.4490  0.2780 -0.2831
 5371SOL    HW127749   0.855   0.187  14.016  0.1189  1.1256 -0.3406
 5371SOL    HW227750   0.908   0.069  14.102 -3.2699 -0.0222 -0.0565
 5372SOL     OW27751   4.704   1.430   2.446 -0.7130 -0.3792  1.2373
 5372SOL    HW127752   4.649   1.364   2.490  0.6099 -1.7941  0.7723
 5372SOL    HW227753   4.706   1.499   2.512  0.2241  0.5152  0.2707
 5373SOL     OW27754   0.906   3.651   2.929 -0.1824  0.0805  0.5733
 5373SOL    HW127755   0.910   3.719   2.997 -1.9145  0.6114  0.1431
 5373SOL    HW227756   0.943   3.696   2.852 -1.1667  1.6424  1.0087
 5374SOL     OW27757   1.003   3.862  10.533  0.5229  0.5204 -0.2964
 5374SOL    HW127758   0.986   3.885  10.625 -0.8752 -0.4784 -0.2991
 5374SOL    HW227759   1.094   3.833  10.542  0.6061  1.0906  0.7560
 5375SOL     OW27760   0.990   0.024   6.651  0.1265  0.3363 -0.7424
 5375SOL    HW127761   0.919   0.072   6.693 -2.0320 -1.7554 -1.9884
 5375SOL    HW227762   1.072   0.063   6.682  0.2276  1.0997 -1.9749
 5376SOL     OW27763   0.523   0.944  13.147 -0.4392 -0.0455  0.1006
 5376SOL    HW127764   0.514   0.849  13.152 -0.5504 -0.0654 -0.5621
 5376SOL    HW227765   0.473   0.966  13.069 -0.1421 -0.6006 -0.2508
 5377SOL     OW27766   0.216   4.503   9.395  0.2156 -0.3907  0.4743
 5377SOL    HW127767   0.254   4.504   9.307  0.1558 -3.1077  0.4300
 5377SOL    HW227768   0.298   4.489   9.443  0.7680  0.8864 -0.0719
 5378SOL     OW27769   2.959   4.645   6.560 -0.2320  0.3351  0.5665
 5378SOL    HW127770   2.898   4.608   6.496 -1.8234  1.2878  1.5191
 5378SOL    HW227771   2.940   4.738   6.567 -0.0980  0.3610  0.5694
 5379SOL     OW27772   3.463   4.274   7.469  0.2405  0.4443  0.5737
 5379SOL    HW127773   3.490   4.315   7.551  1.4376 -0.0703  0.4330
 5379SOL    HW227774   3.424   4.355   7.437 -1.8288 -1.0433 -0.7094
 5380SOL     OW27775   2.279   4.506  12.716  1.1629 -0.1264  0.5140
 5380SOL    HW127776   2.242   4.521  12.629  0.5202 -1.0817  0.6115
 5380SOL    HW227777   2.235   4.576  12.762 -0.5670 -0.9179  0.0629
 5381SOL     OW27778   1.011   2.486   2.317  0.2658  0.1008 -0.3395
 5381SOL    HW127779   0.954   2.513   2.389  0.0686 -0.9988 -0.0906
 5381SOL    HW227780   1.042   2.573   2.291  0.0956  0.5248  0.8408
 5382SOL     OW27781   4.388   0.176   3.856  0.7559  0.4838  0.1919
 5382SOL    HW127782   4.382   0.260   3.902  1.4563  0.5402  0.1821
 5382SOL    HW227783   4.303   0.142   3.885  0.1916  1.5263 -0.2832
 5383SOL     OW27784   3.953   4.572   4.454 -0.3378  0.3317 -0.1929
 5383SOL    HW127785   3.949   4.531   4.540  0.8935  1.1520  0.2598
 5383SOL    HW227786   3.869   4.619   4.459 -0.3690  0.3729 -1.1776
 5384SOL     OW27787   1.096   3.578   0.440  0.3658  0.2746  0.7354
 5384SOL    HW127788   1.096   3.541   0.528  0.0231 -0.4451  0.4358
 5384SOL    HW227789   1.069   3.668   0.457  0.9500  0.2955  1.5485
 5385SOL     OW27790   2.779   1.257   7.832 -0.4555  0.0303  0.5926
 5385SOL    HW127791   2.738   1.325   7.885 -0.9089 -2.0692  2.9229
 5385SOL    HW227792   2.698   1.212   7.807  0.6759 -1.2510 -0.7456
 5386SOL     OW27793   4.358   3.977   6.370 -0.1320 -0.0782  0.3207
 5386SOL    HW127794   4.285   4.026   6.333 -0.5075  0.8228  2.2803
 5386SOL    HW227795   4.309   3.898   6.393 -1.4033  0.5824 -0.0968
 5387SOL     OW27796   2.155   0.860   1.946 -0.2527 -0.3060  0.4512
 5387SOL    HW127797   2.237   0.891   1.908 -0.4897 -1.1265 -0.7431
 5387SOL    HW227798   2.170   0.876   2.039  0.7950 -2.7539  0.7005
 5388SOL     OW27799   0.227   3.889   1.127 -0.8563  0.6046 -0.0342
 5388SOL    HW127800   0.160   3.831   1.163  2.0564 -2.2509  0.7379
 5388SOL    HW227801   0.224   3.861   1.036  1.5136 -1.3289  0.4759
 5389SOL     OW27802   0.744   0.403   8.614 -0.3416 -0.1362  0.1062
 5389SOL    HW127803   0.704   0.486   8.586 -0.8808  0.3456  2.2837
 5389SOL    HW227804   0.686   0.377   8.686 -0.0307  1.2487  0.8571
 5390SOL     OW27805   3.327   0.500   3.763  0.0137 -0.5779 -0.6272
 5390SOL    HW127806   3.417   0.471   3.746  0.3519 -0.9775  1.8061
 5390SOL    HW227807   3.279   0.420   3.782  2.6746 -1.9647  0.2551
 5391SOL     OW27808   2.310   0.594   4.239  0.5069  0.5305 -0.1433
 5391SOL    HW127809   2.402   0.617   4.252  0.6506 -0.2965  0.3081
 5391SOL    HW227810   2.321   0.527   4.171 -2.2119 -1.7677  1.6610
 5392SOL     OW27811   3.008   3.187   8.147 -0.1843  0.1794  0.0951
 5392SOL    HW127812   3.047   3.208   8.062  0.8613  0.5598  0.6646
 5392SOL    HW227813   2.951   3.262   8.164 -0.1825  0.4131 -0.9483
 5393SOL     OW27814   0.056   0.440   5.538 -0.0952  0.0552  0.2032
 5393SOL    HW127815   0.124   0.507   5.549 -0.4587  0.4029  0.3372
 5393SOL    HW227816   0.093   0.411   5.454  0.4995  1.8304 -0.1519
 5394SOL     OW27817   1.247   3.105   7.610  0.2691  0.3667  0.2129
 5394SOL    HW127818   1.301   3.032   7.642  2.5351  2.4918  1.2482
 5394SOL    HW227819   1.301   3.184   7.616 -1.5702  1.5480  1.1861
 5395SOL     OW27820   0.679   2.092   9.168  0.5486 -0.3903  0.2965
 5395SOL    HW127821   0.593   2.067   9.201 -0.2147 -1.7398 -2.7026
 5395SOL    HW227822   0.696   2.173   9.216 -1.2627 -0.8264  1.6780
 5396SOL     OW27823   0.017   3.326  11.122 -0.6245  0.2357 -0.4924
 5396SOL    HW127824   4.662   3.311  11.127 -0.8824  2.3711  0.7000
 5396SOL    HW227825   0.022   3.295  11.031 -3.5854  0.4943 -0.7401
 5397SOL     OW27826   3.963   1.202   2.494 -0.0055 -0.1166 -0.0106
 5397SOL    HW127827   4.012   1.121   2.501 -2.1042 -1.4667 -0.8260
 5397SOL    HW227828   3.882   1.160   2.521 -0.4167  0.5689 -0.1713
 5398SOL     OW27829   4.355   0.224  12.802  0.1634  0.4135 -0.7732
 5398SOL    HW127830   4.273   0.211  12.850 -0.5166  3.9254 -0.9904
 5398SOL    HW227831   4.413   0.223  12.878 -1.0457  0.4718  0.1509
 5399SOL     OW27832   3.294   0.236   4.079 -0.3264 -0.3055 -0.3413
 5399SOL    HW127833   3.314   0.317   4.126  0.3157  0.3042 -1.6807
 5399SOL    HW227834   3.257   0.181   4.148  0.6140 -1.5053 -0.7862
 5400SOL     OW27835   1.934   3.427   7.075  0.8806 -0.1004  0.2022
 5400SOL    HW127836   1.893   3.416   7.161 -2.0870  1.6892 -0.9800
 5400SOL    HW227837   2.006   3.489   7.084  0.7036  0.2581 -0.9897
 5401SOL     OW27838   2.556   4.074   3.757 -0.0616 -0.2544 -0.5682
 5401SOL    HW127839   2.526   4.006   3.697 -0.1947  0.7322 -1.6197
 5401SOL    HW227840   2.594   4.143   3.704  0.0406  1.2082  1.4230
 5402SOL     OW27841   2.539   2.219  16.802  0.0311  0.2076  0.2505
 5402SOL    HW127842   2.592   2.291  16.837  1.0387 -0.9492  1.0997
 5402SOL    HW227843   2.461   2.206  16.856  0.5569 -0.4682  0.8460
 5403SOL     OW27844   2.821   3.616  13.520 -0.3111 -0.2271 -0.3110
 5403SOL    HW127845   2.765   3.588  13.448  1.4077 -3.9378 -0.2026
 5403SOL    HW227846   2.845   3.537  13.569  2.0746  0.1268 -0.9116
 5404SOL     OW27847   1.352   4.063   2.497 -0.1399  0.1092 -0.4238
 5404SOL    HW127848   1.297   4.053   2.419 -1.2847  1.6628  0.1722
 5404SOL    HW227849   1.441   4.043   2.470 -0.4466  0.2786 -1.5349
 5405SOL     OW27850   2.786   1.310   6.532  0.3945  0.5413  0.2050
 5405SOL    HW127851   2.814   1.341   6.618 -2.1366 -0.5801  1.4102
 5405SOL    HW227852   2.847   1.358   6.476 -0.8038  0.4543 -1.1647
 5406SOL     OW27853   3.642   1.905  17.049  0.4034  0.0056 -0.2022
 5406SOL    HW127854   3.691   1.937  17.124  0.3266 -0.0173 -0.1434
 5406SOL    HW227855   3.563   1.955  17.068 -0.4527 -1.5679  0.3860
 5407SOL     OW27856   1.812   2.615   9.055 -0.2188 -0.6944 -0.1064
 5407SOL    HW127857   1.796   2.674   9.129 -0.6488  0.9097 -1.4798
 5407SOL    HW227858   1.899   2.645   9.031 -0.5989 -0.7986 -1.5828
 5408SOL     OW27859   2.251   3.472   7.633  0.1490 -0.2234 -0.2870
 5408SOL    HW127860   2.247   3.426   7.549  0.3016 -0.3423 -0.2300
 5408SOL    HW227861   2.165   3.447   7.666 -0.3909 -0.0210 -1.5699
 5409SOL     OW27862   2.316   3.630   9.520  0.0383  0.0600  0.7013
 5409SOL    HW127863   2.276   3.543   9.522  0.5807 -0.1558  1.8962
 5409SOL    HW227864   2.382   3.614   9.587  2.5656  2.2799 -1.2568
 5410SOL     OW27865   1.066   0.447   5.502 -0.3277  0.5821 -0.2315
 5410SOL    HW127866   1.057   0.538   5.474  1.1666  0.8278  0.1085
 5410SOL    HW227867   1.146   0.418   5.458  1.2768  2.4163  1.4384
 5411SOL     OW27868   4.710   2.317   9.084  0.2851 -0.7961  0.5474
 5411SOL    HW127869   4.644   2.325   9.154 -1.1734  2.2001 -1.1881
 5411SOL    HW227870   4.691   2.395   9.032 -1.2561 -0.2973  1.8303
 5412SOL     OW27871   4.467   1.381   1.463 -0.6175 -0.1973  0.1073
 5412SOL    HW127872   4.552   1.339   1.452 -1.0814 -1.1724  0.1796
 5412SOL    HW227873   4.492   1.455   1.408 -1.2590  1.1692  1.6461
 5413SOL     OW27874   4.094   1.608   8.425  0.8906  0.6709  0.3138
 5413SOL    HW127875   4.161   1.547   8.394  1.3633  1.6230 -0.5440
 5413SOL    HW227876   4.072   1.650   8.342 -0.6340  0.3847  0.5715
 5414SOL     OW27877   0.547   1.250   2.008 -0.2044 -0.3088  0.2023
 5414SOL    HW127878   0.575   1.291   1.926 -1.2005 -0.0756 -0.0173
 5414SOL    HW227879   0.542   1.158   1.983  0.8065 -0.3062 -0.0029
 5415SOL     OW27880   2.681   1.093   2.047 -0.2194 -0.0903  0.7699
 5415SOL    HW127881   2.755   1.053   2.091  1.2389  3.2811  1.4194
 5415SOL    HW227882   2.715   1.182   2.040 -0.1799 -0.2972 -1.7530
 5416SOL     OW27883   4.428   1.483  11.559  0.4468  0.1199  0.5516
 5416SOL    HW127884   4.486   1.437  11.619 -1.3260  1.6590  3.4168
 5416SOL    HW227885   4.490   1.508  11.490 -1.2930  0.0453 -1.0146
 5417SOL     OW27886   1.340   3.101   1.489 -0.3418 -0.7496 -0.1353
 5417SOL    HW127887   1.309   3.016   1.456  1.5657 -1.0221 -1.2114
 5417SOL    HW227888   1.417   3.125   1.438  0.8562 -1.6803  1.2190
 5418SOL     OW27889   0.545   0.179  12.567  0.0053 -0.1821 -0.0325
 5418SOL    HW127890   0.450   0.177  12.564 -0.0484  1.3253  0.6456
 5418SOL    HW227891   0.559   0.178  12.662  1.2776 -0.6245 -0.2141
 5419SOL     OW27892   2.360   2.692   4.826 -0.2491  0.1688  0.4569
 5419SOL    HW127893   2.330   2.675   4.916 -1.6603  0.5549  0.0566
 5419SOL    HW227894   2.426   2.758   4.846  1.4740 -0.5147 -3.0178
 5420SOL     OW27895   2.229   1.168   5.993 -0.2328 -0.0816 -0.3876
 5420SOL    HW127896   2.219   1.074   6.002  0.2813 -0.0896  0.0602
 5420SOL    HW227897   2.152   1.187   5.938 -0.9155 -2.1793 -0.1404
 5421SOL     OW27898   4.651   1.387   1.876 -0.1580  0.0537 -0.0757
 5421SOL    HW127899   4.707   1.416   1.948 -0.7390 -1.4398  0.9816
 5421SOL    HW227900   4.623   1.475   1.850 -1.5119 -0.6861 -1.1516
 5422SOL     OW27901   3.995   2.144   7.935  0.6859 -0.1275  0.1349
 5422SOL    HW127902   3.988   2.226   7.885  1.2292  0.2396  0.6568
 5422SOL    HW227903   4.088   2.134   7.915  0.3421 -2.2733 -0.3039
 5423SOL     OW27904   2.539   2.399   4.495  0.1738  0.0893 -0.6728
 5423SOL    HW127905   2.476   2.451   4.545  0.8181  0.1880  0.0436
 5423SOL    HW227906   2.538   2.429   4.404  0.3071  3.4025  0.3914
 5424SOL     OW27907   0.016   3.992  11.815 -0.2169 -0.5459  0.1392
 5424SOL    HW127908   0.102   4.016  11.849 -0.6033 -3.5385  3.1564
 5424SOL    HW227909   0.022   4.018  11.723  1.7281 -1.0454  0.1215
 5425SOL     OW27910   2.009   1.186   8.900 -0.7556 -0.6173 -0.0739
 5425SOL    HW127911   2.102   1.161   8.894 -0.8119 -0.8999  0.2291
 5425SOL    HW227912   1.972   1.153   8.819 -0.8552 -0.1676 -0.2094
 5426SOL     OW27913   2.723   3.335  16.962 -0.1374  0.3115 -0.0997
 5426SOL    HW127914   2.650   3.335  17.023 -2.1939 -1.6870 -2.5897
 5426SOL    HW227915   2.684   3.399  16.903 -1.4612 -1.1695 -0.8226
 5427SOL     OW27916   0.660   2.912  11.248  0.1265 -0.5750  0.1560
 5427SOL    HW127917   0.745   2.875  11.270  0.2430  0.5883  1.6732
 5427SOL    HW227918   0.677   2.959  11.167 -4.5886  0.6222 -0.1778
 5428SOL     OW27919   2.070   4.299   3.771 -1.0499  0.1294 -0.2127
 5428SOL    HW127920   2.165   4.297   3.777 -1.0921 -2.4195 -0.4325
 5428SOL    HW227921   2.052   4.388   3.801  1.6241  1.4362 -2.5854
 5429SOL     OW27922   3.929   2.452   5.968  0.1173 -0.0814  0.3314
 5429SOL    HW127923   3.910   2.361   5.946 -0.7500 -0.2469  1.7753
 5429SOL    HW227924   4.017   2.462   5.930  0.5828  0.7764  1.6259
 5430SOL     OW27925   4.513   3.733   1.883 -0.1234 -0.7236  0.4226
 5430SOL    HW127926   4.482   3.645   1.905 -2.4468 -0.0801 -0.2070
 5430SOL    HW227927   4.464   3.737   1.801  0.3112  0.5535  0.2375
 5431SOL     OW27928   2.458   1.706   5.854  0.0351  0.2471 -0.4978
 5431SOL    HW127929   2.413   1.783   5.890 -0.3446 -0.2240  0.0273
 5431SOL    HW227930   2.402   1.697   5.777 -0.3152  0.1208 -0.2302
 5432SOL     OW27931   3.522   2.635   5.869  0.1557  0.3272  0.1548
 5432SOL    HW127932   3.513   2.730   5.879  0.5550  0.8620 -4.4458
 5432SOL    HW227933   3.509   2.606   5.959 -0.0089 -1.0120 -0.3094
 5433SOL     OW27934   0.734   1.258   4.377  0.4957  0.5158  0.6032
 5433SOL    HW127935   0.698   1.203   4.308  3.6829 -1.2862  0.3463
 5433SOL    HW227936   0.781   1.192   4.428 -2.9508 -1.3832  1.3325
 5434SOL     OW27937   1.124   0.968   5.488  0.3084 -0.1401 -0.4120
 5434SOL    HW127938   1.053   1.032   5.494  0.5455  0.1003 -0.2136
 5434SOL    HW227939   1.133   0.961   5.393  1.3687  0.8903 -0.3838
 5435SOL     OW27940   1.639   3.197   4.995  0.3072 -0.0542 -0.1435
 5435SOL    HW127941   1.632   3.293   4.994 -0.5162 -0.1261 -1.1045
 5435SOL    HW227942   1.560   3.173   4.947 -1.0812  2.0959  1.0495
 5436SOL     OW27943   4.065   0.770  15.803 -0.1070 -0.7919  0.2480
 5436SOL    HW127944   3.981   0.793  15.764 -0.5907  1.9268  2.8361
 5436SOL    HW227945   4.068   0.675  15.797  1.0017 -0.8039  0.9050
 5437SOL     OW27946   1.273   3.424  16.381  0.0065  0.6450  0.4746
 5437SOL    HW127947   1.355   3.422  16.332 -1.2754 -0.2411 -1.6438
 5437SOL    HW227948   1.292   3.406  16.473  0.5896 -0.8776  0.0540
 5438SOL     OW27949   0.127   3.887   0.650  0.2513 -0.3229 -0.1541
 5438SOL    HW127950   0.143   3.978   0.674 -0.8364 -0.3610  0.6906
 5438SOL    HW227951   0.175   3.886   0.567  0.9270 -0.3237  0.2308
 5439SOL     OW27952   1.978   2.083   2.770  0.2165 -0.5508  0.2830
 5439SOL    HW127953   2.007   2.091   2.679 -1.3297 -0.2369 -0.1711
 5439SOL    HW227954   2.043   2.135   2.818 -0.1529 -0.5471  0.7798
 5440SOL     OW27955   4.535   3.002   3.334  0.5676  0.1928  0.5894
 5440SOL    HW127956   4.595   2.931   3.310  0.8651 -0.2469  2.6137
 5440SOL    HW227957   4.593   3.078   3.327 -0.1474  0.5716 -1.1513
 5441SOL     OW27958   4.286   3.752   5.041  0.3368 -0.7001 -0.4989
 5441SOL    HW127959   4.268   3.841   5.071  0.2533  0.1774 -3.1539
 5441SOL    HW227960   4.219   3.701   5.088 -1.0369  1.4212 -0.1560
 5442SOL     OW27961   1.860   2.154   1.842 -0.3728  0.7076  0.3433
 5442SOL    HW127962   1.778   2.203   1.847 -0.0109  1.4776 -1.2550
 5442SOL    HW227963   1.912   2.215   1.790  0.8309  0.5087  1.3163
 5443SOL     OW27964   3.111   1.882   7.668 -0.7684  0.0533  0.0101
 5443SOL    HW127965   3.103   1.801   7.720  0.6059  1.3338  2.1970
 5443SOL    HW227966   3.021   1.911   7.681 -1.1252 -0.2620 -1.8041
 5444SOL     OW27967   0.749   4.245  12.412  0.8553 -0.1490  0.0235
 5444SOL    HW127968   0.729   4.219  12.322 -3.0400  0.1152  0.7972
 5444SOL    HW227969   0.839   4.214  12.412  1.4372  1.5287  1.9895
 5445SOL     OW27970   3.756   1.078   3.262  0.5553  0.1949 -0.3351
 5445SOL    HW127971   3.783   1.140   3.329  0.5116  0.4879 -0.5914
 5445SOL    HW227972   3.709   1.014   3.316  0.2224  1.5880  1.0273
 5446SOL     OW27973   2.830   3.664   6.889  0.1548 -0.1376  0.3463
 5446SOL    HW127974   2.882   3.737   6.924 -2.1481  1.3050  0.7419
 5446SOL    HW227975   2.864   3.593   6.944 -2.2255 -1.9918 -0.5580
 5447SOL     OW27976   1.922   1.851  11.713  0.1169  0.0851  0.5101
 5447SOL    HW127977   1.938   1.919  11.647  1.9123 -0.7046  0.1458
 5447SOL    HW227978   1.835   1.877  11.744 -0.2168  0.3221 -0.6275
 5448SOL     OW27979   2.839   2.231  11.592 -0.3207  0.2771  0.1163
 5448SOL    HW127980   2.866   2.266  11.677  1.5286  0.9075 -0.7285
 5448SOL    HW227981   2.864   2.301  11.532  0.6999 -0.1091  0.0887
 5449SOL     OW27982   1.483   1.238   9.885  0.0027 -0.1668  0.1789
 5449SOL    HW127983   1.571   1.224   9.920 -0.0975 -2.6976 -0.5572
 5449SOL    HW227984   1.494   1.293   9.808 -0.4313 -0.1933  0.0947
 5450SOL     OW27985   0.746   1.470   8.439  0.0552  0.1087  0.5674
 5450SOL    HW127986   0.804   1.524   8.493  0.3589  0.7408 -0.3870
 5450SOL    HW227987   0.815   1.427   8.389 -1.1779 -0.7994 -0.3222
 5451SOL     OW27988   0.503   3.411  16.511  0.4888 -0.4043  0.3561
 5451SOL    HW127989   0.474   3.327  16.476 -1.5537  0.6461 -0.5103
 5451SOL    HW227990   0.423   3.440  16.554  1.2493  2.5543 -0.2458
 5452SOL     OW27991   3.302   3.218   9.100  0.2844  0.3876  0.2724
 5452SOL    HW127992   3.255   3.247   9.022  1.1263  0.7197 -0.1223
 5452SOL    HW227993   3.354   3.148   9.061 -1.2571 -0.5718 -0.0179
 5453SOL     OW27994   3.081   4.549  17.538 -0.2242 -1.0880  0.3313
 5453SOL    HW127995   3.140   4.508  17.474  1.5958 -0.7685  1.7856
 5453SOL    HW227996   3.039   4.470  17.572 -0.4514  0.1367  2.8854
 5454SOL     OW27997   2.646   1.493   2.958  0.0382  0.0879 -0.6605
 5454SOL    HW127998   2.656   1.586   2.940 -0.8499  0.5293  1.1565
 5454SOL    HW227999   2.649   1.462   2.868  0.4391  2.1056 -1.3476
 5455SOL     OW28000   3.658   1.754  14.070 -0.8136  0.1899 -0.7230
 5455SOL    HW128001   3.612   1.832  14.099 -1.1445  0.0537 -0.8856
 5455SOL    HW228002   3.645   1.769  13.977  0.7424 -1.0563 -1.1390
 5456SOL     OW28003   0.210   2.099   7.078  0.4586 -0.0401  0.1987
 5456SOL    HW128004   0.153   2.023   7.066 -4.2608  3.5496 -0.5308
 5456SOL    HW228005   0.170   2.158   7.014 -0.8275 -0.9016  0.1975
 5457SOL     OW28006   1.353   1.765   6.537 -1.0181  0.0075 -0.3676
 5457SOL    HW128007   1.300   1.687   6.554 -2.6081  1.4025  1.0159
 5457SOL    HW228008   1.423   1.727   6.484 -0.8182 -0.2847  0.1034
 5458SOL     OW28009   2.155   3.039  17.224  0.0188  0.5284 -0.3211
 5458SOL    HW128010   2.059   3.038  17.229  0.0001  1.2011 -0.5673
 5458SOL    HW228011   2.167   2.949  17.255  0.2699 -0.4180 -3.1578
 5459SOL     OW28012   1.673   4.612   7.785 -0.5717 -0.0822  0.6718
 5459SOL    HW128013   1.766   4.592   7.772 -0.6690 -0.6647  0.8734
 5459SOL    HW228014   1.653   4.668   7.710  1.0907 -0.2598  0.0853
 5460SOL     OW28015   0.547   1.753  14.922 -0.1314 -0.6962  0.6161
 5460SOL    HW128016   0.464   1.798  14.911 -0.0505  0.4600  4.7542
 5460SOL    HW228017   0.584   1.754  14.833  0.7904  0.6798  1.0084
 5461SOL     OW28018   1.882   2.264   7.509  0.2403  0.4034 -0.1991
 5461SOL    HW128019   1.814   2.198   7.497 -0.8802  1.3951  0.7123
 5461SOL    HW228020   1.825   2.339   7.529 -2.1987 -1.6095  0.4113
 5462SOL     OW28021   2.644   1.379   2.717 -0.5429 -0.6935  0.6459
 5462SOL    HW128022   2.642   1.438   2.641  1.8791  1.4932  2.3119
 5462SOL    HW228023   2.560   1.336   2.703 -0.9550  0.9014 -1.9658
 5463SOL     OW28024   0.180   2.187   5.632 -0.0399 -0.0296 -0.4558
 5463SOL    HW128025   0.098   2.140   5.652  0.3531  0.1292  1.5485
 5463SOL    HW228026   0.204   2.136   5.555 -0.2211 -0.0477 -0.5000
 5464SOL     OW28027   0.136   1.641   9.708  0.2620  1.2636  0.0146
 5464SOL    HW128028   0.186   1.602   9.636  1.7703  1.1271  1.1460
 5464SOL    HW228029   0.083   1.697   9.652  1.3557 -0.3556 -2.6241
 5465SOL     OW28030   1.368   2.453   0.256  0.8018  0.1725 -0.1105
 5465SOL    HW128031   1.302   2.497   0.203  1.2775  1.2197  0.1629
 5465SOL    HW228032   1.419   2.400   0.195 -0.7794 -0.2436 -1.0455
 5466SOL     OW28033   2.832   2.589   9.183 -0.2682 -0.1353 -1.0191
 5466SOL    HW128034   2.891   2.622   9.115  0.7606 -0.8805 -0.4957
 5466SOL    HW228035   2.862   2.639   9.259 -0.2319 -1.0138 -0.4486
 5467SOL     OW28036   3.928   4.702   5.876 -0.1371  0.0714 -0.5197
 5467SOL    HW128037   3.948   4.637   5.943  0.5386  0.5934 -0.2156
 5467SOL    HW228038   3.877   0.024   5.929  1.3454  0.1376  0.8366
 5468SOL     OW28039   0.591   0.358   3.343 -0.0535 -0.0378 -0.2567
 5468SOL    HW128040   0.577   0.328   3.432  3.2940 -0.9886 -0.0371
 5468SOL    HW228041   0.543   0.301   3.284  1.0572 -0.2327 -0.9835
 5469SOL     OW28042   2.048   0.299   7.383  0.2246 -0.0801 -0.8620
 5469SOL    HW128043   1.995   0.227   7.350  1.2390 -1.4561  0.5348
 5469SOL    HW228044   2.133   0.275   7.345 -0.1720 -2.5883 -0.1815
 5470SOL     OW28045   0.410   4.017   7.278 -0.0355  0.3682  0.4153
 5470SOL    HW128046   0.366   3.967   7.209  1.8999 -0.4117 -0.2400
 5470SOL    HW228047   0.428   4.095   7.226  0.8712  0.0595  0.2670
 5471SOL     OW28048   0.206   4.692   8.996  0.1578  0.2619 -0.6579
 5471SOL    HW128049   0.165   4.675   8.911 -0.8221  1.2472 -0.3845
 5471SOL    HW228050   0.244   4.606   9.012  1.3202  1.0022  0.6374
 5472SOL     OW28051   1.484   2.473   9.877 -0.1579  0.3308  0.0057
 5472SOL    HW128052   1.394   2.476   9.844  0.2534 -2.0006 -1.3172
 5472SOL    HW228053   1.466   2.429   9.960  0.9057 -0.3054 -0.1024
 5473SOL     OW28054   4.627   1.410   3.706 -0.1945  0.9483  0.2023
 5473SOL    HW128055   4.586   1.479   3.757 -1.0706  0.7006 -0.1557
 5473SOL    HW228056   4.651   1.347   3.775 -1.6117  0.6443  0.4201
 5474SOL     OW28057   0.678   2.334  14.619  0.2614 -0.2691  0.1739
 5474SOL    HW128058   0.744   2.273  14.587 -0.6053 -1.7866  1.3184
 5474SOL    HW228059   0.726   2.417  14.617  1.5613 -0.9994  1.2046
 5475SOL     OW28060   2.021   4.424  16.603  0.3066  0.0153  0.2051
 5475SOL    HW128061   1.972   4.348  16.632 -0.4455 -0.1030 -1.3448
 5475SOL    HW228062   1.970   4.496  16.641 -0.2638 -0.3190  0.0751
 5476SOL     OW28063   4.555   2.704   9.264 -0.0304 -0.5752  0.8182
 5476SOL    HW128064   4.462   2.716   9.280  0.1378  0.3031  1.0877
 5476SOL    HW228065   4.565   2.640   9.335 -1.9351 -0.6453  1.0169
 5477SOL     OW28066   1.023   2.764   9.465 -0.0408  0.3873 -0.3464
 5477SOL    HW128067   1.097   2.803   9.419  0.7950 -1.8761 -0.8999
 5477SOL    HW228068   0.990   2.705   9.397  1.3984  0.2499 -0.9344
 5478SOL     OW28069   3.740   3.303  14.591 -1.1044  0.2986  0.0061
 5478SOL    HW128070   3.774   3.344  14.511  0.4740  1.6970  1.3937
 5478SOL    HW228071   3.768   3.364  14.658  2.1388  0.2406 -1.3169
 5479SOL     OW28072   4.121   3.982   8.033 -0.0043  0.4551  0.2799
 5479SOL    HW128073   4.147   4.008   7.944  1.8222 -0.3005  0.5998
 5479SOL    HW228074   4.190   4.014   8.090 -0.5166  1.3360  0.4095
 5480SOL     OW28075   0.530   0.098   3.964  0.1035  0.5114 -0.0219
 5480SOL    HW128076   0.465   0.058   4.021  0.1649  3.4181  2.0759
 5480SOL    HW228077   0.478   0.111   3.885 -0.3185  2.5619  0.5963
 5481SOL     OW28078   1.523   3.383   5.426  0.3985 -0.2629 -0.5186
 5481SOL    HW128079   1.554   3.294   5.406  1.2249 -0.6572  2.4780
 5481SOL    HW228080   1.503   3.415   5.338 -0.3703  1.0424  0.1324
 5482SOL     OW28081   4.312   2.371   6.035 -0.2975  0.2930  0.0109
 5482SOL    HW128082   4.262   2.433   5.983 -1.3984 -1.5693 -1.1406
 5482SOL    HW228083   4.392   2.416   6.062 -0.6044  1.9650 -1.9478
 5483SOL     OW28084   2.056   3.226  16.387 -0.6359 -0.2260 -0.1192
 5483SOL    HW128085   2.026   3.226  16.296 -1.0716  2.8855  0.0281
 5483SOL    HW228086   2.021   3.310  16.416  1.6322  0.5352  0.3689
 5484SOL     OW28087   1.411   2.682   5.519  0.0424  0.3343 -0.2165
 5484SOL    HW128088   1.407   2.588   5.498 -0.4119  0.7255 -1.9266
 5484SOL    HW228089   1.422   2.722   5.433  0.9361  0.3673 -0.0953
 5485SOL     OW28090   1.295   4.260   7.602  0.2087 -0.4636  0.2960
 5485SOL    HW128091   1.290   4.206   7.681 -2.6967 -0.5981  0.0264
 5485SOL    HW228092   1.336   4.340   7.633  0.6644 -0.8955  0.8126
 5486SOL     OW28093   1.450   0.446   1.025  0.0451  0.2295 -0.0857
 5486SOL    HW128094   1.374   0.389   1.038  0.8464 -1.2894 -2.0247
 5486SOL    HW228095   1.444   0.520   1.086 -0.1357 -1.7461  2.2982
 5487SOL     OW28096   0.411   2.181   6.552 -0.3039 -0.2152 -0.6653
 5487SOL    HW128097   0.504   2.185   6.576 -1.0904 -2.1012  2.7513
 5487SOL    HW228098   0.422   2.178   6.457  0.0203 -0.4389 -0.6236
 5488SOL     OW28099   1.662   2.852  17.113 -0.3054 -0.8893 -0.0602
 5488SOL    HW128100   1.569   2.870  17.104  0.0179  0.2774 -1.1363
 5488SOL    HW228101   1.702   2.931  17.076  0.6891 -0.0102  2.9049
 5489SOL     OW28102   3.437   3.245   6.328 -0.1297 -0.5442 -0.4060
 5489SOL    HW128103   3.376   3.291   6.386 -1.9709 -2.5403 -0.7932
 5489SOL    HW228104   3.511   3.221   6.384  0.5930  1.6508 -0.3905
 5490SOL     OW28105   2.743   2.501   5.852  0.1409  0.5888  0.3434
 5490SOL    HW128106   2.693   2.440   5.797 -0.8181  0.8894  0.8769
 5490SOL    HW228107   2.669   2.557   5.876  0.8948  1.4334  0.7042
 5491SOL     OW28108   1.648   0.734   1.791 -0.7962 -0.1058  0.5290
 5491SOL    HW128109   1.738   0.724   1.759 -1.4381 -1.1900 -0.9686
 5491SOL    HW228110   1.677   0.770   1.875 -0.7799 -2.1314  1.3833
 5492SOL     OW28111   0.445   4.041   1.212 -0.1718 -0.1946  0.3672
 5492SOL    HW128112   0.374   3.984   1.183  1.0783  0.1159 -3.2785
 5492SOL    HW228113   0.481   4.072   1.130  0.6290 -1.1449  0.3624
 5493SOL     OW28114   1.816   3.373  16.801 -0.4673 -0.2618  0.4845
 5493SOL    HW128115   1.759   3.333  16.736 -0.1875 -1.0310  0.7167
 5493SOL    HW228116   1.756   3.392  16.873  1.2826 -1.3504  2.2071
 5494SOL     OW28117   0.813   2.545   4.580 -0.2075 -0.3532 -0.3459
 5494SOL    HW128118   0.721   2.528   4.558 -0.5417  1.2022 -0.1838
 5494SOL    HW228119   0.858   2.553   4.496  2.2269 -1.8567  0.8150
 5495SOL     OW28120   1.928   4.361   0.434 -0.4439  0.0605  0.0742
 5495SOL    HW128121   2.007   4.344   0.382  1.6090  0.5870  3.0354
 5495SOL    HW228122   1.948   4.314   0.515 -0.6784 -1.0145 -0.4925
 5496SOL     OW28123   4.497   3.364  11.186  0.2124 -0.0768  0.6674
 5496SOL    HW128124   4.441   3.290  11.207  0.5933 -1.0587 -1.7410
 5496SOL    HW228125   4.486   3.420  11.262 -1.6705  1.3415 -0.6710
 5497SOL     OW28126   3.655   4.413   2.721 -0.0865 -0.2827 -0.3810
 5497SOL    HW128127   3.724   4.404   2.656  0.0188 -2.5649  0.0233
 5497SOL    HW228128   3.578   4.417   2.665 -1.0118  0.2543  0.9404
 5498SOL     OW28129   2.013   2.009   3.732  0.1285  0.3049 -0.0924
 5498SOL    HW128130   2.013   2.022   3.638 -2.4988  5.1238  0.6019
 5498SOL    HW228131   1.928   2.049   3.751 -0.2694 -0.3478 -0.4771
 5499SOL     OW28132   4.348   3.403   6.818  0.2866  0.7385 -0.0169
 5499SOL    HW128133   4.297   3.415   6.898 -3.2185  1.8844 -2.4509
 5499SOL    HW228134   4.284   3.372   6.755  3.0502 -0.3342 -2.3183
 5500SOL     OW28135   4.554   2.069  11.206 -0.0940  0.1691 -0.2689
 5500SOL    HW128136   4.564   2.112  11.121 -0.7637 -0.3371 -0.6093
 5500SOL    HW228137   4.628   2.097  11.260 -0.9938  2.2485 -0.0751
 5501SOL     OW28138   0.546   4.531   8.604 -0.5556  0.5062 -0.1324
 5501SOL    HW128139   0.483   4.577   8.548 -2.5019 -1.6751  0.2909
 5501SOL    HW228140   0.587   4.607   8.646  0.9129 -0.8405  0.8753
 5502SOL     OW28141   3.929   3.118  17.574 -0.0194  0.1332 -0.1805
 5502SOL    HW128142   3.926   3.030  17.538 -2.6559  0.7551 -1.4450
 5502SOL    HW228143   4.014   3.118  17.620 -0.6163 -1.6054  0.8900
 5503SOL     OW28144   1.950   0.634   5.691 -0.1926 -0.4186  0.2494
 5503SOL    HW128145   1.940   0.545   5.658  0.7033 -0.7536  0.8591
 5503SOL    HW228146   1.860   0.656   5.718 -0.8570 -1.9300 -0.7587
 5504SOL     OW28147   1.820   4.164   5.092  0.1354 -0.2877  0.4245
 5504SOL    HW128148   1.848   4.207   5.012  0.3190  1.9073  1.6605
 5504SOL    HW228149   1.813   4.069   5.078 -2.5705 -0.0251  0.0400
 5505SOL     OW28150   2.564   0.527   1.761  0.2395 -0.0422  0.1790
 5505SOL    HW128151   2.476   0.491   1.768  0.0059  0.7356  1.3042
 5505SOL    HW228152   2.547   0.612   1.803  0.3147  0.0510  0.0201
 5506SOL     OW28153   3.942   1.439   7.547  0.1984 -0.2511  0.0480
 5506SOL    HW128154   3.921   1.532   7.547  2.1943  0.1871 -0.6697
 5506SOL    HW228155   3.904   1.415   7.463 -0.1411  1.2508 -0.2257
 5507SOL     OW28156   2.460   1.637   2.634  0.1779 -0.4703 -0.2574
 5507SOL    HW128157   2.415   1.552   2.639 -1.3782  0.4577  1.2189
 5507SOL    HW228158   2.547   1.615   2.599 -0.6129 -1.1777 -1.7813
 5508SOL     OW28159   1.803   1.535   2.965  0.3576  0.0462 -0.2158
 5508SOL    HW128160   1.896   1.558   2.973  0.6288 -1.1819  0.2129
 5508SOL    HW228161   1.766   1.621   2.946 -2.5654 -0.5739  2.6486
 5509SOL     OW28162   1.676   2.853   5.544  0.1742  0.1299 -0.9227
 5509SOL    HW128163   1.600   2.910   5.557  0.9738  0.8731  0.4749
 5509SOL    HW228164   1.675   2.831   5.451  2.5573  0.0884 -0.9305
 5510SOL     OW28165   1.204   0.505   9.442  0.6882  0.2591 -0.0401
 5510SOL    HW128166   1.258   0.456   9.503  2.2164  3.6001  1.2957
 5510SOL    HW228167   1.240   0.594   9.448 -1.9228  1.2908  0.1841
 5511SOL     OW28168   4.237   4.347   3.015  0.2511 -0.7959  0.1385
 5511SOL    HW128169   4.152   4.332   3.055  0.7050 -1.9133  0.6774
 5511SOL    HW228170   4.290   4.304   3.082  0.0952  0.0341  0.8004
 5512SOL     OW28171   1.671   2.441   9.259  0.5733  0.7440 -0.1122
 5512SOL    HW128172   1.752   2.391   9.270  0.0907 -0.4511 -1.8966
 5512SOL    HW228173   1.644   2.407   9.174  1.2131  2.0275 -0.8186
 5513SOL     OW28174   3.906   4.087   8.537  0.6186 -0.2358 -0.0457
 5513SOL    HW128175   3.955   4.005   8.538 -0.9475 -1.1435  0.8149
 5513SOL    HW228176   3.824   4.059   8.497  0.3961 -0.6558  0.6999
 5514SOL     OW28177   2.599   0.044  15.090  0.3371 -0.1100 -0.3293
 5514SOL    HW128178   2.545   0.012  15.162  1.4706  2.0269  1.5002
 5514SOL    HW228179   2.578   0.137  15.094 -1.3587 -0.4884 -0.6676
 5515SOL     OW28180   3.428   3.397   6.097  0.1383  0.1421  0.1234
 5515SOL    HW128181   3.428   3.328   6.164  1.8322 -0.1342 -0.1573
 5515SOL    HW228182   3.407   3.344   6.020  0.6639  0.6222 -0.3488
 5516SOL     OW28183   3.623   1.128  16.605 -0.8266  0.3944  0.3870
 5516SOL    HW128184   3.592   1.077  16.530  0.6804  1.9239 -1.2813
 5516SOL    HW228185   3.715   1.136  16.577 -0.6859  2.4012  1.4833
 5517SOL     OW28186   0.445   3.671  15.428 -0.0161 -0.0766  0.3516
 5517SOL    HW128187   0.426   3.718  15.509  1.4070 -0.0781  0.6783
 5517SOL    HW228188   0.363   3.622  15.420 -0.1513  0.2837 -0.5011
 5518SOL     OW28189   3.400   4.071  17.019 -0.6613  0.2514  0.2402
 5518SOL    HW128190   3.474   4.017  17.047 -0.6890  0.6722  1.1297
 5518SOL    HW228191   3.436   4.160  17.012 -0.4781  0.1459 -0.1532
 5519SOL     OW28192   0.084   2.742   9.124 -0.4573  0.3620  0.5162
 5519SOL    HW128193   0.001   2.738   9.171 -1.8246  1.6623 -1.7786
 5519SOL    HW228194   0.057   2.712   9.037 -0.4196  1.3991  0.1409
 5520SOL     OW28195   3.009   0.149   5.921 -0.3167 -0.2688 -0.0088
 5520SOL    HW128196   2.946   0.077   5.918 -1.3252  0.7464 -3.2769
 5520SOL    HW228197   2.955   0.199   5.982  2.2572  3.3552 -0.6402
 5521SOL     OW28198   0.121   2.702   7.607  0.4768  0.6852  0.0099
 5521SOL    HW128199   0.130   2.683   7.513 -2.4686  1.9539 -0.5086
 5521SOL    HW228200   0.213   2.695   7.632  1.1329 -0.5027 -2.6512
 5522SOL     OW28201   0.882   0.464   7.797  0.0927  0.4110 -0.1513
 5522SOL    HW128202   0.843   0.397   7.853  1.2599  0.1298  0.3151
 5522SOL    HW228203   0.874   0.543   7.850  0.4126  1.9352 -2.3678
 5523SOL     OW28204   2.640   1.612   1.901  0.0654  0.1153 -0.1696
 5523SOL    HW128205   2.723   1.583   1.864 -0.2936 -0.4777 -0.5015
 5523SOL    HW228206   2.573   1.571   1.846 -0.6597  0.4522  0.4516
 5524SOL     OW28207   4.433   3.324   5.412 -0.0713  0.7105 -0.0966
 5524SOL    HW128208   4.409   3.410   5.446 -0.8975  1.0383 -1.4806
 5524SOL    HW228209   4.370   3.318   5.340  1.6154 -1.3995 -1.4076
 5525SOL     OW28210   2.571   1.079   7.886  0.0787 -0.2465 -0.3086
 5525SOL    HW128211   2.638   1.011   7.897  1.0745  0.6002 -1.0427
 5525SOL    HW228212   2.519   1.064   7.964  1.3936  0.6368  0.7378
 5526SOL     OW28213   1.712   0.932   4.601  0.4110 -0.0412  0.7220
 5526SOL    HW128214   1.775   0.999   4.573  0.4272  0.3534  1.6860
 5526SOL    HW228215   1.678   0.895   4.520  0.1150 -1.2865  1.4169
 5527SOL     OW28216   2.828   0.816   2.477  0.0867  0.3309 -0.0531
 5527SOL    HW128217   2.858   0.761   2.405  1.0685  2.5216 -1.2966
 5527SOL    HW228218   2.761   0.866   2.431 -0.2146  1.1207  1.2522
 5528SOL     OW28219   3.504   2.780  10.538  0.1846 -0.2085  0.2158
 5528SOL    HW128220   3.454   2.761  10.459 -2.0113 -0.6580  1.7140
 5528SOL    HW228221   3.509   2.876  10.533 -0.6312 -0.0975  1.6200
 5529SOL     OW28222   4.505   1.895   6.018  0.8228  0.1624 -0.2179
 5529SOL    HW128223   4.573   1.936   6.071  1.2642  0.9453 -1.3945
 5529SOL    HW228224   4.430   1.942   6.053  0.7573  0.4332 -0.7171
 5530SOL     OW28225   2.469   3.156   8.087 -0.7380 -0.3713 -0.4482
 5530SOL    HW128226   2.407   3.090   8.118 -0.4755 -0.9530 -1.1539
 5530SOL    HW228227   2.485   3.132   7.995 -1.3712 -0.9534 -0.4056
 5531SOL     OW28228   1.430   3.992   7.524  0.0862 -0.5959  0.0285
 5531SOL    HW128229   1.517   3.978   7.563 -0.1435 -1.2530  0.3045
 5531SOL    HW228230   1.377   4.001   7.603  0.9450  1.0049  0.4188
 5532SOL     OW28231   3.995   1.121  10.154  0.2341  0.2142 -0.7738
 5532SOL    HW128232   3.901   1.107  10.164  0.3358  0.4289  0.5706
 5532SOL    HW228233   4.028   1.031  10.158  1.0187  0.5315  0.0293
 5533SOL     OW28234   2.233   4.189   6.242  0.2353 -0.1316  0.4296
 5533SOL    HW128235   2.231   4.261   6.306 -0.5904  0.0289  0.2216
 5533SOL    HW228236   2.307   4.135   6.271 -0.7550 -0.8136  1.6834
 5534SOL     OW28237   0.051   4.112   2.134 -0.6815 -0.3428 -0.1272
 5534SOL    HW128238   0.071   4.206   2.128  1.0272 -0.6220  1.1831
 5534SOL    HW228239   4.711   4.108   2.187  0.6955  0.1594  1.9892
 5535SOL     OW28240   4.620   1.524  17.163  0.5967  0.5435 -0.6550
 5535SOL    HW128241   4.607   1.432  17.185 -0.9834  0.8819 -0.1800
 5535SOL    HW228242   4.564   1.543  17.087  0.7221 -2.2828 -1.4547
 5536SOL     OW28243   0.992   0.926   9.442  0.0285 -0.0266  0.0612
 5536SOL    HW128244   1.005   1.016   9.413  1.2422 -1.0508 -2.6171
 5536SOL    HW228245   1.041   0.921   9.525 -1.9339 -1.5110  1.1151
 5537SOL     OW28246   3.486   2.424   1.090 -1.0378 -0.0733  0.3300
 5537SOL    HW128247   3.525   2.351   1.137  1.8530 -0.4890 -2.6567
 5537SOL    HW228248   3.424   2.463   1.150 -0.2618 -0.4543  1.3803
 5538SOL     OW28249   3.279   4.093   0.404  0.0201  0.1765  0.0757
 5538SOL    HW128250   3.372   4.076   0.417  0.1870  1.0652  0.0771
 5538SOL    HW228251   3.275   4.045   0.321  0.5706 -0.4800  0.4322
 5539SOL     OW28252   1.569   4.063  11.084 -0.7468 -0.2406 -0.2133
 5539SOL    HW128253   1.538   4.009  11.012 -0.7837 -0.9125  0.3046
 5539SOL    HW228254   1.647   4.100  11.043  0.1514 -1.6224  0.2312
 5540SOL     OW28255   1.044   3.666   5.352 -0.0008 -0.4980 -0.0637
 5540SOL    HW128256   1.049   3.620   5.436  0.7491 -0.2883  0.0035
 5540SOL    HW228257   1.124   3.714   5.334 -0.3933  0.7252  1.5142
 5541SOL     OW28258   1.707   2.908  14.609  0.0051 -0.9176  0.5806
 5541SOL    HW128259   1.655   2.935  14.533  1.0954  1.6338  0.7608
 5541SOL    HW228260   1.718   2.813  14.596  0.2581 -0.8773  0.5139
 5542SOL     OW28261   2.900   4.521   9.018 -0.3449  0.1104 -1.0903
 5542SOL    HW128262   2.981   4.549   8.976  0.3133  1.3705  0.9896
 5542SOL    HW228263   2.871   4.608   9.047 -2.5727 -1.0165  0.0781
 5543SOL     OW28264   4.579   1.757   4.857 -0.0847  0.3971  0.2913
 5543SOL    HW128265   4.488   1.755   4.826  0.8681  3.8712 -2.8427
 5543SOL    HW228266   4.622   1.750   4.771 -0.4252 -2.1719  0.3535
 5544SOL     OW28267   4.017   1.383   3.317  0.2341  0.1498 -0.3174
 5544SOL    HW128268   3.959   1.459   3.313  1.0896  0.7857 -0.8915
 5544SOL    HW228269   4.066   1.395   3.235 -1.7202 -0.0733 -1.5154
 5545SOL     OW28270   2.625   4.648   8.631 -0.1764  0.5876  0.4960
 5545SOL    HW128271   2.682   4.706   8.681 -0.9078 -0.3205  2.4054
 5545SOL    HW228272   2.602   4.581   8.695 -0.1883 -1.0563 -1.2184
 5546SOL     OW28273   2.721   2.443   2.101 -0.2203  0.2225  0.5286
 5546SOL    HW128274   2.653   2.397   2.151 -1.3393  2.0270  0.6900
 5546SOL    HW228275   2.769   2.380   2.047 -1.4451 -0.1859 -0.0819
 5547SOL     OW28276   0.083   3.353   5.381  0.1132 -0.0210 -0.1336
 5547SOL    HW128277   0.129   3.435   5.367 -1.9462  0.9840 -0.9363
 5547SOL    HW228278   0.013   3.376   5.442  2.0850 -2.7666  3.2154
 5548SOL     OW28279   2.293   4.275   4.361 -0.4062  0.2907  0.0218
 5548SOL    HW128280   2.345   4.295   4.439  0.5989 -2.7474  0.1424
 5548SOL    HW228281   2.304   4.367   4.335  0.1380  0.4998  0.9702
 5549SOL     OW28282   3.383   1.475  14.926 -0.1604 -0.4856 -0.3193
 5549SOL    HW128283   3.452   1.490  14.991 -1.0022 -0.9331  0.6744
 5549SOL    HW228284   3.297   1.474  14.968 -1.9384  0.2483 -3.8906
 5550SOL     OW28285   2.176   0.158   7.807  0.3774  0.1697 -0.2220
 5550SOL    HW128286   2.101   0.129   7.755 -0.3091  4.1985 -1.4408
 5550SOL    HW228287   2.240   0.185   7.742  3.3022  0.1891  2.6544
 5551SOL     OW28288   2.283   3.553   6.806  0.2322 -0.3563  0.7452
 5551SOL    HW128289   2.286   3.643   6.838 -0.1195  0.0188 -0.2724
 5551SOL    HW228290   2.273   3.502   6.886 -2.1273 -0.9703  0.0671
 5552SOL     OW28291   1.407   0.680   2.649  0.3230  0.3313 -0.1659
 5552SOL    HW128292   1.442   0.592   2.638  0.4779  0.3280  0.3635
 5552SOL    HW228293   1.486   0.733   2.644 -1.4071  2.7418 -2.7198
 5553SOL     OW28294   4.421   1.315   4.167 -0.3703  0.1549 -0.5035
 5553SOL    HW128295   4.460   1.229   4.156  0.0980  0.0445  1.9423
 5553SOL    HW228296   4.463   1.337   4.251  0.2020  1.7128 -1.1886
 5554SOL     OW28297   0.433   2.906   8.904 -0.2617 -1.1331 -0.4956
 5554SOL    HW128298   0.380   2.835   8.866 -0.0508 -1.5650  0.0033
 5554SOL    HW228299   0.492   2.930   8.833 -0.5618  0.2803 -0.2665
 5555SOL     OW28300   1.204   0.847   2.894  0.0227  0.1069 -0.1365
 5555SOL    HW128301   1.293   0.875   2.873 -0.7918  2.3772 -0.6322
 5555SOL    HW228302   1.156   0.927   2.915 -0.8012 -0.4483  0.0926
 5556SOL     OW28303   3.943   1.930   7.554  0.2714 -0.0583 -0.6356
 5556SOL    HW128304   3.962   1.999   7.617  1.8266 -0.4537 -0.6606
 5556SOL    HW228305   3.943   1.853   7.612 -2.3682 -1.1841 -2.1497
 5557SOL     OW28306   0.487   0.624   2.453  0.2866 -0.1284 -0.1630
 5557SOL    HW128307   0.561   0.572   2.421 -0.3615  0.0647 -1.9393
 5557SOL    HW228308   0.526   0.710   2.468  0.9503 -0.5632  0.6610
 5558SOL     OW28309   4.473   1.403   3.470  0.1794  0.0134  0.0123
 5558SOL    HW128310   4.516   1.318   3.470 -1.6315 -0.8805  1.2509
 5558SOL    HW228311   4.445   1.413   3.561  3.0506  1.6483  0.6977
 5559SOL     OW28312   2.149   4.721   2.866  0.3816 -0.0383 -0.1194
 5559SOL    HW128313   2.193   0.051   2.915 -0.2119 -1.2275  2.0945
 5559SOL    HW228314   2.121   4.669   2.941 -1.8174  0.6935 -0.4362
 5560SOL     OW28315   0.609   2.072  10.127 -0.6727  0.8617 -0.0132
 5560SOL    HW128316   0.601   1.983  10.092 -0.3466  1.0232 -0.4967
 5560SOL    HW228317   0.518   2.098  10.145 -0.7713  0.9623 -0.6234
 5561SOL     OW28318   0.700   0.576   7.484 -0.2770  0.3892  0.0744
 5561SOL    HW128319   0.730   0.646   7.543 -1.2432  1.9681 -1.2937
 5561SOL    HW228320   0.740   0.505   7.534 -0.2763  0.7848  0.6427
 5562SOL     OW28321   0.529   2.353  11.635  0.1908  0.1602 -0.1503
 5562SOL    HW128322   0.504   2.381  11.723 -0.7289 -0.2271 -0.2836
 5562SOL    HW228323   0.459   2.291  11.612  1.6295 -0.5326 -2.6316
 5563SOL     OW28324   2.029   3.725  14.958  0.3942 -0.0912 -0.4253
 5563SOL    HW128325   2.082   3.803  14.971  0.3539 -0.0709 -0.3859
 5563SOL    HW228326   1.987   3.705  15.041  1.4857  1.0391  0.3893
 5564SOL     OW28327   3.211   0.052  10.401  0.2131 -0.4752 -0.1202
 5564SOL    HW128328   3.263   4.716  10.429  2.1495  0.7458 -0.3598
 5564SOL    HW228329   3.140   0.002  10.361  0.5363 -1.1327  0.1156
 5565SOL     OW28330   3.212   3.466  17.128  0.1826 -0.6904  0.7053
 5565SOL    HW128331   3.181   3.512  17.206 -2.2846 -1.0446 -0.0681
 5565SOL    HW228332   3.130   3.468  17.080  1.4100 -0.2623 -1.3642
 5566SOL     OW28333   1.356   4.351   4.001  0.0060  0.3968  0.5852
 5566SOL    HW128334   1.444   4.313   4.009  0.1912  0.8457  0.7007
 5566SOL    HW228335   1.305   4.277   4.032 -0.5334  0.4919 -0.0934
 5567SOL     OW28336   1.416   0.403  10.878  0.0010 -0.2150  0.4795
 5567SOL    HW128337   1.347   0.342  10.854 -0.7937  1.5448 -1.7424
 5567SOL    HW228338   1.364   0.479  10.903  0.4517  0.3565 -0.3059
 5568SOL     OW28339   2.183   2.511   2.250 -0.1396  0.1813  0.3050
 5568SOL    HW128340   2.117   2.488   2.315  0.2236 -1.0744  0.2332
 5568SOL    HW228341   2.262   2.482   2.295  1.4380  0.1570 -2.4374
 5569SOL     OW28342   3.153   2.576   2.514  0.1669 -0.4744 -0.4059
 5569SOL    HW128343   3.242   2.604   2.535  0.4802 -1.3174 -0.5899
 5569SOL    HW228344   3.108   2.611   2.590  1.7851 -2.7922  1.6339
 5570SOL     OW28345   1.231   1.166   5.692  0.1152  0.0924 -0.1848
 5570SOL    HW128346   1.183   1.166   5.609 -1.2142 -1.9483  0.5724
 5570SOL    HW228347   1.182   1.230   5.743 -1.2563 -0.4687 -0.7762
 5571SOL     OW28348   2.849   1.225   2.379  0.0806  0.1381  0.2513
 5571SOL    HW128349   2.761   1.195   2.404 -0.7630  0.2291 -2.6263
 5571SOL    HW228350   2.876   1.282   2.451 -1.3927 -0.9709  1.7020
 5572SOL     OW28351   4.625   4.294   7.728 -0.4263 -0.6342  0.3650
 5572SOL    HW128352   4.618   4.379   7.685 -2.1355 -1.0389 -0.1340
 5572SOL    HW228353   4.594   4.327   7.812  0.6210  0.9033  0.1524
 5573SOL     OW28354   2.609   0.003   3.723 -0.2804 -0.3816  0.2983
 5573SOL    HW128355   2.616   0.089   3.765  3.5956  0.2557 -1.6394
 5573SOL    HW228356   2.594   0.037   3.634  0.0513 -1.2165 -0.0783
 5574SOL     OW28357   3.466   1.212   7.694  0.0984  0.3648 -0.0362
 5574SOL    HW128358   3.547   1.163   7.676 -0.5805 -0.8934  0.3491
 5574SOL    HW228359   3.504   1.297   7.714 -0.2466  0.8779 -1.5339
 5575SOL     OW28360   0.415   1.436   5.266 -0.3624 -0.4406 -0.2355
 5575SOL    HW128361   0.333   1.466   5.305  1.3453 -0.0964  3.2022
 5575SOL    HW228362   0.403   1.479   5.182 -0.2543  1.2046  0.5830
 5576SOL     OW28363   4.178   3.427   1.488  0.3875  0.4113  0.4019
 5576SOL    HW128364   4.107   3.417   1.551 -0.2451  0.2442 -0.3475
 5576SOL    HW228365   4.165   3.341   1.448  0.3120  0.3007  0.6622
 5577SOL     OW28366   4.724   2.856   7.806  0.1649 -0.0736  0.3136
 5577SOL    HW128367   4.649   2.800   7.783 -0.1250  0.1973  0.5960
 5577SOL    HW228368   0.050   2.819   7.747  0.7819  0.0330  0.9309
 5578SOL     OW28369   3.396   0.453   2.873  0.1527 -0.0951  0.2780
 5578SOL    HW128370   3.381   0.486   2.784  0.4637  1.0668  0.6665
 5578SOL    HW228371   3.309   0.437   2.909  0.6751 -1.1104  1.1105
 5579SOL     OW28372   3.934   3.685   5.368  0.3270 -0.2688 -0.3447
 5579SOL    HW128373   3.877   3.611   5.346  0.8888 -1.1940  1.3167
 5579SOL    HW228374   3.863   3.741   5.398  0.0837 -0.8116  0.0956
 5580SOL     OW28375   3.678   3.886   8.881 -0.0845  0.1641  0.2060
 5580SOL    HW128376   3.742   3.873   8.951  0.3450  0.1912 -0.1837
 5580SOL    HW228377   3.734   3.880   8.804  1.8176 -3.6422  1.9204
 5581SOL     OW28378   3.994   2.675  11.257  0.6098 -0.0247  0.2255
 5581SOL    HW128379   3.937   2.648  11.185  0.0542 -1.5971  1.2337
 5581SOL    HW228380   4.071   2.697  11.205  1.0914 -0.9391  0.5559
 5582SOL     OW28381   0.305   1.385   2.112 -0.3500 -0.3272  0.4064
 5582SOL    HW128382   0.383   1.333   2.090  1.5197  1.9719  1.6523
 5582SOL    HW228383   0.291   1.430   2.029 -0.7622 -0.5353  0.3620
 5583SOL     OW28384   1.554   0.494   0.197 -0.0541  0.2366  0.3807
 5583SOL    HW128385   1.551   0.415   0.143  0.6869  0.8105 -0.4957
 5583SOL    HW228386   1.647   0.513   0.191  0.0030 -0.0525  0.3390
 5584SOL     OW28387   3.851   1.542   8.075 -0.6712  0.1946 -0.2821
 5584SOL    HW128388   3.841   1.504   8.162  1.1256 -0.2049 -0.2373
 5584SOL    HW228389   3.797   1.488   8.017  2.3474 -1.4030 -1.6414
 5585SOL     OW28390   4.482   0.715  16.296  0.5393 -0.2255 -0.2884
 5585SOL    HW128391   4.537   0.704  16.219 -1.0005 -1.3048 -1.2167
 5585SOL    HW228392   4.496   0.810  16.304 -2.1781 -0.0070  1.9838
 5586SOL     OW28393   2.784   3.982   4.090  0.6751 -0.0984 -0.4405
 5586SOL    HW128394   2.757   3.941   4.008  0.6816 -1.7583  0.3869
 5586SOL    HW228395   2.794   3.901   4.141 -1.1665  0.1153  0.2735
 5587SOL     OW28396   1.177   0.097   4.769 -0.4441 -0.5986  0.4267
 5587SOL    HW128397   1.096   0.145   4.786 -1.5671 -2.6582  0.8648
 5587SOL    HW228398   1.162   0.065   4.680 -1.4670 -0.3956  0.5312
 5588SOL     OW28399   2.433   1.732   4.930 -0.0284  0.1466 -0.5710
 5588SOL    HW128400   2.438   1.800   4.863  0.3911 -0.6134 -1.3227
 5588SOL    HW228401   2.478   1.658   4.889  1.6900  0.6855  0.3616
 5589SOL     OW28402   1.560   4.654   6.356  0.2568  0.2750 -0.6949
 5589SOL    HW128403   1.626   4.670   6.288 -1.0323  2.2715 -1.4838
 5589SOL    HW228404   1.482   4.704   6.333 -0.7461 -1.3393 -0.8302
 5590SOL     OW28405   4.381   3.987  13.719 -0.5883 -0.0776 -0.1699
 5590SOL    HW128406   4.309   3.925  13.711  0.8667 -1.6330 -1.2587
 5590SOL    HW228407   4.440   3.954  13.650  0.3653  0.1971  0.5097
 5591SOL     OW28408   0.540   4.147   2.600  0.0431  0.0527 -0.0600
 5591SOL    HW128409   0.533   4.073   2.661  0.2555 -0.4945 -0.6882
 5591SOL    HW228410   0.533   4.222   2.658  0.0257  0.9094 -1.1606
 5592SOL     OW28411   4.090   0.072   4.959  0.2068  0.3064  0.0548
 5592SOL    HW128412   4.083   4.717   4.969 -1.9455  0.1701 -2.5692
 5592SOL    HW228413   4.000   0.100   4.946  0.0317  0.3050  1.3034
 5593SOL     OW28414   4.223   0.102   1.026  0.0777  0.5825 -0.2861
 5593SOL    HW128415   4.168   0.150   1.087  1.6366  0.6080  1.1227
 5593SOL    HW228416   4.164   0.031   1.003  0.2623  0.1507  0.5502
 5594SOL     OW28417   3.779   1.957  13.653 -0.2588  0.5884 -0.0553
 5594SOL    HW128418   3.714   2.022  13.678 -0.9453 -0.5700  1.1673
 5594SOL    HW228419   3.840   1.961  13.727  0.0052 -1.8100 -0.1307
 5595SOL     OW28420   1.789   4.509   9.206  0.0989 -0.4083  0.1165
 5595SOL    HW128421   1.694   4.517   9.203  0.1549  0.2098  0.1388
 5595SOL    HW228422   1.802   4.436   9.267  0.3132 -1.4858 -1.2078
 5596SOL     OW28423   4.711   0.619  10.848  0.5155  0.1166 -0.7380
 5596SOL    HW128424   4.678   0.635  10.759  0.6120  2.0350 -0.4116
 5596SOL    HW228425   0.065   0.632  10.839  0.8252 -0.8153  1.2066
 5597SOL     OW28426   2.119   1.315   3.691  0.0556  0.5088  0.2158
 5597SOL    HW128427   2.048   1.256   3.716 -0.4493  0.8954 -0.2869
 5597SOL    HW228428   2.093   1.345   3.603  0.9285 -1.4339 -0.6970
 5598SOL     OW28429   4.724   1.735   9.512 -0.2181  0.4568  0.8916
 5598SOL    HW128430   4.687   1.708   9.428 -1.0441  1.4428  0.9316
 5598SOL    HW228431   0.065   1.764   9.470 -0.1921  0.7697  1.1574
 5599SOL     OW28432   0.174   2.298  13.894 -0.7347  0.6091  0.5665
 5599SOL    HW128433   0.164   2.272  13.986  1.2488 -0.6261  0.4216
 5599SOL    HW228434   0.127   2.223  13.857  0.2734  0.1120  0.3050
 5600SOL     OW28435   4.223   4.277   7.889  0.0502  0.4684  0.3328
 5600SOL    HW128436   4.216   4.360   7.842  1.1711  0.2511 -0.2056
 5600SOL    HW228437   4.146   4.290   7.945 -1.9500 -0.2851 -2.2413
 5601SOL     OW28438   3.175   4.558   5.345  0.4662 -0.5725 -0.7118
 5601SOL    HW128439   3.205   4.590   5.430 -0.5916  1.0597 -0.9470
 5601SOL    HW228440   3.083   4.536   5.360  0.9982 -1.5169  1.1592
 5602SOL     OW28441   0.739   0.354  15.779 -0.0335  0.4749  0.0426
 5602SOL    HW128442   0.751   0.399  15.863 -2.0725  0.1283  0.5091
 5602SOL    HW228443   0.745   0.262  15.803  1.4364  0.5795  0.0629
 5603SOL     OW28444   3.388   4.333   9.421  0.1072  0.3192 -0.7577
 5603SOL    HW128445   3.436   4.413   9.400 -1.4610  1.1938 -1.0048
 5603SOL    HW228446   3.460   4.274   9.443 -1.3504 -1.2203 -0.1826
 5604SOL     OW28447   2.228   2.662   6.405  0.5801  0.0213 -0.2191
 5604SOL    HW128448   2.229   2.568   6.421 -2.0576  0.0041 -0.2484
 5604SOL    HW228449   2.137   2.667   6.378  0.2260 -1.9397  0.6561
 5605SOL     OW28450   4.349   1.636   3.661  0.3100  0.0519  0.9028
 5605SOL    HW128451   4.432   1.684   3.662  1.1673 -1.3585 -0.2985
 5605SOL    HW228452   4.300   1.675   3.588  2.7198 -0.4288 -0.9859
 5606SOL     OW28453   2.395   2.452   2.415 -0.1946  0.1359 -0.2702
 5606SOL    HW128454   2.429   2.499   2.492  0.2730 -0.9212  0.1631
 5606SOL    HW228455   2.440   2.368   2.414 -0.7180 -0.1507  0.2900
 5607SOL     OW28456   2.344   3.640   8.493  0.5958  0.7387 -0.5264
 5607SOL    HW128457   2.362   3.655   8.586  3.5743  0.3575 -1.0205
 5607SOL    HW228458   2.262   3.593   8.502  1.3512 -0.2042  1.5117
 5608SOL     OW28459   0.682   3.722   3.827  0.2719 -0.1641 -0.1857
 5608SOL    HW128460   0.637   3.786   3.883  1.0080 -0.9018  1.2543
 5608SOL    HW228461   0.676   3.649   3.888  2.5659 -0.9262 -0.8781
 5609SOL     OW28462   3.727   3.175   1.800  0.3522 -0.1262 -0.2587
 5609SOL    HW128463   3.715   3.085   1.827  0.6856  0.7139  2.6900
 5609SOL    HW228464   3.766   3.160   1.714  0.5998  1.1676 -0.3773
 5610SOL     OW28465   0.139   3.291  11.712  0.2702  0.5851 -0.0267
 5610SOL    HW128466   0.202   3.221  11.693 -0.2224  0.5123 -1.3606
 5610SOL    HW228467   0.096   3.299  11.627 -0.8936 -0.0773  0.5110
 5611SOL     OW28468   0.308   3.565  15.718  0.1783 -0.2786 -0.0749
 5611SOL    HW128469   0.240   3.626  15.747  0.4130  0.8472 -1.9354
 5611SOL    HW228470   0.270   3.499  15.660  1.3740 -1.1014  0.0711
 5612SOL     OW28471   1.455   1.486   1.248 -0.5123  0.5112 -0.1604
 5612SOL    HW128472   1.488   1.556   1.304 -0.7652 -0.5859  1.3498
 5612SOL    HW228473   1.533   1.463   1.196 -0.8658 -0.4510 -0.2535
 5613SOL     OW28474   3.274   1.298   4.399 -0.0871  0.1937 -0.1214
 5613SOL    HW128475   3.320   1.355   4.337 -1.4286  0.9511 -0.4083
 5613SOL    HW228476   3.331   1.225   4.423 -0.0894 -0.3300 -1.7050
 5614SOL     OW28477   4.178   3.122   1.723  0.2770 -0.3142  0.2077
 5614SOL    HW128478   4.122   3.178   1.778 -0.8870 -0.4285 -0.8708
 5614SOL    HW228479   4.183   3.172   1.642 -1.8331 -0.2710  0.1027
 5615SOL     OW28480   3.527   2.520   0.696  0.2483 -0.0689  0.7703
 5615SOL    HW128481   3.435   2.495   0.701  0.2899 -0.7657 -2.0470
 5615SOL    HW228482   3.530   2.553   0.607 -0.9710  0.7688  1.0495
 5616SOL     OW28483   3.899   2.248   4.319  0.9105 -0.1225  0.6665
 5616SOL    HW128484   3.830   2.268   4.256 -1.3694 -1.3036  2.7365
 5616SOL    HW228485   3.837   2.234   4.391  1.0105 -0.8672  0.6071
 5617SOL     OW28486   4.272   1.901   8.504 -0.1396 -0.3953 -0.0172
 5617SOL    HW128487   4.176   1.894   8.508 -0.1403  0.2412  1.1545
 5617SOL    HW228488   4.296   1.993   8.495 -2.0042  0.0671 -0.3542
 5618SOL     OW28489   0.655   2.740   1.629  0.1978  0.2335 -0.1628
 5618SOL    HW128490   0.633   2.762   1.720 -0.9742 -0.0242 -0.3828
 5618SOL    HW228491   0.677   2.824   1.590 -0.1037  0.3145 -0.1579
 5619SOL     OW28492   2.044   3.728   9.892  0.1352 -0.1989 -0.3865
 5619SOL    HW128493   2.042   3.633   9.879  1.6156 -0.2362 -0.3539
 5619SOL    HW228494   2.118   3.745   9.951  1.1930  0.4646 -1.8995
 5620SOL     OW28495   3.662   2.217   6.085 -0.2568  0.2176  0.0262
 5620SOL    HW128496   3.577   2.219   6.039 -0.0132  2.2139 -0.3298
 5620SOL    HW228497   3.640   2.279   6.155 -0.1370  0.6306 -0.2987
 5621SOL     OW28498   0.418   1.797   9.588  0.9330 -0.1669  0.3394
 5621SOL    HW128499   0.468   1.749   9.522 -1.2433  1.4584 -2.5245
 5621SOL    HW228500   0.335   1.788   9.542  0.0970  1.0226  1.6134
 5622SOL     OW28501   1.402   1.553  14.658  0.6904  0.4343  0.3040
 5622SOL    HW128502   1.480   1.502  14.634  0.2020  1.6823 -3.8755
 5622SOL    HW228503   1.361   1.561  14.572  1.2881  1.0255  0.0771
 5623SOL     OW28504   2.004   4.053   3.421  0.2010 -0.1409 -0.0187
 5623SOL    HW128505   2.047   4.078   3.502 -0.4804 -3.1837  1.2676
 5623SOL    HW228506   1.913   4.040   3.447 -0.3621  0.6636 -1.5958
 5624SOL     OW28507   1.405   2.451  12.695 -0.1616 -0.4848 -0.0392
 5624SOL    HW128508   1.395   2.358  12.715  0.0391 -0.2341  1.2516
 5624SOL    HW228509   1.421   2.477  12.786  0.8094 -2.5785  0.4054
 5625SOL     OW28510   4.461   1.577   2.262  0.2015  0.0418 -0.0427
 5625SOL    HW128511   4.369   1.562   2.283  0.7396  1.1011  3.1208
 5625SOL    HW228512   4.490   1.489   2.240 -1.4049  0.1082 -2.4467
 5626SOL     OW28513   3.944   1.000   5.888 -0.5687  0.5148  0.3018
 5626SOL    HW128514   3.985   0.915   5.874  1.3886  1.5842 -0.5201
 5626SOL    HW228515   3.980   1.065   5.827 -1.3309 -0.2191 -0.9320
 5627SOL     OW28516   4.652   0.576   3.823 -0.4776 -0.1091 -0.2807
 5627SOL    HW128517   4.650   0.510   3.753  0.7458 -0.5829  0.1217
 5627SOL    HW228518   4.711   0.641   3.785  0.0248  0.7122  1.8870
 5628SOL     OW28519   3.080   3.223   5.170 -0.7281 -0.1939  0.0835
 5628SOL    HW128520   3.139   3.180   5.109 -2.1793 -1.1730 -0.6330
 5628SOL    HW228521   3.019   3.238   5.098 -0.1091 -0.6954 -0.5448
 5629SOL     OW28522   4.321   3.332  13.560  0.0150 -0.0644  0.3092
 5629SOL    HW128523   4.250   3.371  13.611  0.4569  0.5130  0.4935
 5629SOL    HW228524   4.272   3.271  13.505 -1.0419 -0.6815  1.9317
 5630SOL     OW28525   3.774   3.159   9.825  0.0291  0.2019  0.8290
 5630SOL    HW128526   3.823   3.134   9.746 -0.4418  1.2031  0.2245
 5630SOL    HW228527   3.698   3.212   9.801  0.5103  1.3931  1.9417
 5631SOL     OW28528   3.095   2.092  15.184  0.1358  0.3883  0.6738
 5631SOL    HW128529   3.120   2.028  15.251  0.1861  0.3748  0.6420
 5631SOL    HW228530   3.180   2.119  15.149 -0.1608 -0.5328 -0.7238
 5632SOL     OW28531   1.839   3.977   1.868 -0.5335  0.6608 -0.0737
 5632SOL    HW128532   1.850   3.969   1.963 -0.6184 -0.5385 -0.1585
 5632SOL    HW228533   1.756   3.929   1.861  0.4227 -0.6045 -2.8762
 5633SOL     OW28534   2.477   4.437  10.134  0.6649 -0.0949 -0.0560
 5633SOL    HW128535   2.449   4.494  10.063 -0.6988 -2.9162 -1.7637
 5633SOL    HW228536   2.539   4.377  10.093  0.8894 -0.9696  1.5502
 5634SOL     OW28537   1.343   0.237   2.064 -0.2767 -0.0603 -0.3450
 5634SOL    HW128538   1.383   0.151   2.057  2.1206  1.0944 -0.7928
 5634SOL    HW228539   1.250   0.221   2.048 -0.1579 -0.7158 -0.3844
 5635SOL     OW28540   0.793   0.557  16.927  0.2148 -0.5741 -0.1659
 5635SOL    HW128541   0.752   0.598  17.003 -1.6854 -2.4670 -0.1634
 5635SOL    HW228542   0.774   0.464  16.945  0.4672 -0.7899 -1.0327
 5636SOL     OW28543   0.216   1.060   5.867  0.3795 -0.4502  0.0711
 5636SOL    HW128544   0.122   1.055   5.850  0.6578 -2.6618 -0.7167
 5636SOL    HW228545   0.226   0.982   5.921 -1.0264 -0.7636 -0.1058
 5637SOL     OW28546   2.762   3.781  17.358 -0.2668  0.0591  0.2960
 5637SOL    HW128547   2.780   3.867  17.319 -0.0128 -0.8034 -1.5140
 5637SOL    HW228548   2.824   3.782  17.430 -0.6594 -0.1159  0.6342
 5638SOL     OW28549   1.176   1.520   3.181 -0.0618 -0.2592  0.6845
 5638SOL    HW128550   1.144   1.604   3.147 -0.4437 -0.2038  1.1767
 5638SOL    HW228551   1.174   1.551   3.272  0.4833 -1.6708  1.1842
 5639SOL     OW28552   4.339   2.632  15.839  0.1322  0.0120 -0.5511
 5639SOL    HW128553   4.376   2.641  15.751  0.8140  2.5578 -0.0002
 5639SOL    HW228554   4.317   2.539  15.844 -1.1370  0.2579 -1.3301
 5640SOL     OW28555   0.806   4.733   4.571 -0.0270  0.4631  0.2061
 5640SOL    HW128556   0.852   0.077   4.562 -0.2242  0.5836  0.3297
 5640SOL    HW228557   0.862   4.671   4.524 -0.1441  0.3985  0.1524
 5641SOL     OW28558   3.762   0.334   5.824  1.0107  0.0739  0.3029
 5641SOL    HW128559   3.692   0.318   5.761  2.0555 -1.9244 -0.3200
 5641SOL    HW228560   3.844   0.341   5.775  1.4753  2.7051  1.4423
 5642SOL     OW28561   2.460   0.828   5.777  0.0608  0.6514 -0.4962
 5642SOL    HW128562   2.429   0.750   5.731 -0.7666  0.9923 -0.5211
 5642SOL    HW228563   2.382   0.883   5.770 -0.3090  0.1482 -0.3184
 5643SOL     OW28564   4.062   3.446   2.385 -0.6653  0.6171  0.1176
 5643SOL    HW128565   3.989   3.501   2.415 -1.2584 -0.9336  1.4988
 5643SOL    HW228566   4.087   3.406   2.468  1.3647  2.0700  0.1956
 5644SOL     OW28567   0.659   2.885   5.909  0.1248 -0.0167 -0.0969
 5644SOL    HW128568   0.742   2.931   5.910 -0.1254  0.3923  2.2170
 5644SOL    HW228569   0.627   2.901   5.820 -0.5485 -1.5944 -0.1559
 5645SOL     OW28570   3.563   3.705  17.696  0.5363 -0.0783  0.1190
 5645SOL    HW128571   3.572   3.764  17.620  2.2130 -1.9675 -1.1462
 5645SOL    HW228572   3.606   3.626  17.663 -2.0634 -2.3812  2.3051
 5646SOL     OW28573   1.610   3.857   1.846  0.5140 -0.6694 -0.2367
 5646SOL    HW128574   1.592   3.773   1.890  1.6188 -1.2075 -0.7958
 5646SOL    HW228575   1.526   3.902   1.852  0.8284 -0.0725 -0.3628
 5647SOL     OW28576   3.229   1.990   4.286  0.2590  0.3319  0.4609
 5647SOL    HW128577   3.252   1.990   4.379 -2.6581  1.4244  1.1831
 5647SOL    HW228578   3.175   1.911   4.282  2.2720 -1.0245  0.3405
 5648SOL     OW28579   0.891   1.377   4.947 -0.0817  0.8625 -0.2869
 5648SOL    HW128580   0.984   1.357   4.952 -0.3015 -0.4614 -1.3686
 5648SOL    HW228581   0.888   1.361   4.853 -0.5171  1.4430 -0.3747
 5649SOL     OW28582   4.155   0.825   1.727  0.4602  0.0611  1.0387
 5649SOL    HW128583   4.204   0.828   1.810 -0.8886  1.3806  1.7928
 5649SOL    HW228584   4.189   0.906   1.691  1.3831  0.4228  2.6910
 5650SOL     OW28585   1.245   3.000   1.793  0.8092  0.1204 -0.3206
 5650SOL    HW128586   1.283   2.920   1.758  0.8901 -0.8355  2.0114
 5650SOL    HW228587   1.152   2.981   1.787  0.4402  1.4834  0.8772
 5651SOL     OW28588   1.770   2.466   2.551 -0.1642  0.6926  0.2077
 5651SOL    HW128589   1.759   2.433   2.640 -0.2796  2.8201  0.9768
 5651SOL    HW228590   1.686   2.445   2.510  0.2361 -1.3131  0.4243
 5652SOL     OW28591   4.367   2.647   8.992  0.3541  0.1133 -0.1296
 5652SOL    HW128592   4.378   2.566   9.042  0.0635 -1.5516 -2.7722
 5652SOL    HW228593   4.295   2.639   8.930 -0.1360  1.1025  0.3080
 5653SOL     OW28594   1.041   3.320   2.635  0.1666  0.8586  0.5868
 5653SOL    HW128595   1.001   3.290   2.717  2.7514 -0.1403  1.4788
 5653SOL    HW228596   1.068   3.235   2.600  1.9836  1.5741  0.2589
 5654SOL     OW28597   0.889   0.319   6.033 -0.3214 -0.6530  0.0430
 5654SOL    HW128598   0.907   0.316   5.939  1.4165 -0.2109  0.3644
 5654SOL    HW228599   0.815   0.259   6.035 -0.0815 -0.9457  0.1231
 5655SOL     OW28600   3.743   1.854  11.481 -0.0543 -0.1571  0.1862
 5655SOL    HW128601   3.736   1.853  11.386 -0.9197  0.5146  0.2411
 5655SOL    HW228602   3.747   1.761  11.503  0.8855  0.0537  0.9456
 5656SOL     OW28603   0.667   3.260   4.406  0.2119 -0.0420 -0.6440
 5656SOL    HW128604   0.711   3.237   4.488 -0.7774 -0.3021 -0.1701
 5656SOL    HW228605   0.630   3.347   4.424  0.0710 -0.5519  1.5602
 5657SOL     OW28606   2.946   3.037   3.897 -0.0922  0.2706 -0.3587
 5657SOL    HW128607   2.887   2.983   3.846  1.0963 -2.8106  1.5496
 5657SOL    HW228608   3.024   3.034   3.841 -2.4846 -0.8541 -3.5619
 5658SOL     OW28609   2.649   3.322   8.468  0.9956 -0.4853 -0.2641
 5658SOL    HW128610   2.568   3.295   8.424  1.1160 -1.2464 -0.0096
 5658SOL    HW228611   2.668   3.249   8.526  1.2479 -0.3991 -0.2403
 5659SOL     OW28612   2.979   3.711   3.191 -0.3598 -0.4649  0.0048
 5659SOL    HW128613   3.038   3.722   3.116 -0.0335 -1.3168  0.1334
 5659SOL    HW228614   3.024   3.640   3.237 -0.0396 -0.9483 -1.0306
 5660SOL     OW28615   3.770   2.229   3.631  0.2063 -0.3402 -0.1988
 5660SOL    HW128616   3.832   2.225   3.703 -1.0210 -1.5747  0.7838
 5660SOL    HW228617   3.709   2.161   3.660  0.8787  0.2349  2.5680
 5661SOL     OW28618   0.255   0.059   5.509  0.1282  0.5677 -0.2598
 5661SOL    HW128619   0.333   0.054   5.565  0.5905  2.6023 -0.7098
 5661SOL    HW228620   0.203   0.094   5.581 -1.3602 -0.8771 -0.6363
 5662SOL     OW28621   3.767   4.384   2.480 -0.2852 -0.6104 -0.2054
 5662SOL    HW128622   3.763   4.296   2.443  0.5850 -0.0769 -1.5406
 5662SOL    HW228623   3.829   4.429   2.423 -0.8653  2.1576  1.3258
 5663SOL     OW28624   4.389   4.064   7.736 -0.2546 -0.0205 -0.4839
 5663SOL    HW128625   4.304   4.029   7.712 -0.7969  0.7703  0.2747
 5663SOL    HW228626   4.351   4.105   7.814 -0.1792  0.2382 -0.5846
 5664SOL     OW28627   1.519   1.619   3.044  0.1184 -0.4471  0.1669
 5664SOL    HW128628   1.572   1.651   3.117  0.6443  2.6464 -1.6207
 5664SOL    HW228629   1.543   1.685   2.979 -2.5265 -0.4707 -0.8271
 5665SOL     OW28630   1.663   1.959   6.991  0.0623 -0.0623  0.1713
 5665SOL    HW128631   1.656   2.017   7.066  0.0028 -2.1791  1.8035
 5665SOL    HW228632   1.755   1.933   6.990  0.6448  2.0961 -1.1599
 5666SOL     OW28633   3.214   0.218  16.268  0.1658  0.0494  0.5241
 5666SOL    HW128634   3.156   0.170  16.328 -0.3475 -1.5795 -1.2665
 5666SOL    HW228635   3.158   0.215  16.191  2.2184  2.0401 -1.0280
 5667SOL     OW28636   2.740   0.380  13.056  0.3633  0.0953  0.5369
 5667SOL    HW128637   2.724   0.309  13.118  0.2184  0.5934  1.0649
 5667SOL    HW228638   2.829   0.397  13.087 -0.1392  0.5615  1.7151
 5668SOL     OW28639   2.264   2.007   4.663 -0.6042  0.0439  0.0147
 5668SOL    HW128640   2.245   2.099   4.643  0.6536 -0.3491 -2.9727
 5668SOL    HW228641   2.344   1.979   4.619  0.1270  1.6514  0.3144
 5669SOL     OW28642   0.845   0.143   2.651  0.0240 -0.0792 -0.5212
 5669SOL    HW128643   0.852   0.049   2.669  2.4193  0.0788 -0.6827
 5669SOL    HW228644   0.934   0.176   2.665 -0.8539  1.6567  1.1247
 5670SOL     OW28645   3.001   0.369  16.993 -0.1326 -0.2425 -0.3266
 5670SOL    HW128646   2.958   0.339  16.914  1.8710  1.9836 -2.2676
 5670SOL    HW228647   2.983   0.306  17.063  0.9642 -1.4104 -1.1106
 5671SOL     OW28648   0.239   0.813   3.504 -0.1876 -0.2561 -0.0816
 5671SOL    HW128649   0.274   0.870   3.435 -0.1150 -0.2961 -0.0787
 5671SOL    HW228650   0.187   0.746   3.459 -1.7545  0.3387  0.8623
 5672SOL     OW28651   0.354   3.786   2.611  0.0733 -0.5931  0.6459
 5672SOL    HW128652   0.355   3.698   2.649  1.1288 -1.3576 -1.1563
 5672SOL    HW228653   0.261   3.789   2.585 -0.1877 -1.3808  1.4656
 5673SOL     OW28654   4.319   1.886   3.378 -0.0317  0.6734  0.9358
 5673SOL    HW128655   4.232   1.885   3.420  0.4288  1.2934  1.9001
 5673SOL    HW228656   4.373   1.917   3.450  0.7867  0.7161  0.3039
 5674SOL     OW28657   4.393   4.224  16.294  0.6847 -0.3413  0.7677
 5674SOL    HW128658   4.350   4.153  16.342 -2.0787  2.3499  2.2428
 5674SOL    HW228659   4.375   4.307  16.337  1.1402  0.6225 -0.9438
 5675SOL     OW28660   2.102   4.479  13.610  0.6079 -0.4072  0.0398
 5675SOL    HW128661   2.052   4.516  13.684  0.6178  2.1899 -1.2367
 5675SOL    HW228662   2.192   4.496  13.639  0.2953 -0.2334  0.9091
 5676SOL     OW28663   4.010   3.460   4.009 -0.2087  0.0214 -0.4333
 5676SOL    HW128664   4.011   3.434   3.917  2.7699  3.1919 -1.2895
 5676SOL    HW228665   3.918   3.450   4.034 -0.3957  1.3290 -0.5749
 5677SOL     OW28666   1.212   1.686   2.587 -0.3414 -0.0115  0.0515
 5677SOL    HW128667   1.202   1.778   2.565 -2.1143 -0.0031  0.8656
 5677SOL    HW228668   1.258   1.649   2.512 -0.7764  0.3849 -0.4029
 5678SOL     OW28669   0.793   4.573  15.799  0.4164  0.2100  0.3056
 5678SOL    HW128670   0.804   4.658  15.841 -1.4186  0.3406  0.5352
 5678SOL    HW228671   0.733   4.594  15.727 -1.0439  0.9278  1.7328
 5679SOL     OW28672   0.890   2.894   9.220 -0.5477  0.2219 -0.0714
 5679SOL    HW128673   0.898   2.952   9.295 -0.5938  1.0529 -0.7134
 5679SOL    HW228674   0.881   2.810   9.266 -0.0905  0.0943 -0.2170
 5680SOL     OW28675   0.096   2.840  12.244  0.8466  1.0077 -0.2404
 5680SOL    HW128676   0.062   2.854  12.155  0.4733 -0.0299 -0.2482
 5680SOL    HW228677   0.042   2.907  12.285  1.9734  1.3314  0.7188
 5681SOL     OW28678   2.195   3.580   7.092  0.3464 -0.1343 -0.1168
 5681SOL    HW128679   2.248   3.554   7.167  0.8507 -1.0787 -0.7910
 5681SOL    HW228680   2.232   3.657   7.050 -1.5427 -0.0923 -1.7198
 5682SOL     OW28681   0.792   4.594   8.310  0.4450 -0.0149 -0.4782
 5682SOL    HW128682   0.775   4.678   8.267 -4.1571 -2.5694 -3.6216
 5682SOL    HW228683   0.732   4.534   8.266  1.2071  1.9393 -4.1871
 5683SOL     OW28684   3.433   0.155   9.649  0.1477  0.1027  0.7778
 5683SOL    HW128685   3.338   0.166   9.654  0.2243  0.2542  1.9002
 5683SOL    HW228686   3.458   0.148   9.741 -0.0572 -2.8792  0.6299
 5684SOL     OW28687   0.604   3.876   5.622  0.1163  0.1823  0.1097
 5684SOL    HW128688   0.692   3.840   5.631  0.2185  0.5654  0.6356
 5684SOL    HW228689   0.625   3.963   5.589  3.7653 -0.9113 -0.4735
 5685SOL     OW28690   3.164   0.937   4.888 -0.3627  0.0035 -0.1157
 5685SOL    HW128691   3.222   0.862   4.880 -0.9080 -0.4605  0.3198
 5685SOL    HW228692   3.085   0.886   4.908  0.7716 -0.9805  1.7620
 5686SOL     OW28693   2.646   1.747   9.229 -0.0774  0.4409  0.0553
 5686SOL    HW128694   2.585   1.685   9.190  1.0168 -0.3010 -0.4727
 5686SOL    HW228695   2.733   1.725   9.195 -0.5412 -0.0453 -0.7936
 5687SOL     OW28696   1.033   3.929   0.157  0.7236 -0.5393  0.6431
 5687SOL    HW128697   1.119   3.968   0.140 -0.5108  0.5508 -2.9913
 5687SOL    HW228698   1.061   3.842   0.186 -2.6187 -1.5779  0.8082
 5688SOL     OW28699   0.705   0.260   7.596  0.2636 -0.3766 -0.0329
 5688SOL    HW128700   0.640   0.281   7.663 -0.7125  1.2929 -1.4893
 5688SOL    HW228701   0.771   0.219   7.651  0.2742  0.0463  0.2709
 5689SOL     OW28702   3.003   3.429   7.996 -0.2773  0.3682  0.2112
 5689SOL    HW128703   3.074   3.452   7.937 -0.6743  3.4161  0.9273
 5689SOL    HW228704   3.035   3.449   8.084 -0.0483  0.3398  0.1343
 5690SOL     OW28705   2.036   1.213  11.375  0.3577  0.1395  0.9244
 5690SOL    HW128706   2.071   1.159  11.304  0.4647 -1.1605  1.9666
 5690SOL    HW228707   2.114   1.240  11.423 -0.1683  1.0199  1.2909
 5691SOL     OW28708   4.495   2.581   8.032 -0.8503 -0.1535  0.4237
 5691SOL    HW128709   4.403   2.564   8.013 -1.2746 -0.6368  2.8772
 5691SOL    HW228710   4.549   2.521   7.981 -3.3175 -0.6602 -1.5848
 5692SOL     OW28711   0.416   1.642  14.662  0.0971  0.4326  0.3540
 5692SOL    HW128712   0.392   1.559  14.702 -2.4312  0.6916 -0.6290
 5692SOL    HW228713   0.348   1.648  14.595 -1.2449  1.3735  1.7958
 5693SOL     OW28714   3.083   1.627   9.959  0.6376 -0.4477  0.5559
 5693SOL    HW128715   3.174   1.634   9.989  1.8436 -2.5064 -2.6779
 5693SOL    HW228716   3.058   1.717   9.979  2.2645 -0.3434  2.2018
 5694SOL     OW28717   4.559   2.065   4.220  0.0022  0.1315 -0.4358
 5694SOL    HW128718   4.546   1.999   4.287 -0.6003 -0.4787 -1.1485
 5694SOL    HW228719   4.491   2.047   4.155 -0.6845  1.2240 -0.0221
 5695SOL     OW28720   4.141   4.158   3.316  0.7640 -0.3254  0.0295
 5695SOL    HW128721   4.126   4.151   3.410 -0.5262  1.4806 -0.0551
 5695SOL    HW228722   4.053   4.137   3.283  0.8856  0.4470 -0.7768
 5696SOL     OW28723   4.472   3.570   1.498  0.0468  0.3464  0.3475
 5696SOL    HW128724   4.377   3.563   1.492  0.0941  1.9154 -2.0843
 5696SOL    HW228725   4.493   3.484   1.534  2.4565  1.1037  0.7535
 5697SOL     OW28726   1.596   4.261   5.338  0.0364 -0.1131 -0.5728
 5697SOL    HW128727   1.586   4.351   5.305 -0.5850  0.2022  0.4727
 5697SOL    HW228728   1.691   4.249   5.339 -0.1423 -1.4954  0.8267
 5698SOL     OW28729   2.060   3.115   9.577  0.7283  0.1046 -0.2020
 5698SOL    HW128730   2.065   3.078   9.489  0.4806 -3.2527  1.2035
 5698SOL    HW228731   1.983   3.171   9.569  0.8399  0.3222  0.2631
 5699SOL     OW28732   2.513   4.014   2.126 -0.3054  0.0839  0.1704
 5699SOL    HW128733   2.535   4.107   2.129  0.9723 -0.1960 -0.6449
 5699SOL    HW228734   2.434   4.025   2.073 -0.1222 -2.6784 -0.6428
 5700SOL     OW28735   3.867   2.965   2.021  0.8043  0.3100 -0.4833
 5700SOL    HW128736   3.918   2.938   1.944 -0.3745  1.5493 -1.7076
 5700SOL    HW228737   3.925   2.997   2.090  0.0479 -0.4819  0.5277
 5701SOL     OW28738   2.395   0.299   6.201  0.4026 -0.3513 -0.1924
 5701SOL    HW128739   2.458   0.290   6.129 -0.7121 -1.1055 -1.0853
 5701SOL    HW228740   2.317   0.332   6.158  0.9522 -0.8379 -1.5916
 5702SOL     OW28741   1.348   0.639   3.571 -0.3056  0.2088 -0.7385
 5702SOL    HW128742   1.266   0.642   3.522 -0.7285  0.0066 -0.0439
 5702SOL    HW228743   1.317   0.633   3.662 -1.8466 -0.3464 -1.3010
 5703SOL     OW28744   3.572   0.758   2.776  0.1257  0.3486  0.4205
 5703SOL    HW128745   3.484   0.776   2.807  0.5062  1.0771  1.0961
 5703SOL    HW228746   3.614   0.747   2.861  0.4654 -0.8127  0.0930
 5704SOL     OW28747   2.920   4.350   2.366  0.2289 -0.0449 -0.1922
 5704SOL    HW128748   2.866   4.271   2.364 -1.8114  1.3261  0.0020
 5704SOL    HW228749   2.912   4.361   2.460 -4.8354  1.9758 -0.8427
 5705SOL     OW28750   3.750   1.185   4.901  0.0201 -0.2799  0.3501
 5705SOL    HW128751   3.777   1.149   4.816  1.0065  2.2888 -0.4360
 5705SOL    HW228752   3.718   1.113   4.955 -1.4938  1.4601  1.7615
 5706SOL     OW28753   2.493   1.181   3.666 -0.2078 -0.0544 -0.1167
 5706SOL    HW128754   2.529   1.188   3.754 -1.8894 -1.2473  0.6738
 5706SOL    HW228755   2.480   1.087   3.653  1.1781  0.0499 -2.1762
 5707SOL     OW28756   0.687   2.010  15.902  0.1157 -0.0844  0.4158
 5707SOL    HW128757   0.775   2.043  15.920  0.4586 -0.5870 -0.3264
 5707SOL    HW228758   0.710   1.950  15.831  1.3981  0.2245  0.5649
 5708SOL     OW28759   2.175   3.452   6.199  0.3674  0.0809 -0.2651
 5708SOL    HW128760   2.246   3.402   6.240 -0.1896 -1.6715 -1.4591
 5708SOL    HW228761   2.112   3.428   6.267  0.5641 -1.1151 -0.5127
 5709SOL     OW28762   2.816   2.340  15.730  0.0075  0.0278 -0.6201
 5709SOL    HW128763   2.780   2.305  15.812 -1.2662 -0.4308 -1.3926
 5709SOL    HW228764   2.742   2.365  15.676  0.4858 -0.7744 -1.6396
 5710SOL     OW28765   3.601   2.422   7.218  0.4706  0.0646  0.1797
 5710SOL    HW128766   3.637   2.494   7.270  0.8793  0.0427 -0.0817
 5710SOL    HW228767   3.636   2.350   7.271  1.8393  1.1708  0.7625
 5711SOL     OW28768   3.528   1.707   3.487 -0.1824 -0.0227  0.3663
 5711SOL    HW128769   3.520   1.689   3.580 -0.7283 -1.2138  0.0804
 5711SOL    HW228770   3.443   1.745   3.465  0.0562 -0.4684 -1.3432
 5712SOL     OW28771   4.049   4.542   4.785 -0.0340  0.0229  0.3918
 5712SOL    HW128772   4.037   4.543   4.880 -1.1997  1.4302  0.2212
 5712SOL    HW228773   3.976   4.489   4.754 -0.7554  1.5434 -0.5131
 5713SOL     OW28774   3.315   0.286   5.885 -0.3788  0.0474  0.1687
 5713SOL    HW128775   3.221   0.277   5.899 -0.2040 -1.2331  0.4921
 5713SOL    HW228776   3.350   0.205   5.923  0.4962 -1.3672 -3.6320
 5714SOL     OW28777   1.573   3.053  15.913 -0.1326  0.0930 -0.1508
 5714SOL    HW128778   1.607   2.965  15.895  0.7307 -0.1271  2.6161
 5714SOL    HW228779   1.530   3.059  15.828  0.0460  1.0134 -0.1768
 5715SOL     OW28780   0.634   3.707   4.821  0.4688 -0.1219  0.4126
 5715SOL    HW128781   0.636   3.709   4.725 -1.0123 -0.6252  0.3647
 5715SOL    HW228782   0.560   3.767   4.834 -0.7247 -1.2520 -1.1642
 5716SOL     OW28783   1.395   2.488  17.642  0.1491  0.0111 -0.2231
 5716SOL    HW128784   1.399   2.427  17.715 -1.9278 -0.1158 -0.1999
 5716SOL    HW228785   1.461   2.458  17.580 -0.8628  2.1484 -2.3220
 5717SOL     OW28786   1.554   4.571   6.628  0.5278 -0.5691 -0.2024
 5717SOL    HW128787   1.557   4.611   6.541 -0.2879 -1.1159 -0.4789
 5717SOL    HW228788   1.641   4.532   6.623  0.8227  0.1634 -0.8755
 5718SOL     OW28789   4.404   1.351  13.314 -0.1505 -0.0478 -0.3018
 5718SOL    HW128790   4.431   1.405  13.240  0.6087 -0.9446 -0.6870
 5718SOL    HW228791   4.406   1.408  13.391  0.1201  0.8014 -0.9399
 5719SOL     OW28792   2.851   0.085   0.446 -0.4132 -0.8478  0.2910
 5719SOL    HW128793   2.901   0.097   0.366  0.6070 -3.5599  0.5175
 5719SOL    HW228794   2.852   0.173   0.484 -1.9349 -1.1111  0.9480
 5720SOL     OW28795   2.428   0.271   6.474 -0.5324 -0.1337  0.1931
 5720SOL    HW128796   2.437   0.365   6.492 -1.8481  0.0921 -0.3392
 5720SOL    HW228797   2.394   0.266   6.385  0.8472  4.3351 -0.6147
 5721SOL     OW28798   1.370   3.262   4.900 -0.1845  0.0073 -0.3138
 5721SOL    HW128799   1.287   3.299   4.930  0.1197 -0.1917  0.7838
 5721SOL    HW228800   1.327   3.185   4.864  1.0549 -0.1444 -1.4851
 5722SOL     OW28801   3.175   2.542   1.010  0.3417  0.2447 -0.1379
 5722SOL    HW128802   3.185   2.527   1.104  0.8604 -1.2777 -0.4338
 5722SOL    HW228803   3.268   2.561   0.996 -0.2468  1.8322 -1.8898
 5723SOL     OW28804   1.497   1.365  14.198 -0.1354 -0.2639  0.2114
 5723SOL    HW128805   1.431   1.357  14.267 -1.1193 -0.0337 -0.6913
 5723SOL    HW228806   1.557   1.430  14.234 -0.6803 -0.7310  1.9665
 5724SOL     OW28807   3.124   4.365  11.404 -0.0414  0.0198 -0.1997
 5724SOL    HW128808   3.202   4.396  11.357  1.4150  0.5885  2.6192
 5724SOL    HW228809   3.055   4.386  11.341 -0.2927 -0.3180 -0.0425
 5725SOL     OW28810   4.563   4.212   8.155  0.4933 -0.2414  0.1057
 5725SOL    HW128811   4.511   4.148   8.205 -1.6802  1.0204 -0.5301
 5725SOL    HW228812   4.646   4.179   8.188  0.7482  0.2463 -0.0477
 5726SOL     OW28813   4.513   1.302   8.693 -0.3013 -0.4934 -0.3129
 5726SOL    HW128814   4.521   1.244   8.769  0.3008  1.2055  0.9178
 5726SOL    HW228815   4.605   1.305   8.667  0.0255 -0.2701  0.8536
 5727SOL     OW28816   0.412   3.412  15.212 -0.0363 -0.4214 -0.0012
 5727SOL    HW128817   0.333   3.433  15.262  0.1666 -1.6596  0.8318
 5727SOL    HW228818   0.476   3.423  15.282  2.0351 -0.2006 -1.9402
 5728SOL     OW28819   1.175   1.410   8.793  0.2527  0.3691  0.0719
 5728SOL    HW128820   1.081   1.424   8.784  0.6884  2.0604 -1.7550
 5728SOL    HW228821   1.183   1.323   8.832 -1.5073  0.4137  0.5061
 5729SOL     OW28822   0.007   3.884   6.019 -0.0973 -0.4863 -0.2047
 5729SOL    HW128823   0.033   3.975   6.028  0.5362 -0.4837 -2.1043
 5729SOL    HW228824   4.703   3.869   6.103 -0.1128 -0.9055 -0.2881
 5730SOL     OW28825   2.030   3.564  12.250 -0.7762  0.0661 -0.3660
 5730SOL    HW128826   1.998   3.481  12.285 -0.2887  1.3087  2.9262
 5730SOL    HW228827   2.030   3.614  12.331  1.2154 -0.0594 -0.2737
 5731SOL     OW28828   1.232   1.576   4.941  0.3078 -0.1268  0.1537
 5731SOL    HW128829   1.207   1.486   4.961  1.0362 -0.1881  0.7841
 5731SOL    HW228830   1.326   1.562   4.927  0.0502 -0.6757 -1.0731
 5732SOL     OW28831   1.770   2.843   3.685 -0.0662 -0.0010  0.2566
 5732SOL    HW128832   1.770   2.847   3.780 -1.3894  0.0719  0.2594
 5732SOL    HW228833   1.746   2.931   3.656  0.5376  0.5962  1.5712
 5733SOL     OW28834   3.636   1.499   5.360 -0.2051 -0.8640  0.2956
 5733SOL    HW128835   3.649   1.411   5.325 -2.2652 -1.0948  0.0955
 5733SOL    HW228836   3.644   1.474   5.452  0.8347 -1.4803  0.0353
 5734SOL     OW28837   4.278   0.178  13.266  0.2879 -0.1595  0.2822
 5734SOL    HW128838   4.225   0.104  13.296 -0.8038  0.4259 -0.2074
 5734SOL    HW228839   4.279   0.232  13.345 -2.5463 -0.8873  0.8120
 5735SOL     OW28840   2.191   2.323   5.430  0.1936 -0.4407  0.1083
 5735SOL    HW128841   2.118   2.385   5.420  0.2070  0.1338  3.3326
 5735SOL    HW228842   2.247   2.384   5.477  0.7899  0.7821 -2.2476
 5736SOL     OW28843   2.472   0.111  15.442  0.1475 -0.0919 -0.5506
 5736SOL    HW128844   2.415   0.084  15.514  1.1073  0.1024  0.2816
 5736SOL    HW228845   2.411   0.123  15.369 -2.2460 -0.1265  1.4248
 5737SOL     OW28846   4.675   1.310   2.787  0.8144 -0.3439 -0.4294
 5737SOL    HW128847   4.706   1.237   2.733  0.9738 -1.6293  1.4035
 5737SOL    HW228848   0.010   1.321   2.846 -0.0289  1.7170  0.2632
 5738SOL     OW28849   2.290   1.310   4.821  0.3331 -0.2867 -0.0063
 5738SOL    HW128850   2.295   1.259   4.902  0.1478  3.6563  2.4797
 5738SOL    HW228851   2.377   1.301   4.782  0.7550 -0.2907  0.9255
 5739SOL     OW28852   2.848   3.309   1.594 -0.2247 -0.6025 -0.1939
 5739SOL    HW128853   2.778   3.373   1.611  1.8986  2.1772 -1.9700
 5739SOL    HW228854   2.891   3.310   1.680 -0.0106  0.5042 -0.3132
 5740SOL     OW28855   3.603   3.300   9.686 -0.1237 -0.1104 -0.7112
 5740SOL    HW128856   3.634   3.312   9.596  1.2533 -0.2340 -0.2518
 5740SOL    HW228857   3.532   3.364   9.687  0.1923  0.2226  0.2592
 5741SOL     OW28858   3.401   0.760   9.509  0.1949 -0.2733  0.2153
 5741SOL    HW128859   3.446   0.675   9.515  0.8797 -0.1286 -2.5282
 5741SOL    HW228860   3.421   0.778   9.417 -1.3103 -4.0519 -0.8584
 5742SOL     OW28861   2.412   0.967   9.582  0.2445 -1.0172  0.1316
 5742SOL    HW128862   2.373   0.985   9.668  0.2064  0.1252 -0.1196
 5742SOL    HW228863   2.407   0.872   9.592 -0.0242 -1.1484 -1.3268
 5743SOL     OW28864   2.457   1.796   1.646  0.3082 -0.2209 -1.0039
 5743SOL    HW128865   2.437   1.716   1.694  0.0538  0.1952 -0.4185
 5743SOL    HW228866   2.456   1.870   1.707  0.7573 -0.9068 -0.1516
 5744SOL     OW28867   4.198   2.785  16.587  0.2256  0.2628 -0.5774
 5744SOL    HW128868   4.222   2.706  16.539 -0.4697  0.3369 -1.0481
 5744SOL    HW228869   4.271   2.846  16.574 -0.4955  1.2622  0.0504
 5745SOL     OW28870   4.681   2.548   3.008  0.0483 -0.2370 -0.3140
 5745SOL    HW128871   4.617   2.527   3.076 -0.0209 -0.3508 -0.4146
 5745SOL    HW228872   4.642   2.622   2.962 -0.4021  0.4855  1.2350
 5746SOL     OW28873   1.075   4.355   7.446 -0.6345 -0.5564  0.6583
 5746SOL    HW128874   1.147   4.304   7.484 -0.3170 -1.2868 -0.9470
 5746SOL    HW228875   1.115   4.431   7.404 -0.5794 -1.0848 -0.2288
 5747SOL     OW28876   3.709   3.252  17.700  0.2104  0.9375  0.2272
 5747SOL    HW128877   3.770   3.211  17.638  0.0817 -1.0766  1.4543
 5747SOL    HW228878   3.771   3.300  17.755 -0.0869  0.9000  0.5958
 5748SOL     OW28879   3.105   1.564   9.207 -0.6189 -0.2005  0.1528
 5748SOL    HW128880   3.154   1.564   9.289  0.1865  1.7454 -0.3346
 5748SOL    HW228881   3.137   1.641   9.161 -0.7333 -0.2757 -0.0540
 5749SOL     OW28882   1.220   0.314   1.092 -0.2681  0.7779  0.5502
 5749SOL    HW128883   1.151   0.354   1.038  0.9834  3.8559  1.2122
 5749SOL    HW228884   1.206   0.220   1.082 -1.6459  1.0060  0.3003
 5750SOL     OW28885   0.248   1.534  11.733 -0.6586 -0.3564 -0.1034
 5750SOL    HW128886   0.167   1.585  11.728 -0.7932 -0.4960  0.5801
 5750SOL    HW228887   0.216   1.453  11.694 -0.6325  1.1761 -3.3036
 5751SOL     OW28888   2.180   2.724   2.645  0.5187 -0.6951  0.0785
 5751SOL    HW128889   2.172   2.685   2.558  1.3795  0.5095 -0.5415
 5751SOL    HW228890   2.170   2.820   2.640  0.4266 -0.7523 -0.8148
 5752SOL     OW28891   4.513   0.160   9.158 -0.1716 -0.2884  0.6277
 5752SOL    HW128892   4.573   0.095   9.121 -0.6360 -1.1486  1.3792
 5752SOL    HW228893   4.551   0.247   9.145 -1.9897  0.4524  0.1441
 5753SOL     OW28894   4.247   3.932   9.131  0.3361  0.6237  0.1261
 5753SOL    HW128895   4.228   3.847   9.093  1.2252  0.8003 -0.7209
 5753SOL    HW228896   4.327   3.898   9.172  1.8401  2.2011 -1.4837
 5754SOL     OW28897   1.179   4.591   1.885 -0.1752  0.4345  0.2439
 5754SOL    HW128898   1.134   4.556   1.808 -1.6123  0.7756  0.9315
 5754SOL    HW228899   1.110   4.638   1.931 -1.1733 -1.3187  0.5341
 5755SOL     OW28900   3.386   2.077   8.637  0.2521  0.0464 -0.5407
 5755SOL    HW128901   3.332   2.152   8.664  0.8149 -0.6034  2.3327
 5755SOL    HW228902   3.468   2.098   8.682  0.8642 -1.4946 -0.9570
 5756SOL     OW28903   2.320   2.524  13.230 -0.1114 -0.4560  0.4505
 5756SOL    HW128904   2.402   2.564  13.258  0.9770 -1.3879 -1.4124
 5756SOL    HW228905   2.296   2.466  13.303 -2.5865 -1.5139 -1.2179
 5757SOL     OW28906   2.912   1.941   3.901 -0.0448  0.3112  0.0343
 5757SOL    HW128907   2.887   2.017   3.954 -0.3200  2.2248 -2.8650
 5757SOL    HW228908   2.832   1.890   3.915 -1.1719  2.0587 -0.0671
 5758SOL     OW28909   2.537   3.673   5.303 -0.6956  0.2085 -0.4626
 5758SOL    HW128910   2.537   3.674   5.398 -3.0201  1.4394 -0.4586
 5758SOL    HW228911   2.478   3.745   5.279 -0.9025 -0.4503 -1.9222
 5759SOL     OW28912   0.679   3.225   7.367 -0.0596  0.5924 -0.1320
 5759SOL    HW128913   0.623   3.285   7.319 -0.6499 -0.7037 -1.0716
 5759SOL    HW228914   0.769   3.256   7.354 -0.4441  0.3928 -3.1280
 5760SOL     OW28915   2.895   1.666  13.785  0.1905 -0.3791 -0.0434
 5760SOL    HW128916   2.804   1.678  13.812  0.9049  0.4215  1.9968
 5760SOL    HW228917   2.909   1.572  13.796 -1.4409 -0.4020  1.8547
 5761SOL     OW28918   1.511   2.827   4.907 -0.5718 -0.7052 -0.3562
 5761SOL    HW128919   1.565   2.751   4.928  0.4733  0.3413  0.7563
 5761SOL    HW228920   1.470   2.827   4.994 -0.0973  0.9480 -0.1225
 5762SOL     OW28921   0.369   0.902   9.384 -0.3948  0.3393 -1.0479
 5762SOL    HW128922   0.298   0.862   9.435  0.2792  0.5859  0.0775
 5762SOL    HW228923   0.418   0.824   9.358 -0.0791 -0.4692  1.9357
 5763SOL     OW28924   2.758   2.214  14.258 -0.7310  0.3849  0.1849
 5763SOL    HW128925   2.761   2.159  14.180  0.1958 -2.6042  2.3493
 5763SOL    HW228926   2.748   2.298  14.213  0.4410  0.0063 -0.7881
 5764SOL     OW28927   0.021   1.690  14.645  0.9048 -0.1255  0.4022
 5764SOL    HW128928   4.700   1.713  14.715 -0.1251 -2.2192  0.1734
 5764SOL    HW228929   0.082   1.761  14.668  0.9937 -0.0047 -0.1865
 5765SOL     OW28930   2.406   3.317   7.182  0.1632 -0.2716  0.0701
 5765SOL    HW128931   2.459   3.332   7.104 -1.2043  0.0276 -0.7967
 5765SOL    HW228932   2.392   3.407   7.211 -0.7541  1.3539 -5.3762
 5766SOL     OW28933   2.448   2.044  12.464 -0.4216  0.3381 -0.0500
 5766SOL    HW128934   2.356   2.067  12.472 -0.9152 -0.8810 -2.1273
 5766SOL    HW228935   2.496   2.116  12.505  0.5177 -1.8187  2.6318
 5767SOL     OW28936   2.942   3.745  14.423 -0.6340 -0.2369  0.3495
 5767SOL    HW128937   2.961   3.664  14.471 -0.2876 -0.4484 -0.1374
 5767SOL    HW228938   2.849   3.763  14.436 -0.9339 -2.6515  1.4912
 5768SOL     OW28939   3.142   3.341   5.917 -0.6797 -0.5342 -0.2439
 5768SOL    HW128940   3.216   3.355   5.859 -0.8311  0.7450 -0.1394
 5768SOL    HW228941   3.171   3.256   5.947  0.9480  0.1334  0.0603
 5769SOL     OW28942   0.055   2.541  13.987  0.1058  0.1325  0.1606
 5769SOL    HW128943   0.106   2.476  13.937 -2.3515  1.5559 -4.1889
 5769SOL    HW228944   0.124   2.603  14.010 -0.6013  1.0561 -0.2532
 5770SOL     OW28945   0.449   2.336   4.697 -0.9735 -0.5593 -0.7438
 5770SOL    HW128946   0.461   2.407   4.761 -0.7863 -0.8838 -0.4193
 5770SOL    HW228947   0.465   2.381   4.615 -0.8481 -1.1637 -1.0483
 5771SOL     OW28948   2.038   0.839   7.124 -0.2055  0.3856  0.4245
 5771SOL    HW128949   2.043   0.814   7.032  1.2301  0.9432  0.3529
 5771SOL    HW228950   2.130   0.861   7.143 -0.6192  0.6540  2.1498
 5772SOL     OW28951   3.113   1.708   6.239 -0.3777 -0.2172  0.3037
 5772SOL    HW128952   3.181   1.701   6.306 -1.1278 -0.7663  1.0114
 5772SOL    HW228953   3.137   1.646   6.171  0.9691 -1.3262  1.7897
 5773SOL     OW28954   2.234   1.280   1.438  0.0986  0.1739  0.4341
 5773SOL    HW128955   2.185   1.233   1.370  0.1513  0.6477  0.0714
 5773SOL    HW228956   2.226   1.227   1.518 -2.1065  1.0155  0.7751
 5774SOL     OW28957   4.193   4.303  14.578 -0.2784 -0.0705 -0.1662
 5774SOL    HW128958   4.209   4.241  14.649  1.1596  1.2290  0.6563
 5774SOL    HW228959   4.223   4.255  14.501 -1.2338  0.2210 -0.7192
 5775SOL     OW28960   4.603   2.592  12.148 -0.4697 -0.0677  0.0367
 5775SOL    HW128961   4.574   2.607  12.238 -2.1829 -1.9582 -0.1921
 5775SOL    HW228962   4.679   2.534  12.155 -1.0365 -0.9857 -1.5915
 5776SOL     OW28963   0.885   2.885   0.840 -0.1420  0.6541  0.5251
 5776SOL    HW128964   0.826   2.931   0.781  2.6910  0.2402 -2.6140
 5776SOL    HW228965   0.822   2.836   0.893 -1.2354  1.3165 -0.1884
 5777SOL     OW28966   4.559   4.074   8.409 -0.0313  0.3331  0.1736
 5777SOL    HW128967   4.537   4.146   8.469 -2.2460  0.4061 -0.7155
 5777SOL    HW228968   4.569   3.998   8.467 -0.0228  0.5352  0.4398
 5778SOL     OW28969   3.145   0.029  17.281  0.0146  0.0277 -0.2454
 5778SOL    HW128970   3.112   4.681  17.265 -1.1413  0.1724  1.4250
 5778SOL    HW228971   3.236   0.008  17.303 -0.4559 -0.9545  0.7371
 5779SOL     OW28972   0.320   1.913   1.777  0.3839 -0.1300  0.0020
 5779SOL    HW128973   0.413   1.923   1.755  0.6603  2.7254  2.3784
 5779SOL    HW228974   0.298   2.003   1.802 -1.1503 -0.5250  0.0842
 5780SOL     OW28975   1.762   0.354   1.145 -0.3665  0.0852  0.1413
 5780SOL    HW128976   1.682   0.366   1.093  0.3656  0.6649 -0.8445
 5780SOL    HW228977   1.722   0.283   1.196 -1.2668 -0.7833 -1.7231
 5781SOL     OW28978   2.033   2.590  11.771 -0.1892  0.1086  0.0232
 5781SOL    HW128979   2.116   2.616  11.811 -0.4383  3.0115 -1.3795
 5781SOL    HW228980   2.049   2.497  11.756  2.7689  0.6824 -0.4139
 5782SOL     OW28981   1.439   2.419   5.467 -0.4399 -0.4920 -0.6867
 5782SOL    HW128982   1.473   2.397   5.380  0.3403  0.9084 -0.7336
 5782SOL    HW228983   1.480   2.352   5.522 -1.3996  0.8850  1.6920
 5783SOL     OW28984   2.452   4.068  13.003  0.3978 -0.0713 -0.0255
 5783SOL    HW128985   2.455   3.998  13.069  0.3669  0.8174  0.9186
 5783SOL    HW228986   2.544   4.076  12.978  0.5639  1.5902  1.1658
 5784SOL     OW28987   2.859   0.312   8.080 -0.1666 -0.3014  0.4071
 5784SOL    HW128988   2.778   0.347   8.118 -0.6460 -1.2059  0.2191
 5784SOL    HW228989   2.822   0.306   7.991  0.2203  1.6633  0.1135
 5785SOL     OW28990   1.627   4.618   4.563  0.2908  0.1299 -0.4089
 5785SOL    HW128991   1.669   4.666   4.634 -0.4346  0.5186 -0.2456
 5785SOL    HW228992   1.534   4.635   4.579  0.2222 -0.1694 -0.4797
 5786SOL     OW28993   0.088   1.810   6.264 -0.0163  0.2382  0.5870
 5786SOL    HW128994   0.034   1.889   6.274 -0.6637 -0.1788  0.3695
 5786SOL    HW228995   0.158   1.822   6.329  1.0868 -0.5585 -0.4628
 5787SOL     OW28996   2.620   3.563  16.453  0.2440  0.0396 -0.0403
 5787SOL    HW128997   2.647   3.475  16.479  0.3686  0.3306  0.8356
 5787SOL    HW228998   2.550   3.587  16.515 -0.1853 -0.6944 -0.2341
 5788SOL     OW28999   0.096   0.264   3.049 -0.1680 -0.7634  0.1433
 5788SOL    HW129000   0.020   0.218   3.014 -1.0851 -0.1585  1.3377
 5788SOL    HW229001   0.088   0.246   3.142 -0.8688 -0.1470  0.2066
 5789SOL     OW29002   1.069   3.690   7.301 -0.5681  0.0433 -0.2021
 5789SOL    HW129003   1.047   3.775   7.339 -0.7754  0.3889 -1.0979
 5789SOL    HW229004   1.090   3.639   7.380  2.6860  2.5770  0.5515
 5790SOL     OW29005   0.948   1.617  11.853  0.3982 -0.0383 -0.4392
 5790SOL    HW129006   1.030   1.633  11.900  0.2527  2.4099 -1.0776
 5790SOL    HW229007   0.977   1.623  11.762  0.3317 -0.5769 -0.4962
 5791SOL     OW29008   3.038   3.198   4.128 -0.1620  0.1256 -0.3008
 5791SOL    HW129009   2.976   3.161   4.065 -0.4361  1.1218 -0.6155
 5791SOL    HW229010   3.047   3.289   4.102  0.9355  0.9118  2.9703
 5792SOL     OW29011   2.617   2.636   8.517 -0.0751  0.1128 -0.0974
 5792SOL    HW129012   2.584   2.684   8.442 -0.3280  0.2253  0.0854
 5792SOL    HW229013   2.635   2.550   8.480 -0.1263 -0.3548  0.9524
 5793SOL     OW29014   3.394   1.131   7.418  0.3866 -0.3690 -0.3423
 5793SOL    HW129015   3.408   1.036   7.427  0.4206 -0.1858  1.4440
 5793SOL    HW229016   3.407   1.164   7.506  0.2501 -1.1096 -0.0437
 5794SOL     OW29017   2.291   1.661   7.136 -0.2921 -0.1707 -0.1014
 5794SOL    HW129018   2.332   1.589   7.185  0.0761  0.7952  1.0000
 5794SOL    HW229019   2.335   1.730   7.186  2.2791 -2.3796  0.6927
 5795SOL     OW29020   2.787   0.347   3.392  0.1647 -0.0633  0.2528
 5795SOL    HW129021   2.768   0.435   3.359 -2.0488  0.6670  3.4721
 5795SOL    HW229022   2.871   0.332   3.349  0.1661  2.7935 -0.7504
 5796SOL     OW29023   2.961   4.691  11.486  0.0880  0.4129 -0.1163
 5796SOL    HW129024   3.004   4.665  11.404  0.1703  0.9624 -0.2501
 5796SOL    HW229025   2.953   0.047  11.482 -2.7885  0.1749  0.3229
 5797SOL     OW29026   1.828   1.618   1.210  0.0582  0.0655  0.4278
 5797SOL    HW129027   1.918   1.649   1.222  0.8182 -1.4399 -1.3681
 5797SOL    HW229028   1.848   1.545   1.151  1.1214  0.3163  0.4761
 5798SOL     OW29029   0.749   3.034   2.628 -0.7198 -0.2656 -0.0179
 5798SOL    HW129030   0.666   3.031   2.677  0.3682  0.9774  1.8671
 5798SOL    HW229031   0.746   2.957   2.571  1.3362 -1.7258  1.8934
 5799SOL     OW29032   3.633   3.965   2.716 -0.3678 -0.7395 -0.6362
 5799SOL    HW129033   3.728   3.971   2.728 -0.5553  1.7275 -0.3757
 5799SOL    HW229034   3.618   4.009   2.633 -1.3609  0.6889  0.3007
 5800SOL     OW29035   3.691   2.744   5.312 -0.1505  0.5265  0.0638
 5800SOL    HW129036   3.629   2.773   5.379  1.0320  0.3329  1.2523
 5800SOL    HW229037   3.649   2.744   5.226 -0.9887 -0.8684  0.4537
 5801SOL     OW29038   0.292   4.369   0.803 -0.4904 -0.2148  0.2808
 5801SOL    HW129039   0.361   4.399   0.744  0.4892  2.0364  2.5870
 5801SOL    HW229040   0.237   4.444   0.779 -0.5486 -0.1347  0.6694
 5802SOL     OW29041   3.631   4.672   2.773  0.3651  0.3229 -0.0877
 5802SOL    HW129042   3.573   4.696   2.701 -0.0637 -0.5334 -0.0295
 5802SOL    HW229043   3.601   4.582   2.786  0.9685 -0.1724 -2.1608
 5803SOL     OW29044   2.315   3.993   1.929 -0.9379 -0.8743 -0.2713
 5803SOL    HW129045   2.240   3.968   1.875 -0.2220 -0.6253 -1.3779
 5803SOL    HW229046   2.315   4.084   1.897 -0.8168 -0.7363  0.1224
 5804SOL     OW29047   3.049   3.298   2.495 -0.3000 -0.1727 -0.1734
 5804SOL    HW129048   3.030   3.357   2.568 -0.0027 -1.7035  1.1467
 5804SOL    HW229049   3.145   3.301   2.495 -0.2829 -0.9440 -1.8375
 5805SOL     OW29050   3.763   4.081  14.094  0.0085 -0.0799  0.2762
 5805SOL    HW129051   3.770   4.130  14.176  0.3882 -0.7973  0.6769
 5805SOL    HW229052   3.800   3.998  14.123 -1.1881  0.4146  3.2338
 5806SOL     OW29053   1.286   3.647  10.783  0.6872  0.0510  0.1157
 5806SOL    HW129054   1.192   3.651  10.798  0.6100  2.9278 -1.1817
 5806SOL    HW229055   1.295   3.721  10.723  1.9438  0.9654  1.4322
 5807SOL     OW29056   4.488   0.257   8.242 -0.0338 -0.3140  0.2035
 5807SOL    HW129057   4.434   0.270   8.164 -1.0161  0.9375  1.0734
 5807SOL    HW229058   4.480   0.349   8.269 -0.1478 -0.6217  1.2160
 5808SOL     OW29059   1.834   3.681  17.179 -0.3203 -0.4290  0.1253
 5808SOL    HW129060   1.870   3.769  17.190 -1.5188 -0.0976  1.4187
 5808SOL    HW229061   1.861   3.626  17.253  3.0429  1.0402  0.0182
 5809SOL     OW29062   4.380   3.562  13.932  0.5984 -0.3402 -0.0796
 5809SOL    HW129063   4.450   3.604  13.883 -0.1088 -0.1780 -0.9546
 5809SOL    HW229064   4.331   3.634  13.973 -0.8523 -0.8880 -0.8546
 5810SOL     OW29065   0.609   2.386   6.896  0.3774 -0.2297  0.3612
 5810SOL    HW129066   0.562   2.342   6.825  0.3939 -1.1365  0.9083
 5810SOL    HW229067   0.653   2.447   6.837 -0.0568 -1.3071 -1.0769
 5811SOL     OW29068   2.742   3.356  14.621  0.8630 -0.5847 -0.6059
 5811SOL    HW129069   2.769   3.448  14.632  1.7565 -1.2905  3.1433
 5811SOL    HW229070   2.818   3.311  14.586  0.8489  1.5131 -3.3505
 5812SOL     OW29071   0.751   0.401  11.875 -0.2473  0.5948  0.5387
 5812SOL    HW129072   0.794   0.359  11.949 -1.8167  0.6494  1.4846
 5812SOL    HW229073   0.731   0.485  11.916  0.1149  1.3073 -0.7621
 5813SOL     OW29074   3.615   2.485   6.669  0.1386 -0.5278  0.3214
 5813SOL    HW129075   3.623   2.452   6.759  1.8157  1.1298  0.7838
 5813SOL    HW229076   3.613   2.405   6.617  2.2949 -1.7596  2.1356
 5814SOL     OW29077   0.616   2.862   0.944  0.1357  0.7644  0.1513
 5814SOL    HW129078   0.590   2.782   0.988 -1.1994  1.0698 -0.0814
 5814SOL    HW229079   0.567   2.928   0.992  1.1793  0.7660  1.1991
 5815SOL     OW29080   0.539   0.516   3.778 -0.1342  0.0736 -0.2287
 5815SOL    HW129081   0.569   0.605   3.798  2.7093 -0.7107 -0.9335
 5815SOL    HW229082   0.475   0.526   3.708 -0.4092 -0.8712 -0.1077
 5816SOL     OW29083   1.450   4.285   2.638 -0.6121 -0.3442  0.1508
 5816SOL    HW129084   1.364   4.318   2.661  0.4075  0.1081  3.3723
 5816SOL    HW229085   1.438   4.191   2.622 -3.7723  0.1313 -0.1354
 5817SOL     OW29086   3.863   3.437   7.896 -0.0607  0.4597 -0.3129
 5817SOL    HW129087   3.784   3.484   7.923 -0.1051  1.5461 -2.3714
 5817SOL    HW229088   3.930   3.501   7.915  0.5806 -0.6729  1.2332
 5818SOL     OW29089   1.355   1.200   6.114  0.5999  0.4289 -0.3324
 5818SOL    HW129090   1.274   1.159   6.145  0.3151 -0.7232 -2.6705
 5818SOL    HW229091   1.355   1.156   6.029 -0.5897 -0.2893  0.0471
 5819SOL     OW29092   3.249   3.560   4.040  0.2705 -0.0589  0.5320
 5819SOL    HW129093   3.275   3.493   3.977  1.6808  1.4489 -0.5071
 5819SOL    HW229094   3.338   3.577   4.071  1.5952  0.0893 -3.2317
 5820SOL     OW29095   3.692   2.801   9.096  0.1714  0.7004  0.4573
 5820SOL    HW129096   3.743   2.728   9.062  0.1330  1.0999 -0.4572
 5820SOL    HW229097   3.707   2.860   9.022  0.0000 -1.4521 -1.2747
 5821SOL     OW29098   1.599   2.080  10.393 -0.2710 -0.5514 -0.5550
 5821SOL    HW129099   1.567   2.168  10.413  1.8573 -0.1092  0.9155
 5821SOL    HW229100   1.645   2.047  10.471 -1.2377 -2.5217 -0.8157
 5822SOL     OW29101   1.747   2.421   8.019  0.7340  0.7317 -0.2889
 5822SOL    HW129102   1.754   2.325   8.014  0.6327  0.6835  0.5279
 5822SOL    HW229103   1.823   2.439   8.074  0.3339 -0.4916  0.6677
 5823SOL     OW29104   1.581   2.397   8.749 -0.0851 -0.5570 -0.1948
 5823SOL    HW129105   1.498   2.374   8.707  0.3960  0.0093 -1.4704
 5823SOL    HW229106   1.645   2.408   8.678 -0.2457  1.9515  0.0720
 5824SOL     OW29107   4.703   1.906   1.253 -0.4372  0.1654 -0.1362
 5824SOL    HW129108   0.052   1.915   1.217  1.2824 -0.8438  3.8496
 5824SOL    HW229109   4.674   1.997   1.249 -0.6466  0.1227  0.4672
 5825SOL     OW29110   3.417   1.117   4.898 -0.1599  1.1044 -0.3084
 5825SOL    HW129111   3.413   1.063   4.819  2.7258 -2.2501  1.8312
 5825SOL    HW229112   3.483   1.070   4.949 -1.1919  2.7612  2.5252
 5826SOL     OW29113   0.899   4.237  13.266 -0.0399  0.0751 -0.8267
 5826SOL    HW129114   0.839   4.176  13.308 -1.6953  0.5500 -2.5351
 5826SOL    HW229115   0.935   4.191  13.190  1.5125 -0.0426 -0.0356
 5827SOL     OW29116   4.420   2.533  11.215 -0.5240 -1.2448  0.2448
 5827SOL    HW129117   4.461   2.489  11.291  1.8620  0.1455 -0.2442
 5827SOL    HW229118   4.503   2.564  11.180 -1.7331  1.2837 -0.3694
 5828SOL     OW29119   2.655   4.237  16.306  0.0367 -0.6545 -0.1751
 5828SOL    HW129120   2.588   4.295  16.342  0.7477  0.2317 -0.2929
 5828SOL    HW229121   2.604   4.162  16.276 -1.0578  1.4095 -3.4220
 5829SOL     OW29122   0.942   3.458   4.998  0.0444  0.0408  0.2131
 5829SOL    HW129123   0.988   3.471   4.915  0.7755  0.2009  0.6435
 5829SOL    HW229124   1.001   3.400   5.046  0.1558  0.5254  0.6745
 5830SOL     OW29125   1.586   0.704  10.663  0.4819  0.0437 -0.2235
 5830SOL    HW129126   1.642   0.658  10.601 -1.4181  0.1656 -2.0305
 5830SOL    HW229127   1.642   0.766  10.709  1.2796 -1.2789  0.5755
 5831SOL     OW29128   0.727   0.845  14.135  0.3154  0.6298  0.0161
 5831SOL    HW129129   0.674   0.853  14.215 -0.8643  0.5035 -0.7579
 5831SOL    HW229130   0.770   0.930  14.133 -1.0318  1.3414  1.1689
 5832SOL     OW29131   2.135   1.427  12.969 -0.1198 -0.1129 -0.5390
 5832SOL    HW129132   2.091   1.506  12.936 -1.3071 -0.1867  0.8837
 5832SOL    HW229133   2.124   1.359  12.902 -1.4977 -2.1704  1.7950
 5833SOL     OW29134   2.106   4.351   3.434 -0.1028  0.0347 -0.0620
 5833SOL    HW129135   2.032   4.294   3.410  0.1683  0.0364 -0.8594
 5833SOL    HW229136   2.158   4.295   3.492 -0.7455  0.2707  0.7587
 5834SOL     OW29137   2.349   3.825  12.390  0.0571 -0.0870  0.3764
 5834SOL    HW129138   2.282   3.761  12.366 -0.9683  1.8258 -1.8776
 5834SOL    HW229139   2.313   3.864  12.470 -2.2638  0.0197 -0.7282
 5835SOL     OW29140   3.624   1.652   2.271  0.0867  0.3757  0.4567
 5835SOL    HW129141   3.675   1.679   2.194 -2.3996  0.9189 -1.0075
 5835SOL    HW229142   3.593   1.739   2.298 -1.0165 -0.0979  0.7075
 5836SOL     OW29143   3.505   3.718   4.230  0.0194 -0.5422 -0.2386
 5836SOL    HW129144   3.561   3.736   4.154 -1.5708  0.2480 -1.2234
 5836SOL    HW229145   3.547   3.779   4.290  2.2274 -2.9869  0.6825
 5837SOL     OW29146   2.076   1.166   7.564 -0.1761 -0.0373 -0.2220
 5837SOL    HW129147   2.062   1.084   7.517  1.5259  1.1277 -2.7420
 5837SOL    HW229148   2.155   1.145   7.614  1.1355 -0.0915 -2.3441
 5838SOL     OW29149   1.340   3.610   4.401  0.1496  0.6343 -0.3293
 5838SOL    HW129150   1.266   3.585   4.457 -0.0605  1.4282 -0.2598
 5838SOL    HW229151   1.305   3.573   4.319  2.7651 -2.5843  0.0157
 5839SOL     OW29152   4.260   3.982   9.562 -0.5786  0.4609  0.2780
 5839SOL    HW129153   4.269   4.070   9.600  0.1545  1.0201 -1.2081
 5839SOL    HW229154   4.200   3.944   9.626  1.6358 -2.2921  0.7048
 5840SOL     OW29155   4.389   0.931  16.800  0.2369  0.0920  0.3068
 5840SOL    HW129156   4.477   0.944  16.766  0.2866 -2.8754 -0.7006
 5840SOL    HW229157   4.337   0.935  16.720 -1.1546  2.2764  1.3092
 5841SOL     OW29158   3.056   0.702   6.323 -0.4818  0.1099  0.1037
 5841SOL    HW129159   3.046   0.724   6.230 -0.4994 -0.2481  0.0190
 5841SOL    HW229160   3.063   0.793   6.350 -0.4177  0.0098  0.4196
 5842SOL     OW29161   0.199   1.340   4.446  0.5361 -0.1667  0.0521
 5842SOL    HW129162   0.277   1.305   4.487  0.3586 -0.7503 -0.1134
 5842SOL    HW229163   0.147   1.261   4.436 -0.3858  0.4316  0.0354
 5843SOL     OW29164   1.756   2.186  11.162 -0.2991  0.7249 -0.0557
 5843SOL    HW129165   1.739   2.117  11.226 -0.3461  1.2104  0.4518
 5843SOL    HW229166   1.670   2.227  11.153 -1.4787 -1.5844  0.8453
 5844SOL     OW29167   3.049   3.539   6.352  0.2282  0.1639 -0.1739
 5844SOL    HW129168   2.967   3.490   6.352  1.0869 -1.2806  1.3818
 5844SOL    HW229169   3.021   3.615   6.403  0.2007 -0.1572  0.2941
 5845SOL     OW29170   4.406   0.367   7.299 -0.3589  0.1059 -0.1967
 5845SOL    HW129171   4.426   0.427   7.227 -1.3026  0.7207  0.0476
 5845SOL    HW229172   4.322   0.333   7.267 -1.0071  2.0603 -0.5772
 5846SOL     OW29173   4.120   1.692   0.302 -0.4810  0.1249 -0.5614
 5846SOL    HW129174   4.085   1.702   0.390  0.9452  0.3426 -0.0133
 5846SOL    HW229175   4.151   1.783   0.297 -1.8646  0.6028 -0.4551
 5847SOL     OW29176   0.493   2.954   0.727  0.5029 -0.0472 -0.0762
 5847SOL    HW129177   0.534   2.903   0.797  2.7341  0.2771 -1.1562
 5847SOL    HW229178   0.438   2.883   0.693  2.2996 -0.6011 -1.7968
 5848SOL     OW29179   0.081   4.734   6.480 -0.1138  0.1876 -0.4967
 5848SOL    HW129180   0.139   4.736   6.556  0.4648 -0.4097 -0.9262
 5848SOL    HW229181   4.737   0.004   6.525 -0.9049 -0.1766 -1.8828
 5849SOL     OW29182   0.588   0.920  13.542 -0.2400 -0.0388 -0.4557
 5849SOL    HW129183   0.503   0.934  13.502 -0.1532  0.1841 -0.5645
 5849SOL    HW229184   0.603   0.992  13.604  0.0939 -0.5368  0.0360
 5850SOL     OW29185   3.898   4.437   3.118  0.0398 -0.1996  0.0240
 5850SOL    HW129186   3.896   4.497   3.044  1.5311 -0.2949 -0.0850
 5850SOL    HW229187   3.844   4.373   3.071  2.0922 -0.8078 -1.5217
 5851SOL     OW29188   2.192   2.770  12.241 -0.6633  0.0982  0.7153
 5851SOL    HW129189   2.236   2.770  12.326 -1.4160 -1.4113  1.1103
 5851SOL    HW229190   2.101   2.755  12.265 -0.8380  1.6876  0.9813
 5852SOL     OW29191   3.540   3.768   9.249  0.0522  0.2177  0.1138
 5852SOL    HW129192   3.589   3.744   9.327 -2.0095 -1.0065  1.0466
 5852SOL    HW229193   3.451   3.747   9.277 -0.9248  0.7900 -2.5112
 5853SOL     OW29194   0.045   4.635   3.264 -0.5709 -0.5042  0.1515
 5853SOL    HW129195   0.059   4.726   3.291 -1.1034 -0.8282  1.4968
 5853SOL    HW229196   0.109   4.631   3.193 -1.2234 -2.9910 -0.2785
 5854SOL     OW29197   2.284   1.898   9.481  0.2188  0.9634 -0.1051
 5854SOL    HW129198   2.290   1.906   9.577 -0.1751 -1.5621  0.1317
 5854SOL    HW229199   2.308   1.987   9.455  0.9825  0.8188  0.0819
 5855SOL     OW29200   1.833   4.195   9.977  0.5011 -0.2650  0.3444
 5855SOL    HW129201   1.806   4.107  10.002  0.7030 -0.2467  0.6314
 5855SOL    HW229202   1.845   4.236  10.063 -1.3371 -0.1478  0.5461
 5856SOL     OW29203   4.013   1.679   1.357  0.0738 -0.0430  0.5877
 5856SOL    HW129204   3.982   1.594   1.387 -0.0510  0.1262  0.9477
 5856SOL    HW229205   3.956   1.688   1.281  2.1739  1.4478 -0.8456
 5857SOL     OW29206   1.837   4.227  16.670 -0.2750  0.5227 -0.1153
 5857SOL    HW129207   1.756   4.184  16.640  0.6537 -1.0029 -0.4413
 5857SOL    HW229208   1.837   4.215  16.765  0.4580 -2.3797 -0.4615
 5858SOL     OW29209   4.241   0.928  12.435  0.2397  0.3053  0.8107
 5858SOL    HW129210   4.289   1.004  12.466  0.7369  0.5020 -0.4644
 5858SOL    HW229211   4.181   0.919  12.509 -0.7528  1.4545  0.1353
 5859SOL     OW29212   4.240   2.136   7.888 -0.1524  0.3405  0.1968
 5859SOL    HW129213   4.315   2.099   7.935 -0.4712 -0.2131  0.2667
 5859SOL    HW229214   4.280   2.174   7.810 -0.8350  1.1370  0.2393
 5860SOL     OW29215   3.722   0.139   7.852 -0.3796  0.3463 -0.2348
 5860SOL    HW129216   3.676   0.067   7.895 -0.0367 -0.1586 -0.7019
 5860SOL    HW229217   3.714   0.116   7.759 -1.7969 -0.5373  0.1095
 5861SOL     OW29218   2.518   1.098   7.577 -0.1140 -1.0561  0.1208
 5861SOL    HW129219   2.449   1.037   7.552  1.5695 -2.8964 -0.0094
 5861SOL    HW229220   2.539   1.060   7.663 -0.3701  1.1478  1.1628
 5862SOL     OW29221   0.607   0.433   3.017 -0.4393 -0.2115  0.6483
 5862SOL    HW129222   0.692   0.391   3.005  0.1502  0.6743  1.7499
 5862SOL    HW229223   0.567   0.440   2.930 -0.3804  0.0152  0.6400
 5863SOL     OW29224   2.115   2.763   5.839 -0.1608  0.1824  0.0949
 5863SOL    HW129225   2.146   2.801   5.757  0.4455  0.9371  0.6832
 5863SOL    HW229226   2.091   2.836   5.896 -1.3375 -0.8797  0.9896
 5864SOL     OW29227   0.079   2.601   1.853 -0.1651  0.3704 -0.0837
 5864SOL    HW129228   0.146   2.648   1.902  0.4101 -0.0020 -0.5092
 5864SOL    HW229229   0.143   2.549   1.804 -1.0607 -1.0590  0.2583
 5865SOL     OW29230   2.279   2.383  13.463 -0.4265  0.3834  0.4167
 5865SOL    HW129231   2.204   2.388  13.522 -0.5187  1.2228  0.2195
 5865SOL    HW229232   2.335   2.325  13.515  1.0382  0.3099 -1.2342
 5866SOL     OW29233   4.010   0.607   2.095 -0.0469 -0.1740  0.3046
 5866SOL    HW129234   3.937   0.557   2.131 -0.7682  1.2339  0.8075
 5866SOL    HW229235   4.052   0.545   2.035 -0.5317  2.0706 -2.4038
 5867SOL     OW29236   3.890   3.995   1.036 -0.2999 -0.0678 -0.0608
 5867SOL    HW129237   3.885   4.007   1.130 -0.3550 -0.3504 -0.0271
 5867SOL    HW229238   3.884   4.087   1.008 -0.6276  0.0344  0.3523
 5868SOL     OW29239   2.530   2.893  17.179 -0.2159  0.2262  0.0331
 5868SOL    HW129240   2.622   2.873  17.159 -0.6056 -2.2767  0.7110
 5868SOL    HW229241   2.498   2.868  17.092 -1.6324 -0.3093  0.7227
 5869SOL     OW29242   4.421   1.994   0.868 -0.1754 -0.1128 -0.0284
 5869SOL    HW129243   4.412   1.952   0.953 -0.6943 -0.4166 -0.2329
 5869SOL    HW229244   4.502   2.045   0.874  0.2414 -0.4094 -2.7916
 5870SOL     OW29245   4.734   3.162   6.166 -0.7333  0.1311 -0.1880
 5870SOL    HW129246   4.693   3.194   6.085  1.2542  0.9199 -0.8856
 5870SOL    HW229247   4.660   3.180   6.224  1.6706  0.8534  2.6780
 5871SOL     OW29248   3.039   1.028   5.283 -0.4746 -0.4879  0.6042
 5871SOL    HW129249   3.022   1.116   5.250 -2.0813 -1.3760 -0.9489
 5871SOL    HW229250   2.953   0.990   5.263 -0.1786 -0.5689 -0.4950
 5872SOL     OW29251   1.762   0.034   8.776 -0.0816 -0.6410  0.0444
 5872SOL    HW129252   1.727   4.685   8.771  2.0037 -1.4132 -0.8733
 5872SOL    HW229253   1.817   0.020   8.853 -1.2131 -0.5733  0.8658
 5873SOL     OW29254   3.684   0.334   5.472  0.3789  0.3087 -0.3718
 5873SOL    HW129255   3.609   0.324   5.530 -0.4648  2.6443 -1.0856
 5873SOL    HW229256   3.651   0.349   5.384  1.6017 -1.0797 -1.0600
 5874SOL     OW29257   3.893   0.636   9.665 -0.1959  0.3197  0.3416
 5874SOL    HW129258   3.896   0.540   9.663 -0.2860  0.2493  4.0116
 5874SOL    HW229259   3.798   0.650   9.662 -0.1042  1.3711  2.3899
 5875SOL     OW29260   3.195   4.198   4.377 -0.2323 -0.2409 -0.4585
 5875SOL    HW129261   3.271   4.141   4.372 -0.5316 -0.8518  1.6067
 5875SOL    HW229262   3.236   4.262   4.436 -0.2979  0.5321 -1.2639
 5876SOL     OW29263   0.801   2.800   2.475 -0.3718  0.3297  0.7222
 5876SOL    HW129264   0.712   2.774   2.497 -1.4867  2.6861 -0.9971
 5876SOL    HW229265   0.848   2.737   2.531 -0.5680  1.2782  1.9564
 5877SOL     OW29266   3.502   2.312   2.617  0.6068  0.2822 -0.0610
 5877SOL    HW129267   3.581   2.263   2.639  1.5347  1.4070 -0.9138
 5877SOL    HW229268   3.427   2.255   2.635  1.3823 -1.1980 -1.5404
 5878SOL     OW29269   0.651   4.399  15.036  0.1893 -0.7280  0.3393
 5878SOL    HW129270   0.671   4.436  14.950  0.5912  0.4485  0.9413
 5878SOL    HW229271   0.628   4.308  15.014  0.2747 -1.0799  1.7351
 5879SOL     OW29272   3.849   1.449  14.884  0.1911 -0.2830 -0.2253
 5879SOL    HW129273   3.917   1.403  14.835  1.0259  1.5188 -0.7469
 5879SOL    HW229274   3.818   1.386  14.950  0.6681 -0.9253 -0.6122
 5880SOL     OW29275   0.056   2.157   4.079 -0.3135  0.6409  0.1290
 5880SOL    HW129276   4.726   2.224   4.083 -0.2743  0.6714  0.3389
 5880SOL    HW229277   0.011   2.084   4.123 -0.7613  0.5104 -0.5452
 5881SOL     OW29278   2.583   0.314  15.122 -0.3577  0.4230  0.3947
 5881SOL    HW129279   2.560   0.376  15.053 -0.1726  1.3332  1.1504
 5881SOL    HW229280   2.597   0.370  15.199 -1.2427  1.7414 -0.4039
 5882SOL     OW29281   0.859   1.560  14.169 -0.2443 -0.4424 -0.2339
 5882SOL    HW129282   0.798   1.593  14.233 -0.8363 -1.7146 -0.1388
 5882SOL    HW229283   0.866   1.639  14.115  0.7184 -0.1508  0.3039
 5883SOL     OW29284   0.379   0.672   2.882 -0.7129 -0.2278  0.3544
 5883SOL    HW129285   0.441   0.603   2.857 -0.4154  2.1190 -5.4882
 5883SOL    HW229286   0.297   0.624   2.889 -2.0309  2.0326  0.4769
 5884SOL     OW29287   2.017   2.340   3.508 -0.1212 -0.0205  0.1714
 5884SOL    HW129288   2.036   2.424   3.551  0.0752 -0.0942  0.2279
 5884SOL    HW229289   1.941   2.316   3.562 -0.4157 -1.3580 -0.8477
 5885SOL     OW29290   1.639   1.153   8.356  0.3984  0.7210 -0.2492
 5885SOL    HW129291   1.681   1.222   8.303  0.3216  2.2052  1.6340
 5885SOL    HW229292   1.555   1.154   8.310 -1.2260  0.7261  2.7333
 5886SOL     OW29293   2.554   4.444  11.974 -0.7693 -0.7564 -0.1422
 5886SOL    HW129294   2.590   4.430  12.061 -1.9414  1.0507  0.6310
 5886SOL    HW229295   2.471   4.487  11.993  1.3657  2.5842  1.5707
 5887SOL     OW29296   3.322   0.346  17.450  0.5201  0.5866 -0.3454
 5887SOL    HW129297   3.354   0.436  17.450  2.7053 -0.1840 -0.1784
 5887SOL    HW229298   3.356   0.323  17.364  0.3054 -2.0499  0.2608
 5888SOL     OW29299   1.164   1.728   1.433 -0.2643 -0.7825 -0.1810
 5888SOL    HW129300   1.199   1.669   1.499 -1.2972 -1.7850 -0.5287
 5888SOL    HW229301   1.134   1.794   1.495  0.5817  0.5753 -1.1862
 5889SOL     OW29302   3.715   2.016   8.283  0.0297 -0.2697  0.1236
 5889SOL    HW129303   3.715   1.935   8.333 -0.9505 -0.0735  0.4636
 5889SOL    HW229304   3.622   2.041   8.287  0.1036  0.0147  0.1132
 5890SOL     OW29305   1.792   3.195   4.744  0.2589 -0.3667  0.1355
 5890SOL    HW129306   1.752   3.193   4.831 -0.5742  0.7205 -0.2291
 5890SOL    HW229307   1.882   3.219   4.764  0.1787 -0.3926  0.5180
 5891SOL     OW29308   3.761   4.197   3.376  0.3800  0.4890 -0.0966
 5891SOL    HW129309   3.693   4.217   3.311 -0.2305  0.6124  0.5743
 5891SOL    HW229310   3.710   4.198   3.458  0.7873 -2.4108  0.1935
 5892SOL     OW29311   4.609   4.629   5.913  0.4233 -0.1784  0.1759
 5892SOL    HW129312   4.692   4.591   5.886 -1.2175 -2.9922 -0.8566
 5892SOL    HW229313   4.644   4.713   5.944  2.3843  0.0146 -2.6190
 5893SOL     OW29314   0.164   2.063   5.981 -0.3595  0.1039  0.7312
 5893SOL    HW129315   0.136   2.001   5.914  1.0983 -1.2364  1.3664
 5893SOL    HW229316   0.093   2.126   5.969  0.1000 -0.3977 -4.5036
 5894SOL     OW29317   0.396   0.003   1.419  0.3467  0.3645  0.5583
 5894SOL    HW129318   0.482   0.044   1.415 -0.1738  1.2446 -1.6056
 5894SOL    HW229319   0.375   0.021   1.327  2.4961  0.8701  0.1506
 5895SOL     OW29320   0.410   3.752  13.666 -0.4376 -0.6891 -0.1971
 5895SOL    HW129321   0.411   3.658  13.646  3.5224 -0.5326 -0.8190
 5895SOL    HW229322   0.494   3.752  13.713 -0.3163  2.4419 -0.4683
 5896SOL     OW29323   1.793   3.940  16.279 -0.5827  0.6855  0.2344
 5896SOL    HW129324   1.762   3.890  16.354 -0.4711  0.1139 -0.0979
 5896SOL    HW229325   1.742   3.898  16.209 -0.1354 -1.3873  1.1616
 5897SOL     OW29326   1.810   0.743   3.639  1.5636  0.3150  0.1834
 5897SOL    HW129327   1.766   0.778   3.717  0.8825 -0.9027  0.3489
 5897SOL    HW229328   1.902   0.757   3.661  1.1997  0.0695  1.8863
 5898SOL     OW29329   1.753   3.210   6.327 -0.1869 -0.2884 -0.1679
 5898SOL    HW129330   1.680   3.163   6.288  0.2482 -0.0685 -1.2576
 5898SOL    HW229331   1.763   3.273   6.255  0.4329  0.2707  0.3974
 5899SOL     OW29332   2.437   2.134   9.430 -0.5032  0.5080  0.3048
 5899SOL    HW129333   2.501   2.080   9.383  0.0308  0.6510  0.8741
 5899SOL    HW229334   2.483   2.217   9.440 -0.2136  0.3739  0.0936
 5900SOL     OW29335   4.071   1.383  13.550 -0.0201  0.0585  0.1030
 5900SOL    HW129336   4.165   1.403  13.555 -0.5009  2.5857 -1.5036
 5900SOL    HW229337   4.049   1.438  13.476 -2.6598 -2.3542 -0.9068
 5901SOL     OW29338   1.169   0.540   7.667 -0.3865  0.6083 -0.3424
 5901SOL    HW129339   1.094   0.550   7.725 -1.9007  1.5397 -2.4639
 5901SOL    HW229340   1.120   0.503   7.593 -0.2881 -0.8865  0.3445
 5902SOL     OW29341   3.421   0.157   2.848  0.3501 -0.5175  0.1213
 5902SOL    HW129342   3.418   0.178   2.754 -0.3271 -1.8016 -0.1401
 5902SOL    HW229343   3.475   0.228   2.883  0.5516 -0.6739  0.1281
 5903SOL     OW29344   0.852   4.501   1.959  0.1474  0.6319  0.6750
 5903SOL    HW129345   0.854   4.569   2.026  1.4873  0.2587  1.0159
 5903SOL    HW229346   0.885   4.423   2.004  1.3292  0.9113  0.2671
 5904SOL     OW29347   1.520   1.680  12.035  0.4445 -0.3675 -0.7380
 5904SOL    HW129348   1.601   1.630  12.043  1.3145  1.5380  2.4566
 5904SOL    HW229349   1.464   1.608  12.063  1.1427 -0.8270 -0.5344
 5905SOL     OW29350   3.823   3.386   6.526 -0.4509  0.2892  0.1728
 5905SOL    HW129351   3.859   3.413   6.442 -0.1687  0.6834  0.4212
 5905SOL    HW229352   3.805   3.477   6.552 -1.4099  0.5072 -1.2790
 5906SOL     OW29353   2.163   0.408  14.526  0.0896 -0.4323  0.5824
 5906SOL    HW129354   2.089   0.432  14.470 -0.6720 -0.7787  1.4338
 5906SOL    HW229355   2.222   0.365  14.464 -2.0685 -0.4778 -1.4757
 5907SOL     OW29356   0.315   0.074   3.347 -0.0720 -0.1897  1.0869
 5907SOL    HW129357   0.287   0.074   3.255  0.2708  0.1335  0.9807
 5907SOL    HW229358   0.330   0.169   3.350 -1.8002  0.0457  2.4136
 5908SOL     OW29359   4.163   2.887   3.055 -0.0172  0.1328 -0.6031
 5908SOL    HW129360   4.095   2.910   3.119 -0.7735 -0.7294 -1.0867
 5908SOL    HW229361   4.197   2.805   3.088 -1.6244 -0.5980 -0.7258
 5909SOL     OW29362   3.937   2.679  12.794  0.0412  0.0384  0.5406
 5909SOL    HW129363   3.868   2.670  12.728  0.6754 -0.9260  0.0036
 5909SOL    HW229364   3.959   2.585  12.794 -0.1568 -0.0037  1.9854
 5910SOL     OW29365   0.295   0.848   3.818  0.1819  0.4049  0.3562
 5910SOL    HW129366   0.324   0.788   3.886 -1.0090 -0.3063  0.2209
 5910SOL    HW229367   0.227   0.797   3.774  0.2529  0.5907  0.0320
 5911SOL     OW29368   4.216   2.240  10.694  0.0331  0.7013  0.3273
 5911SOL    HW129369   4.277   2.314  10.687  1.9228 -0.7937  1.3552
 5911SOL    HW229370   4.256   2.185  10.761  0.6527  0.2067 -0.4309
 5912SOL     OW29371   4.227   4.258   4.459  0.0016  0.0128 -0.2134
 5912SOL    HW129372   4.253   4.266   4.367  1.5997  0.4557  0.2859
 5912SOL    HW229373   4.267   4.340   4.487  2.2603 -0.4857 -1.9752
 5913SOL     OW29374   4.651   0.946   3.243 -0.5077 -0.0089 -0.2711
 5913SOL    HW129375   4.565   0.904   3.243 -1.0207  0.9873  2.4371
 5913SOL    HW229376   4.700   0.900   3.175 -0.4077  0.4339 -0.4984
 5914SOL     OW29377   3.749   3.564   8.684 -0.1806 -0.3188 -0.2174
 5914SOL    HW129378   3.788   3.621   8.751  2.1771 -1.1088 -0.9048
 5914SOL    HW229379   3.802   3.486   8.698 -0.7704 -0.4929  1.0548
 5915SOL     OW29380   0.424   1.377  12.422 -0.5351  0.3395 -0.6173
 5915SOL    HW129381   0.411   1.432  12.345 -1.0744  0.7126 -0.2628
 5915SOL    HW229382   0.391   1.298  12.382  1.2007  1.2051 -3.7711
 5916SOL     OW29383   1.178   0.904   7.088  0.0283 -0.2964 -0.4193
 5916SOL    HW129384   1.261   0.950   7.100  0.7878 -1.9505  0.6292
 5916SOL    HW229385   1.183   0.874   6.997  0.5980 -0.1369 -0.4423
 5917SOL     OW29386   2.243   1.346   0.903 -0.6191 -0.0101  0.2186
 5917SOL    HW129387   2.278   1.286   0.969 -1.8397  0.2647  1.1225
 5917SOL    HW229388   2.163   1.298   0.881 -1.0725  0.6285  0.4684
 5918SOL     OW29389   2.127   4.006  17.390 -0.4237  0.2955  0.7745
 5918SOL    HW129390   2.186   4.008  17.465 -0.7147 -0.9188  1.0300
 5918SOL    HW229391   2.146   4.090  17.348 -0.5317  0.0332  0.2065
 5919SOL     OW29392   3.956   2.455   7.014 -0.0235 -0.2680  0.2277
 5919SOL    HW129393   4.030   2.505   6.980  1.4323 -3.4301 -1.1775
 5919SOL    HW229394   3.894   2.518   7.052 -0.5233  0.2569 -1.4766
 5920SOL     OW29395   4.304   2.182   4.399  0.3363 -0.4515 -0.2792
 5920SOL    HW129396   4.243   2.243   4.441  0.3765  0.1159 -1.0548
 5920SOL    HW229397   4.373   2.245   4.381  1.0638 -0.7974  1.2370
 5921SOL     OW29398   4.101   1.441   7.245  0.1315  0.2249  0.1168
 5921SOL    HW129399   4.108   1.518   7.301  4.0602  0.6096 -0.9618
 5921SOL    HW229400   4.192   1.421   7.224  0.4377  1.6021  0.1580
 5922SOL     OW29401   1.171   4.372   1.501 -0.4554 -0.3152  0.7460
 5922SOL    HW129402   1.259   4.343   1.526  0.6916  1.1566 -1.5434
 5922SOL    HW229403   1.131   4.412   1.578 -0.8507  0.0971  0.3292
 5923SOL     OW29404   0.990   1.064   8.897  0.0144  0.0247 -0.8650
 5923SOL    HW129405   1.056   1.113   8.948  0.3790  0.7472 -2.0406
 5923SOL    HW229406   0.915   1.074   8.956 -0.5413 -1.6739 -1.3107
 5924SOL     OW29407   4.155   0.470   8.423 -0.6594 -0.1304 -0.0006
 5924SOL    HW129408   4.179   0.380   8.401  0.2777  0.5057 -1.5647
 5924SOL    HW229409   4.116   0.453   8.509  0.5449 -0.4656  0.4915
 5925SOL     OW29410   1.148   0.813  12.093 -0.0221  0.2334  0.0959
 5925SOL    HW129411   1.162   0.786  12.183 -1.7416  0.6755  0.4844
 5925SOL    HW229412   1.118   0.729  12.057  1.6721 -0.4643  0.3007
 5926SOL     OW29413   3.201   2.405   5.986 -0.3180  0.5225 -0.3572
 5926SOL    HW129414   3.204   2.501   5.989  0.0279  0.4793  0.7355
 5926SOL    HW229415   3.109   2.383   5.969 -0.2563  0.8186 -1.0521
 5927SOL     OW29416   4.496   4.143   9.399  0.2598 -0.1341 -0.0184
 5927SOL    HW129417   4.456   4.063   9.432 -1.2229  0.1811 -1.0499
 5927SOL    HW229418   4.466   4.207   9.464 -1.3001 -0.6150 -0.2741
 5928SOL     OW29419   1.974   2.744   5.276 -0.1528  0.2647 -0.0126
 5928SOL    HW129420   1.990   2.837   5.259 -0.5956  0.2928 -0.2563
 5928SOL    HW229421   1.982   2.710   5.187  0.2536 -2.4544  1.0519
 5929SOL     OW29422   3.205   3.574   6.154  0.8598  0.0459 -0.8865
 5929SOL    HW129423   3.294   3.540   6.164  0.3299 -1.0568 -0.0657
 5929SOL    HW229424   3.160   3.537   6.229  0.5687  1.6160 -0.2903
 5930SOL     OW29425   0.308   3.984   5.369  0.8980 -0.1748  0.4717
 5930SOL    HW129426   0.338   4.057   5.315  1.9660 -1.8786 -1.2430
 5930SOL    HW229427   0.355   3.904   5.348  1.6908  0.3101  0.3965
 5931SOL     OW29428   0.763   3.342   6.120  0.1489 -0.0669  0.4554
 5931SOL    HW129429   0.727   3.254   6.129 -0.2381 -0.0520 -0.9581
 5931SOL    HW229430   0.685   3.387   6.087 -0.8081 -2.3652 -0.4299
 5932SOL     OW29431   1.806   2.724   4.354 -1.0436  0.1068 -0.2432
 5932SOL    HW129432   1.797   2.820   4.357 -3.2636 -0.1107 -0.1369
 5932SOL    HW229433   1.808   2.707   4.448  1.8652 -0.3274 -0.3855
 5933SOL     OW29434   0.567   3.529   4.405  0.5341  0.2668  0.0783
 5933SOL    HW129435   0.492   3.563   4.356  0.2917  2.2028  1.7994
 5933SOL    HW229436   0.633   3.598   4.400  2.1329 -1.1779  1.2126
 5934SOL     OW29437   2.514   4.055  16.193 -0.1205  0.2674  1.1666
 5934SOL    HW129438   2.557   3.971  16.177  1.5937  1.0919  1.4583
 5934SOL    HW229439   2.430   4.030  16.231 -0.4357 -0.2214  0.1729
 5935SOL     OW29440   0.807   4.410   3.541 -0.1990  0.1409  0.1204
 5935SOL    HW129441   0.808   4.342   3.473 -1.5363  1.3205 -1.0827
 5935SOL    HW229442   0.783   4.358   3.617  2.8879 -0.1870  0.8926
 5936SOL     OW29443   2.274   3.343   2.699 -0.2703 -0.7166 -0.1537
 5936SOL    HW129444   2.199   3.362   2.756  0.5477  1.5125  0.1639
 5936SOL    HW229445   2.276   3.409   2.630  1.7174 -0.3358  0.2742
 5937SOL     OW29446   4.320   1.395   3.946 -0.2168 -0.0782  0.1387
 5937SOL    HW129447   4.391   1.457   3.928  0.1807 -1.0532 -1.6579
 5937SOL    HW229448   4.349   1.365   4.032 -0.4232  0.0634  0.2585
 5938SOL     OW29449   3.066   4.550   4.123 -0.5367 -0.1194  0.2761
 5938SOL    HW129450   3.051   4.455   4.129 -3.8310  0.3008 -0.9865
 5938SOL    HW229451   2.979   4.574   4.090  0.0466 -0.2226 -1.3538
 5939SOL     OW29452   0.101   0.949   7.948 -0.1102  0.9405  0.3226
 5939SOL    HW129453   0.020   0.996   7.967 -0.0408  0.4721  1.7544
 5939SOL    HW229454   0.163   1.014   7.914 -0.7882  0.1456 -2.4399
 5940SOL     OW29455   4.200   4.047  10.247  0.3262 -0.0225 -0.0185
 5940SOL    HW129456   4.194   4.096  10.165  1.2421  2.8589  1.6638
 5940SOL    HW229457   4.227   4.113  10.310  0.1777  1.3501 -1.3909
 5941SOL     OW29458   1.985   3.280   0.015  0.2665  0.7389 -0.1337
 5941SOL    HW129459   1.919   3.218   0.047  2.2812 -1.4492 -0.2089
 5941SOL    HW229460   2.065   3.246   0.056  0.5766  1.0574 -0.4670
 5942SOL     OW29461   3.726   1.977  16.094 -0.4659 -0.3952  0.1254
 5942SOL    HW129462   3.731   2.051  16.033  1.1684  1.4181  2.4208
 5942SOL    HW229463   3.783   2.002  16.167 -1.8581  2.2539  0.3352
 5943SOL     OW29464   4.403   0.747   3.905 -0.2367  0.3333 -0.4080
 5943SOL    HW129465   4.407   0.690   3.981  0.7554  0.2459 -0.5368
 5943SOL    HW229466   4.479   0.715   3.858  0.5641  0.4049  0.8445
 5944SOL     OW29467   3.731   4.054   7.608  0.2209  0.0685  0.3430
 5944SOL    HW129468   3.740   4.149   7.602  1.0738 -0.0755 -0.5697
 5944SOL    HW229469   3.674   4.035   7.533 -1.2096 -1.0848  1.7133
 5945SOL     OW29470   4.117   3.038   6.644 -0.2148 -0.0503  0.0538
 5945SOL    HW129471   4.152   2.948   6.648 -0.3586 -0.1001  0.1641
 5945SOL    HW229472   4.028   3.021   6.673 -0.3862 -0.4508 -0.6969
 5946SOL     OW29473   1.750   0.509   3.756  0.0600  0.3117 -0.5077
 5946SOL    HW129474   1.752   0.599   3.724 -0.4775  0.3918 -0.3123
 5946SOL    HW229475   1.794   0.466   3.683 -0.9432 -0.9807 -0.3288
 5947SOL     OW29476   2.413   4.227  14.431 -0.1308 -0.1030 -0.2516
 5947SOL    HW129477   2.487   4.182  14.472  0.9779  0.3986 -1.7071
 5947SOL    HW229478   2.407   4.187  14.344 -0.9072  0.8673 -0.6454
 5948SOL     OW29479   4.176   1.294   6.657  0.0519 -0.1622 -0.4532
 5948SOL    HW129480   4.156   1.289   6.751  1.0963 -0.3237 -0.2392
 5948SOL    HW229481   4.094   1.267   6.616 -0.0982  1.3565 -1.1732
 5949SOL     OW29482   1.989   1.627   6.246  0.3915 -0.2975 -0.4181
 5949SOL    HW129483   1.949   1.667   6.323  1.8453  0.4552 -0.0538
 5949SOL    HW229484   2.000   1.702   6.187  0.4440 -0.5822 -0.7708
 5950SOL     OW29485   2.867   4.063   6.461  0.5570 -0.2854 -0.1935
 5950SOL    HW129486   2.857   4.156   6.444  0.8443  0.0559  1.5079
 5950SOL    HW229487   2.824   4.054   6.546  0.9020  0.0015  0.0120
 5951SOL     OW29488   1.538   4.342   3.037 -0.5329 -0.1077  0.5992
 5951SOL    HW129489   1.474   4.406   3.069 -1.0462  0.1177 -0.8830
 5951SOL    HW229490   1.601   4.355   3.108  0.5821  2.2778 -0.8233
 5952SOL     OW29491   2.034   2.799   2.988  0.2037  0.5625 -0.3392
 5952SOL    HW129492   2.051   2.708   2.966  0.8844  0.9304 -1.3092
 5952SOL    HW229493   2.118   2.837   2.962 -0.3962  1.8610 -0.4083
 5953SOL     OW29494   1.187   2.997  11.738 -0.0648  0.9340  0.0362
 5953SOL    HW129495   1.172   2.989  11.832  0.6926 -0.7890  0.0032
 5953SOL    HW229496   1.236   2.915  11.727 -2.6808 -0.5604 -0.3180
 5954SOL     OW29497   1.036   3.559  10.849  0.2109  0.6859 -0.4970
 5954SOL    HW129498   1.017   3.499  10.922 -1.1727 -0.8181 -2.0832
 5954SOL    HW229499   0.960   3.544  10.792  2.3581  0.2197 -3.2640
 5955SOL     OW29500   1.302   1.512   5.375 -0.1051  0.6541 -0.1785
 5955SOL    HW129501   1.232   1.453   5.348  0.1536  0.9272 -1.4541
 5955SOL    HW229502   1.372   1.477   5.319  1.3964 -0.1157  2.1766
 5956SOL     OW29503   2.992   3.674  13.882 -0.2142  0.6175  0.0425
 5956SOL    HW129504   2.911   3.635  13.914 -0.1049  1.4254  1.3388
 5956SOL    HW229505   3.055   3.602  13.887  0.3893  1.2864  2.2598
 5957SOL     OW29506   0.701   3.756  14.874  0.1817  0.1588 -0.0985
 5957SOL    HW129507   0.771   3.809  14.836  0.6862 -0.6432 -0.3150
 5957SOL    HW229508   0.750   3.687  14.920 -0.2485  0.4600  0.7866
 5958SOL     OW29509   4.090   0.072   8.056  0.1352  0.3632 -0.2341
 5958SOL    HW129510   4.147   0.105   8.126  0.8879 -1.1311 -0.1417
 5958SOL    HW229511   4.005   0.107   8.080  0.5893 -0.1823  2.1658
 5959SOL     OW29512   3.264   3.302   8.387 -0.4127  0.2467 -0.1272
 5959SOL    HW129513   3.279   3.393   8.361  1.4482 -0.3053 -1.0213
 5959SOL    HW229514   3.171   3.289   8.370 -0.3644 -0.6886  0.3341
 5960SOL     OW29515   0.292   2.506   2.859 -0.0967 -0.1638 -0.1473
 5960SOL    HW129516   0.362   2.448   2.889 -1.9725 -1.4707  1.6961
 5960SOL    HW229517   0.260   2.528   2.947 -1.0869 -0.9951 -0.3164
 5961SOL     OW29518   2.276   1.741   6.094  0.3798 -0.4559 -0.8767
 5961SOL    HW129519   2.191   1.784   6.085  0.8192  0.6085  0.0232
 5961SOL    HW229520   2.243   1.661   6.052  0.5488 -1.0268  0.0698
 5962SOL     OW29521   2.777   0.758   3.496 -0.3722  0.3283 -0.6508
 5962SOL    HW129522   2.687   0.760   3.529 -0.4989  0.5304 -1.0033
 5962SOL    HW229523   2.769   0.706   3.417 -1.1333 -0.5761  0.0268
 5963SOL     OW29524   1.587   2.700   8.880  0.4645 -0.5106 -0.0564
 5963SOL    HW129525   1.609   2.791   8.858  0.9829 -0.2477  1.5544
 5963SOL    HW229526   1.502   2.698   8.923  1.8295 -0.5937  2.6603
 5964SOL     OW29527   3.335   1.400   9.071 -0.9151 -0.4614 -0.0698
 5964SOL    HW129528   3.329   1.353   9.153  1.8772  0.8813  0.9234
 5964SOL    HW229529   3.419   1.364   9.042  0.0470  2.1959 -0.6022
 5965SOL     OW29530   0.860   2.801   3.173  0.7919  0.1811  0.5948
 5965SOL    HW129531   0.781   2.848   3.201 -0.1166 -1.5837  1.0316
 5965SOL    HW229532   0.910   2.810   3.255  1.6461 -2.1173  0.3389
 5966SOL     OW29533   0.057   2.890   2.540 -0.0422  0.4005  0.1871
 5966SOL    HW129534   4.736   2.822   2.570  2.1050 -0.5724  2.2970
 5966SOL    HW229535   0.134   2.834   2.544 -1.2999 -1.4480 -1.1115
 5967SOL     OW29536   3.118   4.643   7.992 -0.3282 -0.2904 -0.4958
 5967SOL    HW129537   3.118   4.723   8.044 -0.9306 -0.4295 -0.2790
 5967SOL    HW229538   3.161   4.674   7.912 -2.2996 -1.7871 -2.1289
 5968SOL     OW29539   4.082   0.519   4.552 -0.3662 -0.3905 -0.2324
 5968SOL    HW129540   4.170   0.532   4.589  0.1445 -1.0797 -1.1883
 5968SOL    HW229541   4.093   0.439   4.501 -3.0761 -1.7730  1.3987
 5969SOL     OW29542   1.567   3.977  15.328  0.0802  0.3350  0.0658
 5969SOL    HW129543   1.487   3.938  15.291  0.0026  0.5092  0.0527
 5969SOL    HW229544   1.566   4.060  15.281  1.9659  0.1129 -0.3756
 5970SOL     OW29545   2.804   2.677   5.434 -0.1436 -0.0346 -0.1247
 5970SOL    HW129546   2.873   2.721   5.484 -0.4205  0.6244 -0.3354
 5970SOL    HW229547   2.855   2.654   5.355  1.5323  0.3803  0.8311
 5971SOL     OW29548   3.913   2.574   3.136  0.2381 -0.1591  0.1713
 5971SOL    HW129549   3.879   2.539   3.219 -2.0477 -0.8419 -1.0435
 5971SOL    HW229550   3.827   2.597   3.101  0.8360 -0.6466 -1.6033
 5972SOL     OW29551   2.798   0.489   2.303  0.4342  0.8044  0.7300
 5972SOL    HW129552   2.815   0.396   2.283  0.8551  1.3331 -1.3712
 5972SOL    HW229553   2.835   0.530   2.225  0.0784 -1.6919 -0.7684
 5973SOL     OW29554   3.335   0.933   5.720  0.0736  0.4396 -0.2113
 5973SOL    HW129555   3.266   0.937   5.653 -0.1751  0.2528  0.0360
 5973SOL    HW229556   3.349   0.839   5.731 -1.5934  0.2889  0.6632
 5974SOL     OW29557   0.417   0.082   8.921 -0.3076 -0.2932  0.2033
 5974SOL    HW129558   0.342   0.035   8.957 -1.3717  1.1345 -0.2084
 5974SOL    HW229559   0.433   0.151   8.985 -4.7954 -0.7495  1.7763
 5975SOL     OW29560   1.218   0.704   3.167 -0.2107 -0.0367 -0.0827
 5975SOL    HW129561   1.194   0.670   3.253  2.9185  0.6339  1.0204
 5975SOL    HW229562   1.152   0.773   3.163  0.2568  0.3596 -1.0174
 5976SOL     OW29563   4.352   3.626  14.949  0.0370  0.4816 -0.0664
 5976SOL    HW129564   4.315   3.540  14.969 -1.0281  0.3998 -2.4122
 5976SOL    HW229565   4.372   3.655  15.038  0.3950  2.5859 -0.8348
 5977SOL     OW29566   2.903   3.617   2.382  0.2251 -0.3099  0.1396
 5977SOL    HW129567   2.890   3.645   2.291  2.1496 -1.5589 -0.5274
 5977SOL    HW229568   2.849   3.538   2.382  1.7305 -1.3448  1.3184
 5978SOL     OW29569   0.718   1.744  14.337 -0.2197  0.2034 -0.4550
 5978SOL    HW129570   0.632   1.761  14.299 -1.1096 -1.3540  0.8576
 5978SOL    HW229571   0.761   1.830  14.330 -1.6576  0.9379 -0.2486
 5979SOL     OW29572   2.515   3.881   7.129 -0.5305  0.3528  0.6993
 5979SOL    HW129573   2.609   3.890   7.112 -0.5545 -1.7696 -0.5461
 5979SOL    HW229574   2.513   3.826   7.207 -0.3132  0.3771  0.7216
 5980SOL     OW29575   4.165   3.544  16.459 -0.4839  0.8485 -0.1483
 5980SOL    HW129576   4.101   3.479  16.430  0.8545 -0.1049 -0.9768
 5980SOL    HW229577   4.181   3.603  16.385 -1.3275 -0.4593 -1.3724
 5981SOL     OW29578   1.689   0.015   3.731  0.0532 -0.0969 -0.0868
 5981SOL    HW129579   1.607   0.035   3.776  0.7472  0.7525  0.7750
 5981SOL    HW229580   1.694   0.089   3.671 -1.2352 -0.3898 -0.5661
 5982SOL     OW29581   2.952   1.164  10.694 -0.2280  0.5531  0.4240
 5982SOL    HW129582   2.894   1.240  10.705 -1.1351 -0.0860  0.0338
 5982SOL    HW229583   2.946   1.115  10.776  1.0445 -1.3136 -0.5876
 5983SOL     OW29584   2.779   3.448  13.978  0.4608  0.3049  0.6094
 5983SOL    HW129585   2.756   3.388  14.050 -1.4265  2.2162  1.5984
 5983SOL    HW229586   2.855   3.395  13.954 -0.3671 -1.2769  1.4009
 5984SOL     OW29587   0.719   4.533  10.863  0.9997 -0.3321  0.7398
 5984SOL    HW129588   0.670   4.454  10.840  1.4706 -0.5596  0.5088
 5984SOL    HW229589   0.699   4.587  10.786 -0.6691 -2.9305 -0.6297
 5985SOL     OW29590   0.622   1.465   3.463 -0.4390 -0.2834 -0.1135
 5985SOL    HW129591   0.561   1.528   3.423  0.1845  0.8974  0.7929
 5985SOL    HW229592   0.688   1.455   3.394  0.9254 -1.0831  1.3169
 5986SOL     OW29593   2.830   1.377   0.747  0.1096  0.3882  0.1580
 5986SOL    HW129594   2.742   1.413   0.733 -0.5663 -2.4077 -2.8470
 5986SOL    HW229595   2.833   1.350   0.838 -0.2852  0.1537  0.1029
 5987SOL     OW29596   3.528   1.859   5.179  0.4324 -0.4270  0.2538
 5987SOL    HW129597   3.598   1.834   5.239  0.8808 -1.8071 -0.8473
 5987SOL    HW229598   3.474   1.912   5.237 -0.1679 -1.9266  1.0748
 5988SOL     OW29599   1.078   2.377   4.259  0.4732  0.3833  0.2966
 5988SOL    HW129600   1.013   2.372   4.189  0.1836  2.8342  0.3930
 5988SOL    HW229601   1.029   2.317   4.315 -1.0933  1.4697  0.0858
 5989SOL     OW29602   1.722   2.978   2.250 -0.7944  0.0147 -0.4379
 5989SOL    HW129603   1.740   3.040   2.180 -1.3339  2.0682  1.2624
 5989SOL    HW229604   1.801   2.925   2.264 -0.8017  0.0251 -0.3576
 5990SOL     OW29605   0.041   2.527   8.330  0.2342  0.1147 -0.3574
 5990SOL    HW129606   0.107   2.554   8.266 -1.6141  1.3101 -1.7645
 5990SOL    HW229607   0.092   2.512   8.410  0.4019 -1.2839 -0.7203
 5991SOL     OW29608   2.775   0.911   9.042 -0.3614  0.4457  0.1439
 5991SOL    HW129609   2.838   0.851   9.082  0.6441  0.5192 -1.3437
 5991SOL    HW229610   2.714   0.914   9.116 -1.8923  0.7820 -1.1281
 5992SOL     OW29611   0.903   2.754   6.376  0.1994 -0.3744  0.1624
 5992SOL    HW129612   0.829   2.814   6.385  2.1256  1.7459  1.9625
 5992SOL    HW229613   0.956   2.806   6.314  0.1020  0.2059  0.5685
 5993SOL     OW29614   3.500   4.124   6.953  0.4580  0.1924 -0.0186
 5993SOL    HW129615   3.414   4.157   6.926  0.0644  1.8461  3.3902
 5993SOL    HW229616   3.474   4.033   6.969 -1.3759  0.9783  1.3302
 5994SOL     OW29617   4.050   0.949   6.153 -0.5962  0.2227 -0.4844
 5994SOL    HW129618   4.003   0.955   6.069 -2.4840  0.9637  0.6340
 5994SOL    HW229619   4.085   1.038   6.161  3.1369 -1.1788 -1.0967
 5995SOL     OW29620   3.582   2.718   3.251  0.0524 -0.5225 -0.0946
 5995SOL    HW129621   3.641   2.654   3.291  1.4547  0.7216 -0.1779
 5995SOL    HW229622   3.547   2.658   3.185  0.6907 -2.5935  1.4556
 5996SOL     OW29623   2.106   0.284  12.128  0.0996 -0.1851 -0.0257
 5996SOL    HW129624   2.111   0.241  12.214 -0.9869 -0.4390 -0.0901
 5996SOL    HW229625   2.176   0.348  12.138 -0.3900  0.6089 -1.8097
 5997SOL     OW29626   4.121   1.197  15.934  0.4846 -0.1308  0.2325
 5997SOL    HW129627   4.071   1.136  15.988 -0.2880 -0.7798 -1.2117
 5997SOL    HW229628   4.132   1.274  15.990 -0.1799  2.6347 -3.3927
 5998SOL     OW29629   4.035   3.975  11.822 -0.0417  0.4196  0.5837
 5998SOL    HW129630   4.088   3.903  11.856 -1.2842 -0.1212  1.3618
 5998SOL    HW229631   4.077   3.983  11.736 -1.4512 -0.7402 -0.2013
 5999SOL     OW29632   3.510   1.944   5.603 -0.4264  0.2157  0.2992
 5999SOL    HW129633   3.431   1.998   5.596 -0.4902  0.1874  0.8142
 5999SOL    HW229634   3.569   1.989   5.541  1.4605 -0.4969  1.5795
 6000SOL     OW29635   0.356   0.573   3.610 -0.4006  0.0699 -0.9689
 6000SOL    HW129636   0.333   0.666   3.620  1.8146  0.6820 -1.6444
 6000SOL    HW229637   0.363   0.555   3.516  1.1058 -1.0887 -0.6322
 6001SOL     OW29638   3.533   0.315  10.859 -0.0565  0.0583 -0.4792
 6001SOL    HW129639   3.450   0.267  10.861 -1.3836  2.4464  1.1250
 6001SOL    HW229640   3.582   0.254  10.914 -1.9523 -1.2905 -0.2650
 6002SOL     OW29641   3.013   4.439  11.672  0.1996 -0.3656  0.2144
 6002SOL    HW129642   2.975   4.363  11.715 -0.6496  0.4732  0.9694
 6002SOL    HW229643   3.071   4.405  11.604 -1.1161 -2.6326  0.2489
 6003SOL     OW29644   3.751   0.739   1.363 -0.7041  0.0884  0.1872
 6003SOL    HW129645   3.842   0.717   1.385 -0.7836 -0.6668 -0.2462
 6003SOL    HW229646   3.728   0.814   1.418  0.5175  0.1828  0.5621
 6004SOL     OW29647   1.548   2.083   6.264  0.5639 -0.4085  0.5412
 6004SOL    HW129648   1.501   2.110   6.343  0.2279 -1.4354  0.6842
 6004SOL    HW229649   1.566   2.168   6.223  1.2440 -0.6611  0.3057
 6005SOL     OW29650   4.014   3.835   6.589 -0.3305  0.0140  0.4553
 6005SOL    HW129651   3.987   3.909   6.534  1.0698  0.4994  0.4136
 6005SOL    HW229652   3.990   3.868   6.676  0.1941  0.9272  0.2547
 6006SOL     OW29653   0.881   2.981   1.521 -0.1028 -0.3266  0.1561
 6006SOL    HW129654   0.820   3.042   1.479  0.5527 -0.4917 -1.0464
 6006SOL    HW229655   0.944   2.966   1.451  0.7978  0.5634  0.7749
 6007SOL     OW29656   3.234   3.353   7.031  0.0651  0.2066 -0.1552
 6007SOL    HW129657   3.279   3.331   6.950 -2.2295 -0.6029 -1.2063
 6007SOL    HW229658   3.297   3.330   7.099  1.3911  0.4314 -1.3117
 6008SOL     OW29659   1.771   2.028   5.706 -0.0230  0.2938 -0.1291
 6008SOL    HW129660   1.730   2.083   5.772  0.0858 -1.5523  1.4630
 6008SOL    HW229661   1.773   2.093   5.636  0.1260  0.2911 -0.1277
 6009SOL     OW29662   0.784   1.639  16.191  0.3581  0.0318 -0.0060
 6009SOL    HW129663   0.872   1.635  16.229  0.4704  2.3565 -0.0262
 6009SOL    HW229664   0.726   1.673  16.259  0.6112 -1.0587  0.7575
 6010SOL     OW29665   0.001   3.775   3.572 -0.2018  0.0240  0.3075
 6010SOL    HW129666   4.675   3.721   3.616 -1.4809  0.7388 -0.7364
 6010SOL    HW229667   4.703   3.783   3.484 -0.3612  0.7561  0.4452
 6011SOL     OW29668   1.779   4.579   4.074 -0.3724  0.4800 -0.1285
 6011SOL    HW129669   1.842   4.532   4.128 -0.8244  1.6953  1.4806
 6011SOL    HW229670   1.702   4.583   4.131 -0.5110  0.3585 -0.3106
 6012SOL     OW29671   3.789   2.538   1.836  0.1071  0.1592  0.0060
 6012SOL    HW129672   3.757   2.493   1.757 -3.1714  0.7286  1.0151
 6012SOL    HW229673   3.825   2.616   1.794 -0.8405  0.5918 -0.0083
 6013SOL     OW29674   3.106   4.324   9.765 -0.0655  0.1664  0.4449
 6013SOL    HW129675   3.040   4.337   9.834  1.4806  0.5085  1.8751
 6013SOL    HW229676   3.058   4.278   9.697 -0.3201  1.8759 -0.5219
 6014SOL     OW29677   4.543   3.962  11.988 -0.4083  0.3601  0.2074
 6014SOL    HW129678   4.605   3.969  11.916 -0.8988  1.1744 -0.1387
 6014SOL    HW229679   4.599   3.969  12.065  0.7657 -0.2717 -0.5902
 6015SOL     OW29680   3.882   0.368   2.560  0.2110 -1.0190 -0.2685
 6015SOL    HW129681   3.842   0.294   2.605 -1.6150  1.4590  2.1784
 6015SOL    HW229682   3.942   0.401   2.627  1.7052 -1.2090 -1.5028
 6016SOL     OW29683   3.559   2.937   3.562 -0.5732  0.4564 -0.3199
 6016SOL    HW129684   3.520   2.858   3.525 -1.2141  0.6407 -0.0347
 6016SOL    HW229685   3.631   2.959   3.503  1.2996  0.3594  1.9001
 6017SOL     OW29686   4.411   4.650  13.316 -0.2409  0.1595 -0.2630
 6017SOL    HW129687   4.479   4.692  13.368  0.2402 -0.4332 -0.4038
 6017SOL    HW229688   4.331   4.689  13.351  0.0355  0.8433 -0.3885
 6018SOL     OW29689   0.595   0.076   0.808 -0.4558  0.4707  0.5071
 6018SOL    HW129690   0.687   0.104   0.812 -0.4545  1.1478 -4.8320
 6018SOL    HW229691   0.601   4.724   0.834 -0.3444  0.9610  2.2171
 6019SOL     OW29692   1.751   0.382  11.407 -0.4102  0.0194 -0.2037
 6019SOL    HW129693   1.744   0.343  11.494 -1.4030 -1.0536 -0.7527
 6019SOL    HW229694   1.665   0.418  11.388 -0.7466 -0.8915 -0.4012
 6020SOL     OW29695   3.818   3.864  14.290 -0.2193  0.6482 -0.5478
 6020SOL    HW129696   3.727   3.878  14.316 -0.4546 -3.3193  0.8078
 6020SOL    HW229697   3.867   3.891  14.368 -1.7646 -2.4180  1.4882
 6021SOL     OW29698   3.510   0.593  16.467  0.4710  0.2931  0.1172
 6021SOL    HW129699   3.447   0.646  16.418 -1.1984 -1.4940  0.3469
 6021SOL    HW229700   3.500   0.506  16.430  0.3450  0.2287  0.3023
 6022SOL     OW29701   1.398   1.845  11.811 -0.3321 -0.0493 -0.5455
 6022SOL    HW129702   1.477   1.847  11.757 -1.8892 -1.1146 -2.8568
 6022SOL    HW229703   1.420   1.771  11.867  2.6066 -0.0166 -1.6732
 6023SOL     OW29704   4.359   3.056   3.522  0.0732 -0.2351 -0.5675
 6023SOL    HW129705   4.442   3.032   3.482 -0.0761  0.2917 -1.2043
 6023SOL    HW229706   4.313   3.080   3.442  0.3298 -0.7283 -0.8598
 6024SOL     OW29707   1.642   4.444   6.188 -0.2250  0.3025 -0.1387
 6024SOL    HW129708   1.728   4.413   6.217 -0.3565 -0.7863 -0.9283
 6024SOL    HW229709   1.611   4.481   6.271  0.8248 -0.9210  0.8184
 6025SOL     OW29710   3.564   1.991   9.312 -0.1369 -0.4082  0.3822
 6025SOL    HW129711   3.651   2.010   9.277 -1.5433  2.4228 -1.5654
 6025SOL    HW229712   3.565   1.895   9.308 -3.8014 -0.3964 -0.7550
 6026SOL     OW29713   3.609   1.155   8.018 -0.1510 -0.3254 -0.4006
 6026SOL    HW129714   3.664   1.152   8.096 -0.2050 -0.0530 -0.3517
 6026SOL    HW229715   3.647   1.231   7.973 -3.0064  0.8519 -0.8249
 6027SOL     OW29716   2.297   4.448   4.076  0.1263 -0.0634 -0.3431
 6027SOL    HW129717   2.333   4.536   4.061  1.1715 -0.6612 -1.2679
 6027SOL    HW229718   2.369   4.400   4.037 -0.2633 -0.9321  0.0154
 6028SOL     OW29719   3.957   4.038   6.423 -0.3510 -0.2675 -0.8925
 6028SOL    HW129720   3.887   4.102   6.408 -1.1359 -0.8108  0.4159
 6028SOL    HW229721   4.019   4.068   6.356 -0.9453  0.1282 -1.2710
 6029SOL     OW29722   1.418   1.256  11.924 -0.6134  0.1101 -0.3801
 6029SOL    HW129723   1.398   1.270  11.832 -1.7040  1.0201 -0.0070
 6029SOL    HW229724   1.358   1.185  11.947  0.7588 -0.8689  0.1910
 6030SOL     OW29725   3.287   2.560   1.274  0.1729  0.4934  0.0808
 6030SOL    HW129726   3.345   2.634   1.255  0.3168 -0.0170 -1.4493
 6030SOL    HW229727   3.239   2.595   1.349 -0.5202  1.2371 -0.7217
 6031SOL     OW29728   1.772   1.766  16.672  0.1333  0.3049  0.4628
 6031SOL    HW129729   1.851   1.790  16.719  0.0831  0.8963  0.2391
 6031SOL    HW229730   1.777   1.670  16.676  0.7653  0.3252  0.0778
 6032SOL     OW29731   2.976   0.512   8.711  0.2278  0.3274 -0.1766
 6032SOL    HW129732   2.883   0.533   8.721 -0.0548 -0.1335 -1.8998
 6032SOL    HW229733   2.991   0.439   8.771 -0.7558 -0.1354 -0.4877
 6033SOL     OW29734   4.646   0.044   0.494 -0.9729 -0.1125 -0.0335
 6033SOL    HW129735   4.720   0.028   0.436 -0.1302 -1.8051  1.5006
 6033SOL    HW229736   4.679   0.098   0.566 -0.9403 -0.1240 -0.0398
 6034SOL     OW29737   1.852   0.858   4.860  0.8166 -0.0862  0.2822
 6034SOL    HW129738   1.926   0.800   4.842 -1.3178 -2.5048 -0.8387
 6034SOL    HW229739   1.831   0.877   4.768 -1.1504 -0.2795  0.6835
 6035SOL     OW29740   4.715   4.537   4.134 -0.1245 -0.0872  0.5348
 6035SOL    HW129741   0.024   4.465   4.175  2.9698  2.2170  0.8406
 6035SOL    HW229742   0.013   4.547   4.047  2.9998  0.3013  1.9416
 6036SOL     OW29743   1.378   1.019  16.966  0.2018 -0.6157 -0.1898
 6036SOL    HW129744   1.397   0.969  16.887  1.4050  0.4090 -0.5602
 6036SOL    HW229745   1.282   1.018  16.967  0.2130 -1.2173  0.2389
 6037SOL     OW29746   1.551   2.912   7.095 -0.1489  0.0098  0.0066
 6037SOL    HW129747   1.483   2.927   7.160  1.2662 -0.2759  1.5368
 6037SOL    HW229748   1.619   2.961   7.141  0.9979 -0.6588 -0.9556
 6038SOL     OW29749   3.509   0.222   1.442 -0.0101 -0.1194  0.5693
 6038SOL    HW129750   3.427   0.222   1.491 -1.4625 -1.2552 -1.8615
 6038SOL    HW229751   3.540   0.308   1.471  0.3483 -1.8698  5.3349
 6039SOL     OW29752   0.988   1.701  12.667 -0.5252 -0.3989  0.0413
 6039SOL    HW129753   1.079   1.714  12.638  0.5671 -0.4634  3.4500
 6039SOL    HW229754   0.941   1.741  12.594 -1.0836 -3.8306 -1.5036
 6040SOL     OW29755   1.790   1.046   1.588 -0.2899 -0.1162 -0.2125
 6040SOL    HW129756   1.698   1.057   1.611  0.0123 -1.1892  1.5374
 6040SOL    HW229757   1.787   0.955   1.558  1.2717  0.2225 -1.4201
 6041SOL     OW29758   1.163   2.248   0.777 -0.5618  0.0060 -0.0540
 6041SOL    HW129759   1.250   2.266   0.741 -1.0607  0.6573 -0.9453
 6041SOL    HW229760   1.146   2.319   0.839 -1.6564  1.1531 -1.6822
 6042SOL     OW29761   1.786   3.092  16.995  0.0772  0.4202  0.4942
 6042SOL    HW129762   1.868   3.069  16.951 -1.9102 -1.5262 -2.2131
 6042SOL    HW229763   1.794   3.186  17.010 -2.1039  0.5311  0.8963
 6043SOL     OW29764   1.110   3.513  15.063 -0.1383  0.2526  0.1843
 6043SOL    HW129765   1.088   3.462  15.141  1.6020  0.3190  0.7177
 6043SOL    HW229766   1.036   3.493  15.006 -0.1732  2.6430 -0.6105
 6044SOL     OW29767   2.632   2.517   4.212 -0.2204 -0.1670  0.4378
 6044SOL    HW129768   2.719   2.480   4.199  0.0747  1.2620 -1.6941
 6044SOL    HW229769   2.604   2.537   4.123  0.0895 -1.0023  0.1602
 6045SOL     OW29770   4.576   0.986  14.943  0.6736 -0.2146  0.1086
 6045SOL    HW129771   4.541   0.913  14.994 -0.3048 -0.4429 -0.9056
 6045SOL    HW229772   4.630   0.946  14.875  1.2752  1.1937 -0.2536
 6046SOL     OW29773   3.938   4.179   1.398 -0.5419 -0.4046  1.3182
 6046SOL    HW129774   3.963   4.271   1.397 -0.3227 -0.4645  1.2297
 6046SOL    HW229775   3.876   4.180   1.325  1.2660  1.1392 -0.2113
 6047SOL     OW29776   2.068   3.402   5.928  0.1951  0.1745  0.0316
 6047SOL    HW129777   2.013   3.478   5.945  0.2831  0.8047 -2.4278
 6047SOL    HW229778   2.111   3.391   6.012 -1.2726  1.0086  0.8912
 6048SOL     OW29779   4.267   0.376   3.351  0.8466 -0.0627  0.1120
 6048SOL    HW129780   4.295   0.403   3.438 -0.2816  0.4249  0.3279
 6048SOL    HW229781   4.298   0.285   3.345  2.2486  0.2641  2.4871
 6049SOL     OW29782   2.100   1.668   9.025  0.0103 -0.1519  0.4360
 6049SOL    HW129783   2.176   1.619   9.058  0.2617 -0.0774 -0.0226
 6049SOL    HW229784   2.148   1.738   8.980 -1.4687  0.4754 -0.1510
 6050SOL     OW29785   0.616   2.118   2.978  0.1935  0.6239  0.1274
 6050SOL    HW129786   0.638   2.026   2.996 -0.2479  0.5811  0.4395
 6050SOL    HW229787   0.682   2.160   3.034 -0.4159 -0.9788  2.0809
 6051SOL     OW29788   2.919   2.292   2.962 -0.2191 -0.4429  0.2232
 6051SOL    HW129789   2.863   2.363   2.996  0.9057  0.0709  1.0025
 6051SOL    HW229790   2.874   2.225   3.014  0.6836 -1.5623 -0.4497
 6052SOL     OW29791   4.317   0.651   7.920 -0.0098 -0.3881  0.6017
 6052SOL    HW129792   4.283   0.599   7.994  0.5237 -1.2110  0.2699
 6052SOL    HW229793   4.375   0.716   7.959  0.4601 -0.0162 -0.7279
 6053SOL     OW29794   1.771   1.036   7.905  0.0399  0.8321  1.1479
 6053SOL    HW129795   1.699   0.994   7.951  1.3356  1.0838  3.4187
 6053SOL    HW229796   1.746   1.128   7.897  2.6930  1.7297  2.9689
 6054SOL     OW29797   4.105   0.774   0.219  0.4745 -0.1042 -0.1308
 6054SOL    HW129798   4.044   0.811   0.283 -0.4815  0.4222 -1.3523
 6054SOL    HW229799   4.188   0.753   0.262  1.6848  0.2977 -2.2934
 6055SOL     OW29800   2.166   0.674   5.871 -0.1366  0.0570  0.3171
 6055SOL    HW129801   2.088   0.696   5.820  0.8074  0.8772 -0.7927
 6055SOL    HW229802   2.233   0.649   5.807 -0.4546 -0.3614  0.1458
 6056SOL     OW29803   3.481   2.647   8.280  0.6071 -0.0991  0.3661
 6056SOL    HW129804   3.451   2.738   8.279  0.2453 -0.2444 -1.6670
 6056SOL    HW229805   3.564   2.649   8.327  0.9650  2.3368 -0.3511
 6057SOL     OW29806   2.043   2.786   0.837  0.1294  0.3400 -0.3528
 6057SOL    HW129807   2.096   2.822   0.766  2.1930 -0.2588  0.8872
 6057SOL    HW229808   2.110   2.741   0.888  1.1290 -0.0268 -1.9851
 6058SOL     OW29809   1.214   0.852   2.036  0.5284 -0.3600  0.4888
 6058SOL    HW129810   1.215   0.772   1.982 -2.1570  1.1355 -1.7864
 6058SOL    HW229811   1.145   0.897   1.988  0.3304 -0.5086  0.6344
 6059SOL     OW29812   2.398   2.152   8.820  0.0691  0.3821  0.0251
 6059SOL    HW129813   2.427   2.187   8.904 -0.7034  1.7215 -0.2732
 6059SOL    HW229814   2.305   2.174   8.820  0.3769  1.6875 -0.1536
 6060SOL     OW29815   2.095   0.074   8.657  0.8372 -0.2544 -0.4620
 6060SOL    HW129816   2.087   4.739   8.598 -1.4928  0.3928 -0.9746
 6060SOL    HW229817   2.031   0.132   8.616  1.4231 -0.8268 -2.1708
 6061SOL     OW29818   1.665   4.255   6.723  0.5298 -0.2727 -0.0127
 6061SOL    HW129819   1.571   4.240   6.732  0.3095  0.9032 -0.3402
 6061SOL    HW229820   1.691   4.174   6.679  0.6048 -0.2837  0.0525
 6062SOL     OW29821   2.713   3.023   2.131  0.2825  0.3947  0.2122
 6062SOL    HW129822   2.794   3.005   2.178 -0.8362  0.7606  2.3058
 6062SOL    HW229823   2.717   3.007   2.036  1.4982 -0.4054  0.4031
 6063SOL     OW29824   0.768   2.472   8.950  0.4791 -0.0290 -0.1313
 6063SOL    HW129825   0.864   2.470   8.957  0.5049 -3.0628 -1.3175
 6063SOL    HW229826   0.747   2.378   8.953 -0.1074  0.1075 -0.1076
 6064SOL     OW29827   1.854   2.876   6.973 -0.8758 -0.2723  0.5044
 6064SOL    HW129828   1.798   2.849   6.900  1.7360  1.4506 -2.1791
 6064SOL    HW229829   1.840   2.971   6.973 -0.8401 -0.2620 -0.4272
 6065SOL     OW29830   0.931   1.806   1.225 -0.2161  0.1905  0.0810
 6065SOL    HW129831   0.965   1.760   1.302 -2.4299 -3.0608 -0.8856
 6065SOL    HW229832   0.848   1.760   1.212 -0.3151 -0.4918  2.9499
 6066SOL     OW29833   1.796   3.703  17.709 -0.0495  0.3024  0.0017
 6066SOL    HW129834   1.865   3.671   0.010 -0.2539  1.9217  1.1478
 6066SOL    HW229835   1.839   3.748  17.636  0.5185 -0.6647 -0.2620
 6067SOL     OW29836   2.309   2.392  15.280  0.3795 -0.3814  0.8884
 6067SOL    HW129837   2.269   2.461  15.333  1.3206  0.9939 -0.2065
 6067SOL    HW229838   2.233   2.350  15.240  1.5524 -0.2894 -1.4069
 6068SOL     OW29839   0.161   2.452  10.097  0.4003  0.3381 -0.1021
 6068SOL    HW129840   0.156   2.512  10.023  1.0835  1.9545  1.1713
 6068SOL    HW229841   0.188   2.509  10.169 -0.4499  0.9010 -0.2258
 6069SOL     OW29842   1.839   2.141  10.287  0.3904  0.5445  0.3623
 6069SOL    HW129843   1.834   2.208  10.219 -1.7754 -0.5035 -0.5045
 6069SOL    HW229844   1.749   2.134  10.317  0.0731 -3.7283 -1.5592
 6070SOL     OW29845   1.948   3.038   5.608 -0.3693 -0.1869 -0.4365
 6070SOL    HW129846   1.945   3.097   5.683 -0.1924  0.5573 -1.0158
 6070SOL    HW229847   1.869   2.985   5.617  1.3814 -2.9245 -0.9475
 6071SOL     OW29848   1.870   4.654   9.907 -0.1236  0.0572 -0.3301
 6071SOL    HW129849   1.855   0.006   9.884  0.4628  0.1238 -0.4432
 6071SOL    HW229850   1.786   4.642   9.952 -0.2008  1.3126 -0.1215
 6072SOL     OW29851   2.570   0.303  11.711  0.2169  0.2723 -0.2166
 6072SOL    HW129852   2.565   0.343  11.798  0.5600  0.6120 -0.3489
 6072SOL    HW229853   2.476   0.288  11.700  0.4311 -1.5669  0.5211
 6073SOL     OW29854   3.957   3.836   4.997 -0.0911  0.1217  0.6850
 6073SOL    HW129855   3.938   3.908   4.936  0.9233  0.4551  0.7592
 6073SOL    HW229856   3.970   3.885   5.078 -2.8529  3.1067 -0.6684
 6074SOL     OW29857   0.716   1.974   3.367  0.1826 -0.0872 -0.2345
 6074SOL    HW129858   0.647   1.917   3.334  1.2394 -1.0887 -0.6946
 6074SOL    HW229859   0.741   2.003   3.280 -0.7894  2.1797  0.2474
 6075SOL     OW29860   3.785   1.063   8.233  0.5979  0.2011  0.3137
 6075SOL    HW129861   3.875   1.056   8.202  0.0260  0.3096 -1.3766
 6075SOL    HW229862   3.766   0.988   8.290  0.2857 -0.9289 -1.2764
 6076SOL     OW29863   0.400   1.639   7.478 -0.1179 -0.1896  0.0631
 6076SOL    HW129864   0.409   1.636   7.573  0.6938 -0.0539 -0.0046
 6076SOL    HW229865   0.374   1.550   7.457 -0.9404  0.3886 -1.3673
 6077SOL     OW29866   0.130   3.660   1.515  0.7464  0.3130  1.1185
 6077SOL    HW129867   0.130   3.566   1.537  0.2623  0.1051  0.2364
 6077SOL    HW229868   0.097   3.700   1.595 -0.8088 -0.1750  0.7220
 6078SOL     OW29869   3.742   2.766   7.598 -0.0600  0.2638  0.5108
 6078SOL    HW129870   3.680   2.839   7.602 -0.6491 -0.1207 -1.6155
 6078SOL    HW229871   3.797   2.772   7.675 -1.5160 -0.0021  1.5672
 6079SOL     OW29872   1.250   0.558   7.088  0.2688 -0.6833 -0.0959
 6079SOL    HW129873   1.168   0.516   7.063  0.5739 -0.9154 -0.7014
 6079SOL    HW229874   1.311   0.525   7.022  1.1379 -0.6696  0.6905
 6080SOL     OW29875   2.869   1.048   9.491 -0.4456 -0.9455  0.3531
 6080SOL    HW129876   2.828   1.078   9.572 -2.4164 -1.3408 -0.5047
 6080SOL    HW229877   2.963   1.051   9.513  0.0632 -0.1559 -1.9109
 6081SOL     OW29878   0.338   2.753  14.981  0.3240 -0.4082 -0.2301
 6081SOL    HW129879   0.293   2.686  15.033 -0.8570  0.7955  0.2883
 6081SOL    HW229880   0.383   2.699  14.915  2.0770  1.0978 -0.2714
 6082SOL     OW29881   1.778   3.353   6.098 -0.0311 -0.1817  0.2939
 6082SOL    HW129882   1.692   3.381   6.068  0.5776 -0.4390 -1.7055
 6082SOL    HW229883   1.807   3.292   6.030 -1.5930 -0.7951  0.1799
 6083SOL     OW29884   3.398   3.602  16.432  0.0839 -0.0825 -0.2241
 6083SOL    HW129885   3.380   3.629  16.522  0.5566 -0.9063  0.1179
 6083SOL    HW229886   3.324   3.541  16.421 -1.0334  1.4347 -1.1246
 6084SOL     OW29887   1.697   1.197   2.692 -0.2612 -0.1385 -0.6387
 6084SOL    HW129888   1.696   1.129   2.759 -3.1603  1.5244  1.0309
 6084SOL    HW229889   1.662   1.273   2.739  0.3288 -0.6664  0.6676
 6085SOL     OW29890   3.956   4.297   4.343  0.2334  0.2819 -0.0814
 6085SOL    HW129891   4.016   4.251   4.401  1.8934  1.1703 -1.0956
 6085SOL    HW229892   3.999   4.380   4.365  1.2541 -1.0902  3.1262
 6086SOL     OW29893   0.163   0.439   8.461 -0.6788  0.0976  0.1087
 6086SOL    HW129894   0.122   0.499   8.399 -1.0062  0.5605  0.7643
 6086SOL    HW229895   0.234   0.409   8.405 -0.8692  0.4021 -0.2914
 6087SOL     OW29896   3.435   0.179   9.962  0.0303 -0.4776 -0.2404
 6087SOL    HW129897   3.398   0.105  10.010 -1.0955 -0.2113 -0.6927
 6087SOL    HW229898   3.408   0.252  10.018  3.2717 -0.2616  1.0510
 6088SOL     OW29899   0.715   0.252  16.244 -0.5537 -0.0553  0.8100
 6088SOL    HW129900   0.755   0.316  16.184 -0.6715  1.2674  2.1276
 6088SOL    HW229901   0.668   0.314  16.300 -1.4999  1.1521 -1.3354
 6089SOL     OW29902   2.253   2.484   6.121  0.4111  0.5807 -0.4486
 6089SOL    HW129903   2.340   2.518   6.140  0.0294  0.5615  1.3381
 6089SOL    HW229904   2.273   2.391   6.135  0.0060  0.8020  1.5455
 6090SOL     OW29905   0.909   3.272  13.110 -0.2251 -0.0961  0.4268
 6090SOL    HW129906   0.826   3.262  13.159  0.1750 -2.7163  0.6087
 6090SOL    HW229907   0.925   3.362  13.137 -0.3180  0.5180 -1.5744
 6091SOL     OW29908   3.211   0.002   5.151  0.0188 -0.4952 -0.2185
 6091SOL    HW129909   3.121   0.026   5.128 -0.0542 -1.7150 -1.2239
 6091SOL    HW229910   3.191   4.665   5.205 -0.2868 -1.6780 -2.0061
 6092SOL     OW29911   2.189   4.472   0.690 -0.0484  0.0835  0.2136
 6092SOL    HW129912   2.158   4.552   0.646 -1.0311 -0.7347 -0.5758
 6092SOL    HW229913   2.227   4.439   0.609 -2.4688 -3.0664  0.3623
 6093SOL     OW29914   3.796   4.049  16.758  0.0878  0.5944  0.2497
 6093SOL    HW129915   3.831   3.965  16.788  1.1356 -0.3259 -3.5350
 6093SOL    HW229916   3.852   4.123  16.782 -0.8997  0.8998  1.6115
 6094SOL     OW29917   1.353   3.582   7.125 -0.2716  0.1593 -0.1481
 6094SOL    HW129918   1.277   3.623   7.083  0.8006  1.1760 -1.1149
 6094SOL    HW229919   1.387   3.653   7.179 -1.1273  0.4753 -0.0370
 6095SOL     OW29920   0.470   4.495   9.512 -0.3653  0.5387  0.7113
 6095SOL    HW129921   0.553   4.540   9.497  0.2705 -0.6223  0.8082
 6095SOL    HW229922   0.492   4.406   9.484  2.1442  0.9360  1.4134
 6096SOL     OW29923   1.282   1.077  10.673 -0.2850  0.1505  0.4115
 6096SOL    HW129924   1.249   1.106  10.757 -0.0554  0.0466  0.5384
 6096SOL    HW229925   1.255   1.155  10.623 -2.9954  0.3599  2.2299
 6097SOL     OW29926   3.165   4.087  11.505 -0.3891  0.4550  0.0618
 6097SOL    HW129927   3.153   4.100  11.599 -2.2182  0.3189 -0.1521
 6097SOL    HW229928   3.141   4.174  11.473 -0.6463 -0.3891 -2.0291
 6098SOL     OW29929   2.401   2.859  17.422  0.0613  1.2323  0.7677
 6098SOL    HW129930   2.321   2.830  17.379  0.3790  2.0527 -0.3739
 6098SOL    HW229931   2.463   2.882  17.353 -1.0268  0.0341 -0.5729
 6099SOL     OW29932   3.187   1.396   5.624  1.0774  0.1907  0.2902
 6099SOL    HW129933   3.127   1.336   5.667  1.5506 -0.3636  0.1739
 6099SOL    HW229934   3.178   1.464   5.691  2.1028 -0.4099  1.0304
 6100SOL     OW29935   0.525   0.151   4.355  0.1126  0.3056  0.3987
 6100SOL    HW129936   0.609   0.148   4.309 -0.0727  1.5878 -0.0278
 6100SOL    HW229937   0.470   0.188   4.286 -0.7380  0.5930  1.2329
 6101SOL     OW29938   1.422   3.794   4.908 -0.0832  0.0323  0.6495
 6101SOL    HW129939   1.407   3.729   4.976  0.0532  1.1831  1.7950
 6101SOL    HW229940   1.350   3.769   4.850 -0.0469  2.5784 -0.4893
 6102SOL     OW29941   0.792   3.300   0.542 -0.0175  0.6638 -0.1562
 6102SOL    HW129942   0.779   3.321   0.450  0.1050 -1.4082 -0.6426
 6102SOL    HW229943   0.762   3.381   0.583  1.2589  1.6350 -1.1359
 6103SOL     OW29944   4.004   2.401  12.823 -0.1443 -0.5339  0.2750
 6103SOL    HW129945   3.967   2.327  12.871 -2.4559  0.2619 -0.2540
 6103SOL    HW229946   4.098   2.396  12.842 -0.2993 -0.2121  1.1607
 6104SOL     OW29947   0.043   2.183  11.333 -0.2533 -0.4448  0.1518
 6104SOL    HW129948   0.074   2.098  11.364  2.2304  1.1359  2.0215
 6104SOL    HW229949   0.128   2.208  11.296 -0.3071 -2.0364 -1.0350
 6105SOL     OW29950   3.408   1.340   6.218  0.0481 -0.7172 -0.5019
 6105SOL    HW129951   3.392   1.317   6.309  0.4672  2.2720  0.3213
 6105SOL    HW229952   3.483   1.398   6.234 -0.0850 -0.7226  0.1226
 6106SOL     OW29953   2.861   0.091  10.101  0.2998  0.2663 -0.2576
 6106SOL    HW129954   2.829   0.041  10.176 -3.2176  0.6627 -1.4949
 6106SOL    HW229955   2.875   0.012  10.049 -0.1340 -2.1949  3.3377
 6107SOL     OW29956   3.638   0.561   8.279  0.4914  0.3427 -0.1734
 6107SOL    HW129957   3.644   0.564   8.184  0.3391  1.4368 -0.1512
 6107SOL    HW229958   3.723   0.597   8.303  0.4706 -1.1964  2.1926
 6108SOL     OW29959   0.710   3.805   4.225  0.2901 -0.5734  0.0442
 6108SOL    HW129960   0.772   3.757   4.170 -0.7456 -1.0311 -0.7256
 6108SOL    HW229961   0.745   3.894   4.233  0.0756 -0.4196 -0.6527
 6109SOL     OW29962   1.656   2.002  11.771 -0.1855 -0.4010  0.0997
 6109SOL    HW129963   1.672   2.091  11.803 -1.7260  0.4690 -1.5207
 6109SOL    HW229964   1.618   2.027  11.687  2.3651  1.0738 -0.6140
 6110SOL     OW29965   2.865   0.829   2.769  0.5353  0.3567  0.2486
 6110SOL    HW129966   2.938   0.890   2.760 -0.0534  0.9613 -0.4286
 6110SOL    HW229967   2.819   0.843   2.686 -0.5688  1.5882  1.0751
 6111SOL     OW29968   0.755   2.916  15.327 -0.2629  0.0870  0.5431
 6111SOL    HW129969   0.830   2.900  15.384  0.6671  1.2047 -0.3704
 6111SOL    HW229970   0.684   2.878  15.379  1.3992 -1.3509  1.7506
 6112SOL     OW29971   1.707   1.391   5.353 -0.3508 -0.3568  0.8707
 6112SOL    HW129972   1.615   1.414   5.343 -0.4226 -1.0404 -0.0169
 6112SOL    HW229973   1.732   1.370   5.263 -3.5699 -0.0050 -0.0788
 6113SOL     OW29974   2.803   2.452   4.581  0.4910  0.2142 -0.8645
 6113SOL    HW129975   2.760   2.510   4.518 -3.0390 -1.4692 -0.0308
 6113SOL    HW229976   2.769   2.492   4.661  2.0598  0.8774 -0.5247
 6114SOL     OW29977   2.748   4.593   0.426 -0.5292 -0.2327  0.6306
 6114SOL    HW129978   2.789   4.679   0.432  0.1418 -0.3594 -2.0467
 6114SOL    HW229979   2.760   4.565   0.516  0.3436  1.0602  0.9076
 6115SOL     OW29980   1.749   2.731  11.585  1.0254 -0.1360  0.7513
 6115SOL    HW129981   1.680   2.690  11.638  1.5019 -1.0806  0.6312
 6115SOL    HW229982   1.688   2.793  11.545 -0.2254 -1.0504  1.2287
 6116SOL     OW29983   3.191   2.225   6.677 -0.4647  0.0603 -0.1674
 6116SOL    HW129984   3.225   2.166   6.744  1.4887  0.7955 -0.5013
 6116SOL    HW229985   3.159   2.159   6.615  1.3712 -0.3798 -0.6359
 6117SOL     OW29986   2.168   3.899   9.121  0.4099  0.3179  0.2224
 6117SOL    HW129987   2.220   3.819   9.114  0.6874  0.4880  0.3325
 6117SOL    HW229988   2.104   3.897   9.050  1.5032 -0.1811 -0.7457
 6118SOL     OW29989   3.203   4.497   3.646 -0.4505 -0.1053  0.4586
 6118SOL    HW129990   3.236   4.586   3.630  1.3253 -0.6258  1.2557
 6118SOL    HW229991   3.145   4.512   3.720 -2.2544 -1.3773 -0.7121
 6119SOL     OW29992   1.018   4.644  16.448 -0.6537 -0.2361  0.3590
 6119SOL    HW129993   0.987   4.602  16.528  0.0432  1.2486  1.4306
 6119SOL    HW229994   1.002   4.735  16.473 -1.7481  0.0286 -1.3412
 6120SOL     OW29995   4.392   0.513  13.687  0.0060  0.3635  0.9422
 6120SOL    HW129996   4.475   0.555  13.662 -0.7763  1.0564 -0.4919
 6120SOL    HW229997   4.407   0.507  13.781 -0.2246  0.2560  0.9716
 6121SOL     OW29998   1.480   3.540   0.686 -0.6157  0.2813 -0.0616
 6121SOL    HW129999   1.446   3.491   0.611 -1.5265 -0.7719  1.0169
 6121SOL    HW230000   1.461   3.628   0.654 -0.3475  1.2065  2.3453
 6122SOL     OW30001   4.140   0.773   9.675 -0.8056  0.1890  0.0746
 6122SOL    HW130002   4.200   0.722   9.729 -0.5448  1.4602  0.9877
 6122SOL    HW230003   4.073   0.708   9.655 -1.5254  1.2926 -1.1051
 6123SOL     OW30004   0.455   1.848  15.935 -0.1390 -0.1292 -0.0431
 6123SOL    HW130005   0.533   1.903  15.925 -0.0476  0.0858  1.8493
 6123SOL    HW230006   0.404   1.898  16.000 -1.3685 -0.2058 -0.9614
 6124SOL     OW30007   3.134   0.781   6.644  0.1250  0.6317 -0.5486
 6124SOL    HW130008   3.109   0.862   6.689 -1.5742 -0.8386  1.1460
 6124SOL    HW230009   3.189   0.815   6.573 -0.6412 -1.2564 -2.0473
 6125SOL     OW30010   3.311   3.867  17.205 -0.2399 -0.0208 -0.6119
 6125SOL    HW130011   3.217   3.854  17.213 -0.4514  1.6232 -0.3739
 6125SOL    HW230012   3.324   3.947  17.153  1.0171  0.6474  0.7274
 6126SOL     OW30013   3.227   1.444   1.500  0.4984  0.2706  0.6997
 6126SOL    HW130014   3.159   1.453   1.433  1.1486 -1.1943 -0.1510
 6126SOL    HW230015   3.301   1.489   1.459 -1.8037  4.3882  1.0332
 6127SOL     OW30016   3.142   4.317   7.702  0.1680  0.0669  0.5369
 6127SOL    HW130017   3.107   4.290   7.617 -1.3940  1.1727  0.8210
 6127SOL    HW230018   3.082   4.273   7.762 -0.7849 -0.3169 -0.6913
 6128SOL     OW30019   3.735   4.616   8.790  0.2863 -0.8628  0.3397
 6128SOL    HW130020   3.713   4.525   8.770  0.9211 -0.7854 -0.7073
 6128SOL    HW230021   3.699   4.617   8.878  2.2890 -1.5343  1.1448
 6129SOL     OW30022   1.691   2.927  12.549 -0.0196  0.2799 -0.3224
 6129SOL    HW130023   1.599   2.942  12.527 -0.3707 -2.3281 -0.6036
 6129SOL    HW230024   1.692   2.837  12.515 -2.1279 -0.5551  1.7782
 6130SOL     OW30025   0.334   2.932   2.405  0.5085  0.9357  0.1999
 6130SOL    HW130026   0.293   2.853   2.370 -0.3308  1.0968  0.8054
 6130SOL    HW230027   0.263   2.996   2.396  0.7048  0.9495 -1.1466
 6131SOL     OW30028   0.231   3.012   1.916 -0.2856  0.5502 -0.1701
 6131SOL    HW130029   0.153   3.030   1.968  0.1438  0.5015  0.4902
 6131SOL    HW230030   0.266   3.100   1.898  0.1974  0.9271  2.7329
 6132SOL     OW30031   1.160   2.591   8.996  0.3890  0.2131 -0.4493
 6132SOL    HW130032   1.201   2.533   9.059  0.8347 -1.2258 -2.0871
 6132SOL    HW230033   1.078   2.613   9.041  1.6532 -0.0450  1.9376
 6133SOL     OW30034   0.178   4.463   6.699  0.2265 -0.1932 -0.4045
 6133SOL    HW130035   0.168   4.519   6.622 -0.7099 -0.0502 -0.1790
 6133SOL    HW230036   0.155   4.380   6.656  0.4436 -0.1323 -0.6346
 6134SOL     OW30037   2.280   2.354   8.416 -0.3588 -0.2879  0.1335
 6134SOL    HW130038   2.301   2.359   8.509 -1.9061  1.5006  0.3820
 6134SOL    HW230039   2.248   2.265   8.406  0.3482 -0.4986 -0.2485
 6135SOL     OW30040   2.426   0.104  11.040  0.7012 -0.3101  0.2491
 6135SOL    HW130041   2.431   0.063  10.954 -0.0171 -3.1666  1.5567
 6135SOL    HW230042   2.509   0.153  11.039 -0.0736  1.0544  3.4997
 6136SOL     OW30043   0.901   1.833   9.374  0.3622  0.0028 -0.6102
 6136SOL    HW130044   0.838   1.801   9.308 -0.4323 -1.3176  0.7929
 6136SOL    HW230045   0.966   1.878   9.319  1.6118 -3.1129 -1.6932
 6137SOL     OW30046   4.059   4.559  16.533 -0.3567  0.2070  0.3939
 6137SOL    HW130047   4.151   4.558  16.560 -0.4474  3.2963  0.8140
 6137SOL    HW230048   4.067   4.476  16.486  1.4799 -0.3483  1.6842
 6138SOL     OW30049   2.549   1.066  10.985 -0.3571  0.4811  0.2737
 6138SOL    HW130050   2.508   1.038  10.903 -1.4548  1.0729  0.6246
 6138SOL    HW230051   2.569   1.157  10.964  2.9629  0.1124  1.8931
 6139SOL     OW30052   3.821   0.877  16.470  0.1952  0.0883 -0.1499
 6139SOL    HW130053   3.746   0.819  16.471 -0.2240  0.6811  2.8219
 6139SOL    HW230054   3.785   0.951  16.421 -0.3838  0.2294  0.4916
 6140SOL     OW30055   3.451   1.870   2.426  0.2486 -0.1039  1.0350
 6140SOL    HW130056   3.391   1.933   2.385 -1.8896 -1.5856  1.8895
 6140SOL    HW230057   3.490   1.922   2.496  0.6708  1.5313 -0.3922
 6141SOL     OW30058   3.561   0.555   1.441  0.3764  0.3443 -0.6451
 6141SOL    HW130059   3.633   0.618   1.433 -0.9438  1.7533 -1.6252
 6141SOL    HW230060   3.564   0.566   1.536 -1.1740 -1.6056 -0.3851
 6142SOL     OW30061   2.140   1.289   6.864  0.4949 -0.0123  0.5350
 6142SOL    HW130062   2.112   1.197   6.865 -1.3564  0.5682  2.4867
 6142SOL    HW230063   2.114   1.317   6.952 -1.0290 -0.6348  0.2958
 6143SOL     OW30064   0.670   1.743   9.829 -0.5540  0.2259 -0.3104
 6143SOL    HW130065   0.609   1.670   9.832 -1.5988  1.0683 -1.3163
 6143SOL    HW230066   0.675   1.770   9.921 -1.1809  1.2081 -0.5708
 6144SOL     OW30067   1.233   3.931   5.801 -0.5620  0.0080  0.1203
 6144SOL    HW130068   1.240   3.872   5.876 -0.4635  0.1894  0.2524
 6144SOL    HW230069   1.147   3.906   5.766  1.0248 -1.0292 -2.9555
 6145SOL     OW30070   1.010   1.004   7.709 -0.1703 -0.2528 -0.3341
 6145SOL    HW130071   1.043   0.969   7.626  1.3102  0.5618 -0.0850
 6145SOL    HW230072   1.044   0.929   7.758  0.7021 -0.1423 -0.7768
 6146SOL     OW30073   4.570   1.314  16.210 -0.2902 -0.3411  0.3228
 6146SOL    HW130074   4.533   1.325  16.298  0.0669 -0.0184  0.4342
 6146SOL    HW230075   4.573   1.407  16.191  0.7079 -0.2994  0.6802
 6147SOL     OW30076   2.116   4.307   5.505  0.0145 -0.5279  0.0750
 6147SOL    HW130077   2.046   4.287   5.443 -0.9737  1.7178  0.4616
 6147SOL    HW230078   2.093   4.257   5.583  1.5280 -1.0188  0.2178
 6148SOL     OW30079   4.216   2.692   4.021 -0.1197 -0.3578 -0.3927
 6148SOL    HW130080   4.235   2.768   4.076  2.3043 -0.5735 -0.9239
 6148SOL    HW230081   4.124   2.704   4.001 -0.2079  0.1784  0.3518
 6149SOL     OW30082   0.572   3.687   8.691 -0.0571 -0.2243 -0.0851
 6149SOL    HW130083   0.651   3.647   8.653  1.0769  1.5913  0.3606
 6149SOL    HW230084   0.576   3.667   8.784 -0.8087  0.1811  0.0329
 6150SOL     OW30085   2.916   3.953  14.255  0.2658 -0.0864  0.8762
 6150SOL    HW130086   2.916   3.879  14.316  2.4776 -0.9349 -0.1754
 6150SOL    HW230087   2.980   3.922  14.191 -0.8064 -1.7490  0.6259
 6151SOL     OW30088   0.564   0.124   6.831 -0.0593  0.0340 -0.3531
 6151SOL    HW130089   0.534   0.077   6.753 -2.1634  0.3496  0.2685
 6151SOL    HW230090   0.510   0.202   6.822 -0.6650 -0.2908  0.5143
 6152SOL     OW30091   3.111   1.192   1.820  0.6017  0.5181 -0.2485
 6152SOL    HW130092   3.174   1.247   1.865 -1.0547  1.6786  0.6561
 6152SOL    HW230093   3.153   1.197   1.734  0.7477 -0.0953 -0.2116
 6153SOL     OW30094   0.319   3.450  16.155  0.4859  0.3907  0.1598
 6153SOL    HW130095   0.250   3.492  16.207 -0.7190 -1.0100 -0.3286
 6153SOL    HW230096   0.378   3.403  16.214  1.7925  1.5526 -0.2135
 6154SOL     OW30097   3.918   1.689   7.729  0.7568 -0.3057 -0.0404
 6154SOL    HW130098   3.917   1.757   7.797 -1.0980 -0.0844 -0.2933
 6154SOL    HW230099   3.825   1.667   7.723  0.7359  0.0985 -1.2208
 6155SOL     OW30100   1.892   2.734  14.823 -0.1063 -0.2737  0.1052
 6155SOL    HW130101   1.917   2.796  14.755  1.2083 -1.3675 -0.4164
 6155SOL    HW230102   1.815   2.692  14.787 -1.4421  0.7806  1.7127
 6156SOL     OW30103   2.630   4.266   5.080  0.0963 -0.1003 -0.0247
 6156SOL    HW130104   2.610   4.341   5.135 -0.0014 -0.6795  0.7281
 6156SOL    HW230105   2.654   4.205   5.150 -0.2714 -0.1391  0.0645
 6157SOL     OW30106   2.583   0.203   8.853 -0.6124 -0.3671 -0.1721
 6157SOL    HW130107   2.500   0.156   8.847  0.4360 -2.1768 -0.5946
 6157SOL    HW230108   2.641   0.126   8.858  0.0274  0.0271 -1.3531
 6158SOL     OW30109   3.343   1.752   6.831  0.3557  0.2795  0.2992
 6158SOL    HW130110   3.384   1.726   6.913 -0.7046  3.5342  1.8199
 6158SOL    HW230111   3.367   1.693   6.759  1.3372  0.7688  0.2276
 6159SOL     OW30112   4.714   4.163   9.255  0.2150 -0.3049  0.5996
 6159SOL    HW130113   4.646   4.199   9.199  0.3189 -0.9630  0.0569
 6159SOL    HW230114   4.657   4.134   9.326 -1.5916  3.3227  0.6311
 6160SOL     OW30115   2.177   3.375   8.522  0.5913 -0.5238  0.0004
 6160SOL    HW130116   2.144   3.298   8.568 -0.7562  1.1664  1.9278
 6160SOL    HW230117   2.247   3.338   8.469  0.4688 -0.7471 -0.0071
 6161SOL     OW30118   0.241   1.178   7.936 -0.1308  0.0286  0.6155
 6161SOL    HW130119   0.249   1.244   8.005  1.1828 -1.9835  2.4290
 6161SOL    HW230120   0.245   1.235   7.860 -2.8888  0.6943  0.9523
 6162SOL     OW30121   1.455   1.146   8.875  0.2359  0.4134 -0.2397
 6162SOL    HW130122   1.518   1.217   8.892  1.0198 -0.1166 -0.8804
 6162SOL    HW230123   1.520   1.076   8.878 -0.4467 -0.2775 -1.6938
 6163SOL     OW30124   1.600   2.262   3.395 -0.6423 -0.1056 -0.6302
 6163SOL    HW130125   1.587   2.357   3.389  0.4000  0.2125  2.2452
 6163SOL    HW230126   1.507   2.238   3.402 -0.3402 -1.5978 -1.7681
 6164SOL     OW30127   4.582   3.778   3.881 -0.3676 -0.5775  0.9898
 6164SOL    HW130128   4.495   3.759   3.847  1.5837 -1.1498 -3.7056
 6164SOL    HW230129   4.567   3.767   3.975 -0.6450 -4.4302  0.4976
 6165SOL     OW30130   2.574   3.391   9.296  0.4988 -0.5884  0.2299
 6165SOL    HW130131   2.540   3.354   9.377 -2.4498  1.2160 -0.2000
 6165SOL    HW230132   2.607   3.479   9.316 -1.2356 -0.0481  0.6367
 6166SOL     OW30133   2.829   2.070   9.799 -0.3873  0.2283  0.2952
 6166SOL    HW130134   2.820   2.115   9.715  0.8154 -0.5739 -0.2607
 6166SOL    HW230135   2.740   2.033   9.805 -0.7195  1.0917  0.7092
 6167SOL     OW30136   4.670   1.916   8.121 -0.0024 -0.1119 -0.2066
 6167SOL    HW130137   4.632   1.855   8.184  0.1734 -1.0071 -0.9681
 6167SOL    HW230138   0.016   1.918   8.161 -0.0003 -0.1681 -0.2084
 6168SOL     OW30139   2.907   0.250   7.623 -0.0785 -0.7014  0.0417
 6168SOL    HW130140   2.890   0.236   7.530 -0.1691  0.5854 -0.1445
 6168SOL    HW230141   2.825   0.293   7.648  0.5763 -0.0102  0.9890
 6169SOL     OW30142   1.768   2.697   4.036 -0.1018 -0.3080  0.0134
 6169SOL    HW130143   1.812   2.647   4.104  1.0879  0.6507 -0.0482
 6169SOL    HW230144   1.799   2.656   3.956 -0.4635  0.3399 -0.4578
 6170SOL     OW30145   1.753   4.307   0.966 -0.9009 -0.3223 -0.2717
 6170SOL    HW130146   1.836   4.354   0.966 -0.1678 -1.6415  0.1075
 6170SOL    HW230147   1.766   4.235   0.905  3.8002  0.3093  0.0322
 6171SOL     OW30148   2.028   1.925   3.447  0.2497 -0.2398 -0.1905
 6171SOL    HW130149   2.115   1.921   3.486 -0.3296 -3.3089  0.7964
 6171SOL    HW230150   2.055   1.891   3.362  0.7616 -0.8730  0.2263
 6172SOL     OW30151   4.327   4.222   6.915 -0.3898 -0.8387  0.2631
 6172SOL    HW130152   4.250   4.228   6.971 -0.2935  0.6994  0.2222
 6172SOL    HW230153   4.385   4.165   6.966 -0.4273 -0.6111  0.5564
 6173SOL     OW30154   1.386   0.845  15.370 -0.7563  1.3349 -0.3786
 6173SOL    HW130155   1.452   0.870  15.305 -1.1142 -1.7475 -1.8724
 6173SOL    HW230156   1.435   0.864  15.450 -1.5040 -0.3191  0.4548
 6174SOL     OW30157   3.215   2.829  16.369  0.2360 -0.0729  0.9190
 6174SOL    HW130158   3.130   2.857  16.335  0.8143  1.3026  0.6049
 6174SOL    HW230159   3.192   2.748  16.413 -0.0506 -0.7215 -0.4341
 6175SOL     OW30160   3.381   3.290  13.472 -0.2103  0.0130 -0.3286
 6175SOL    HW130161   3.411   3.326  13.556 -1.0573 -1.1025  0.4429
 6175SOL    HW230162   3.321   3.361  13.447  0.6211  1.3318  1.4230
 6176SOL     OW30163   0.682   4.453   6.307  0.1705 -0.4563 -0.2022
 6176SOL    HW130164   0.675   4.360   6.286  0.8624 -0.5067 -0.2067
 6176SOL    HW230165   0.732   4.449   6.388 -0.8502  2.5505  0.6199
 6177SOL     OW30166   4.162   0.452  17.653  0.2576  0.2323  0.1171
 6177SOL    HW130167   4.254   0.479  17.656  0.1856  0.3815  0.9004
 6177SOL    HW230168   4.130   0.471  17.741 -0.8777  3.9470 -1.1072
 6178SOL     OW30169   2.055   3.376  12.890  0.4550 -0.2191 -0.1685
 6178SOL    HW130170   1.972   3.349  12.852 -0.0647  0.5383  0.4237
 6178SOL    HW230171   2.047   3.471  12.883  1.8557 -0.1331 -0.6973
 6179SOL     OW30172   0.582   1.643   5.053  0.6740  0.2857  0.0847
 6179SOL    HW130173   0.560   1.727   5.094  0.4453  0.6734 -0.8302
 6179SOL    HW230174   0.491   1.613   5.045  0.9985 -0.7044  0.0874
 6180SOL     OW30175   4.171   3.788   2.249 -0.3843 -0.0187  0.3230
 6180SOL    HW130176   4.232   3.844   2.201 -0.4938 -0.1182  0.0651
 6180SOL    HW230177   4.230   3.717   2.272  0.2827  0.5212  0.2663
 6181SOL     OW30178   2.361   2.515   9.109 -0.2405  0.3021 -0.0688
 6181SOL    HW130179   2.378   2.534   9.202  1.7324  0.1447 -0.3868
 6181SOL    HW230180   2.400   2.431   9.088  1.4019  1.0789 -0.1827
 6182SOL     OW30181   2.592   1.960   9.824 -0.1101  0.0757  0.3260
 6182SOL    HW130182   2.574   1.970   9.918  0.9774  1.3928  0.3910
 6182SOL    HW230183   2.508   1.948   9.781  0.7543  1.5411 -1.7660
 6183SOL     OW30184   2.964   0.510   7.818  0.5787 -0.2279  0.1010
 6183SOL    HW130185   3.023   0.515   7.743  1.8006  2.1196  1.2207
 6183SOL    HW230186   2.880   0.516   7.772  2.0186 -0.6105 -2.6270
 6184SOL     OW30187   0.655   3.532  15.400  0.4596 -0.1787  0.5025
 6184SOL    HW130188   0.723   3.599  15.408  0.3870 -0.1638  0.9979
 6184SOL    HW230189   0.577   3.587  15.401  0.4225 -0.2129 -1.3964
 6185SOL     OW30190   3.192   2.899   3.472 -0.0789  0.3862 -0.3017
 6185SOL    HW130191   3.230   2.973   3.426  3.5434  0.8630  3.4234
 6185SOL    HW230192   3.258   2.830   3.476  0.4029  0.9899  2.2453
 6186SOL     OW30193   3.176   4.360   2.188 -0.3454 -0.2452  0.0132
 6186SOL    HW130194   3.118   4.387   2.259 -2.7063  0.1447 -2.0394
 6186SOL    HW230195   3.163   4.430   2.124 -0.7083 -1.1824 -0.9553
 6187SOL     OW30196   1.709   1.969   9.394 -0.3704  0.2510 -0.1389
 6187SOL    HW130197   1.777   1.977   9.461  0.7231 -1.1636 -1.0839
 6187SOL    HW230198   1.641   1.936   9.452  1.5509  1.5202  2.8487
 6188SOL     OW30199   1.559   0.387  11.116 -0.2346 -0.1970  0.6359
 6188SOL    HW130200   1.515   0.389  11.031 -0.1726  1.8667  0.6505
 6188SOL    HW230201   1.622   0.317  11.101  0.0734  0.0286  0.8779
 6189SOL     OW30202   3.782   0.214   2.168  0.0925  0.1707 -0.1181
 6189SOL    HW130203   3.688   0.210   2.152  0.2002  0.6446 -0.9039
 6189SOL    HW230204   3.802   0.122   2.150 -0.3156 -0.2946  1.7859
 6190SOL     OW30205   1.102   1.503  11.294  0.7690  0.3109  0.0618
 6190SOL    HW130206   1.078   1.588  11.259 -0.2197  1.1419  2.7591
 6190SOL    HW230207   1.152   1.536  11.369  0.0592  1.0630  0.2032
 6191SOL     OW30208   2.110   3.750   3.784 -0.5204  0.2295  0.0292
 6191SOL    HW130209   2.082   3.837   3.756  1.2429  0.0663 -2.2959
 6191SOL    HW230210   2.103   3.697   3.704 -2.7957  2.7070 -1.3809
 6192SOL     OW30211   0.689   1.488   6.372  0.1102 -0.1180 -0.1666
 6192SOL    HW130212   0.668   1.573   6.411 -1.5702 -1.7194  2.3978
 6192SOL    HW230213   0.784   1.493   6.383 -0.2411  1.5800  2.2209
 6193SOL     OW30214   3.696   3.506  13.560  0.0809 -0.2763 -0.0779
 6193SOL    HW130215   3.665   3.415  13.558  2.2295 -1.0215 -0.4371
 6193SOL    HW230216   3.782   3.490  13.522 -0.3692  0.3803 -1.3717
 6194SOL     OW30217   1.555   4.362   7.891 -0.6195  0.5492  0.1093
 6194SOL    HW130218   1.516   4.363   7.804 -1.7887 -2.0013  0.6176
 6194SOL    HW230219   1.609   4.441   7.887  1.0935 -0.5672  1.5164
 6195SOL     OW30220   4.505   2.853   1.164  0.7631 -0.4537  0.2083
 6195SOL    HW130221   4.415   2.873   1.190  0.3263  2.1831 -3.4032
 6195SOL    HW230222   4.544   2.839   1.250  0.4918 -0.6778  0.2974
 6196SOL     OW30223   0.573   0.249   0.587  0.0803 -0.6138 -0.5788
 6196SOL    HW130224   0.600   0.179   0.646 -2.9822 -0.5384  0.9100
 6196SOL    HW230225   0.594   0.318   0.651 -2.0422 -0.7235  0.2569
 6197SOL     OW30226   0.578   1.051   2.335  0.5340 -0.1839 -0.0656
 6197SOL    HW130227   0.641   1.118   2.362  0.5300  0.0115 -0.5425
 6197SOL    HW230228   0.616   1.019   2.253  1.6860  0.3872  0.2505
 6198SOL     OW30229   0.193   0.416   3.793  0.3104  0.2601  0.2382
 6198SOL    HW130230   0.241   0.472   3.732  1.6008 -0.2481  0.7795
 6198SOL    HW230231   0.134   0.373   3.732  2.2941 -0.9554 -0.8130
 6199SOL     OW30232   3.470   3.526  17.376 -0.0892 -0.2663 -0.1371
 6199SOL    HW130233   3.551   3.512  17.424 -0.5964 -2.5572  0.0746
 6199SOL    HW230234   3.458   3.616  17.404  1.1758 -0.3656  0.7088
 6200SOL     OW30235   1.309   0.878  17.351 -0.0887 -0.4084 -0.3102
 6200SOL    HW130236   1.393   0.867  17.395 -0.8871  0.0790  1.3189
 6200SOL    HW230237   1.294   0.972  17.357  1.6461 -0.0795 -1.1969
 6201SOL     OW30238   3.215   2.357   8.901  0.1236 -0.2440 -0.0347
 6201SOL    HW130239   3.307   2.347   8.923  0.7867  0.3801 -2.5202
 6201SOL    HW230240   3.212   2.452   8.911 -0.9260 -0.4130  1.2859
 6202SOL     OW30241   2.735   1.773  10.050  0.0044 -0.1265  0.1185
 6202SOL    HW130242   2.783   1.855  10.066  1.1731 -0.9912  1.0550
 6202SOL    HW230243   2.786   1.732   9.980 -1.0753  0.2021 -0.8679
 6203SOL     OW30244   0.570   1.470   8.236  0.7356  0.2270  0.4905
 6203SOL    HW130245   0.631   1.492   8.307  0.0851  0.8676  0.8466
 6203SOL    HW230246   0.534   1.386   8.265 -0.5455  0.4400 -0.5242
 6204SOL     OW30247   3.827   2.004   5.377  0.4283  0.0842 -0.0755
 6204SOL    HW130248   3.780   2.059   5.313 -0.0903 -0.6929 -0.3607
 6204SOL    HW230249   3.864   1.932   5.326  2.2548 -0.9374  2.7326
 6205SOL     OW30250   4.599   2.225   5.467  0.0423  0.3972  0.1105
 6205SOL    HW130251   4.633   2.210   5.555 -0.7473  1.7370  0.6408
 6205SOL    HW230252   4.506   2.240   5.482  0.2973  1.4526  0.6002
 6206SOL     OW30253   2.392   1.294   2.642 -0.5481 -0.4620 -0.3007
 6206SOL    HW130254   2.340   1.280   2.564  0.3210 -2.0374 -0.5961
 6206SOL    HW230255   2.345   1.243   2.708 -0.5638 -1.9160 -1.4484
 6207SOL     OW30256   0.921   1.366   6.638  0.0154  0.2766 -0.0193
 6207SOL    HW130257   0.932   1.423   6.563 -2.1285  1.4323  0.5503
 6207SOL    HW230258   0.826   1.375   6.651  0.5057  1.7087  2.5732
 6208SOL     OW30259   4.129   0.852  15.104 -0.1504 -0.4944 -0.1182
 6208SOL    HW130260   4.035   0.868  15.102 -0.0580 -0.0636 -0.8636
 6208SOL    HW230261   4.165   0.938  15.083 -1.8279  0.4832  0.9453
 6209SOL     OW30262   1.862   0.335   1.507  0.4472  0.0502  0.5035
 6209SOL    HW130263   1.768   0.333   1.491  0.5984  2.4175 -0.6506
 6209SOL    HW230264   1.874   0.240   1.517  4.3437  0.5648  1.0044
 6210SOL     OW30265   2.942   3.658   5.882 -0.4217  0.2899  0.1696
 6210SOL    HW130266   2.927   3.604   5.960 -0.9525 -1.4697 -1.1367
 6210SOL    HW230267   3.036   3.649   5.866 -0.3970 -0.2572  0.6216
 6211SOL     OW30268   2.646   2.630   7.644  0.1897  0.4796  0.1649
 6211SOL    HW130269   2.687   2.554   7.601  0.7541  2.5049 -2.8890
 6211SOL    HW230270   2.713   2.650   7.709  0.3244 -0.3218  0.2704
 6212SOL     OW30271   3.887   0.908   1.773 -0.0292 -0.2042  0.2581
 6212SOL    HW130272   3.895   0.982   1.712 -0.4500 -2.5873 -2.6487
 6212SOL    HW230273   3.976   0.872   1.766  0.6809  1.1088  2.4543
 6213SOL     OW30274   4.722   1.235   7.703 -0.0034 -0.2010 -0.0730
 6213SOL    HW130275   0.074   1.254   7.723 -0.2041  1.0378 -0.3302
 6213SOL    HW230276   4.687   1.297   7.768 -0.2202 -2.1894  1.7050
 6214SOL     OW30277   3.767   2.962  14.170  0.2768 -0.3450  0.2144
 6214SOL    HW130278   3.727   2.966  14.083  2.3823  1.4835 -0.7028
 6214SOL    HW230279   3.736   3.039  14.219 -1.1417 -1.2981  0.7993
 6215SOL     OW30280   3.988   3.659  12.468 -0.0460  0.3991 -0.7320
 6215SOL    HW130281   3.972   3.719  12.395 -1.0213  0.0913 -0.7713
 6215SOL    HW230282   4.021   3.719  12.534 -0.8853 -0.8386  0.8180
 6216SOL     OW30283   0.611   2.364  17.085  0.3736 -0.7795  0.0430
 6216SOL    HW130284   0.655   2.306  17.021 -0.4912 -0.5778 -0.7298
 6216SOL    HW230285   0.519   2.342  17.075 -0.9195  3.1485  3.4890
 6217SOL     OW30286   1.158   4.197  14.528  0.1416 -0.0731  0.5152
 6217SOL    HW130287   1.089   4.252  14.491  1.0962  0.4639 -0.4395
 6217SOL    HW230288   1.217   4.258  14.572 -1.6071  2.7659 -1.0500
 6218SOL     OW30289   4.544   2.692   7.307  0.4429  0.1621  0.7289
 6218SOL    HW130290   4.636   2.711   7.326  0.5845  2.2371 -2.0165
 6218SOL    HW230291   4.549   2.617   7.248  0.3447  1.3977 -0.8514
 6219SOL     OW30292   1.175   4.172   6.956 -0.0065  0.5156  0.5607
 6219SOL    HW130293   1.209   4.238   7.015  0.2284  1.7393 -0.9617
 6219SOL    HW230294   1.189   4.203   6.867 -0.4447  1.1896  0.7326
 6220SOL     OW30295   1.587   1.128   6.360 -0.3008  0.5255  0.3507
 6220SOL    HW130296   1.622   1.049   6.319 -0.6365  0.0726  0.9367
 6220SOL    HW230297   1.664   1.165   6.404  1.4511  0.2091 -2.4299
 6221SOL     OW30298   1.601   1.462  15.373  0.5369  0.6015 -0.4120
 6221SOL    HW130299   1.603   1.407  15.451  0.3463 -0.3224 -1.0502
 6221SOL    HW230300   1.611   1.393  15.307  1.7486 -1.6938  2.2292
 6222SOL     OW30301   0.140   4.295   1.372  0.0314 -0.0914 -0.4041
 6222SOL    HW130302   0.146   4.203   1.401 -1.5992  0.2086  0.8639
 6222SOL    HW230303   0.224   4.336   1.394  0.2615  0.4032 -2.2624
 6223SOL     OW30304   3.124   0.465   3.444  0.7703 -0.0349  0.6226
 6223SOL    HW130305   3.167   0.390   3.485 -2.6369 -1.5228  1.4593
 6223SOL    HW230306   3.121   0.533   3.511 -0.7614 -1.2997  1.8221
 6224SOL     OW30307   3.386   2.081   3.411 -0.4701 -0.2798 -0.4929
 6224SOL    HW130308   3.479   2.075   3.391  0.1513  2.6279  1.4313
 6224SOL    HW230309   3.360   1.998   3.451 -0.3377  0.5083  1.2174
 6225SOL     OW30310   2.999   4.223  15.521 -0.5960 -0.3181 -0.2636
 6225SOL    HW130311   2.985   4.129  15.508 -0.5162 -0.5744  1.5272
 6225SOL    HW230312   3.055   4.253  15.450  3.6003 -2.4613  2.1811
 6226SOL     OW30313   3.964   3.124   7.667  0.3296  0.9606  0.0967
 6226SOL    HW130314   4.027   3.106   7.737 -2.7420 -1.6767  2.1663
 6226SOL    HW230315   3.879   3.101   7.704  0.4334  0.5432  0.0825
 6227SOL     OW30316   0.768   1.679   4.484  0.3422 -0.1904  0.6275
 6227SOL    HW130317   0.717   1.755   4.513 -0.1381 -0.5575  0.7401
 6227SOL    HW230318   0.696   1.618   4.474 -0.7172  0.7911  2.3344
 6228SOL     OW30319   2.109   4.103   6.943 -0.1377  0.0408 -0.3300
 6228SOL    HW130320   2.128   4.169   7.009 -0.5267 -0.2822  0.1072
 6228SOL    HW230321   2.035   4.066   6.992 -0.4914  0.5871 -0.4555
 6229SOL     OW30322   4.244   2.748   8.216  0.2745 -0.1834  0.1677
 6229SOL    HW130323   4.281   2.666   8.184 -1.6223 -1.1348  0.3672
 6229SOL    HW230324   4.245   2.810   8.144 -3.0063  0.2626  0.4889
 6230SOL     OW30325   1.088   1.004   4.119  0.1350 -0.2059  0.0037
 6230SOL    HW130326   1.173   1.021   4.160  0.7965  1.9486 -2.1810
 6230SOL    HW230327   1.045   1.090   4.115 -1.6933 -1.2244 -2.5010
 6231SOL     OW30328   4.528   1.741   7.840 -0.4757  0.0013 -0.8040
 6231SOL    HW130329   4.546   1.835   7.838  0.8077 -0.2527 -1.6429
 6231SOL    HW230330   4.598   1.707   7.897  1.1963  1.6160 -1.8824
 6232SOL     OW30331   1.156   4.645   4.595  0.7125 -0.1128  0.3831
 6232SOL    HW130332   1.118   4.585   4.660 -0.7323  1.0589  0.6049
 6232SOL    HW230333   1.159   4.589   4.517  2.6041  0.4567  0.0468
 6233SOL     OW30334   3.626   0.629  10.399  0.3866  0.0111  0.3120
 6233SOL    HW130335   3.590   0.634  10.311 -1.5891 -0.9455  1.0750
 6233SOL    HW230336   3.563   0.691  10.436  0.0903  0.3263 -0.7336
 6234SOL     OW30337   4.026   3.433  16.085  0.4976  0.1965  0.4549
 6234SOL    HW130338   4.075   3.376  16.026  0.0450 -1.9366  2.1337
 6234SOL    HW230339   4.054   3.520  16.058  0.0799  0.3396  0.4846
 6235SOL     OW30340   2.580   3.365  15.112 -0.0024  0.5502 -0.0850
 6235SOL    HW130341   2.518   3.292  15.119  0.9505 -0.2225  0.3209
 6235SOL    HW230342   2.584   3.375  15.017 -1.3610 -2.3791 -0.4488
 6236SOL     OW30343   1.728   3.897   3.339 -0.1941 -0.0624 -0.2850
 6236SOL    HW130344   1.691   3.984   3.323  1.4236  0.3439 -1.7888
 6236SOL    HW230345   1.682   3.868   3.418 -3.1133  0.7044 -1.7031
 6237SOL     OW30346   1.157   2.840   2.657  0.6610 -0.0279 -0.0352
 6237SOL    HW130347   1.127   2.868   2.744  1.6050  2.4635 -0.5336
 6237SOL    HW230348   1.070   2.808   2.633  0.7649 -1.1943  1.1149
 6238SOL     OW30349   3.577   0.318   4.440 -1.1317  0.6086 -0.2233
 6238SOL    HW130350   3.520   0.257   4.394  1.0101 -1.9924  0.5631
 6238SOL    HW230351   3.604   0.378   4.370 -3.2442  0.6133 -1.0095
 6239SOL     OW30352   1.353   2.172   5.122 -0.4080  0.7026 -0.1686
 6239SOL    HW130353   1.357   2.108   5.194 -3.3105  1.0003  0.2807
 6239SOL    HW230354   1.372   2.108   5.053 -0.0789  0.6759 -0.0523
 6240SOL     OW30355   3.976   2.312   7.413  0.5225 -0.6026 -0.2095
 6240SOL    HW130356   4.040   2.321   7.484  0.0791 -0.2697  0.1486
 6240SOL    HW230357   4.023   2.359   7.345  0.6316 -1.2373 -0.5761
 6241SOL     OW30358   3.290   1.501   7.131  0.4790 -0.0106  0.1341
 6241SOL    HW130359   3.358   1.444   7.167  1.2858  1.7042  1.3389
 6241SOL    HW230360   3.343   1.578   7.110 -0.2630  0.3995 -0.2241
 6242SOL     OW30361   2.461   1.104  17.002 -0.2804  0.2474 -0.3458
 6242SOL    HW130362   2.452   1.012  16.979 -0.4960  0.2951 -0.4622
 6242SOL    HW230363   2.556   1.112  16.999 -0.2302 -0.3816 -0.3505
 6243SOL     OW30364   0.844   2.150   3.150  0.2100 -0.3165 -0.0814
 6243SOL    HW130365   0.877   2.239   3.134 -1.8061  0.6014  0.8302
 6243SOL    HW230366   0.924   2.108   3.182  0.4764  1.4667  1.6080
 6244SOL     OW30367   2.846   2.429   7.881  0.1363 -0.3803 -0.0147
 6244SOL    HW130368   2.863   2.442   7.974  1.4632 -0.3817 -0.2583
 6244SOL    HW230369   2.923   2.464   7.836  0.8435 -1.6429  0.2020
 6245SOL     OW30370   3.920   2.602   0.791 -0.1171  0.4974  0.3665
 6245SOL    HW130371   3.979   2.528   0.775  1.5039  1.8880 -0.1956
 6245SOL    HW230372   3.849   2.560   0.838  0.7368  1.3056  2.3918
 6246SOL     OW30373   3.403   3.480   3.567 -0.5384 -0.1091  0.0509
 6246SOL    HW130374   3.453   3.399   3.554 -0.7780 -0.0895 -1.0160
 6246SOL    HW230375   3.374   3.477   3.658 -0.9214 -2.3333 -0.1375
 6247SOL     OW30376   4.034   4.420   1.367  0.0364  0.3040 -0.6287
 6247SOL    HW130377   4.075   4.456   1.289 -2.4849 -2.5543 -3.3252
 6247SOL    HW230378   3.986   4.498   1.394  0.1601  0.5723 -1.1874
 6248SOL     OW30379   2.572   0.625   4.543  0.7931 -0.3823 -0.1079
 6248SOL    HW130380   2.521   0.689   4.593 -0.5758 -0.5991 -1.2253
 6248SOL    HW230381   2.647   0.677   4.513  0.2215  0.9407  0.7341
 6249SOL     OW30382   0.435   0.720   8.394  0.0508 -0.3613  0.9478
 6249SOL    HW130383   0.464   0.810   8.385 -0.3577 -0.3227 -0.0020
 6249SOL    HW230384   0.339   0.721   8.400  0.0064 -0.6702  0.3771
 6250SOL     OW30385   4.736   0.345   2.060  0.4488  0.7466  0.1481
 6250SOL    HW130386   0.065   0.285   2.091 -1.9480 -1.2932  1.4657
 6250SOL    HW230387   4.736   0.315   1.969  1.0470  0.9912  0.0657
 6251SOL     OW30388   0.568   0.460  14.993 -0.0344  0.8166 -0.3250
 6251SOL    HW130389   0.503   0.530  14.993 -0.9299 -0.0175  0.1696
 6251SOL    HW230390   0.651   0.503  15.015 -0.4577  0.4468  1.9744
 6252SOL     OW30391   0.752   2.935  11.747  0.0804 -0.1849 -0.1444
 6252SOL    HW130392   0.845   2.924  11.730 -0.0583 -1.5875 -0.0022
 6252SOL    HW230393   0.762   2.980  11.830 -1.9425 -0.8094  0.4470
 6253SOL     OW30394   4.668   1.410  11.377  0.2454  0.7227  0.4603
 6253SOL    HW130395   4.718   1.360  11.443 -1.3126 -0.5835  0.6551
 6253SOL    HW230396   4.688   1.378  11.289 -3.4135 -1.4444  0.4071
 6254SOL     OW30397   0.052   0.991   1.971  0.6560 -0.0921 -0.0833
 6254SOL    HW130398   0.017   1.014   2.057 -0.6526  0.4451 -0.7620
 6254SOL    HW230399   4.718   1.022   1.919  2.1741  0.8914 -1.6404
 6255SOL     OW30400   0.806   0.215   9.047 -0.2541  0.3226  0.3589
 6255SOL    HW130401   0.764   0.199   8.962 -2.1967 -1.3676  1.6268
 6255SOL    HW230402   0.762   0.151   9.103  0.7266 -1.0370 -0.4278
 6256SOL     OW30403   2.626   0.456   2.837 -0.0512 -0.4527  1.0806
 6256SOL    HW130404   2.660   0.435   2.924 -2.3919 -1.4266  1.7603
 6256SOL    HW230405   2.709   0.474   2.794 -1.5732 -1.4431 -2.2623
 6257SOL     OW30406   2.170   2.596   7.877  0.0116 -0.2930 -0.2874
 6257SOL    HW130407   2.076   2.591   7.863 -0.2667 -1.8927  2.1885
 6257SOL    HW230408   2.217   2.612   7.795  0.9306  2.0605  0.6904
 6258SOL     OW30409   2.616   2.349  10.093 -0.9420 -0.3426  0.0352
 6258SOL    HW130410   2.555   2.275  10.089 -1.6683  0.2410  0.2460
 6258SOL    HW230411   2.595   2.379  10.182 -1.4811  1.9359 -0.8655
 6259SOL     OW30412   2.547   2.536   5.408  0.1428  0.2009  0.1119
 6259SOL    HW130413   2.474   2.561   5.465 -1.0223 -1.9811 -0.4180
 6259SOL    HW230414   2.615   2.588   5.451  0.4076  0.3145 -0.4481
 6260SOL     OW30415   3.573   2.480   8.057 -0.4896  0.1015  0.4284
 6260SOL    HW130416   3.636   2.413   8.084  0.0444  0.2948 -0.3687
 6260SOL    HW230417   3.534   2.429   7.986 -0.7936 -0.7881  1.2353
 6261SOL     OW30418   2.191   3.440   1.686  0.3778 -0.0707  0.3591
 6261SOL    HW130419   2.220   3.386   1.612 -1.0986 -1.7110  0.9810
 6261SOL    HW230420   2.098   3.419   1.685  0.7259 -1.5804 -0.6411
 6262SOL     OW30421   2.315   4.007   2.333  0.2667 -0.2447  0.1973
 6262SOL    HW130422   2.249   3.947   2.297 -0.0728 -0.5135  1.2737
 6262SOL    HW230423   2.393   3.967   2.296 -0.6210 -0.2612 -1.6529
 6263SOL     OW30424   2.415   3.405   5.245  0.0119 -0.4281 -0.5646
 6263SOL    HW130425   2.464   3.341   5.298 -0.6109  0.4467  1.0672
 6263SOL    HW230426   2.473   3.480   5.235  0.0323 -0.4170 -0.3596
 6264SOL     OW30427   1.501   2.004   3.886 -0.3918 -0.3409  0.5472
 6264SOL    HW130428   1.538   1.964   3.808 -0.7448  0.1385  0.1389
 6264SOL    HW230429   1.415   2.036   3.861 -0.8393 -1.1003  1.1072
 6265SOL     OW30430   3.332   2.058  15.649 -0.2727 -0.2435  0.0805
 6265SOL    HW130431   3.248   2.104  15.644 -0.2854 -0.2784 -0.0235
 6265SOL    HW230432   3.303   1.988  15.707 -1.9079  0.7092  0.4256
 6266SOL     OW30433   2.579   1.319  10.880 -0.0354  0.4280 -0.9834
 6266SOL    HW130434   2.625   1.321  10.796 -0.3208 -0.9466 -1.1754
 6266SOL    HW230435   2.563   1.412  10.898 -1.4899 -0.2414  1.2119
 6267SOL     OW30436   3.835   0.548   3.230  0.3953  0.1886  0.2457
 6267SOL    HW130437   3.929   0.529   3.226  0.6621  1.8592 -1.5606
 6267SOL    HW230438   3.825   0.611   3.302 -1.8819 -0.6757  0.6760
 6268SOL     OW30439   4.038   2.072   4.700  0.0089  0.1833  0.0910
 6268SOL    HW130440   4.070   2.056   4.611  1.1755 -0.2959  0.5898
 6268SOL    HW230441   3.944   2.079   4.683 -0.2780  0.2653  1.7274
 6269SOL     OW30442   1.561   4.627   8.251  0.5436  0.1395 -0.1997
 6269SOL    HW130443   1.602   4.681   8.183 -0.4264  2.6476  1.2093
 6269SOL    HW230444   1.620   4.651   8.323  2.8209 -0.3343 -1.9186
 6270SOL     OW30445   2.822   2.085  14.025  0.0180 -1.0174 -0.2003
 6270SOL    HW130446   2.874   2.105  13.946 -2.3532  2.4940 -0.8460
 6270SOL    HW230447   2.813   1.990  14.018 -0.2688 -0.8893 -1.5055
 6271SOL     OW30448   0.172   3.586   8.648 -0.3549 -0.1528 -0.2975
 6271SOL    HW130449   0.171   3.560   8.555  1.1768 -0.1079 -0.3264
 6271SOL    HW230450   0.229   3.515   8.677 -0.0241  0.3045  0.1536
 6272SOL     OW30451   0.847   4.553   4.988 -0.2319  0.0447  0.3913
 6272SOL    HW130452   0.847   4.642   5.022  0.7431  0.3052 -0.2803
 6272SOL    HW230453   0.929   4.514   5.018 -1.3287 -2.9756 -0.5136
 6273SOL     OW30454   1.236   2.796   8.071 -0.6812 -0.3207  0.5083
 6273SOL    HW130455   1.237   2.865   8.005 -3.3488 -0.9601 -0.2258
 6273SOL    HW230456   1.182   2.838   8.139  1.1235  1.2296  0.9810
 6274SOL     OW30457   3.299   3.676  13.704  0.0114  0.2000  0.6684
 6274SOL    HW130458   3.285   3.751  13.761  0.4114  0.2612  0.6830
 6274SOL    HW230459   3.332   3.719  13.624  2.1167 -2.4383  0.1085
 6275SOL     OW30460   2.978   3.573  17.308 -0.1559 -0.5613  0.3695
 6275SOL    HW130461   2.906   3.578  17.371 -0.3540 -1.4364  0.2117
 6275SOL    HW230462   3.049   3.538  17.361  1.4145 -0.8537 -1.9303
 6276SOL     OW30463   4.076   1.961  13.123 -0.4874 -0.2237  0.0580
 6276SOL    HW130464   4.108   1.898  13.058  2.1444  2.2776 -1.0962
 6276SOL    HW230465   3.986   1.966  13.091 -0.2922  1.7686 -0.1707
 6277SOL     OW30466   0.171   3.377   2.137 -0.5361 -0.5895  0.1315
 6277SOL    HW130467   0.185   3.467   2.166  0.3588 -0.3936 -0.9458
 6277SOL    HW230468   0.076   3.366   2.146 -0.6479  0.3063  0.0359
 6278SOL     OW30469   3.051   2.853   6.809  0.1986  0.1218 -0.7127
 6278SOL    HW130470   2.993   2.882   6.739  0.8064 -0.1760 -1.3353
 6278SOL    HW230471   3.131   2.837   6.760  0.5880 -2.8544  0.9017
 6279SOL     OW30472   1.658   0.380   0.868 -0.9240  0.5209 -0.2918
 6279SOL    HW130473   1.697   0.463   0.896  1.7910 -1.1872  0.9665
 6279SOL    HW230474   1.572   0.375   0.910 -1.8443 -1.1147 -2.4111
 6280SOL     OW30475   1.483   3.601   5.608 -0.1735 -0.2220 -0.3840
 6280SOL    HW130476   1.563   3.646   5.582 -1.0037  0.4097 -1.8426
 6280SOL    HW230477   1.494   3.516   5.564  1.3538 -0.2584  0.0555
 6281SOL     OW30478   1.101   3.136  13.294  0.0168  0.1993  0.7928
 6281SOL    HW130479   1.028   3.112  13.352 -0.0704 -1.8546 -0.1671
 6281SOL    HW230480   1.052   3.190  13.231 -0.0427 -0.6861  0.0752
 6282SOL     OW30481   2.317   3.070   9.009 -0.3600 -0.6531  0.0504
 6282SOL    HW130482   2.348   3.158   9.029 -0.3304  0.0973 -3.2093
 6282SOL    HW230483   2.398   3.019   9.018 -0.0688 -0.5040 -1.6464
 6283SOL     OW30484   3.443   2.452   4.566  0.9107  0.2833 -0.0096
 6283SOL    HW130485   3.352   2.439   4.538  0.1476 -0.1452  2.6741
 6283SOL    HW230486   3.474   2.362   4.575 -2.1581 -0.9517 -1.8094
 6284SOL     OW30487   0.640   1.946   6.818 -0.0986 -0.2766  0.0670
 6284SOL    HW130488   0.549   1.944   6.847  0.6993  0.1084  2.5859
 6284SOL    HW230489   0.656   1.852   6.809  0.0626 -0.0973 -1.5120
 6285SOL     OW30490   3.993   0.715   0.554 -0.0174  0.0495  0.5022
 6285SOL    HW130491   3.942   0.737   0.632  0.9863 -1.7278  1.6583
 6285SOL    HW230492   3.999   0.619   0.558  0.9832  0.0789 -0.3608
 6286SOL     OW30493   1.421   0.596   0.796 -0.2720 -0.3078  0.3714
 6286SOL    HW130494   1.420   0.524   0.860 -0.6883 -0.1646  0.5297
 6286SOL    HW230495   1.349   0.655   0.818 -0.1725  0.7188 -2.0806
 6287SOL     OW30496   4.718   2.539  13.154  0.0809  0.2173 -0.3055
 6287SOL    HW130497   4.695   2.632  13.144 -0.8048 -0.1332 -1.5834
 6287SOL    HW230498   0.070   2.540  13.178 -0.1526 -0.6672  0.6007
 6288SOL     OW30499   4.637   3.977   2.797 -0.0529 -0.1439 -0.4242
 6288SOL    HW130500   4.723   3.979   2.839 -0.5708  0.6018  0.6192
 6288SOL    HW230501   4.649   3.960   2.704  1.6923  2.6115 -0.6985
 6289SOL     OW30502   3.151   2.874   4.328  0.3342 -0.5396  0.2678
 6289SOL    HW130503   3.094   2.949   4.344  0.1212 -0.7692  0.5780
 6289SOL    HW230504   3.216   2.913   4.386 -0.6943 -0.8455  1.6135
 6290SOL     OW30505   4.593   3.061   2.884  0.5866 -0.0862 -0.3525
 6290SOL    HW130506   4.567   3.153   2.890 -0.7610 -0.3867 -1.6263
 6290SOL    HW230507   4.507   3.023   2.871  0.3541  0.8684 -1.5885
 6291SOL     OW30508   0.495   1.884   7.755 -0.3998  0.3081  0.1708
 6291SOL    HW130509   0.565   1.944   7.780 -2.5399  3.1212 -0.5044
 6291SOL    HW230510   0.430   1.953   7.740  1.3601  1.4937 -1.9895
 6292SOL     OW30511   2.588   0.841   2.337 -0.1821 -0.6683 -0.5335
 6292SOL    HW130512   2.539   0.761   2.359  0.3317 -0.7442  0.3251
 6292SOL    HW230513   2.617   0.820   2.248  1.3669  0.9716 -0.4057
 6293SOL     OW30514   4.724   3.190   3.347  0.4308  0.6371 -0.1734
 6293SOL    HW130515   0.062   3.203   3.292  1.1314 -1.6924  0.2405
 6293SOL    HW230516   0.011   3.221   3.434  0.9440 -0.1667 -0.0422
 6294SOL     OW30517   0.970   1.889  12.872 -0.0501 -0.6731  0.7735
 6294SOL    HW130518   0.959   1.858  12.783  0.7582  0.8392  0.1385
 6294SOL    HW230519   1.006   1.975  12.848  1.2105 -1.6180 -0.6976
 6295SOL     OW30520   3.486   3.303   4.144 -0.3199 -0.2133  0.8384
 6295SOL    HW130521   3.411   3.245   4.157 -0.2913 -0.5408 -0.5019
 6295SOL    HW230522   3.506   3.320   4.236  0.3103  0.0999  0.6389
 6296SOL     OW30523   2.352   0.682   7.109 -0.0081 -0.1851  0.0461
 6296SOL    HW130524   2.416   0.657   7.043 -0.4518 -0.0448 -0.4403
 6296SOL    HW230525   2.384   0.770   7.126 -1.5772  0.0355  1.7784
 6297SOL     OW30526   2.355   3.504  16.115  0.4315  0.2425  0.4318
 6297SOL    HW130527   2.434   3.535  16.070 -0.3381  0.7342 -0.5756
 6297SOL    HW230528   2.345   3.568  16.185 -0.8842  0.0730  0.3930
 6298SOL     OW30529   0.855   1.891   8.506  0.0420  0.2226 -0.9774
 6298SOL    HW130530   0.852   1.987   8.506 -3.4320  0.0896  2.5594
 6298SOL    HW230531   0.771   1.869   8.466  1.0731  0.0790 -3.0850
 6299SOL     OW30532   4.018   3.237   8.011 -0.3086 -0.5983  0.4185
 6299SOL    HW130533   3.971   3.307   7.966  0.6374 -0.8857 -1.0261
 6299SOL    HW230534   4.110   3.262   8.012 -0.4124 -0.1803 -0.1943
 6300SOL     OW30535   0.637   0.625   8.533  0.6389 -0.0870 -0.2057
 6300SOL    HW130536   0.558   0.669   8.501  0.7364 -0.3161 -0.7508
 6300SOL    HW230537   0.702   0.663   8.474 -0.4275  1.3676 -0.4527
 6301SOL     OW30538   3.384   3.072   6.122  0.0670  0.0009  0.0181
 6301SOL    HW130539   3.418   3.134   6.186 -0.0328  2.2671 -2.1004
 6301SOL    HW230540   3.408   2.984   6.153 -1.3459 -0.5185 -0.3928
 6302SOL     OW30541   2.047   1.159   9.935  0.0181  0.7868  0.1578
 6302SOL    HW130542   2.120   1.105   9.966 -0.3450 -0.3691 -1.0124
 6302SOL    HW230543   1.972   1.128   9.985 -0.6887  1.6961 -0.3190
 6303SOL     OW30544   3.294   4.648   7.738 -0.2167 -0.2897  0.2087
 6303SOL    HW130545   3.332   4.693   7.662  0.2766  1.1599  1.3108
 6303SOL    HW230546   3.202   4.664   7.720  0.0920  0.1662 -0.9888
 6304SOL     OW30547   3.945   2.748  13.499 -0.6797 -0.5513  0.4859
 6304SOL    HW130548   4.008   2.711  13.560  0.1454  0.5828  0.3274
 6304SOL    HW230549   3.864   2.751  13.551 -1.2732 -2.3584 -0.3609
 6305SOL     OW30550   4.588   3.649   8.545 -0.1486  0.3216  0.3247
 6305SOL    HW130551   4.613   3.738   8.567 -1.2822  0.7925 -0.3151
 6305SOL    HW230552   4.625   3.601   8.619  0.1524  1.7097  1.0628
 6306SOL     OW30553   3.722   4.516   9.718 -0.6473 -0.4005 -0.0125
 6306SOL    HW130554   3.626   4.518   9.721 -0.6328 -1.6077  1.2076
 6306SOL    HW230555   3.758   4.595   9.680  0.2010 -1.3791 -1.2412
 6307SOL     OW30556   3.523   1.133   5.764 -0.2044  0.2571  0.1488
 6307SOL    HW130557   3.499   1.172   5.848 -0.4937 -3.4812  1.7673
 6307SOL    HW230558   3.444   1.081   5.751  0.7491 -0.9320 -1.0101
 6308SOL     OW30559   0.395   2.245   2.429  0.6726  0.4767  0.4023
 6308SOL    HW130560   0.313   2.213   2.468 -0.4624 -0.3966 -2.7245
 6308SOL    HW230561   0.382   2.236   2.335  1.7005 -0.9552  0.3973
 6309SOL     OW30562   0.522   1.474  10.490 -0.0144  0.5258  0.2227
 6309SOL    HW130563   0.446   1.458  10.546  0.6266 -1.1380  0.6196
 6309SOL    HW230564   0.575   1.517  10.556  0.5708  2.0912 -1.2542
 6310SOL     OW30565   2.369   0.397   8.300  0.6163 -0.5533  0.5980
 6310SOL    HW130566   2.335   0.403   8.211  0.8471 -1.5363  0.4442
 6310SOL    HW230567   2.298   0.405   8.364  0.7763  2.2200  0.3952
 6311SOL     OW30568   3.236   3.992   5.720 -0.0590 -0.0086 -0.1123
 6311SOL    HW130569   3.151   3.968   5.684 -0.2627  0.2554  0.1985
 6311SOL    HW230570   3.218   4.042   5.799 -2.0885  0.2140 -0.7313
 6312SOL     OW30571   2.816   0.975  15.389  0.0603 -0.4201 -0.1159
 6312SOL    HW130572   2.766   0.895  15.377 -0.1833 -0.2731 -0.0874
 6312SOL    HW230573   2.840   0.969  15.482 -0.7821 -1.4333  0.0318
 6313SOL     OW30574   0.893   0.070  17.479 -0.1071 -0.4107 -0.2594
 6313SOL    HW130575   0.904   4.718  17.456 -1.5746 -0.2701 -1.5458
 6313SOL    HW230576   0.957   0.117  17.426 -1.1706 -0.5614 -1.6788
 6314SOL     OW30577   4.227   4.132   4.042 -0.1577  0.0841  0.3481
 6314SOL    HW130578   4.221   4.037   4.034  0.8220  0.1088 -0.8072
 6314SOL    HW230579   4.243   4.166   3.953  1.6627 -1.3311  0.1323
 6315SOL     OW30580   3.159   0.809   9.637  0.1632 -0.4386  0.0022
 6315SOL    HW130581   3.224   0.796   9.567  1.2154  1.1735  0.6815
 6315SOL    HW230582   3.163   0.904   9.637 -0.3485 -0.4186 -0.2084
 6316SOL     OW30583   0.311   0.862   3.134  0.7428 -0.2277  0.2788
 6316SOL    HW130584   0.292   0.785   3.080  0.5342 -0.7739  1.1436
 6316SOL    HW230585   0.402   0.862   3.104  0.6295 -2.5159 -0.0142
 6317SOL     OW30586   4.446   4.663   7.207  0.5995 -0.0288  0.4398
 6317SOL    HW130587   4.519   4.711   7.246  1.3098  0.6266 -1.7009
 6317SOL    HW230588   4.486   4.576   7.202  1.4339  0.4729 -1.7668
 6318SOL     OW30589   2.056   3.785   5.293 -0.5248 -0.0870 -0.4542
 6318SOL    HW130590   2.089   3.851   5.354  1.7353 -3.2718  1.7760
 6318SOL    HW230591   2.121   3.796   5.223  0.8394 -0.5906  0.7227
 6319SOL     OW30592   0.667   1.633  16.837 -0.3646 -0.1678 -0.0650
 6319SOL    HW130593   0.589   1.688  16.836  0.3696  0.8778  1.2689
 6319SOL    HW230594   0.621   1.550  16.844  1.9509 -1.3754  0.7510
 6320SOL     OW30595   1.189   1.792   4.345 -0.4900  0.2231 -0.3674
 6320SOL    HW130596   1.231   1.735   4.409 -1.9842  0.0028  0.4116
 6320SOL    HW230597   1.206   1.876   4.387 -0.1974  0.4685 -0.9769
 6321SOL     OW30598   1.049   0.507   7.437 -0.1489  0.8733  0.1693
 6321SOL    HW130599   1.055   0.589   7.388  0.0515  0.0227 -1.2500
 6321SOL    HW230600   0.999   0.456   7.373  0.3104  0.8032 -0.1349
 6322SOL     OW30601   4.248   0.211   9.034 -0.5014 -0.4906 -0.3103
 6322SOL    HW130602   4.310   0.238   9.102  1.0835  0.2751 -2.0537
 6322SOL    HW230603   4.307   0.154   8.983  1.5664  0.8230  0.6073
 6323SOL     OW30604   2.849   0.952   4.135  0.9245 -0.2523  0.7128
 6323SOL    HW130605   2.844   0.907   4.050 -0.7122 -0.5142  0.9445
 6323SOL    HW230606   2.885   0.885   4.192  2.4685 -0.8325 -0.9399
 6324SOL     OW30607   2.646   2.050  11.630 -0.3005  0.3813 -0.3849
 6324SOL    HW130608   2.724   2.107  11.629  0.1178 -0.1523  1.7356
 6324SOL    HW230609   2.645   2.036  11.725  0.0984  1.8051 -0.1683
 6325SOL     OW30610   1.651   2.110   9.774  0.3621  0.5386  0.1276
 6325SOL    HW130611   1.693   2.135   9.692  1.5935 -2.9586 -0.3070
 6325SOL    HW230612   1.584   2.057   9.730 -0.1285  1.4236 -0.2012
 6326SOL     OW30613   4.580   3.144   0.553  0.3151  0.1854  0.3682
 6326SOL    HW130614   4.655   3.162   0.609 -0.8556 -1.0008  2.3367
 6326SOL    HW230615   4.505   3.159   0.610  1.3391 -0.8124  1.9637
 6327SOL     OW30616   4.240   4.690   2.864  0.4842  0.7061  0.5541
 6327SOL    HW130617   4.182   0.007   2.814  2.8766  2.8718  0.2320
 6327SOL    HW230618   4.191   4.609   2.875  0.8244  0.4563  0.2532
 6328SOL     OW30619   2.837   1.773   3.643  0.4624  0.5078  0.4827
 6328SOL    HW130620   2.777   1.778   3.717 -0.2722  2.7686 -0.2697
 6328SOL    HW230621   2.873   1.685   3.656 -1.9587 -0.6305 -0.5532
 6329SOL     OW30622   1.979   3.250  12.199  0.4179 -0.0285 -0.1672
 6329SOL    HW130623   1.980   3.168  12.151 -0.7535  0.3757 -0.8700
 6329SOL    HW230624   1.961   3.206  12.282  1.1578  1.2196  0.6571
 6330SOL     OW30625   1.676   4.041   6.171 -0.2341 -0.1269 -0.1027
 6330SOL    HW130626   1.602   4.068   6.226 -2.0961 -2.0561 -1.6387
 6330SOL    HW230627   1.712   3.976   6.232  0.1839  0.2479  0.0449
 6331SOL     OW30628   3.032   4.501   8.628  0.3639 -0.0832  0.9519
 6331SOL    HW130629   3.123   4.473   8.612 -0.6668 -1.7921 -2.0396
 6331SOL    HW230630   3.030   4.501   8.723 -2.5599 -0.6972  0.8826
 6332SOL     OW30631   2.847   4.536   6.065 -0.1274  0.2205  0.2542
 6332SOL    HW130632   2.875   4.587   6.141 -0.4664  2.0809 -0.8549
 6332SOL    HW230633   2.912   4.466   6.058  0.8172  1.1350 -0.2416
 6333SOL     OW30634   2.327   0.421   4.023 -0.7307 -0.3701  0.1328
 6333SOL    HW130635   2.392   0.350   4.029  0.7685  0.7224 -2.9513
 6333SOL    HW230636   2.317   0.409   3.928  0.2814 -0.8836  0.0855
 6334SOL     OW30637   2.979   4.588   1.619 -0.2871  0.0022  0.3554
 6334SOL    HW130638   3.010   4.637   1.695 -1.4180 -1.5713  1.8384
 6334SOL    HW230639   2.886   4.608   1.611 -0.3717 -0.3568  0.4623
 6335SOL     OW30640   2.713   1.896   1.165  0.2917  0.1866 -0.5072
 6335SOL    HW130641   2.685   1.826   1.107 -2.6554  2.0544 -1.3329
 6335SOL    HW230642   2.715   1.974   1.110  0.1679  1.8142  1.7685
 6336SOL     OW30643   2.908   2.789   1.633 -0.0060  0.4176  0.2967
 6336SOL    HW130644   2.826   2.758   1.672  0.2138 -0.4812  0.0366
 6336SOL    HW230645   2.873   2.870   1.597  1.4602  1.5500  1.4012
 6337SOL     OW30646   0.623   1.382   6.655  0.0619 -0.1422 -0.6382
 6337SOL    HW130647   0.567   1.348   6.585  1.4224 -0.4474 -1.5800
 6337SOL    HW230648   0.642   1.298   6.697 -0.1516  0.5364  0.8115
 6338SOL     OW30649   3.704   2.178   2.843  0.5782  0.0265  0.0941
 6338SOL    HW130650   3.644   2.214   2.908  1.3550  1.4278  0.0340
 6338SOL    HW230651   3.762   2.117   2.888  0.7077  0.4545  0.4992
 6339SOL     OW30652   4.193   3.158  10.541  0.0605  0.5447  0.5607
 6339SOL    HW130653   4.221   3.096  10.608 -0.9248 -3.6524 -2.9206
 6339SOL    HW230654   4.108   3.184  10.575 -0.6646 -0.2728 -0.6358
 6340SOL     OW30655   4.042   0.352   5.706  0.1382 -0.1350 -0.3081
 6340SOL    HW130656   4.085   0.407   5.641  1.0410 -0.3536  0.1036
 6340SOL    HW230657   4.114   0.296   5.733 -0.2340  0.0578  1.0924
 6341SOL     OW30658   2.388   4.224   8.827  0.1742 -0.1433  0.8006
 6341SOL    HW130659   2.352   4.217   8.916  0.0353  3.2942  1.0342
 6341SOL    HW230660   2.385   4.320   8.827 -0.3138 -0.1569  1.3082
 6342SOL     OW30661   1.352   3.805   7.324  0.1191 -0.0799 -0.1736
 6342SOL    HW130662   1.262   3.835   7.312 -0.5688 -2.5576 -1.1160
 6342SOL    HW230663   1.386   3.869   7.387 -2.4912  1.4349 -0.3286
 6343SOL     OW30664   0.579   1.784   3.952  0.1276 -0.2226 -0.2789
 6343SOL    HW130665   0.636   1.761   4.026 -1.0074  0.0435  0.6779
 6343SOL    HW230666   0.572   1.879   3.965  1.4327 -0.2981  0.9897
 6344SOL     OW30667   4.277   2.887   4.193 -0.3417  0.1413 -0.7006
 6344SOL    HW130668   4.229   2.913   4.272  1.2550 -1.4364  0.7761
 6344SOL    HW230669   4.252   2.959   4.134  0.2538  0.4320 -0.5909
 6345SOL     OW30670   2.583   0.634   4.177 -0.1700  0.0771 -0.2077
 6345SOL    HW130671   2.621   0.558   4.133 -1.4576 -2.5911  3.2817
 6345SOL    HW230672   2.652   0.667   4.234 -0.1944 -2.7053  1.4386
 6346SOL     OW30673   0.726   1.653   2.541 -0.1482  0.0586 -0.3221
 6346SOL    HW130674   0.653   1.623   2.487 -0.5888 -0.9579  0.8318
 6346SOL    HW230675   0.694   1.618   2.625 -0.0351 -2.3700 -1.2928
 6347SOL     OW30676   2.389   2.606  16.786  0.2672  0.9698 -0.0594
 6347SOL    HW130677   2.423   2.625  16.698  1.8172  1.2790  0.6127
 6347SOL    HW230678   2.335   2.527  16.779  0.2285  0.9634  0.3611
 6348SOL     OW30679   4.546   4.309  15.576  0.0351 -0.4162  0.2409
 6348SOL    HW130680   4.508   4.320  15.489 -0.8886  0.6515  0.7706
 6348SOL    HW230681   4.607   4.237  15.562 -0.9952 -1.3726  0.6798
 6349SOL     OW30682   4.201   2.906   0.344  0.5824 -0.3187  0.8340
 6349SOL    HW130683   4.163   2.955   0.271  1.4225 -1.1724 -0.1759
 6349SOL    HW230684   4.292   2.934   0.343  0.0194  1.5952  4.0300
 6350SOL     OW30685   1.712   1.328   3.489  0.3810  0.0149 -0.3007
 6350SOL    HW130686   1.737   1.364   3.574  2.8058 -1.4670 -0.4066
 6350SOL    HW230687   1.637   1.384   3.468 -0.2501 -0.2629  1.1688
 6351SOL     OW30688   3.391   1.688   7.663  0.1126 -0.4977  0.0610
 6351SOL    HW130689   3.323   1.694   7.729  2.9887  1.8714  2.8273
 6351SOL    HW230690   3.346   1.631   7.601 -0.9826 -0.0289  0.4263
 6352SOL     OW30691   4.684   4.045  17.662  0.0017 -0.3276 -0.1333
 6352SOL    HW130692   0.019   3.988  17.679  0.0352 -0.2505 -0.0169
 6352SOL    HW230693   4.673   4.078  17.752  2.1470 -0.7760  0.2778
 6353SOL     OW30694   3.539   0.929   2.542 -0.2777  0.4467  0.3457
 6353SOL    HW130695   3.518   0.870   2.615 -1.9396 -0.5773 -0.9655
 6353SOL    HW230696   3.491   1.007   2.571 -0.1356  0.2144  1.2192
 6354SOL     OW30697   1.807   3.322   2.799  0.6363  0.5743 -0.2125
 6354SOL    HW130698   1.789   3.322   2.893  0.8585  1.3741 -0.1709
 6354SOL    HW230699   1.739   3.266   2.763  1.2224 -1.2135  1.4307
 6355SOL     OW30700   2.819   4.377  10.288 -0.5524  0.5308 -0.0030
 6355SOL    HW130701   2.889   4.326  10.330  0.8887  1.1762 -1.6103
 6355SOL    HW230702   2.790   4.306  10.231 -1.2316  1.1806 -0.4649
 6356SOL     OW30703   1.287   0.521   3.805  0.1912  0.0259  0.3090
 6356SOL    HW130704   1.193   0.505   3.798 -0.0599  1.3706  0.5708
 6356SOL    HW230705   1.327   0.448   3.758  0.5876 -0.3497  1.2210
 6357SOL     OW30706   4.555   1.162  14.694 -0.2609  0.1333 -0.2661
 6357SOL    HW130707   4.647   1.142  14.679  0.3114  2.9580 -0.6330
 6357SOL    HW230708   4.528   1.103  14.764  0.3821  2.0422  1.5975
 6358SOL     OW30709   2.385   3.136   1.251 -0.1186 -0.2177 -0.0333
 6358SOL    HW130710   2.411   3.166   1.164  1.6502 -0.9901  0.2233
 6358SOL    HW230711   2.472   3.115   1.286  0.4090  2.5157  0.3133
 6359SOL     OW30712   2.225   3.233   0.209 -0.6575  0.2527  0.0490
 6359SOL    HW130713   2.251   3.143   0.229 -0.2574  0.5417  0.8279
 6359SOL    HW230714   2.170   3.248   0.287  0.7176  1.0751  0.8627
 6360SOL     OW30715   1.066   3.255   7.880  0.4559  0.2601 -0.0923
 6360SOL    HW130716   1.000   3.227   7.816  1.0986  2.4951 -1.7273
 6360SOL    HW230717   1.115   3.330   7.849  0.6559 -0.0218 -0.4554
 6361SOL     OW30718   2.618   1.963   4.123  0.1855 -0.3011  0.3841
 6361SOL    HW130719   2.688   1.899   4.138  0.0140 -0.5490  0.1253
 6361SOL    HW230720   2.537   1.919   4.149 -0.1236  0.7547  1.1930
 6362SOL     OW30721   1.430   0.594   3.042 -0.0268 -0.2718  0.1610
 6362SOL    HW130722   1.363   0.652   3.078  1.5353  1.6807 -0.0511
 6362SOL    HW230723   1.509   0.632   3.082  0.3448  0.9471 -1.6995
 6363SOL     OW30724   4.070   1.833  13.808 -0.7079 -0.1096 -0.0232
 6363SOL    HW130725   4.020   1.786  13.874  2.8616 -2.0515  1.3207
 6363SOL    HW230726   4.121   1.893  13.863 -1.4388  0.2073  0.3007
 6364SOL     OW30727   0.182   4.155   5.524  0.1936  0.2170 -0.2728
 6364SOL    HW130728   0.229   4.158   5.607  1.0873 -2.8912 -0.6773
 6364SOL    HW230729   0.231   4.089   5.474  0.1100 -0.0456 -0.0055
 6365SOL     OW30730   3.189   1.052   8.521  0.3275 -0.4606  0.4138
 6365SOL    HW130731   3.135   1.010   8.454  1.4362 -0.5030 -0.4502
 6365SOL    HW230732   3.223   1.132   8.481  3.7553 -0.9793  2.2841
 6366SOL     OW30733   1.747   0.908   6.664  0.2827 -0.3787 -0.6164
 6366SOL    HW130734   1.768   0.878   6.752 -0.3761 -2.3593 -1.1190
 6366SOL    HW230735   1.759   1.003   6.666 -0.4743 -0.2635 -1.2776
 6367SOL     OW30736   4.635   2.124   0.961 -0.7397  0.0816 -0.0287
 6367SOL    HW130737   4.637   2.139   1.056 -0.5427 -1.4427  0.2020
 6367SOL    HW230738   4.645   2.212   0.924 -0.2049  0.5147  1.1504
 6368SOL     OW30739   3.996   0.100   9.071 -0.0611 -0.2791  0.0412
 6368SOL    HW130740   4.000   0.038   9.144  1.9173 -0.7663 -0.4606
 6368SOL    HW230741   4.077   0.150   9.081  0.6461 -1.4070  0.0845
 6369SOL     OW30742   3.407   1.178  11.470  0.1386 -0.0995  0.2882
 6369SOL    HW130743   3.365   1.203  11.552  1.1235 -0.2529  0.8284
 6369SOL    HW230744   3.458   1.259  11.461  0.2405 -0.5283 -2.9338
 6370SOL     OW30745   1.881   0.898   3.132  0.2709  0.0693  0.2124
 6370SOL    HW130746   1.796   0.854   3.141 -0.6956  1.8909 -0.0134
 6370SOL    HW230747   1.911   0.873   3.045 -0.1724  0.2971 -0.0054
 6371SOL     OW30748   4.697   1.719   4.627 -0.6353 -0.1130 -0.3275
 6371SOL    HW130749   4.680   1.762   4.543  2.4834 -0.9895 -1.4016
 6371SOL    HW230750   4.678   1.630   4.598 -0.3208  0.1147 -1.2304
 6372SOL     OW30751   0.544   3.700  12.739  0.6352 -0.1301 -0.0562
 6372SOL    HW130752   0.461   3.656  12.724  1.6198 -1.5128 -1.4606
 6372SOL    HW230753   0.547   3.684  12.834 -1.2786  0.4786  0.0898
 6373SOL     OW30754   2.903   3.277   4.970 -0.2329  0.0896  0.1056
 6373SOL    HW130755   2.860   3.357   4.940  0.1581 -0.2063 -1.2360
 6373SOL    HW230756   2.836   3.215   4.941 -0.3396  0.3073 -0.1183
 6374SOL     OW30757   4.547   2.469   8.891  0.4001 -0.0873  0.0945
 6374SOL    HW130758   4.483   2.539   8.879  0.1436  0.3404  3.8016
 6374SOL    HW230759   4.503   2.399   8.844  1.4147 -2.3690  2.5362
 6375SOL     OW30760   0.289   1.928  14.884  0.4239 -0.1577  0.5614
 6375SOL    HW130761   0.256   1.940  14.795  2.2775 -2.4805 -0.4138
 6375SOL    HW230762   0.235   1.855  14.913 -1.2706  1.2275  0.8671
 6376SOL     OW30763   2.041   2.125   8.116 -0.0919  0.3268 -0.4038
 6376SOL    HW130764   2.088   2.047   8.088 -0.5069 -0.0450 -0.0660
 6376SOL    HW230765   2.091   2.202   8.089  1.7144 -0.8203 -0.2979
 6377SOL     OW30766   0.816   1.585  13.768  0.5398 -0.0025  0.8515
 6377SOL    HW130767   0.895   1.603  13.718  0.2037  0.0724  0.3437
 6377SOL    HW230768   0.832   1.494  13.791  1.6836 -0.1299 -0.4838
 6378SOL     OW30769   4.369   0.826   6.439  0.3026 -0.3375  0.0816
 6378SOL    HW130770   4.335   0.764   6.373  1.7897 -1.2992  0.2271
 6378SOL    HW230771   4.403   0.899   6.388 -1.7469 -0.1901 -1.1094
 6379SOL     OW30772   1.203   4.386  16.938  0.6028 -0.3956  0.4884
 6379SOL    HW130773   1.161   4.340  16.865 -1.6023  1.8089  0.3787
 6379SOL    HW230774   1.184   4.478  16.920  0.5747 -0.6189 -0.6496
 6380SOL     OW30775   1.414   2.798   7.395 -0.1770 -0.6633 -0.0466
 6380SOL    HW130776   1.386   2.710   7.369  0.2267 -1.0956  0.9939
 6380SOL    HW230777   1.332   2.841   7.369  0.1648  0.0375  0.0325
 6381SOL     OW30778   1.298   2.465   5.003 -0.8817  0.0829  0.1139
 6381SOL    HW130779   1.294   2.383   5.054  0.8868 -1.3754 -2.0972
 6381SOL    HW230780   1.348   2.441   4.925  0.9180 -0.5458  1.4671
 6382SOL     OW30781   0.271   4.477   2.446  0.1330 -0.2446  0.5126
 6382SOL    HW130782   0.316   4.435   2.373  1.0322 -0.3231  1.1011
 6382SOL    HW230783   0.347   4.511   2.493 -0.1242  1.9303 -0.6446
 6383SOL     OW30784   1.005   3.563   8.031 -0.6720  0.0074  0.0691
 6383SOL    HW130785   0.964   3.513   8.101  0.4364  1.2884  1.6364
 6383SOL    HW230786   1.060   3.489   8.006  0.3263  0.2453  1.5875
 6384SOL     OW30787   0.900   2.964   4.296  0.5019 -0.9615 -0.2295
 6384SOL    HW130788   0.947   3.007   4.225  0.3214  0.0828  0.2803
 6384SOL    HW230789   0.813   2.969   4.258  0.4948  0.5342 -0.0459
 6385SOL     OW30790   0.585   0.248   5.545  0.3992 -0.2705 -0.3364
 6385SOL    HW130791   0.671   0.286   5.525  0.0590  0.7877  0.2165
 6385SOL    HW230792   0.569   0.201   5.463  2.4915 -2.2189  0.3801
 6386SOL     OW30793   2.534   1.186   7.241 -0.0863  0.2486  0.2038
 6386SOL    HW130794   2.616   1.156   7.201  0.4433 -2.2441  3.1060
 6386SOL    HW230795   2.480   1.107   7.243  1.9219 -1.0265  3.2803
 6387SOL     OW30796   4.230   2.937   0.957  0.3509  0.6256 -0.1663
 6387SOL    HW130797   4.143   2.900   0.974 -0.4806  2.1166 -1.1724
 6387SOL    HW230798   4.228   3.011   1.018  0.7028  1.1517 -0.7951
 6388SOL     OW30799   2.750   2.165  15.431 -0.3223  0.1439 -0.0653
 6388SOL    HW130800   2.797   2.097  15.383  0.7975  1.2319 -0.5167
 6388SOL    HW230801   2.805   2.239  15.405 -0.3243  0.6756  1.4368
 6389SOL     OW30802   2.246   1.035   6.352 -0.1226  0.6348 -0.3808
 6389SOL    HW130803   2.152   1.015   6.351 -0.2911  1.4285 -0.7645
 6389SOL    HW230804   2.267   1.028   6.445 -1.1328 -0.0635 -0.2094
 6390SOL     OW30805   4.123   3.430  13.788 -0.1400 -0.4378 -0.6395
 6390SOL    HW130806   4.050   3.487  13.811  0.3769  0.6246 -1.6358
 6390SOL    HW230807   4.192   3.451  13.851  0.1740 -1.0053 -0.7868
 6391SOL     OW30808   4.068   2.671   5.706  0.0351 -0.2207  0.1229
 6391SOL    HW130809   3.981   2.636   5.724  0.1746 -0.6117  0.0530
 6391SOL    HW230810   4.068   2.739   5.772  1.3766  0.4546 -0.5638
 6392SOL     OW30811   2.490   1.525   6.090  0.1663  0.1264 -0.4417
 6392SOL    HW130812   2.415   1.514   6.149  0.1100 -0.0500 -0.5456
 6392SOL    HW230813   2.455   1.598   6.038  0.4877  0.3274 -0.3699
 6393SOL     OW30814   2.570   3.849   2.384 -0.0461 -0.4473  0.0648
 6393SOL    HW130815   2.547   3.775   2.328 -2.4033 -0.7566  1.4553
 6393SOL    HW230816   2.536   3.825   2.470  1.5819  0.2950  0.9322
 6394SOL     OW30817   4.148   3.039   3.324 -0.0330 -0.3856 -0.2705
 6394SOL    HW130818   4.082   3.107   3.309 -0.7177 -0.5832  1.8938
 6394SOL    HW230819   4.105   2.953   3.320  1.2929 -1.0302 -0.6286
 6395SOL     OW30820   1.857   0.344  13.328  0.1852 -0.0899 -0.4036
 6395SOL    HW130821   1.883   0.434  13.311 -0.9308 -0.0214 -1.7571
 6395SOL    HW230822   1.930   0.299  13.371 -0.8332 -0.8293  0.5643
 6396SOL     OW30823   1.425   1.369   3.161 -0.4578  0.5454  0.5933
 6396SOL    HW130824   1.343   1.419   3.159 -1.8236 -1.6930  1.0336
 6396SOL    HW230825   1.480   1.432   3.115  1.0570 -0.8587  0.4999
 6397SOL     OW30826   4.228   0.322  13.031 -0.3823  0.2469 -0.1752
 6397SOL    HW130827   4.181   0.403  13.050  0.7437  0.7942  0.2855
 6397SOL    HW230828   4.238   0.278  13.116 -2.6066 -0.4555 -0.2708
 6398SOL     OW30829   3.064   1.053   8.062  0.2625 -0.1619  0.2505
 6398SOL    HW130830   3.082   1.054   8.156 -1.0452  0.9377  0.4821
 6398SOL    HW230831   2.993   0.990   8.052  1.1716 -0.9240 -1.3675
 6399SOL     OW30832   1.329   4.295   2.200 -0.3752 -0.2894 -0.4815
 6399SOL    HW130833   1.269   4.226   2.228  0.2374 -0.9140 -0.7185
 6399SOL    HW230834   1.395   4.238   2.161  1.0114  0.1899  1.1498
 6400SOL     OW30835   1.020   4.327   7.770  0.0345 -0.2233 -0.2574
 6400SOL    HW130836   0.933   4.331   7.809  0.0986 -0.1709 -0.1196
 6400SOL    HW230837   1.076   4.377   7.829 -0.1537 -0.9225  0.5133
 6401SOL     OW30838   0.001   2.564   5.622 -0.4823 -0.2318  0.0323
 6401SOL    HW130839   4.681   2.563   5.697  0.2910  1.8678  0.6685
 6401SOL    HW230840   4.681   2.542   5.550  1.3956  2.7096 -2.4122
 6402SOL     OW30841   1.304   4.178   8.052  0.5172  0.0724 -0.0113
 6402SOL    HW130842   1.231   4.117   8.039  1.3899 -1.1362  0.7800
 6402SOL    HW230843   1.265   4.244   8.109  1.4593  1.1832 -0.6530
 6403SOL     OW30844   2.931   2.990   0.684  0.3460 -0.1411 -0.5485
 6403SOL    HW130845   2.865   3.046   0.725 -0.5328 -0.4112 -1.5855
 6403SOL    HW230846   2.973   3.047   0.620  0.1928  2.1370  1.3722
 6404SOL     OW30847   1.351   0.245   7.893 -0.6992  0.0492 -0.6873
 6404SOL    HW130848   1.327   0.196   7.972  0.2446 -0.4689 -0.7107
 6404SOL    HW230849   1.368   0.331   7.932  1.6336 -0.5917 -0.2343
 6405SOL     OW30850   3.774   3.360   9.059 -0.1980  0.3150 -0.0323
 6405SOL    HW130851   3.714   3.426   9.021  1.3865  1.3881 -0.6735
 6405SOL    HW230852   3.733   3.335   9.141  0.0188 -0.2693 -0.1023
 6406SOL     OW30853   3.191   3.381   0.583 -0.1461 -0.5194  0.3680
 6406SOL    HW130854   3.238   3.424   0.654  0.6972  0.8978 -1.0568
 6406SOL    HW230855   3.221   3.431   0.507 -1.2922  2.4283  1.8659
 6407SOL     OW30856   4.533   1.119   7.189 -0.3693 -0.7272  0.0011
 6407SOL    HW130857   4.447   1.092   7.221  0.1406 -1.4876  0.7122
 6407SOL    HW230858   4.511   1.168   7.110  0.0133 -0.6547 -0.0603
 6408SOL     OW30859   0.508   2.138   8.902  0.5148 -0.3340  0.4313
 6408SOL    HW130860   0.472   2.139   8.991 -2.6366  0.5232 -0.8655
 6408SOL    HW230861   0.536   2.047   8.888  0.1958 -0.4095  0.3024
 6409SOL     OW30862   3.047   4.356   7.057  0.2462  0.0638  0.4528
 6409SOL    HW130863   3.031   4.428   6.996  0.8340  0.1948  0.4560
 6409SOL    HW230864   2.979   4.289   7.045  0.1611  0.1476  0.4664
 6410SOL     OW30865   1.543   2.811  13.720  0.3290  0.1299 -0.2807
 6410SOL    HW130866   1.478   2.742  13.728  2.1230 -1.5639 -0.1933
 6410SOL    HW230867   1.570   2.823  13.629 -1.5376 -3.2896 -1.2952
 6411SOL     OW30868   3.876   3.295   5.964 -0.3498 -0.2698 -0.1145
 6411SOL    HW130869   3.861   3.208   6.000 -1.6829 -0.8921 -2.1938
 6411SOL    HW230870   3.952   3.293   5.907 -1.1393  0.0053 -1.1707
 6412SOL     OW30871   4.070   0.077   3.193 -0.2646  0.0903 -0.1570
 6412SOL    HW130872   3.982   0.090   3.228 -1.4680 -1.4550 -2.6536
 6412SOL    HW230873   4.062   0.118   3.107 -2.6414  0.0707  0.0610
 6413SOL     OW30874   2.537   4.543   5.923  0.0464 -0.0654  0.9305
 6413SOL    HW130875   2.517   4.499   6.006 -0.8927 -2.4267 -0.5636
 6413SOL    HW230876   2.630   4.517   5.921 -0.1161 -0.6075  0.4480
 6414SOL     OW30877   0.766   0.203   1.766 -0.0645 -0.0950  0.3568
 6414SOL    HW130878   0.752   0.297   1.771 -0.2736 -0.1658  1.0503
 6414SOL    HW230879   0.708   0.164   1.831 -0.0122 -2.5980 -1.0819
 6415SOL     OW30880   0.825   1.521   3.654  0.3455  0.4312 -0.0757
 6415SOL    HW130881   0.848   1.602   3.609 -1.2786  0.2886 -1.1517
 6415SOL    HW230882   0.769   1.476   3.590  0.0360 -0.3502  0.7445
 6416SOL     OW30883   0.761   3.205  11.417 -0.2329 -0.3770 -0.1424
 6416SOL    HW130884   0.808   3.139  11.367 -2.1434 -0.1784 -2.2254
 6416SOL    HW230885   0.694   3.144  11.448 -0.9991  0.8579  0.6353
 6417SOL     OW30886   4.691   3.645   3.283  0.3475 -0.0428  0.0449
 6417SOL    HW130887   4.690   3.609   3.194 -1.1983  1.3755 -0.5087
 6417SOL    HW230888   4.612   3.602   3.314 -0.6097  0.8692 -1.1540
 6418SOL     OW30889   3.735   1.874   6.162 -0.7334 -0.3005 -0.1766
 6418SOL    HW130890   3.670   1.941   6.180 -1.0998 -1.0631  1.3335
 6418SOL    HW230891   3.775   1.899   6.078 -1.3393  0.6719 -0.1781
 6419SOL     OW30892   2.327   2.224   6.171  0.0475  0.4345 -0.1950
 6419SOL    HW130893   2.376   2.165   6.114 -1.0990  1.0549 -1.8050
 6419SOL    HW230894   2.403   2.257   6.220 -0.1264  0.6990 -0.1049
 6420SOL     OW30895   2.028   2.716  16.619 -0.1357  0.2009  0.1918
 6420SOL    HW130896   2.019   2.794  16.566 -0.3652  0.6375  0.8740
 6420SOL    HW230897   2.050   2.747  16.707 -0.4232  0.1065  0.2982
 6421SOL     OW30898   3.766   0.145   6.037  0.2579  0.2643 -0.1116
 6421SOL    HW130899   3.771   0.209   5.967  1.0857 -1.4634 -1.6429
 6421SOL    HW230900   3.676   0.150   6.070 -0.3915 -2.0505 -1.5149
 6422SOL     OW30901   2.433   4.338   5.451 -0.4952 -0.1177 -0.1386
 6422SOL    HW130902   2.432   4.359   5.544  1.6210 -0.0810 -0.1193
 6422SOL    HW230903   2.338   4.323   5.447 -0.4605 -0.4177  0.1220
 6423SOL     OW30904   0.242   1.629   2.536 -0.3789  0.1781 -0.0660
 6423SOL    HW130905   0.233   1.724   2.534 -1.9369  0.0027 -1.6723
 6423SOL    HW230906   0.244   1.618   2.441  3.2830 -2.9622  0.3746
 6424SOL     OW30907   4.504   2.219   0.095  0.6516  0.0597  0.2836
 6424SOL    HW130908   4.574   2.202   0.158  0.0718 -0.8526  0.6794
 6424SOL    HW230909   4.480   2.127   0.087  1.8486 -0.2741  0.4764
 6425SOL     OW30910   4.706   3.363   5.122 -0.5057 -0.7370  0.1011
 6425SOL    HW130911   4.714   3.268   5.128 -0.8937 -0.8111 -0.5879
 6425SOL    HW230912   4.654   3.387   5.199 -0.1966 -0.4598  0.2268
 6426SOL     OW30913   3.415   4.173  14.359 -0.3044  0.1555 -0.4628
 6426SOL    HW130914   3.353   4.135  14.297  0.1762 -2.6619  0.7540
 6426SOL    HW230915   3.425   4.262  14.327 -0.6509  0.0516 -0.8546
 6427SOL     OW30916   0.748   0.399   4.383 -0.0207 -0.4055 -0.0784
 6427SOL    HW130917   0.759   0.325   4.322  1.6411 -1.4671  1.4779
 6427SOL    HW230918   0.751   0.473   4.323 -0.6842 -0.3232 -0.0073
 6428SOL     OW30919   4.045   2.422  10.822 -0.1851 -0.0369 -0.2063
 6428SOL    HW130920   4.029   2.479  10.747  2.4891 -2.1921 -2.3986
 6428SOL    HW230921   4.092   2.347  10.785  0.2699 -0.8183  1.9045
 6429SOL     OW30922   3.282   3.414   4.982  0.5477  0.4871 -0.0496
 6429SOL    HW130923   3.361   3.447   5.025 -0.8024  1.7142  1.4752
 6429SOL    HW230924   3.227   3.491   4.966 -1.8482 -1.0131  0.9346
 6430SOL     OW30925   3.854   1.773   3.997  0.0766  0.6706 -0.1860
 6430SOL    HW130926   3.770   1.787   4.042 -0.0728  1.6671 -0.7778
 6430SOL    HW230927   3.924   1.787   4.060 -2.6297 -1.9704  3.4049
 6431SOL     OW30928   3.889   2.862   0.629 -0.4783  0.0818  0.1634
 6431SOL    HW130929   3.983   2.880   0.620 -0.6211  0.5717 -0.3677
 6431SOL    HW230930   3.886   2.771   0.658 -0.3864 -0.5688 -1.8260
 6432SOL     OW30931   2.288   0.240   3.307 -0.3400  0.1689 -0.0328
 6432SOL    HW130932   2.241   0.301   3.250 -0.5131 -1.7033 -1.8886
 6432SOL    HW230933   2.380   0.248   3.282 -0.0668 -1.1024  0.5444
 6433SOL     OW30934   4.110   1.649   4.939 -0.2491  0.3398  0.3697
 6433SOL    HW130935   4.057   1.570   4.946  1.0844 -0.5766  0.0141
 6433SOL    HW230936   4.147   1.677   5.022  0.6369 -0.4466  0.2394
 6434SOL     OW30937   1.262   3.244   3.206 -0.0408  0.2306 -0.1975
 6434SOL    HW130938   1.183   3.269   3.254 -0.8291 -1.0494 -0.8226
 6434SOL    HW230939   1.219   3.185   3.143 -0.1535  0.8639 -0.7187
 6435SOL     OW30940   3.654   4.047   9.262  0.4997  0.2658  0.6350
 6435SOL    HW130941   3.713   3.986   9.218  0.6671  1.2426 -0.5023
 6435SOL    HW230942   3.570   4.010   9.236  0.0041  0.4980  1.9190
 6436SOL     OW30943   2.412   1.986   6.038 -0.1405  0.3382  0.3915
 6436SOL    HW130944   2.493   1.988   6.091 -0.9446 -2.1542  1.6929
 6436SOL    HW230945   2.362   1.918   6.083  0.6868 -0.1834  0.5185
 6437SOL     OW30946   2.839   2.362  13.727  0.4682 -0.1642  0.2685
 6437SOL    HW130947   2.884   2.358  13.811 -2.1052 -2.1741  1.5196
 6437SOL    HW230948   2.881   2.283  13.693  1.8888  1.2768 -1.3640
 6438SOL     OW30949   1.149   1.323   5.020  0.3118  0.4126  0.2140
 6438SOL    HW130950   1.187   1.248   4.975 -0.1294  0.2928  0.0380
 6438SOL    HW230951   1.155   1.312   5.115 -2.2967 -0.0006  0.3378
 6439SOL     OW30952   4.648   0.698   5.290 -0.3095 -0.6524 -0.4845
 6439SOL    HW130953   4.688   0.650   5.217  0.0273  1.5749 -1.7705
 6439SOL    HW230954   4.555   0.695   5.268 -0.5979  0.6858  0.5420
 6440SOL     OW30955   3.151   0.544  16.094 -0.3411 -0.7107  0.1381
 6440SOL    HW130956   3.095   0.488  16.040 -1.0491  0.7079 -0.6093
 6440SOL    HW230957   3.133   0.502  16.178 -2.0103  0.2053  0.2276
 6441SOL     OW30958   0.123   3.626   9.286 -0.4136 -0.9586 -0.5659
 6441SOL    HW130959   0.161   3.540   9.302 -0.4855 -0.8616  0.1143
 6441SOL    HW230960   0.078   3.647   9.368 -0.2289 -0.8670 -0.4903
 6442SOL     OW30961   2.299   4.576   9.239 -0.0732 -0.1639 -0.2342
 6442SOL    HW130962   2.352   4.604   9.314 -1.0252 -1.8055  1.0506
 6442SOL    HW230963   2.230   4.526   9.282  1.6035 -2.1516  0.1275
 6443SOL     OW30964   1.610   4.376   4.434  0.5803  0.3398  0.2851
 6443SOL    HW130965   1.638   4.458   4.475 -0.4977  0.1059  1.4718
 6443SOL    HW230966   1.542   4.351   4.497  1.0977 -1.3255  0.1897
 6444SOL     OW30967   0.216   3.984  16.734 -0.0246 -0.0353  0.9586
 6444SOL    HW130968   0.171   3.955  16.654 -1.0704  1.9609  0.8309
 6444SOL    HW230969   0.302   4.002  16.697 -0.4007 -1.1989 -0.5282
 6445SOL     OW30970   0.781   1.063   7.851 -0.3638  0.5645  0.1121
 6445SOL    HW130971   0.860   1.065   7.797 -0.1662 -1.1743  0.3492
 6445SOL    HW230972   0.718   1.044   7.781  1.9826  0.5751 -2.0108
 6446SOL     OW30973   1.692   3.540  17.429 -0.8828 -0.3694  0.6417
 6446SOL    HW130974   1.764   3.482  17.404  0.1079  1.0482  0.2430
 6446SOL    HW230975   1.736   3.607  17.482  1.7743 -1.4046 -0.3064
 6447SOL     OW30976   1.003   4.079  12.612 -0.2214 -0.1873 -0.1210
 6447SOL    HW130977   1.030   4.001  12.563  0.3232 -0.1370  0.1016
 6447SOL    HW230978   0.986   4.137  12.538  0.8799  1.1208  0.6667
 6448SOL     OW30979   2.036   3.829   8.894  0.4230  0.4252 -0.4282
 6448SOL    HW130980   2.003   3.876   8.818  4.4169  0.6316 -2.0445
 6448SOL    HW230981   2.013   3.737   8.882 -1.7027  0.9979 -0.7089
 6449SOL     OW30982   0.925   1.915  13.707 -0.9247  0.0665  0.1384
 6449SOL    HW130983   1.018   1.905  13.684 -1.4426  2.3712 -2.8695
 6449SOL    HW230984   0.916   1.887  13.798 -0.3037  1.5345  0.6527
 6450SOL     OW30985   0.684   3.611  12.493  0.7352  0.5198 -0.1441
 6450SOL    HW130986   0.683   3.704  12.471  0.7604  0.2629 -1.2190
 6450SOL    HW230987   0.653   3.613  12.584 -0.1986 -1.5866 -0.4319
 6451SOL     OW30988   0.785   4.732   4.041 -0.2971  0.1553 -0.2039
 6451SOL    HW130989   0.829   4.725   3.956  1.8639  0.3526  0.9032
 6451SOL    HW230990   0.692   0.014   4.027  0.4640  3.3953 -0.2704
 6452SOL     OW30991   3.723   3.698  12.596 -0.7618  0.1004  1.1074
 6452SOL    HW130992   3.675   3.770  12.637 -0.4131  0.3065  1.1584
 6452SOL    HW230993   3.754   3.746  12.519 -0.4298  0.7718  1.6656
 6453SOL     OW30994   3.549   4.360   6.663 -0.1830  0.3609 -0.2883
 6453SOL    HW130995   3.617   4.300   6.633 -3.2097 -3.4423  0.5124
 6453SOL    HW230996   3.482   4.302   6.698 -1.5726  1.2894 -1.3733
 6454SOL     OW30997   3.945   1.471   9.332 -0.0095  0.2190  0.1561
 6454SOL    HW130998   3.868   1.466   9.276 -0.2536  0.6798  0.4493
 6454SOL    HW230999   3.939   1.382   9.366  2.0956 -0.4717 -1.2353
 6455SOL     OW31000   0.428   4.368   2.248 -0.8913  0.8052 -0.3624
 6455SOL    HW131001   0.504   4.340   2.299 -1.8120  1.1880  1.2229
 6455SOL    HW231002   0.480   4.370   2.168  0.5308  3.2876  0.6305
 6456SOL     OW31003   2.062   0.315   1.678  0.1049 -0.3096  0.3119
 6456SOL    HW131004   1.990   0.318   1.615  0.3449 -2.0873 -0.0587
 6456SOL    HW231005   2.022   0.338   1.761 -0.2306 -1.9108  0.6076
 6457SOL     OW31006   1.982   2.558   6.033  0.3195 -0.6459 -0.0386
 6457SOL    HW131007   2.024   2.619   5.972 -0.6498 -0.7219 -0.7853
 6457SOL    HW231008   2.046   2.527   6.097 -1.6660 -1.0297  1.7446
 6458SOL     OW31009   2.009   2.004   6.788  0.1655  0.2868  0.6032
 6458SOL    HW131010   2.053   1.972   6.866 -1.1011 -2.6149  0.1002
 6458SOL    HW231011   2.030   1.937   6.723  0.3501  1.0630 -0.1375
 6459SOL     OW31012   0.146   3.487   2.574 -0.3245 -0.4878  0.0106
 6459SOL    HW131013   0.129   3.577   2.601  1.0798  0.1909 -1.3136
 6459SOL    HW231014   0.239   3.477   2.595 -0.3532 -0.8068 -0.0166
 6460SOL     OW31015   4.284   4.528   3.844 -0.0183  0.1713 -0.2920
 6460SOL    HW131016   4.235   4.446   3.858 -0.5484  0.6137  0.4156
 6460SOL    HW231017   4.281   4.530   3.748  0.0839  1.8336 -0.2554
 6461SOL     OW31018   4.433   3.755   6.073  0.6276 -0.1696 -0.2721
 6461SOL    HW131019   4.434   3.812   5.996 -1.1031  0.6171  0.2817
 6461SOL    HW231020   4.519   3.773   6.111 -0.6735  0.9567  2.1317
 6462SOL     OW31021   2.739   4.548  17.542 -0.3735 -0.1672 -0.2791
 6462SOL    HW131022   2.719   4.619  17.603 -0.8195  0.4284 -1.1164
 6462SOL    HW231023   2.761   4.594  17.460 -1.0402  0.9921  0.1918
 6463SOL     OW31024   3.049   4.044   1.942  0.0321  0.2621  0.6315
 6463SOL    HW131025   2.983   4.000   1.996  0.5521 -0.8708  0.3398
 6463SOL    HW231026   3.076   3.967   1.893  1.8793  1.1783  0.1819
 6464SOL     OW31027   2.321   4.315   3.071  0.0508 -0.2017 -0.1101
 6464SOL    HW131028   2.317   4.273   3.157  0.7228  0.0101  0.0258
 6464SOL    HW231029   2.233   4.313   3.034 -0.3807 -1.4913  0.9731
 6465SOL     OW31030   3.163   0.148   9.681  0.4457  0.2555 -0.4749
 6465SOL    HW131031   3.114   0.073   9.648 -1.2297  1.1265 -0.0013
 6465SOL    HW231032   3.126   0.142   9.769 -1.1870  1.2649 -1.0782
 6466SOL     OW31033   0.701   3.910  12.435  0.3862 -0.2510  0.0562
 6466SOL    HW131034   0.689   3.996  12.396 -1.6002 -0.6330 -0.1833
 6466SOL    HW231035   0.675   3.929  12.525 -1.1310 -1.8403 -0.0343
 6467SOL     OW31036   2.816   0.559   5.459  0.1099 -0.1333 -0.5050
 6467SOL    HW131037   2.856   0.566   5.546 -0.3914  2.2856 -0.4469
 6467SOL    HW231038   2.724   0.567   5.482 -0.0167 -0.2793 -0.9676
 6468SOL     OW31039   2.880   2.310   5.409  0.4562 -0.1651 -0.2823
 6468SOL    HW131040   2.824   2.240   5.443 -0.5348 -0.7139 -3.0387
 6468SOL    HW231041   2.810   2.365   5.373  0.9593  1.0584  0.5926
 6469SOL     OW31042   3.652   1.955  11.985  0.0767  0.0828 -0.4686
 6469SOL    HW131043   3.727   1.909  11.950  2.4878  0.9941  3.4415
 6469SOL    HW231044   3.617   1.888  12.043  1.2816  1.9342  2.4300
 6470SOL     OW31045   1.228   4.154   6.502  0.5108  0.0814 -0.4447
 6470SOL    HW131046   1.173   4.079   6.525  1.6458 -0.4682  0.5330
 6470SOL    HW231047   1.160   4.221   6.497  1.1174  0.9906  3.0197
 6471SOL     OW31048   1.334   1.479  12.058  0.0798 -0.3919  0.0583
 6471SOL    HW131049   1.277   1.413  12.097  1.1111 -2.3612 -1.7479
 6471SOL    HW231050   1.374   1.416  11.997 -0.4586 -0.8048  0.1285
 6472SOL     OW31051   3.843   2.299   4.601 -0.0590  0.2978  0.4801
 6472SOL    HW131052   3.791   2.376   4.577  1.2419  0.9211 -0.3259
 6472SOL    HW231053   3.783   2.254   4.661 -0.4844 -1.6818 -1.4614
 6473SOL     OW31054   2.195   2.224   7.195  0.0597 -0.2843  0.2617
 6473SOL    HW131055   2.189   2.227   7.290  2.4407  0.5958  0.3943
 6473SOL    HW231056   2.103   2.208   7.176 -0.1930  2.0707 -0.5637
 6474SOL     OW31057   1.747   3.782   7.727 -0.3881 -0.2071  0.2041
 6474SOL    HW131058   1.841   3.762   7.726 -0.6800 -1.5294 -3.0460
 6474SOL    HW231059   1.717   3.817   7.810 -0.8594 -0.6048  0.2010
 6475SOL     OW31060   1.063   3.527   5.577 -0.5251  0.0493 -0.2973
 6475SOL    HW131061   1.036   3.441   5.545  0.2591 -1.6770  3.6828
 6475SOL    HW231062   1.032   3.522   5.667 -1.0924 -0.7742 -0.5369
 6476SOL     OW31063   2.419   3.611   4.860  0.5352  0.3379 -0.0463
 6476SOL    HW131064   2.469   3.688   4.832 -0.2641  1.4723  1.6671
 6476SOL    HW231065   2.335   3.640   4.896 -1.2984  0.4379 -4.3734
 6477SOL     OW31066   2.587   2.861   3.005  0.1977  0.2296 -0.1195
 6477SOL    HW131067   2.549   2.796   3.065 -1.5473  0.6707 -0.7415
 6477SOL    HW231068   2.528   2.846   2.931  1.7650 -2.5493 -0.8000
 6478SOL     OW31069   3.366   4.577   1.644 -0.7920 -0.5435 -0.4268
 6478SOL    HW131070   3.327   4.637   1.581  1.0302 -1.3174 -2.3086
 6478SOL    HW231071   3.443   4.629   1.670 -1.3576 -0.8433  1.8915
 6479SOL     OW31072   4.550   2.508   7.102 -0.1044 -0.4669 -0.4651
 6479SOL    HW131073   4.622   2.444   7.097  1.6898  1.5826 -0.6793
 6479SOL    HW231074   4.549   2.541   7.013 -0.0836 -1.0365 -0.6779
 6480SOL     OW31075   0.241   0.278   7.210  0.9021 -0.4091  1.0121
 6480SOL    HW131076   0.201   0.315   7.131  0.5638  1.1629  1.9305
 6480SOL    HW231077   0.310   0.341   7.232 -0.3992  2.1221 -2.1801
 6481SOL     OW31078   2.815   2.894   6.662  0.0446  0.2752  0.1483
 6481SOL    HW131079   2.772   2.979   6.677 -1.9579 -0.7668  0.2535
 6481SOL    HW231080   2.758   2.826   6.697  0.9887  0.3606  1.8600
 6482SOL     OW31081   2.570   4.512   1.953 -0.8342  0.4861  0.3016
 6482SOL    HW131082   2.617   4.473   1.879  1.3110 -0.1223  1.9580
 6482SOL    HW231083   2.638   4.482   2.014 -0.4779  0.8587  0.0864
 6483SOL     OW31084   3.455   3.915   1.936  0.0428  0.1448  0.6006
 6483SOL    HW131085   3.494   3.958   2.012 -1.0780  1.0934  0.6321
 6483SOL    HW231086   3.401   3.987   1.901  0.1984 -0.3373 -0.6261
 6484SOL     OW31087   1.358   4.393   6.089 -0.2783 -0.6665 -0.0308
 6484SOL    HW131088   1.342   4.300   6.070 -0.8845 -0.3611 -1.0051
 6484SOL    HW231089   1.453   4.395   6.092 -0.2533 -0.2081 -1.0237
 6485SOL     OW31090   3.105   4.688   5.577  0.6174 -0.6140  0.1270
 6485SOL    HW131091   3.047   0.022   5.596  0.2115 -0.7142 -0.7233
 6485SOL    HW231092   3.188   4.734   5.564  0.2285 -0.3421 -1.3944
 6486SOL     OW31093   2.060   3.705  12.495 -0.2049  0.6682 -0.2555
 6486SOL    HW131094   1.967   3.711  12.519 -0.0781 -0.4074  0.5087
 6486SOL    HW231095   2.076   3.617  12.527 -1.4093  1.1635  1.7167
 6487SOL     OW31096   4.160   2.729   2.311  0.3530 -0.2176 -0.4682
 6487SOL    HW131097   4.163   2.789   2.236 -0.6862  3.1380  2.1740
 6487SOL    HW231098   4.244   2.752   2.350 -1.1269  1.3804  1.7809
 6488SOL     OW31099   1.078   4.593   3.570 -0.2650 -0.0756 -0.0102
 6488SOL    HW131100   1.067   4.507   3.610  0.2087  1.1964  2.8290
 6488SOL    HW231101   0.995   4.602   3.522 -0.6498  1.1617  0.8926
 6489SOL     OW31102   0.862   1.973   5.641 -0.4752  0.4267 -0.5811
 6489SOL    HW131103   0.774   1.936   5.645 -1.0688  2.0352  1.3693
 6489SOL    HW231104   0.908   1.889   5.645  1.6981  1.7819  3.1122
 6490SOL     OW31105   3.679   0.993  13.600  0.1805  0.0487  0.2953
 6490SOL    HW131106   3.727   1.075  13.613  0.2747  0.0633 -0.1318
 6490SOL    HW231107   3.589   1.019  13.618  0.7782  1.5122  1.2152
 6491SOL     OW31108   0.337   2.739   6.054 -0.4852 -0.2698  0.3016
 6491SOL    HW131109   0.418   2.783   6.081  1.3813 -1.1071 -3.8108
 6491SOL    HW231110   0.349   2.737   5.959  1.9911 -0.5898  0.6212
 6492SOL     OW31111   3.665   2.779   4.350  0.3644 -0.0654  0.3673
 6492SOL    HW131112   3.723   2.826   4.411  0.2539  1.5815 -0.7860
 6492SOL    HW231113   3.640   2.849   4.290  0.2048 -1.5927 -1.3479
 6493SOL     OW31114   2.057   4.555   3.887 -0.5320  0.0828  0.1810
 6493SOL    HW131115   2.037   4.532   3.977  0.4143  0.6475  0.5405
 6493SOL    HW231116   1.986   4.610   3.854  0.3034  0.3123 -1.2776
 6494SOL     OW31117   1.367   3.275   8.137 -0.4549 -0.2197  0.0440
 6494SOL    HW131118   1.376   3.317   8.222 -0.0767  0.4555 -0.3273
 6494SOL    HW231119   1.335   3.351   8.088  0.7683  0.6331  0.5898
 6495SOL     OW31120   1.036   1.605   5.442 -0.2984  0.1621  0.0908
 6495SOL    HW131121   1.007   1.696   5.445 -2.4637 -0.5780  1.2697
 6495SOL    HW231122   0.992   1.583   5.361  0.9425 -0.6097 -0.3753
 6496SOL     OW31123   1.799   0.413   6.604 -0.1690 -0.2805  0.5987
 6496SOL    HW131124   1.739   0.467   6.553 -0.0409 -0.4165  0.3020
 6496SOL    HW231125   1.883   0.455   6.582 -1.9578  1.4563 -3.0248
 6497SOL     OW31126   4.452   3.822   3.069  0.5500  0.1837 -0.3194
 6497SOL    HW131127   4.429   3.902   3.115  0.8499  0.4421 -0.6104
 6497SOL    HW231128   4.367   3.778   3.067  0.0189  1.0557  3.3499
 6498SOL     OW31129   2.397   4.004   5.765  0.0415 -0.1104 -0.3382
 6498SOL    HW131130   2.420   4.006   5.672  0.3915 -0.8095 -0.2647
 6498SOL    HW231131   2.303   3.985   5.763 -0.2074  0.7182  2.4770
 6499SOL     OW31132   4.220   3.512   3.641  0.4801 -0.1612 -0.2523
 6499SOL    HW131133   4.137   3.479   3.674 -0.3205 -0.2783 -2.3726
 6499SOL    HW231134   4.278   3.436   3.648  0.6899 -0.0817 -1.1048
 6500SOL     OW31135   0.316   2.711  13.328  0.4891 -0.0284 -0.4292
 6500SOL    HW131136   0.279   2.627  13.298  0.0644  0.6989 -1.9357
 6500SOL    HW231137   0.398   2.686  13.371  0.6627  1.1054 -0.1115
 6501SOL     OW31138   3.373   2.947   7.002 -0.1190  0.1165  0.2677
 6501SOL    HW131139   3.415   2.889   6.938 -1.5011 -0.3258 -0.2358
 6501SOL    HW231140   3.299   2.981   6.952 -0.4247 -2.0226 -0.7404
 6502SOL     OW31141   2.042   4.088   8.475  0.2388  0.0664  0.1214
 6502SOL    HW131142   2.052   4.149   8.549 -0.5821 -0.4998  0.6971
 6502SOL    HW231143   1.988   4.135   8.412 -2.2081 -1.2386  1.2302
 6503SOL     OW31144   0.771   2.029   6.246  0.0741  0.0346  0.4350
 6503SOL    HW131145   0.799   1.960   6.186  0.4886  0.0887  0.5703
 6503SOL    HW231146   0.747   2.102   6.189 -2.5126 -0.1166  1.3215
 6504SOL     OW31147   3.504   4.356   9.062 -0.4235  0.2526 -0.2585
 6504SOL    HW131148   3.552   4.391   9.137 -3.6452  0.9471  1.4570
 6504SOL    HW231149   3.582   4.311   9.028 -1.0942  0.5643 -2.1929
 6505SOL     OW31150   3.236   1.908   6.539  0.4691  1.0443 -0.0303
 6505SOL    HW131151   3.185   1.989   6.529 -0.6169  0.1119 -2.1421
 6505SOL    HW231152   3.170   1.846   6.570  0.6889  0.4796 -0.6977
 6506SOL     OW31153   0.717   4.459   7.212 -0.2996  0.0070 -0.0728
 6506SOL    HW131154   0.756   4.544   7.231 -0.9600 -0.0094  1.3507
 6506SOL    HW231155   0.779   4.404   7.261  0.3958 -0.4598 -1.4733
 6507SOL     OW31156   1.519   1.955   8.451  0.0151  0.1609  0.5235
 6507SOL    HW131157   1.563   1.887   8.399 -0.9822  0.2225 -0.4142
 6507SOL    HW231158   1.492   1.911   8.531 -0.7482 -0.3791 -0.0351
 6508SOL     OW31159   0.923   1.981   5.060  0.0795  0.0982  0.1782
 6508SOL    HW131160   0.922   1.886   5.071  1.1528 -0.0569 -1.1609
 6508SOL    HW231161   0.980   2.005   5.133 -0.1435  2.1656 -0.3498
 6509SOL     OW31162   1.787   2.183   3.583  0.1789 -0.3603 -0.2358
 6509SOL    HW131163   1.711   2.192   3.525 -0.5040 -1.6473  0.4378
 6509SOL    HW231164   1.757   2.142   3.665 -1.9763  1.9889  0.1597
 6510SOL     OW31165   2.701   2.030   8.519  0.5734  0.3933  0.5660
 6510SOL    HW131166   2.742   2.094   8.462  0.8583 -1.5162 -1.3814
 6510SOL    HW231167   2.752   2.036   8.600 -0.5797  1.6882  1.1888
 6511SOL     OW31168   0.256   1.981   4.386  0.0925  0.7723 -0.0490
 6511SOL    HW131169   0.258   1.898   4.434 -0.1912  0.6071 -0.3280
 6511SOL    HW231170   0.243   2.049   4.452  0.5723  1.8196 -1.0288
 6512SOL     OW31171   1.341   3.396   7.322 -0.4464 -0.0078  0.3991
 6512SOL    HW131172   1.254   3.401   7.362  0.1210 -0.1764  1.6522
 6512SOL    HW231173   1.343   3.464   7.254 -1.5604  0.8678  1.2526
 6513SOL     OW31174   3.748   2.562   3.380  0.0535  0.0102 -0.0868
 6513SOL    HW131175   3.780   2.577   3.469 -0.5115  0.2293  0.0795
 6513SOL    HW231176   3.671   2.509   3.397 -0.7716  0.6778 -1.6951
 6514SOL     OW31177   0.552   1.793   7.234  0.0719  0.2264 -0.4077
 6514SOL    HW131178   0.519   1.882   7.248  1.1886  0.5554  0.0566
 6514SOL    HW231179   0.523   1.753   7.317  2.3084 -4.1124 -1.7143
 6515SOL     OW31180   2.028   3.592   0.384  0.4074  0.2516  0.4074
 6515SOL    HW131181   1.995   3.585   0.294  0.5510  3.9252  0.0894
 6515SOL    HW231182   1.960   3.537   0.423  0.0875 -0.4002 -1.0635
 6516SOL     OW31183   3.261   2.070   7.450  0.6357  0.2094 -0.8766
 6516SOL    HW131184   3.176   2.113   7.446 -0.3800 -1.6135  1.3609
 6516SOL    HW231185   3.232   1.996   7.503 -2.5823  2.1367  0.0168
 6517SOL     OW31186   4.412   0.089   3.045  0.8149  0.0073  0.0844
 6517SOL    HW131187   4.348   0.028   3.009  2.4585 -1.3379 -0.5561
 6517SOL    HW231188   4.411   0.154   2.974 -0.0531  0.4187  0.4743
 6518SOL     OW31189   2.150   3.213  11.502 -0.4262 -0.1133 -0.0634
 6518SOL    HW131190   2.112   3.178  11.422  1.6908  0.4213 -1.2911
 6518SOL    HW231191   2.146   3.129  11.547  1.5354  0.2092  0.7024
 6519SOL     OW31192   3.033   4.471  13.371 -0.2575  0.5907  0.5099
 6519SOL    HW131193   3.061   4.464  13.462 -0.5529  1.0660  0.6365
 6519SOL    HW231194   2.958   4.411  13.368  1.6501 -1.7821  0.4413
 6520SOL     OW31195   3.786   0.536   1.874  0.3777  0.4788  0.3426
 6520SOL    HW131196   3.745   0.466   1.924 -0.1870 -0.1321 -0.9577
 6520SOL    HW231197   3.715   0.558   1.813  0.5077  0.7403  0.2867
 6521SOL     OW31198   3.961   2.874   5.101  0.4472  0.0538 -0.0657
 6521SOL    HW131199   3.968   2.907   5.190  1.1046 -0.4041  0.0556
 6521SOL    HW231200   3.992   2.783   5.106  0.2651 -0.0768 -1.3338
 6522SOL     OW31201   1.303   0.430   5.357  0.7403 -0.6981 -0.3199
 6522SOL    HW131202   1.335   0.414   5.268  1.8134  1.5878 -0.3617
 6522SOL    HW231203   1.363   0.498   5.387  0.9726 -1.3325  0.6519
 6523SOL     OW31204   2.186   1.498   6.389 -0.1699 -0.9379  0.2126
 6523SOL    HW131205   2.102   1.518   6.349 -0.6746 -0.9145  1.2754
 6523SOL    HW231206   2.220   1.428   6.333  3.0863 -0.5979  1.7936
 6524SOL     OW31207   0.374   3.440   8.204  0.3883  0.3953  0.5244
 6524SOL    HW131208   0.431   3.506   8.243 -1.9455  0.9075  3.1177
 6524SOL    HW231209   0.292   3.476   8.238  0.3853  1.8160 -0.9901
 6525SOL     OW31210   4.039   1.643  10.893  0.0688  0.3933  0.5439
 6525SOL    HW131211   4.059   1.705  10.963  3.5555 -1.0821  0.8668
 6525SOL    HW231212   4.076   1.564  10.933  0.2736  1.3935  2.3380
 6526SOL     OW31213   4.567   3.723   6.920  0.0465 -0.1480 -0.0271
 6526SOL    HW131214   4.534   3.792   6.977 -1.2248 -0.1177 -0.8093
 6526SOL    HW231215   4.488   3.695   6.874  0.5352 -0.0008 -0.9532
 6527SOL     OW31216   1.803   1.237   3.017 -0.2840 -0.1638  0.1039
 6527SOL    HW131217   1.802   1.332   3.007  1.2932 -0.4634 -2.7477
 6527SOL    HW231218   1.853   1.223   3.098 -2.5063  1.3642  1.7416
 6528SOL     OW31219   0.238   3.728  10.152 -0.2492  0.3509 -0.0063
 6528SOL    HW131220   0.267   3.812  10.118 -0.1263  0.6690  0.8642
 6528SOL    HW231221   0.198   3.753  10.236 -2.3748 -0.8398 -0.6767
 6529SOL     OW31222   4.536   3.878  13.517  0.1955  0.1691 -0.4290
 6529SOL    HW131223   4.600   3.897  13.448  0.6597  1.8894  0.4682
 6529SOL    HW231224   4.491   3.803  13.478 -0.8490 -1.0025  3.0002
 6530SOL     OW31225   2.751   3.221   0.781 -0.0920 -0.2677 -0.0959
 6530SOL    HW131226   2.818   3.272   0.735 -0.8215 -0.3631 -1.2567
 6530SOL    HW231227   2.697   3.296   0.805 -1.0075 -0.9937  0.0980
 6531SOL     OW31228   4.262   0.950   2.276 -0.0998 -0.6176  0.5821
 6531SOL    HW131229   4.237   0.972   2.365 -0.3439 -0.2162  0.4135
 6531SOL    HW231230   4.291   0.859   2.288  0.8581 -0.2522  0.9625
 6532SOL     OW31231   2.011   1.714   7.314  0.5614 -0.1848 -0.1132
 6532SOL    HW131232   2.067   1.675   7.381  0.1999 -2.0081 -0.8603
 6532SOL    HW231233   2.048   1.800   7.294 -2.0418  1.7483  3.5101
 6533SOL     OW31234   2.070   0.676  10.653  0.4475  0.2351 -0.0672
 6533SOL    HW131235   1.993   0.619  10.652  0.2358  0.5424 -1.0840
 6533SOL    HW231236   2.051   0.740  10.721  1.3676  0.1871  0.2264
 6534SOL     OW31237   1.984   2.185   9.840 -0.5595  0.3994 -0.3241
 6534SOL    HW131238   1.896   2.158   9.865 -0.8635  1.9166  0.2603
 6534SOL    HW231239   1.979   2.212   9.748  0.6343 -0.8742 -0.7674
 6535SOL     OW31240   0.058   3.293   7.350  0.4391  0.0734  0.3025
 6535SOL    HW131241   4.711   3.252   7.355  0.6177 -0.3622 -0.1887
 6535SOL    HW231242   0.074   3.273   7.258  2.6779  1.5100  0.3901
 6536SOL     OW31243   3.380   1.355   3.971 -0.1047 -0.4081 -0.0101
 6536SOL    HW131244   3.458   1.402   3.942 -0.4754  1.5536  2.2036
 6536SOL    HW231245   3.356   1.321   3.885  0.7499 -2.0549  0.4093
 6537SOL     OW31246   1.455   0.754   7.212  0.0277  0.0368 -0.2684
 6537SOL    HW131247   1.410   0.731   7.131 -2.5836  0.6615  1.0259
 6537SOL    HW231248   1.473   0.847   7.205  3.1732 -0.4641  0.9763
 6538SOL     OW31249   1.372   3.289   6.687  0.5836  0.2368  0.0978
 6538SOL    HW131250   1.440   3.237   6.642 -1.6614 -1.7891 -0.9322
 6538SOL    HW231251   1.425   3.366   6.706  0.7988 -0.0886  0.7971
 6539SOL     OW31252   3.166   3.479   5.271  0.0298  0.2267  0.0372
 6539SOL    HW131253   3.124   3.398   5.243  1.2598  0.4701 -2.5205
 6539SOL    HW231254   3.087   3.534   5.269 -0.6769 -0.8072 -0.1550
 6540SOL     OW31255   3.859   1.687   3.184  0.6291 -0.1498 -0.1659
 6540SOL    HW131256   3.804   1.615   3.151  0.8891 -0.7029  0.5904
 6540SOL    HW231257   3.817   1.716   3.265  2.2962  2.8999 -0.4017
 6541SOL     OW31258   1.355   0.039   8.429  0.4093 -0.1458 -0.1697
 6541SOL    HW131259   1.447   0.065   8.437  0.6478 -1.3215  0.9205
 6541SOL    HW231260   1.333   0.010   8.517  3.5627  0.9545  0.9719
 6542SOL     OW31261   0.695   1.927   5.926  0.0202 -0.3893  0.2704
 6542SOL    HW131262   0.745   2.004   5.953  0.7064 -1.1226  1.1409
 6542SOL    HW231263   0.651   1.945   5.843  0.3187 -0.1656  0.1600
 6543SOL     OW31264   0.031   3.203  16.171 -0.6116 -0.3222 -0.1785
 6543SOL    HW131265   0.061   3.222  16.259  1.3889 -1.9374 -0.5071
 6543SOL    HW231266   0.014   3.293  16.142  0.2602  0.7654  2.7435
 6544SOL     OW31267   4.581   0.261   2.621  0.0234 -0.5302  0.2780
 6544SOL    HW131268   4.502   0.229   2.665 -0.2181 -0.9616 -0.4641
 6544SOL    HW231269   4.555   0.252   2.529  0.8908  2.2351 -0.2379
 6545SOL     OW31270   3.469   1.524  12.656 -0.1237  0.7504  0.2021
 6545SOL    HW131271   3.510   1.598  12.701 -1.3421  1.2585  0.4809
 6545SOL    HW231272   3.419   1.566  12.586 -0.9040  0.4955  0.6019
 6546SOL     OW31273   1.046   3.418   4.016 -0.2301  0.0331 -0.5317
 6546SOL    HW131274   1.103   3.447   4.087 -0.4874  0.3697 -0.4626
 6546SOL    HW231275   0.988   3.494   4.015  2.4358  2.0816  0.1442
 6547SOL     OW31276   0.925   2.964  13.894  0.1647 -0.2010  0.5996
 6547SOL    HW131277   0.840   2.963  13.939 -0.7850  0.0425 -1.1723
 6547SOL    HW231278   0.950   2.876  13.922  0.4695 -0.2333  0.2263
 6548SOL     OW31279   4.650   3.476   4.530 -0.3365 -0.5552 -0.2589
 6548SOL    HW131280   4.609   3.516   4.607  1.4468 -0.4032  0.6083
 6548SOL    HW231281   4.596   3.511   4.460  0.6837 -1.0610 -1.2847
 6549SOL     OW31282   3.156   3.355  11.913 -0.0621  0.7917 -0.0718
 6549SOL    HW131283   3.113   3.321  11.991 -0.6855  2.0937  0.1544
 6549SOL    HW231284   3.128   3.286  11.854 -1.2883  0.9827  0.2898
 6550SOL     OW31285   0.301   0.001   9.573 -0.3323 -1.0303 -0.0707
 6550SOL    HW131286   0.356   4.666   9.595 -0.4082 -1.2891 -0.7636
 6550SOL    HW231287   0.221   4.701   9.539 -1.2871 -0.6179  1.6758
 6551SOL     OW31288   4.207   4.015   5.123  0.4646  0.4393 -0.0111
 6551SOL    HW131289   4.253   4.085   5.169 -1.3895  0.7048  1.4410
 6551SOL    HW231290   4.121   4.021   5.165  0.7406 -1.1676  0.7924
 6552SOL     OW31291   3.588   1.411   4.546  0.2073 -0.1065  0.1241
 6552SOL    HW131292   3.558   1.418   4.456 -1.3522 -1.4810  0.5416
 6552SOL    HW231293   3.558   1.324   4.573 -1.4326  0.9829  1.7782
 6553SOL     OW31294   1.340   2.476   7.023  0.0899  0.3843  0.1933
 6553SOL    HW131295   1.288   2.412   7.070  0.4616 -1.2933 -1.6890
 6553SOL    HW231296   1.296   2.479   6.938 -0.5024 -0.6913  0.4618
 6554SOL     OW31297   0.493   0.308   6.059 -0.1640  0.2585 -0.3702
 6554SOL    HW131298   0.528   0.397   6.050 -1.3489  0.8536  0.9585
 6554SOL    HW231299   0.528   0.272   5.977 -0.7354  1.2415 -1.0444
 6555SOL     OW31300   1.238   1.712  12.587  0.2216 -0.3462 -0.0122
 6555SOL    HW131301   1.195   1.704  12.502  2.2608 -0.0491 -1.0717
 6555SOL    HW231302   1.297   1.784  12.564 -0.8802  0.4687 -0.2920
 6556SOL     OW31303   0.873   3.908  10.065  0.3793 -0.6648  0.5554
 6556SOL    HW131304   0.919   3.949  10.139  1.1914 -1.8657  0.7192
 6556SOL    HW231305   0.871   3.818  10.097  1.4395  0.2232  3.1586
 6557SOL     OW31306   2.861   3.117   3.544  0.3019  0.6183  0.2240
 6557SOL    HW131307   2.918   3.047   3.574  1.1891  1.5020  0.6070
 6557SOL    HW231308   2.918   3.184   3.506  1.0761  0.4304  1.0869
 6558SOL     OW31309   4.352   3.540   6.272  0.3912 -0.2449  0.1862
 6558SOL    HW131310   4.292   3.591   6.326 -0.1567 -1.3234  0.5947
 6558SOL    HW231311   4.376   3.599   6.201 -2.7485  1.8677  0.8879
 6559SOL     OW31312   3.724   0.779   9.216 -0.9965  0.0440  0.7074
 6559SOL    HW131313   3.772   0.724   9.278 -3.1245  0.9485  3.1509
 6559SOL    HW231314   3.633   0.757   9.238  0.0823 -4.1372  0.9903
 6560SOL     OW31315   3.580   4.272   7.920 -0.0790  0.6588 -0.4537
 6560SOL    HW131316   3.516   4.283   7.850 -1.2002 -1.0186  0.3165
 6560SOL    HW231317   3.638   4.341   7.888  1.9017 -0.5948  0.4432
 6561SOL     OW31318   3.243   3.658   7.244 -0.0597 -0.2243 -0.4341
 6561SOL    HW131319   3.208   3.569   7.252  2.1038 -0.6843  3.7965
 6561SOL    HW231320   3.233   3.685   7.335  1.1304 -2.2281  0.2950
 6562SOL     OW31321   1.625   4.572  15.243 -0.7478  0.0612 -0.1654
 6562SOL    HW131322   1.575   4.619  15.177  0.8019  1.5490 -0.2556
 6562SOL    HW231323   1.635   4.487  15.199  0.8294 -0.2987  0.8943
 6563SOL     OW31324   1.631   2.935   8.694 -0.1379  0.3789 -0.2069
 6563SOL    HW131325   1.651   3.022   8.729 -0.7696  0.0752  0.9026
 6563SOL    HW231326   1.721   2.922   8.663  0.3652 -0.3017  1.5455
 6564SOL     OW31327   2.839   0.405   4.424  0.1749 -0.0855 -0.1004
 6564SOL    HW131328   2.747   0.417   4.402 -0.2701 -3.0985  0.0841
 6564SOL    HW231329   2.889   0.445   4.353  0.8636 -1.6417 -0.5004
 6565SOL     OW31330   3.418   3.975   8.885 -0.2311  0.0509 -0.4012
 6565SOL    HW131331   3.513   3.970   8.873 -0.3705  0.2571 -1.5897
 6565SOL    HW231332   3.393   3.883   8.895 -2.4282  0.6701 -0.1265
 6566SOL     OW31333   3.179   4.270   2.640 -0.0064 -0.4607 -0.0785
 6566SOL    HW131334   3.095   4.286   2.683  0.2966  1.3301 -0.1359
 6566SOL    HW231335   3.172   4.175   2.646 -0.3898 -0.4101  0.2451
 6567SOL     OW31336   0.163   1.996   8.422 -0.1835 -0.0800  0.1053
 6567SOL    HW131337   0.078   1.953   8.433  0.4903 -1.2682  0.7031
 6567SOL    HW231338   0.202   1.960   8.342 -0.0620 -0.9510  0.5617
 6568SOL     OW31339   2.766   2.516   2.997  0.7277  0.2051  0.2949
 6568SOL    HW131340   2.677   2.521   3.031 -0.3926  1.1538 -2.7719
 6568SOL    HW231341   2.767   2.551   2.908  1.6751  1.6373  0.8700
 6569SOL     OW31342   0.893   1.365   4.657  0.1564 -0.4014  0.3389
 6569SOL    HW131343   0.802   1.394   4.649 -0.6114 -3.9395 -3.4502
 6569SOL    HW231344   0.931   1.411   4.583 -1.4120 -0.3264 -0.4268
 6570SOL     OW31345   1.194   2.425   8.780  0.5719  0.2931  0.1162
 6570SOL    HW131346   1.142   2.477   8.719  0.8770 -0.1801 -0.5504
 6570SOL    HW231347   1.206   2.488   8.850  0.6062  1.8018 -1.2510
 6571SOL     OW31348   2.672   0.322   5.690 -0.1876 -0.3622  0.2548
 6571SOL    HW131349   2.663   0.374   5.770  3.1505  0.1710  0.2721
 6571SOL    HW231350   2.766   0.327   5.673 -0.3218 -0.2957 -0.4636
 6572SOL     OW31351   0.071   4.547  10.804 -0.3606  0.1813 -0.0491
 6572SOL    HW131352   0.166   4.533  10.802 -0.1570  1.7809 -1.6966
 6572SOL    HW231353   0.060   4.541  10.709  0.5586  1.0976 -0.2207
 6573SOL     OW31354   2.793   3.990   2.114 -0.5055 -0.4867  0.6380
 6573SOL    HW131355   2.699   3.980   2.129 -0.8966  1.7733 -0.2701
 6573SOL    HW231356   2.825   3.904   2.140 -1.0384 -0.7595  0.4025
 6574SOL     OW31357   3.702   4.707   4.472 -0.0430  0.6496 -0.3187
 6574SOL    HW131358   3.709   4.724   4.378 -1.5327  1.7627 -0.2374
 6574SOL    HW231359   3.607   4.700   4.483  0.0045  0.1459 -0.2156
 6575SOL     OW31360   3.593   0.094   3.758  0.7108  0.3649 -0.3347
 6575SOL    HW131361   3.643   0.075   3.679 -0.2712 -0.0528 -0.8537
 6575SOL    HW231362   3.571   0.002   3.771  0.9081 -0.0045 -2.5962
 6576SOL     OW31363   2.132   4.461   0.275  0.1590 -0.1642 -0.0429
 6576SOL    HW131364   2.092   4.548   0.275 -1.1970 -0.7653  0.7095
 6576SOL    HW231365   2.213   4.477   0.323 -0.3716 -1.8481  1.4311
 6577SOL     OW31366   0.610   4.687   3.598  0.0700 -0.4349  1.1470
 6577SOL    HW131367   0.529   4.644   3.568 -1.6098  2.8433  0.9873
 6577SOL    HW231368   0.610   0.015   3.531  1.8383 -0.8221  0.7497
 6578SOL     OW31369   0.668   1.022   3.965  0.0818  0.1945  0.9584
 6578SOL    HW131370   0.727   1.064   4.028 -1.1062 -1.7402  3.3399
 6578SOL    HW231371   0.624   1.100   3.931 -0.3052 -0.6424 -0.4396
 6579SOL     OW31372   1.585   2.552  11.709  0.6828 -0.3765  0.7026
 6579SOL    HW131373   1.568   2.497  11.633  0.7254 -0.0298  0.4402
 6579SOL    HW231374   1.496   2.570  11.739  1.1826  3.2704 -0.0043
 6580SOL     OW31375   4.165   2.130   4.919 -0.3332  0.5438  0.4224
 6580SOL    HW131376   4.111   2.076   4.976  2.2578 -1.6665  0.7586
 6580SOL    HW231377   4.124   2.099   4.838  0.2906  1.7725 -0.3631
 6581SOL     OW31378   3.368   3.248   5.826 -0.1650  0.3754 -0.2111
 6581SOL    HW131379   3.340   3.199   5.749 -0.3394  1.5387 -0.8770
 6581SOL    HW231380   3.463   3.234   5.824 -0.0942  0.7759  0.3668
 6582SOL     OW31381   3.572   3.911  10.094  0.4987  0.0218 -0.0890
 6582SOL    HW131382   3.667   3.916  10.087  0.4161 -1.2019 -2.3271
 6582SOL    HW231383   3.556   3.839  10.032 -2.7199 -0.1023  0.8640
 6583SOL     OW31384   2.522   4.213   9.408  0.1910  0.1764 -0.0932
 6583SOL    HW131385   2.510   4.235   9.316 -2.4343 -0.7301  0.0215
 6583SOL    HW231386   2.467   4.135   9.418  1.3044 -0.5820  0.1233
 6584SOL     OW31387   0.359   1.781  15.484  0.3043  0.3195  0.0453
 6584SOL    HW131388   0.354   1.875  15.499  0.3080  0.5179 -1.2111
 6584SOL    HW231389   0.382   1.745  15.569 -0.4063  0.5536  0.3365
 6585SOL     OW31390   0.521   2.596   8.945  0.5335 -0.0914 -0.2728
 6585SOL    HW131391   0.590   2.541   8.984 -0.1017 -0.8614 -0.2461
 6585SOL    HW231392   0.469   2.634   9.016 -1.5871 -1.1652 -1.2538
 6586SOL     OW31393   2.474   3.024   4.265 -0.0790 -0.2518 -0.3599
 6586SOL    HW131394   2.484   3.061   4.353  3.3277 -0.4007 -0.6934
 6586SOL    HW231395   2.476   2.930   4.285  0.7060  0.0475  0.9668
 6587SOL     OW31396   2.688   1.139   3.213 -0.9008 -0.4960  0.3073
 6587SOL    HW131397   2.781   1.153   3.196 -0.7666 -0.2599  1.2448
 6587SOL    HW231398   2.659   1.230   3.208 -2.5380 -0.9588  1.3847
 6588SOL     OW31399   2.258   2.529   7.188  0.1665  0.2444 -0.4068
 6588SOL    HW131400   2.203   2.458   7.221 -0.2485  0.8882  0.3150
 6588SOL    HW231401   2.190   2.589   7.158  0.2739  0.4145 -0.3111
 6589SOL     OW31402   3.558   3.553   8.122 -0.6450 -0.1197  0.1616
 6589SOL    HW131403   3.611   3.496   8.179  2.5790  1.0393 -1.6580
 6589SOL    HW231404   3.617   3.625   8.099  0.0712 -0.5430  0.6278
 6590SOL     OW31405   2.590   0.256   4.850 -0.0595  0.3251 -0.1686
 6590SOL    HW131406   2.565   0.345   4.828  1.9652  0.9405  0.0051
 6590SOL    HW231407   2.665   0.248   4.791 -1.2069  1.6587 -1.7737
 6591SOL     OW31408   4.135   2.668   6.430  0.7031  0.0552  0.0124
 6591SOL    HW131409   4.215   2.719   6.418  1.2874 -1.0190 -0.6137
 6591SOL    HW231410   4.094   2.671   6.344  4.3530  1.5362 -1.6632
 6592SOL     OW31411   0.472   3.183   3.670  0.2751 -0.0870  0.0395
 6592SOL    HW131412   0.474   3.092   3.699 -3.2333  0.1944  1.1894
 6592SOL    HW231413   0.451   3.219   3.756  0.4400  0.3041 -0.0838
 6593SOL     OW31414   1.788   3.533   3.570  0.1602 -0.2075 -0.0937
 6593SOL    HW131415   1.753   3.489   3.493 -0.9483 -1.2604  1.0114
 6593SOL    HW231416   1.743   3.499   3.647 -1.1897  0.8041 -0.4417
 6594SOL     OW31417   1.861   0.922   7.622  0.4308  0.6361  0.1060
 6594SOL    HW131418   1.801   0.888   7.688  0.1772  2.3057  0.7323
 6594SOL    HW231419   1.830   1.012   7.622  1.6684  1.0541  2.8008
 6595SOL     OW31420   2.191   4.014   5.381 -0.2722  0.1994  0.2428
 6595SOL    HW131421   2.196   4.059   5.297 -0.3490 -1.6498 -0.7418
 6595SOL    HW231422   2.283   4.018   5.407  0.1675  0.3471 -1.3308
 6596SOL     OW31423   3.128   4.094  15.858 -0.1793 -0.2753 -0.3466
 6596SOL    HW131424   3.151   4.019  15.803 -0.1944 -1.2692  0.9906
 6596SOL    HW231425   3.032   4.091  15.863 -0.0064 -0.4869  2.7968
 6597SOL     OW31426   0.195   3.368   4.106  0.0635  0.5356  0.5756
 6597SOL    HW131427   0.168   3.423   4.180 -0.0723 -0.0039  0.9275
 6597SOL    HW231428   0.111   3.336   4.073  0.0143  1.3040 -0.0641
 6598SOL     OW31429   1.545   2.629   9.658  0.5209  0.0437 -0.1706
 6598SOL    HW131430   1.578   2.698   9.716  3.3072 -2.0306  0.7474
 6598SOL    HW231431   1.525   2.559   9.721 -0.1576  0.5361  0.1491
 6599SOL     OW31432   3.296   3.326   3.850 -0.2144  0.2249 -0.5793
 6599SOL    HW131433   3.259   3.245   3.884  1.2376  0.3542  1.2990
 6599SOL    HW231434   3.250   3.330   3.766 -0.0579  0.6749 -0.6455
 6600SOL     OW31435   2.546   2.857  13.640 -0.6025 -0.1320  0.7867
 6600SOL    HW131436   2.580   2.768  13.626  0.3193  0.2154  0.8161
 6600SOL    HW231437   2.514   2.843  13.729 -1.4203 -0.4612  0.4371
 6601SOL     OW31438   2.817   1.006   8.438 -0.2355 -0.5787 -0.3957
 6601SOL    HW131439   2.769   1.077   8.480 -0.4364  0.1193 -1.7845
 6601SOL    HW231440   2.762   0.928   8.446 -0.9096  0.0081  0.6454
 6602SOL     OW31441   3.387   4.192  12.280  0.3794  0.0033  0.0825
 6602SOL    HW131442   3.457   4.164  12.221  2.4946  1.5809  1.8516
 6602SOL    HW231443   3.312   4.136  12.259  0.6009 -0.3150  0.1411
 6603SOL     OW31444   3.297   2.160   2.703 -0.3573  0.1286 -0.2590
 6603SOL    HW131445   3.204   2.178   2.718  0.0871  1.6011  0.7474
 6603SOL    HW231446   3.309   2.128   2.793 -1.9637 -3.7404 -1.4135
 6604SOL     OW31447   2.141   2.941  11.766  0.2688  0.1746 -0.3345
 6604SOL    HW131448   2.229   2.975  11.782  0.4701 -1.5157  2.0288
 6604SOL    HW231449   2.150   2.879  11.838 -1.1182 -0.2070 -0.4872
 6605SOL     OW31450   4.560   1.643   0.085  0.1907 -0.2871 -0.0823
 6605SOL    HW131451   4.611   1.645   0.166 -0.4491 -0.7694  0.3312
 6605SOL    HW231452   4.472   1.635   0.121  0.5033 -1.4152  0.4069
 6606SOL     OW31453   2.602   3.580  13.824 -0.3548 -0.0077 -1.0203
 6606SOL    HW131454   2.664   3.534  13.881 -1.5449 -2.9323 -2.1029
 6606SOL    HW231455   2.581   3.503  13.771  0.4433 -1.2278  0.4278
 6607SOL     OW31456   3.364   0.588   7.932 -0.0796  0.0553 -0.2259
 6607SOL    HW131457   3.323   0.674   7.932 -2.0502 -0.9085  1.7124
 6607SOL    HW231458   3.416   0.602   8.011 -1.7969 -3.6660  1.5902
 6608SOL     OW31459   3.474   1.350   8.813 -0.2586  0.2100  0.1374
 6608SOL    HW131460   3.413   1.396   8.755  2.3384  2.8498 -0.5202
 6608SOL    HW231461   3.421   1.271   8.823 -0.6127  0.0709 -2.8627
 6609SOL     OW31462   0.096   2.169   6.393  0.3454 -0.6506 -0.3675
 6609SOL    HW131463   0.026   2.118   6.352 -1.5912  1.6287  0.0930
 6609SOL    HW231464   0.148   2.195   6.317  0.7888 -1.1232 -0.2205
 6610SOL     OW31465   0.976   3.869  12.416 -0.0110  0.1260  0.0468
 6610SOL    HW131466   0.978   3.805  12.344 -2.6813  0.5771 -0.4395
 6610SOL    HW231467   0.883   3.889  12.409 -0.3852 -1.2544  1.0424
 6611SOL     OW31468   1.236   1.212   7.226  0.0909  0.5243 -0.1519
 6611SOL    HW131469   1.182   1.290   7.240  1.0827  0.8376  1.9627
 6611SOL    HW231470   1.278   1.239   7.144 -0.3071 -2.1099 -1.2216
 6612SOL     OW31471   3.874   3.584   3.472 -0.0205  0.0337  0.4020
 6612SOL    HW131472   3.847   3.493   3.487 -0.3987 -0.2384 -1.8113
 6612SOL    HW231473   3.880   3.621   3.560  1.2103  0.8498 -0.0244
 6613SOL     OW31474   0.112   1.300  11.554  0.4143  0.2744 -0.2771
 6613SOL    HW131475   0.103   1.239  11.626  0.8911  0.8377  0.2550
 6613SOL    HW231476   0.166   1.250  11.493  0.6863 -1.9381  1.8325
 6614SOL     OW31477   3.875   1.315   7.105  0.4949  0.3782 -0.3689
 6614SOL    HW131478   3.947   1.340   7.162 -0.1385  2.2651 -0.3704
 6614SOL    HW231479   3.831   1.399   7.093 -0.0141 -0.2069 -2.5279
 6615SOL     OW31480   3.935   0.871  17.746  0.0965 -0.2406 -0.2589
 6615SOL    HW131481   3.972   0.843   0.072 -0.6629 -1.6673 -0.4010
 6615SOL    HW231482   3.859   0.919   0.023  1.4170  0.0866  2.2361
 6616SOL     OW31483   3.380   1.624   2.753 -0.3663  0.2502 -0.3336
 6616SOL    HW131484   3.416   1.623   2.841  0.5167 -0.8153 -0.7107
 6616SOL    HW231485   3.450   1.670   2.706  0.7314  0.8029  1.8552
 6617SOL     OW31486   4.081   0.273  17.451  0.0061 -0.0935 -0.1354
 6617SOL    HW131487   4.115   0.328  17.522  1.0289 -3.3151  1.8657
 6617SOL    HW231488   4.013   0.328  17.412  1.3680  0.5040 -1.6720
 6618SOL     OW31489   0.233   3.904   7.822  0.1706 -0.2378  0.4275
 6618SOL    HW131490   0.212   3.858   7.741 -0.8104 -0.1477  0.6360
 6618SOL    HW231491   0.166   3.973   7.825  3.6991  3.1529  1.6207
 6619SOL     OW31492   0.979   2.943   7.930  0.0168 -0.2063 -0.2876
 6619SOL    HW131493   0.998   2.963   7.839 -2.4711 -0.0700 -0.7748
 6619SOL    HW231494   1.032   3.011   7.971 -0.1217  0.8624 -1.9055
 6620SOL     OW31495   4.023   1.700  14.760  0.0141 -0.2337  0.1019
 6620SOL    HW131496   3.952   1.672  14.818 -1.7149  2.3429 -0.7799
 6620SOL    HW231497   4.106   1.671  14.797  1.0054  0.6143 -1.4196
 6621SOL     OW31498   3.632   0.631   9.672  0.3443  0.0273  0.0110
 6621SOL    HW131499   3.611   0.719   9.702  1.1798  0.1345  0.2625
 6621SOL    HW231500   3.579   0.586   9.738 -0.4203  1.6863  0.5270
 6622SOL     OW31501   4.428   0.008  14.799  0.8398 -0.5120 -0.3874
 6622SOL    HW131502   4.448   0.042  14.887 -0.6073 -2.5607  0.7288
 6622SOL    HW231503   4.499   0.044  14.746 -0.3883 -0.3333 -1.8857
 6623SOL     OW31504   4.118   1.435  11.311  0.1154  0.5273  0.0469
 6623SOL    HW131505   4.142   1.509  11.367  2.9107  0.2699 -0.8211
 6623SOL    HW231506   4.147   1.363  11.368  1.0038  1.9480  1.3885
 6624SOL     OW31507   2.202   2.383  16.827 -0.3480 -0.1537  0.2162
 6624SOL    HW131508   2.168   2.445  16.891  0.2507 -0.5318  0.8902
 6624SOL    HW231509   2.255   2.320  16.875  0.7827  0.7499  0.1536
 6625SOL     OW31510   1.412   0.442  11.942 -0.2693 -0.0677  0.6893
 6625SOL    HW131511   1.352   0.407  12.009 -0.0833  2.5072  2.2038
 6625SOL    HW231512   1.345   0.468  11.879 -0.4996  1.8009  1.7038
 6626SOL     OW31513   2.265   1.439   3.906  0.0996  0.6624  0.4837
 6626SOL    HW131514   2.343   1.459   3.853 -0.1138 -2.0584 -0.8474
 6626SOL    HW231515   2.211   1.399   3.838 -0.3170 -0.9491  1.7823
 6627SOL     OW31516   4.265   2.793   6.662 -0.0784  0.0756 -0.3468
 6627SOL    HW131517   4.351   2.751   6.659 -0.1266 -0.2167  1.9145
 6627SOL    HW231518   4.208   2.716   6.666  0.8309 -0.6181 -0.6873
 6628SOL     OW31519   2.194   3.766   7.861 -0.2151 -0.1957 -0.3135
 6628SOL    HW131520   2.141   3.719   7.797 -0.3262  0.3560 -0.6273
 6628SOL    HW231521   2.268   3.707   7.871  2.6762  3.6965  1.2141
 6629SOL     OW31522   4.186   0.454   2.886 -0.3755 -0.0494  0.4438
 6629SOL    HW131523   4.113   0.503   2.923 -2.5758 -1.4182 -2.0604
 6629SOL    HW231524   4.185   0.476   2.793 -1.7844 -4.1346 -0.5059
 6630SOL     OW31525   4.731   4.147   4.760 -0.5815 -0.3741 -0.0373
 6630SOL    HW131526   0.038   4.164   4.842  0.0410  0.1563 -0.5039
 6630SOL    HW231527   4.647   4.187   4.781 -0.1369  1.3814 -1.5349
 6631SOL     OW31528   4.528   4.097  16.017 -0.2115  0.3790  0.0877
 6631SOL    HW131529   4.523   4.182  15.975  0.7025  0.3563 -0.0703
 6631SOL    HW231530   4.498   4.110  16.107 -0.5578 -0.7154  0.1408
 6632SOL     OW31531   2.321   2.561   1.497 -0.2555 -0.4150  0.2841
 6632SOL    HW131532   2.273   2.479   1.490 -0.1232 -0.5327  0.7388
 6632SOL    HW231533   2.352   2.568   1.588  0.1364 -1.1409  0.2045
 6633SOL     OW31534   2.584   2.748   4.364  0.4473  0.3785  0.5974
 6633SOL    HW131535   2.677   2.753   4.390  1.0901 -0.8531 -1.5078
 6633SOL    HW231536   2.588   2.674   4.305 -0.8917 -0.7650  1.9574
 6634SOL     OW31537   0.930   0.982   6.995 -0.4122  0.0887  0.0794
 6634SOL    HW131538   0.935   1.058   6.937  1.3656 -0.9645 -1.1427
 6634SOL    HW231539   1.011   0.992   7.045  1.5846  0.5726 -3.2076
 6635SOL     OW31540   2.025   3.140   4.193 -0.3394 -0.0124 -0.8037
 6635SOL    HW131541   2.062   3.057   4.164 -0.2257 -0.8298  1.6974
 6635SOL    HW231542   1.961   3.164   4.126 -0.6334 -0.5679 -0.7267
 6636SOL     OW31543   0.621   1.398   4.620  0.7209 -0.0400  0.3958
 6636SOL    HW131544   0.619   1.325   4.558 -0.7448 -0.9245  1.4979
 6636SOL    HW231545   0.557   1.464   4.592  1.9748  1.1494  0.3735
 6637SOL     OW31546   4.455   2.826   2.108  0.4366 -0.1273  0.4008
 6637SOL    HW131547   4.548   2.831   2.131  0.9629 -0.0052 -1.7983
 6637SOL    HW231548   4.464   2.844   2.015 -3.1694  0.0557  0.1110
 6638SOL     OW31549   0.377   3.070   8.493 -0.2356  0.4498 -0.3433
 6638SOL    HW131550   0.285   3.044   8.500 -0.8052  2.2044 -1.2982
 6638SOL    HW231551   0.390   3.103   8.404 -0.7937  1.5515 -0.0221
 6639SOL     OW31552   1.461   1.064   2.870  0.2819 -0.3088  0.1784
 6639SOL    HW131553   1.552   1.033   2.867  0.0259 -1.1847  1.1946
 6639SOL    HW231554   1.443   1.054   2.964 -0.0359  1.7847  0.3287
 6640SOL     OW31555   0.955   4.642   7.291 -0.0698 -0.2521  0.0148
 6640SOL    HW131556   0.938   4.634   7.385 -0.4860 -0.2379 -0.0555
 6640SOL    HW231557   1.045   4.613   7.281 -0.6368 -1.9009 -0.3435
 6641SOL     OW31558   3.157   3.834   3.001 -0.2009 -0.0184 -0.6246
 6641SOL    HW131559   3.184   3.817   2.911  2.6420  0.4810  0.1336
 6641SOL    HW231560   3.130   3.926   2.996  0.3068  0.2375  1.3985
 6642SOL     OW31561   0.306   0.476   2.302 -0.0767  0.5298  0.0865
 6642SOL    HW131562   0.219   0.479   2.342 -0.5444 -0.5833 -0.8583
 6642SOL    HW231563   0.349   0.533   2.366 -1.7457  0.9104  0.8706
 6643SOL     OW31564   0.711   2.188  16.898 -0.4042 -1.0501 -0.1410
 6643SOL    HW131565   0.798   2.153  16.882  0.0691 -0.0504  0.2223
 6643SOL    HW231566   0.668   2.208  16.815  1.4343  2.3770 -0.2657
 6644SOL     OW31567   1.606   2.572   3.535  0.5029 -0.6407  0.5057
 6644SOL    HW131568   1.701   2.568   3.543  0.7689  2.6548 -1.3185
 6644SOL    HW231569   1.592   2.666   3.521  1.3330 -0.3951  1.3486
 6645SOL     OW31570   3.089   2.292   3.530  0.0214 -0.1867  0.2401
 6645SOL    HW131571   3.068   2.200   3.517  0.4699 -0.6595  2.8761
 6645SOL    HW231572   3.098   2.331   3.443 -1.2975  0.6090  0.4618
 6646SOL     OW31573   2.422   1.187   5.067 -0.1161 -0.1933  0.2016
 6646SOL    HW131574   2.351   1.168   5.130  0.4819  0.5223  1.1022
 6646SOL    HW231575   2.461   1.267   5.103  2.1506 -1.2101 -0.0391
 6647SOL     OW31576   0.860   2.365   3.504  0.2426  0.5122  0.0223
 6647SOL    HW131577   0.791   2.350   3.568 -0.5834 -0.3991 -1.0759
 6647SOL    HW231578   0.811   2.420   3.442  2.4991  4.3514  1.6159
 6648SOL     OW31579   3.069   1.933  15.514 -0.1844  0.1764 -0.7212
 6648SOL    HW131580   3.132   1.905  15.581 -0.0010  1.9952 -0.1354
 6648SOL    HW231581   3.030   2.015  15.546 -0.3446 -0.3955  0.5638
 6649SOL     OW31582   3.020   1.776   3.314  0.4935  0.2194 -0.2983
 6649SOL    HW131583   2.974   1.830   3.250 -0.7277 -1.1882 -0.6354
 6649SOL    HW231584   2.971   1.694   3.304 -1.8772  1.6925 -0.8483
 6650SOL     OW31585   2.775   1.624   4.408  0.1371  0.4829 -0.0678
 6650SOL    HW131586   2.778   1.660   4.497  0.1549 -1.2161  0.6248
 6650SOL    HW231587   2.851   1.567   4.407  0.9016  1.5050  0.0594
 6651SOL     OW31588   2.617   2.305   8.112 -0.2687 -0.1483 -0.0527
 6651SOL    HW131589   2.664   2.384   8.083 -3.0103  1.3876 -0.3533
 6651SOL    HW231590   2.656   2.283   8.196  1.0389 -1.2916 -0.9504
 6652SOL     OW31591   0.883   0.310  12.087  0.1036 -0.4830 -0.1984
 6652SOL    HW131592   0.849   0.232  12.131  0.0687  0.2624  1.0999
 6652SOL    HW231593   0.955   0.328  12.148  0.9667  0.7023 -1.5745
 6653SOL     OW31594   2.650   3.399   2.991 -0.0893 -0.5845 -0.4057
 6653SOL    HW131595   2.640   3.492   2.971 -1.6244 -0.1707  2.3221
 6653SOL    HW231596   2.584   3.387   3.059  1.9116  1.4669  1.8767
 6654SOL     OW31597   4.334   0.422   4.768  0.5913 -0.6184 -0.2200
 6654SOL    HW131598   4.391   0.494   4.742 -0.0985  0.4454  1.1846
 6654SOL    HW231599   4.394   0.367   4.817 -0.4157 -1.1144  0.4509
 6655SOL     OW31600   3.142   3.788   3.906  0.1645 -0.6734 -0.7202
 6655SOL    HW131601   3.194   3.800   3.827  0.5598 -0.4731 -0.4270
 6655SOL    HW231602   3.179   3.720   3.962  2.3424  1.3605  0.2953
 6656SOL     OW31603   3.349   4.129   3.708  0.8219  0.1943  0.0483
 6656SOL    HW131604   3.323   4.161   3.794  1.0253  3.1037 -0.9548
 6656SOL    HW231605   3.265   4.090   3.685  0.0618  1.3006  0.9785
 6657SOL     OW31606   1.710   1.238   2.063 -0.3142  0.2328 -0.2247
 6657SOL    HW131607   1.766   1.198   1.998  1.4574  2.1101  0.1639
 6657SOL    HW231608   1.663   1.164   2.102 -0.9955 -1.0017 -3.4054
 6658SOL     OW31609   2.042   3.997   0.837  0.2239 -0.1157 -0.0769
 6658SOL    HW131610   1.971   4.048   0.799  1.0274  0.8620 -0.2727
 6658SOL    HW231611   2.053   3.927   0.772  0.8936  1.0567 -1.2334
 6659SOL     OW31612   4.439   1.001   9.525 -0.5852  0.6065  0.4494
 6659SOL    HW131613   4.402   0.959   9.448 -0.4385  0.6849  0.3380
 6659SOL    HW231614   4.496   0.936   9.565 -0.0193  1.1104  0.4563
 6660SOL     OW31615   2.438   3.493   8.248  0.0771 -0.1169  0.1473
 6660SOL    HW131616   2.408   3.561   8.307  1.6699  0.1026  0.7083
 6660SOL    HW231617   2.371   3.424   8.252 -0.2865  0.1568 -1.1293
 6661SOL     OW31618   4.088   0.985   9.524  0.3012 -0.1297 -0.2246
 6661SOL    HW131619   4.093   0.926   9.449 -1.6863 -0.9968  0.3317
 6661SOL    HW231620   4.111   0.915   9.586 -0.5400 -0.6907 -0.5399
 6662SOL     OW31621   2.994   0.716   9.043  0.4958 -0.0816 -0.4856
 6662SOL    HW131622   3.022   0.694   8.954 -0.1580  0.1346 -0.7445
 6662SOL    HW231623   2.944   0.635   9.058 -0.0052  0.4595  0.7453
 6663SOL     OW31624   3.245   0.644   3.073  0.8900  0.2006 -0.3660
 6663SOL    HW131625   3.277   0.639   3.163  0.9606  0.2632 -0.3877
 6663SOL    HW231626   3.174   0.707   3.089  0.7963  0.3104 -1.2124
 6664SOL     OW31627   1.616   0.865  14.002 -0.0876  0.6154  0.3401
 6664SOL    HW131628   1.665   0.790  13.969  0.6935  0.2302  2.4333
 6664SOL    HW231629   1.530   0.822  14.008 -0.3611  1.1556  0.3611
 6665SOL     OW31630   3.707   3.651   5.003  0.4406  0.0350  0.1400
 6665SOL    HW131631   3.648   3.706   4.952  0.1850 -1.9494 -1.7271
 6665SOL    HW231632   3.786   3.702   5.018 -0.6088  1.9865 -1.0202
 6666SOL     OW31633   3.830   4.264   8.723  0.0029 -0.1819 -0.5234
 6666SOL    HW131634   3.919   4.296   8.710 -0.0095 -0.4175 -1.1693
 6666SOL    HW231635   3.821   4.212   8.643  0.8498 -0.7211 -0.2751
 6667SOL     OW31636   4.109   1.862   1.547 -0.5323  0.2648 -0.1048
 6667SOL    HW131637   4.204   1.876   1.536 -0.4085  0.4824  1.2647
 6667SOL    HW231638   4.087   1.792   1.486  1.3470 -0.2806 -0.1620
 6668SOL     OW31639   4.185   0.580  17.193  0.0714 -0.1998 -0.9443
 6668SOL    HW131640   4.208   0.667  17.227  0.7301 -1.0343  0.7125
 6668SOL    HW231641   4.162   0.611  17.105  0.9431  0.9648 -0.7631
 6669SOL     OW31642   4.722   1.964   7.436  0.4847 -0.0683 -0.3116
 6669SOL    HW131643   0.077   1.963   7.447  0.3550  1.9982  0.9417
 6669SOL    HW231644   4.711   2.055   7.408 -2.6243 -0.7284 -1.2706
 6670SOL     OW31645   2.422   0.080  13.574 -0.3587  0.5585 -0.1741
 6670SOL    HW131646   2.421   4.724  13.566 -1.1843  0.5015  0.6640
 6670SOL    HW231647   2.357   0.107  13.509 -0.7761  0.8229  0.3553
 6671SOL     OW31648   0.706   3.356   4.857  0.8628 -0.0913  0.2462
 6671SOL    HW131649   0.769   3.394   4.919  0.2080  0.8746  0.3346
 6671SOL    HW231650   0.635   3.353   4.921 -1.4686 -0.7071 -2.3954
 6672SOL     OW31651   1.519   2.486   7.826  0.6876  0.2859 -0.3194
 6672SOL    HW131652   1.513   2.523   7.914  0.4071  1.1864 -0.7165
 6672SOL    HW231653   1.432   2.503   7.792  0.8262 -1.8736 -1.7343
 6673SOL     OW31654   2.779   3.428  16.660  0.6477 -0.8793 -0.3572
 6673SOL    HW131655   2.746   3.509  16.620 -3.0820 -2.1193  0.2383
 6673SOL    HW231656   2.853   3.447  16.717 -0.4464  4.2582 -0.6520
 6674SOL     OW31657   3.572   4.685   1.791 -0.8766  0.2803 -0.1977
 6674SOL    HW131658   3.654   4.655   1.751  0.8023  1.4065  2.3941
 6674SOL    HW231659   3.583   0.040   1.786 -2.0967  0.5095  1.3732
 6675SOL     OW31660   3.807   1.042   2.635  0.2986  0.5295  0.3746
 6675SOL    HW131661   3.721   1.006   2.655 -0.3054 -0.8173 -4.5451
 6675SOL    HW231662   3.857   0.960   2.628  0.8400  0.9946 -1.1820
 6676SOL     OW31663   3.029   0.349  14.266  0.1632  0.4148  0.2576
 6676SOL    HW131664   3.089   0.274  14.278  0.6619  1.0288  1.6487
 6676SOL    HW231665   2.960   0.308  14.319  1.1924  0.8780  1.9497
 6677SOL     OW31666   3.367   0.159  14.012 -0.2846  0.1579  0.0857
 6677SOL    HW131667   3.336   0.171  14.101  1.1233  0.2469  0.5701
 6677SOL    HW231668   3.406   0.244  13.991  0.3517 -0.4285 -1.1555
 6678SOL     OW31669   3.715   0.281  15.516  0.0812 -0.0271  0.1386
 6678SOL    HW131670   3.781   0.217  15.542 -1.1050 -1.0371  0.6236
 6678SOL    HW231671   3.740   0.350  15.578  2.0344 -0.1129 -0.5417
 6679SOL     OW31672   0.570   0.999   1.891 -0.3418 -0.1597 -0.0963
 6679SOL    HW131673   0.484   0.960   1.904  0.0298 -0.7533  0.5876
 6679SOL    HW231674   0.618   0.959   1.964  1.8561 -0.7804 -1.8582
 6680SOL     OW31675   3.992   0.366   9.413 -0.7570  0.1159 -0.2040
 6680SOL    HW131676   3.976   0.334   9.501  0.1224 -0.6469 -0.3158
 6680SOL    HW231677   3.939   0.309   9.357 -0.3318 -1.9455  1.5031
 6681SOL     OW31678   3.297   4.443  12.383 -0.1357  0.1719  0.2463
 6681SOL    HW131679   3.333   4.357  12.358 -0.3171  0.8079 -2.1729
 6681SOL    HW231680   3.207   4.412  12.376  0.5149 -1.5272 -0.9160
 6682SOL     OW31681   1.333   3.384   2.861 -1.1883  0.4337 -0.5863
 6682SOL    HW131682   1.336   3.448   2.790 -1.3712  1.2734  0.1609
 6682SOL    HW231683   1.238   3.381   2.869 -1.1636  0.9602 -0.1398
 6683SOL     OW31684   1.114   0.313   5.079  0.8967 -0.6749 -0.2769
 6683SOL    HW131685   1.194   0.366   5.071  0.7381 -0.1487  1.6439
 6683SOL    HW231686   1.051   0.373   5.120  1.6091 -0.2746  0.2339
 6684SOL     OW31687   0.932   2.677   4.297 -0.1746 -0.0863 -0.8024
 6684SOL    HW131688   0.886   2.761   4.302  1.4163  0.6073  2.2330
 6684SOL    HW231689   1.006   2.689   4.238  0.1692 -0.3481 -0.4233
 6685SOL     OW31690   3.190   4.050   6.232 -0.6962  0.3873  0.0362
 6685SOL    HW131691   3.101   4.032   6.202 -0.9661  1.0926  0.4403
 6685SOL    HW231692   3.217   3.958   6.221  0.8088  0.7144  1.0964
 6686SOL     OW31693   4.225   4.325  11.542 -0.1047  0.0970 -0.2882
 6686SOL    HW131694   4.311   4.338  11.582  1.1739 -2.9486 -2.1453
 6686SOL    HW231695   4.239   4.371  11.460 -0.0427 -0.6569 -0.6973
 6687SOL     OW31696   3.707   1.985   4.572  0.0902  0.2630  0.3427
 6687SOL    HW131697   3.787   1.932   4.571  0.3085  0.5635  1.6053
 6687SOL    HW231698   3.704   2.008   4.665 -0.8852  0.5912  0.2383
 6688SOL     OW31699   2.190   4.638  15.124 -0.6951  0.4806 -0.2364
 6688SOL    HW131700   2.280   4.649  15.094 -0.4583 -1.0104 -0.0788
 6688SOL    HW231701   2.188   4.720  15.174 -0.4392 -0.3673  1.1540
 6689SOL     OW31702   3.386   1.824  10.346 -0.5086  0.3379 -0.0163
 6689SOL    HW131703   3.464   1.862  10.306 -0.4281  0.8176  0.6001
 6689SOL    HW231704   3.379   1.882  10.422  0.5925 -0.7935  0.9666
 6690SOL     OW31705   4.113   4.208  10.029  0.3860  0.3630  0.0302
 6690SOL    HW131706   4.125   4.273   9.959  1.3945 -1.6373 -1.6544
 6690SOL    HW231707   4.092   4.269  10.100 -2.2328  0.0589 -0.4894
 6691SOL     OW31708   2.094   0.357   9.959  0.3364 -0.0126 -0.0375
 6691SOL    HW131709   2.174   0.324  10.000  1.0328  0.0421 -1.3560
 6691SOL    HW231710   2.071   0.430  10.016 -0.4895 -0.1948 -0.1329
 6692SOL     OW31711   2.121   3.560   2.179 -0.2265  0.2716 -0.2323
 6692SOL    HW131712   2.150   3.556   2.088 -1.0251  1.3847 -0.5315
 6692SOL    HW231713   2.183   3.503   2.225  0.2476 -0.5467 -1.9014
 6693SOL     OW31714   3.058   4.020   2.683 -0.3013 -0.1429 -0.3159
 6693SOL    HW131715   3.003   4.097   2.670  1.0988  0.3812 -2.9917
 6693SOL    HW231716   3.007   3.948   2.646  0.2520  0.7775 -2.8305
 6694SOL     OW31717   2.342   1.144   9.389  0.2325 -0.0256 -0.7260
 6694SOL    HW131718   2.355   1.085   9.464  0.3916 -0.1542 -0.8575
 6694SOL    HW231719   2.425   1.180   9.360 -0.8187  2.5402 -0.5884
 6695SOL     OW31720   1.551   3.303   1.883 -0.5142 -0.2114  0.5334
 6695SOL    HW131721   1.601   3.235   1.837  0.6809 -0.5152  2.2817
 6695SOL    HW231722   1.467   3.308   1.837 -0.3012  1.5507  0.3516
 6696SOL     OW31723   2.018   2.256   9.562  0.2757 -0.1448 -0.5564
 6696SOL    HW131724   2.085   2.267   9.494 -0.4680  0.2403 -1.2191
 6696SOL    HW231725   1.941   2.244   9.508  0.5019 -0.2995 -0.8456
 6697SOL     OW31726   2.043   4.506   4.168  0.6712  0.1155  0.4398
 6697SOL    HW131727   2.059   4.550   4.252  0.7543 -0.5353  0.7641
 6697SOL    HW231728   2.133   4.487   4.141  0.0405 -1.1251 -0.7524
 6698SOL     OW31729   2.524   1.371   2.234  0.1715  0.2694  0.2965
 6698SOL    HW131730   2.508   1.356   2.141  1.1132  0.2403  0.1388
 6698SOL    HW231731   2.597   1.432   2.222 -0.1704  0.6325  0.0243
 6699SOL     OW31732   3.674   3.838   5.335 -0.0342  0.1960  0.9074
 6699SOL    HW131733   3.667   3.793   5.420 -0.4815 -2.2800 -0.4377
 6699SOL    HW231734   3.582   3.830   5.308 -0.4181 -1.0078  2.5464
 6700SOL     OW31735   4.630   1.106   8.037 -0.4019  0.4154 -0.5972
 6700SOL    HW131736   4.618   1.158   7.957 -0.3182  0.8889 -0.3016
 6700SOL    HW231737   4.663   1.170   8.101 -1.9160  1.5995 -0.9944
 6701SOL     OW31738   1.249   0.765   2.414  0.4465 -0.0221 -0.4401
 6701SOL    HW131739   1.178   0.807   2.464  0.0424  0.5234 -1.4762
 6701SOL    HW231740   1.308   0.743   2.486 -0.5991  1.0408  0.7490
 6702SOL     OW31741   0.310   2.707   8.502 -0.0823 -0.0365 -0.2937
 6702SOL    HW131742   0.345   2.726   8.416 -0.8676  2.1437 -0.1239
 6702SOL    HW231743   0.260   2.625   8.495  1.8391 -1.2465  0.1709
 6703SOL     OW31744   3.378   3.043  10.302  0.0761 -0.3882  0.0735
 6703SOL    HW131745   3.462   3.075  10.336 -1.2621  2.1202  0.9425
 6703SOL    HW231746   3.382   2.947  10.299 -4.2613 -0.5133 -1.9431
 6704SOL     OW31747   3.815   3.425  10.771 -0.2228 -0.5053  0.0373
 6704SOL    HW131748   3.858   3.427  10.685  0.0715  1.4866  0.2308
 6704SOL    HW231749   3.886   3.474  10.813  0.7602 -1.6665 -0.2790
 6705SOL     OW31750   1.125   0.309   3.973 -0.3751 -0.1258 -0.4316
 6705SOL    HW131751   1.061   0.364   3.928  0.3587  2.2769  1.4415
 6705SOL    HW231752   1.131   0.226   3.926  3.1880  1.5515 -2.8680
 6706SOL     OW31753   1.537   2.087  10.662 -0.4252 -0.6196  0.3494
 6706SOL    HW131754   1.625   2.122  10.650 -0.3235 -1.1613 -0.5340
 6706SOL    HW231755   1.508   2.118  10.748 -1.2169 -0.2024 -0.0697
 6707SOL     OW31756   0.548   3.600   1.560 -0.1576  0.4486  0.6197
 6707SOL    HW131757   0.609   3.616   1.632 -1.6080 -3.1733  2.6337
 6707SOL    HW231758   0.466   3.609   1.609 -1.5991 -0.0396 -1.7410
 6708SOL     OW31759   1.377   4.044   1.849  0.3021  0.5980 -0.1101
 6708SOL    HW131760   1.303   3.986   1.827  1.4302 -2.2420  3.7131
 6708SOL    HW231761   1.363   4.123   1.796 -2.8846 -1.7512 -2.7907
 6709SOL     OW31762   1.756   0.901  10.765  0.1963 -0.5720  0.1172
 6709SOL    HW131763   1.774   0.918  10.857  1.2383  1.4176 -0.4436
 6709SOL    HW231764   1.822   0.954  10.720 -0.5813 -0.2040 -0.6081
 6710SOL     OW31765   4.555   1.566   8.758  0.2403 -0.2144  0.6205
 6710SOL    HW131766   4.523   1.477   8.747 -2.9402  0.7811  1.5519
 6710SOL    HW231767   4.647   1.553   8.778  0.0900 -1.3283  0.5588
 6711SOL     OW31768   2.955   3.639   7.637  0.0053 -0.7413  0.1035
 6711SOL    HW131769   2.860   3.635   7.646  0.1933  0.4342  2.8096
 6711SOL    HW231770   2.966   3.581   7.713 -3.4309 -2.8156 -0.9627
 6712SOL     OW31771   4.144   3.324   7.492 -0.2722  0.1107 -0.1685
 6712SOL    HW131772   4.068   3.265   7.492 -1.5714  1.7519 -1.4326
 6712SOL    HW231773   4.180   3.300   7.407  0.6083  2.1177 -0.3482
 6713SOL     OW31774   3.172   2.183   9.793  0.5964  0.2930 -0.1918
 6713SOL    HW131775   3.259   2.214   9.767  1.2981 -0.0654  1.7657
 6713SOL    HW231776   3.131   2.154   9.711 -1.6855  0.9762  0.7296
 6714SOL     OW31777   1.203   2.949   7.277 -0.1692  0.4012 -0.3113
 6714SOL    HW131778   1.117   2.914   7.298  0.6213 -1.3156  0.0894
 6714SOL    HW231779   1.207   3.034   7.321 -3.2625 -0.1758  1.0491
 6715SOL     OW31780   4.458   0.625  15.861 -0.0145  0.7112 -0.7258
 6715SOL    HW131781   4.437   0.634  15.955 -0.0326 -0.5097 -0.6148
 6715SOL    HW231782   4.438   0.533  15.841  0.2704  0.0159  2.1565
 6716SOL     OW31783   0.657   2.893   6.477  0.1951  0.0106  0.1808
 6716SOL    HW131784   0.623   2.817   6.524  0.6830 -2.0452 -2.7635
 6716SOL    HW231785   0.596   2.955   6.517  1.4695  2.1402 -1.1653
 6717SOL     OW31786   1.936   3.380   9.543  0.0128 -0.8807  0.2665
 6717SOL    HW131787   1.888   3.407   9.465 -2.6221 -1.3159  1.7291
 6717SOL    HW231788   1.945   3.456   9.601 -1.1708 -0.7403  0.2522
 6718SOL     OW31789   0.847   1.559   7.554  0.3242  0.1800  0.0735
 6718SOL    HW131790   0.784   1.486   7.550  2.1602 -1.4970  1.9047
 6718SOL    HW231791   0.792   1.638   7.557  2.1783  1.3404  4.6304
 6719SOL     OW31792   2.621   0.498   7.216  0.4351  0.1401 -0.2333
 6719SOL    HW131793   2.642   0.448   7.137 -0.7221 -1.3845  0.4275
 6719SOL    HW231794   2.558   0.442   7.261  1.2325 -1.4421 -1.0554
 6720SOL     OW31795   3.716   2.240   8.466 -0.1502 -0.2376 -0.3173
 6720SOL    HW131796   3.641   2.292   8.438  0.0478  0.6749  0.8244
 6720SOL    HW231797   3.744   2.208   8.381  0.4860  1.0066 -0.5741
 6721SOL     OW31798   1.528   0.792   6.530  1.1063 -0.1709  0.2353
 6721SOL    HW131799   1.601   0.846   6.558 -0.8824  1.9519  1.3661
 6721SOL    HW231800   1.555   0.771   6.441 -0.5971  1.3162 -0.6401
 6722SOL     OW31801   1.166   1.600   6.612 -0.5143  0.2864 -0.1410
 6722SOL    HW131802   1.171   1.566   6.701  1.1107  0.5365 -0.1381
 6722SOL    HW231803   1.097   1.664   6.628 -0.3958  0.5015 -0.4861
 6723SOL     OW31804   4.101   4.411   5.932  0.0751 -0.0206  0.2951
 6723SOL    HW131805   4.187   4.450   5.922 -0.0290  0.6147  1.7358
 6723SOL    HW231806   4.090   4.426   6.026  0.1265  3.0943 -0.1925
 6724SOL     OW31807   3.411   1.054   8.178  0.3642 -0.2640 -0.0638
 6724SOL    HW131808   3.415   0.964   8.146  0.5251  0.0637 -0.9658
 6724SOL    HW231809   3.451   1.097   8.102  1.4273  0.4295  0.8976
 6725SOL     OW31810   3.975   4.202   3.527 -0.4296 -0.0614  0.2146
 6725SOL    HW131811   3.901   4.191   3.468 -0.4626 -0.8941  0.4120
 6725SOL    HW231812   3.962   4.286   3.570 -2.2161 -0.6206  0.7631
 6726SOL     OW31813   1.155   3.466   6.241  0.4344 -0.4266 -0.4325
 6726SOL    HW131814   1.093   3.524   6.197  0.5771 -0.3936 -0.5880
 6726SOL    HW231815   1.180   3.527   6.310 -0.2803 -0.4006 -0.1988
 6727SOL     OW31816   1.244   2.883  10.691  0.3706  0.1087  0.3266
 6727SOL    HW131817   1.152   2.903  10.708  0.1219  0.6681 -1.6175
 6727SOL    HW231818   1.277   2.965  10.655  0.3318 -0.9416 -2.1023
 6728SOL     OW31819   3.512   3.300   3.135  0.0787  0.1784 -0.1025
 6728SOL    HW131820   3.574   3.254   3.078 -0.6929  2.2670 -2.6608
 6728SOL    HW231821   3.518   3.385   3.091 -1.8790  0.5054  0.2690
 6729SOL     OW31822   2.649   3.100  13.866  0.1673 -0.2777 -0.5627
 6729SOL    HW131823   2.639   3.194  13.877 -2.1726 -0.6105  0.1778
 6729SOL    HW231824   2.648   3.102  13.770 -1.8116 -0.5980 -0.5480
 6730SOL     OW31825   4.319   1.879   4.771 -0.4491  0.2856  0.8009
 6730SOL    HW131826   4.235   1.899   4.812 -0.8083  4.4688 -1.9162
 6730SOL    HW231827   4.351   1.969   4.776 -3.0764  1.2763 -0.3414
 6731SOL     OW31828   2.202   3.387   9.523  0.2682  0.0534 -0.0297
 6731SOL    HW131829   2.107   3.383   9.518  0.1490  3.5343 -0.5837
 6731SOL    HW231830   2.236   3.299   9.537  1.3357  0.6261  0.9723
 6732SOL     OW31831   1.347   0.468  13.816 -0.3724  0.0275  0.4868
 6732SOL    HW131832   1.416   0.490  13.754 -0.3856  0.1616  0.5185
 6732SOL    HW231833   1.287   0.407  13.774 -0.7784  0.6087  0.2205
 6733SOL     OW31834   2.351   3.099  17.541 -0.5295  0.0175  0.1269
 6733SOL    HW131835   2.265   3.080  17.579 -0.4444 -1.8873 -0.6539
 6733SOL    HW231836   2.357   3.017  17.493 -2.7437 -0.6028  0.9015
 6734SOL     OW31837   1.547   0.296   2.260  0.3958  0.0811 -0.6541
 6734SOL    HW131838   1.469   0.282   2.207  0.5660  0.5038 -1.0200
 6734SOL    HW231839   1.593   0.213   2.250 -0.5405 -0.8484  2.9042
 6735SOL     OW31840   2.565   0.829   3.223 -0.0109 -0.2482 -0.1322
 6735SOL    HW131841   2.516   0.886   3.282  1.4357  1.7627 -0.8556
 6735SOL    HW231842   2.540   0.864   3.137  0.8942  0.3688 -0.1409
 6736SOL     OW31843   3.070   0.980   2.686 -0.2308  1.0614 -0.3631
 6736SOL    HW131844   3.099   0.906   2.632  1.1923  0.3028  1.4505
 6736SOL    HW231845   3.068   1.056   2.628  1.8646  2.5480  1.5107
 6737SOL     OW31846   0.158   1.500   4.064 -0.2341  0.5527 -0.4252
 6737SOL    HW131847   0.196   1.586   4.081  0.7391 -0.1142  0.7830
 6737SOL    HW231848   0.094   1.520   3.996 -0.6639  1.8757  0.3752
 6738SOL     OW31849   0.895   1.128   2.079 -0.7943 -0.5912 -0.0332
 6738SOL    HW131850   0.989   1.110   2.083 -0.2869  1.7634 -1.7902
 6738SOL    HW231851   0.901   1.200   2.142 -2.2366  0.5002 -1.1586
 6739SOL     OW31852   4.036   0.287   2.051 -0.1695  0.0439  0.8719
 6739SOL    HW131853   3.961   0.292   2.110  0.0510 -2.4519  1.3369
 6739SOL    HW231854   3.995   0.229   1.987  0.9719 -0.9534  1.0472
 6740SOL     OW31855   2.807   3.900   7.177 -0.1298 -0.4558 -0.0837
 6740SOL    HW131856   2.846   3.875   7.261 -1.4453 -1.3782  0.2546
 6740SOL    HW231857   2.870   3.864   7.114 -0.2876  0.1832 -0.6088
 6741SOL     OW31858   0.372   0.045  13.484 -0.2218  0.2893 -0.1648
 6741SOL    HW131859   0.312   4.733  13.538  2.1319 -2.6344 -0.3705
 6741SOL    HW231860   0.445   4.723  13.484 -0.3707  0.1027  2.6428
 6742SOL     OW31861   3.249   0.982   6.480 -0.3140  0.0849  0.4543
 6742SOL    HW131862   3.211   1.067   6.460 -0.0916 -0.0806 -0.6688
 6742SOL    HW231863   3.298   0.964   6.400 -3.1347 -0.6733 -1.0740
 6743SOL     OW31864   0.858   1.777   4.712  0.0320  0.1711 -0.5228
 6743SOL    HW131865   0.826   1.723   4.640  1.2489  0.4941 -1.3054
 6743SOL    HW231866   0.818   1.862   4.692  1.5310  0.1932 -3.4055
 6744SOL     OW31867   0.134   1.099   6.815  0.4144  0.3613  0.0113
 6744SOL    HW131868   0.073   1.153   6.866  0.6214 -0.7105  1.3797
 6744SOL    HW231869   0.176   1.167   6.762  0.9522 -0.1924 -0.2753
 6745SOL     OW31870   1.933   3.648   5.967  0.3661 -0.0124 -0.3395
 6745SOL    HW131871   1.848   3.622   6.004 -0.0520  1.1193 -0.5236
 6745SOL    HW231872   1.906   3.629   5.877 -0.6112  1.8098 -0.4229
 6746SOL     OW31873   4.736   4.387  12.700  0.6346  0.6206  0.0116
 6746SOL    HW131874   4.653   4.434  12.708  0.1353 -0.1788 -0.4144
 6746SOL    HW231875   0.044   4.447  12.642  1.9629 -1.3823 -0.9809
 6747SOL     OW31876   3.569   4.114   2.469  0.1906 -0.4745  0.1502
 6747SOL    HW131877   3.543   4.205   2.480 -2.0159 -0.9419 -1.3053
 6747SOL    HW231878   3.482   4.076   2.462 -0.1231  0.5739 -1.5807
 6748SOL     OW31879   0.183   1.559   3.366  0.4117 -0.0218 -0.1020
 6748SOL    HW131880   0.165   1.479   3.417 -0.9274  1.0267  1.0663
 6748SOL    HW231881   0.095   1.596   3.356  0.6924  1.4949  3.1233
 6749SOL     OW31882   4.194   4.166   0.931 -0.1277  0.0254 -0.3793
 6749SOL    HW131883   4.244   4.242   0.901  3.6451 -1.3269  2.4616
 6749SOL    HW231884   4.102   4.192   0.929  0.4111  1.5555 -4.7055
 6750SOL     OW31885   4.576   2.675   4.847 -0.0507  0.6004  0.2743
 6750SOL    HW131886   4.524   2.679   4.767 -0.0439 -0.2962  0.2283
 6750SOL    HW231887   4.574   2.769   4.865 -0.1324  1.0247 -1.9171
 6751SOL     OW31888   1.426   2.861  14.231  0.1196 -0.0078 -0.1022
 6751SOL    HW131889   1.442   2.806  14.307  1.2894 -1.1852 -1.2019
 6751SOL    HW231890   1.519   2.875  14.214  1.1745 -2.0063  4.1015
 6752SOL     OW31891   2.299   1.486  10.898 -0.7299  0.6315  0.4129
 6752SOL    HW131892   2.372   1.531  10.941  0.6744 -0.1790 -1.1324
 6752SOL    HW231893   2.280   1.421  10.965  0.7695  1.0183  1.2046
 6753SOL     OW31894   4.616   0.249   5.265 -0.2855 -0.0749  0.3751
 6753SOL    HW131895   4.662   0.179   5.311  1.0339 -0.1060 -0.9580
 6753SOL    HW231896   4.694   0.305   5.259  0.5642 -1.1396  1.4131
 6754SOL     OW31897   4.555   1.383   9.849 -0.5891  0.0593  0.0604
 6754SOL    HW131898   4.524   1.453   9.792 -1.1524 -1.9890 -2.1297
 6754SOL    HW231899   4.570   1.438   9.926  1.0639  0.2985 -0.4191
 6755SOL     OW31900   1.732   0.635  13.892  0.1935  0.4391  0.3667
 6755SOL    HW131901   1.697   0.583  13.965  0.3659  1.4097  1.1417
 6755SOL    HW231902   1.690   0.597  13.815 -0.2802 -1.4542  1.5456
 6756SOL     OW31903   0.275   0.167   0.694  0.1120 -0.8255 -0.2156
 6756SOL    HW131904   0.258   0.149   0.786 -2.9821 -0.2566 -0.6638
 6756SOL    HW231905   0.370   0.170   0.688  0.1817 -1.4481  0.5362
 6757SOL     OW31906   0.196   1.023  15.973  0.4792 -0.4403 -0.6077
 6757SOL    HW131907   0.211   1.108  16.014 -0.8757 -0.3604 -0.3010
 6757SOL    HW231908   0.101   1.030  15.968  0.5708 -0.2572 -2.3594
 6758SOL     OW31909   2.925   4.135   8.520  0.2927  0.6059  0.2804
 6758SOL    HW131910   2.890   4.219   8.489  0.9149  0.2574 -1.3355
 6758SOL    HW231911   2.850   4.081   8.495  2.7028 -2.7005  0.2087
 6759SOL     OW31912   1.553   1.589   4.646 -0.1315  0.1465 -0.5421
 6759SOL    HW131913   1.630   1.641   4.623  1.1029 -0.8093  1.3822
 6759SOL    HW231914   1.484   1.643   4.609  0.1297 -0.5305 -2.0214
 6760SOL     OW31915   3.376   3.245   4.661 -0.1367 -0.8068  0.1166
 6760SOL    HW131916   3.432   3.322   4.664  1.2143 -1.8419  1.7265
 6760SOL    HW231917   3.285   3.273   4.673  0.2300  0.2463  0.4228
 6761SOL     OW31918   1.257   2.519   7.738  0.0147  0.3763 -0.2584
 6761SOL    HW131919   1.238   2.471   7.658  0.8232 -0.5957  0.1277
 6761SOL    HW231920   1.184   2.580   7.738  1.5905  2.2683 -0.1184
 6762SOL     OW31921   4.559   1.977   9.229 -0.0136  0.2973  0.8904
 6762SOL    HW131922   4.570   2.017   9.315  0.1480  1.0920  0.4939
 6762SOL    HW231923   4.538   1.886   9.253  1.1954  0.7055  3.5174
 6763SOL     OW31924   0.229   2.516   8.829  0.5559  0.1389  0.2857
 6763SOL    HW131925   0.144   2.560   8.835  0.5279  0.0309  0.6641
 6763SOL    HW231926   0.271   2.518   8.915 -0.4798  1.2990  0.7662
 6764SOL     OW31927   4.128   2.780  15.955 -0.4971  0.1535 -0.4110
 6764SOL    HW131928   4.159   2.861  15.995  1.2484 -0.8965  0.3319
 6764SOL    HW231929   4.195   2.758  15.890  1.9452 -0.2614  2.2410
 6765SOL     OW31930   2.117   2.114  15.908 -0.1461  0.7302 -0.4740
 6765SOL    HW131931   2.144   2.146  15.994 -1.5477 -1.6120  0.8201
 6765SOL    HW231932   2.198   2.126  15.859  1.5078  0.9793  2.3461
 6766SOL     OW31933   1.620   1.094   9.564 -0.0425  0.2192 -0.2675
 6766SOL    HW131934   1.597   1.017   9.617 -0.2450 -0.4137 -1.2645
 6766SOL    HW231935   1.715   1.080   9.561 -0.0200  0.1957  0.7341
 6767SOL     OW31936   2.555   3.276   7.561  0.4288  0.3748  0.0647
 6767SOL    HW131937   2.492   3.328   7.511  2.1516  1.1297 -1.3624
 6767SOL    HW231938   2.497   3.235   7.624  0.0664  1.9077  0.7404
 6768SOL     OW31939   4.467   2.646   1.411  0.1236  0.4619  0.3402
 6768SOL    HW131940   4.385   2.694   1.398  0.1787  1.0119  1.9982
 6768SOL    HW231941   4.511   2.690   1.483 -0.6075  2.0572 -0.1847
 6769SOL     OW31942   0.193   1.829   7.825 -0.3403  0.2425 -0.0718
 6769SOL    HW131943   0.190   1.756   7.886  0.8220  0.2146 -0.0390
 6769SOL    HW231944   0.251   1.795   7.757  3.0799  4.1008  0.9117
 6770SOL     OW31945   0.481   2.881   1.800  0.0774 -0.0223 -0.6980
 6770SOL    HW131946   0.499   2.795   1.837 -1.7168  0.1699  0.6149
 6770SOL    HW231947   0.473   2.927   1.884  0.5297 -1.2332  0.0108
 6771SOL     OW31948   4.338   2.287   5.396 -0.1570 -0.0196 -0.2596
 6771SOL    HW131949   4.343   2.333   5.313  1.4042  0.4181  0.0868
 6771SOL    HW231950   4.263   2.318   5.447  3.5400  1.8842  3.9486
 6772SOL     OW31951   1.425   2.064   7.347  0.4753  0.3733  0.1748
 6772SOL    HW131952   1.365   2.045   7.274  1.5204  0.6120 -0.7321
 6772SOL    HW231953   1.362   2.096   7.412 -0.7504 -2.3724  0.3457
 6773SOL     OW31954   3.972   0.544   5.938  0.0490 -0.3265 -0.4121
 6773SOL    HW131955   3.941   0.470   5.990 -0.4435 -1.2930 -2.0935
 6773SOL    HW231956   4.023   0.494   5.874  1.0943 -0.5276  0.5810
 6774SOL     OW31957   4.428   1.594  17.001  0.0544  0.6928 -0.1356
 6774SOL    HW131958   4.359   1.636  17.053 -0.5860 -1.7098  0.9264
 6774SOL    HW231959   4.399   1.628  16.916 -1.4846  0.4667  0.3038
 6775SOL     OW31960   1.883   4.207   7.280  0.7924 -0.1932  0.3246
 6775SOL    HW131961   1.942   4.278   7.304  0.1415  0.9280 -1.4008
 6775SOL    HW231962   1.812   4.224   7.342  0.8115  2.5574 -0.3966
 6776SOL     OW31963   1.639   1.556  14.296  0.5079 -0.3423  0.2669
 6776SOL    HW131964   1.712   1.569  14.357 -1.0085  0.7595  1.8639
 6776SOL    HW231965   1.632   1.646  14.264 -1.2339 -0.6968 -0.3611
 6777SOL     OW31966   0.748   1.319   6.170 -0.5547 -0.8828  0.0740
 6777SOL    HW131967   0.664   1.338   6.129  1.1963  0.9494 -2.6737
 6777SOL    HW231968   0.730   1.368   6.250 -0.5970 -0.3727 -0.2462
 6778SOL     OW31969   4.238   2.406   3.976  0.3646 -0.0481 -0.3769
 6778SOL    HW131970   4.273   2.488   4.012  2.4071 -0.6508 -0.9900
 6778SOL    HW231971   4.183   2.380   4.051  0.0216 -0.0780 -0.6386
 6779SOL     OW31972   1.754   1.891   3.522 -0.6266  1.0471 -0.3091
 6779SOL    HW131973   1.713   1.936   3.448 -0.9414  0.0226 -0.7605
 6779SOL    HW231974   1.841   1.933   3.525  0.1713 -0.7445  1.7248
 6780SOL     OW31975   4.388   1.733   6.262 -0.7636  0.2278 -0.7022
 6780SOL    HW131976   4.333   1.736   6.184  0.8290  3.3178 -1.7129
 6780SOL    HW231977   4.464   1.691   6.223 -0.0580  0.1752  0.7147
 6781SOL     OW31978   1.857   4.581   8.955  0.2813 -0.2305 -0.4254
 6781SOL    HW131979   1.843   4.537   9.039 -0.3792  0.5200 -0.1505
 6781SOL    HW231980   1.940   4.542   8.926 -0.4402 -0.7052 -1.8203
 6782SOL     OW31981   2.950   2.903  15.981 -0.2295  0.3281 -0.2087
 6782SOL    HW131982   2.930   2.920  15.889 -0.0694  1.1012 -0.1013
 6782SOL    HW231983   3.044   2.919  15.971 -0.0939 -0.8069 -0.7746
 6783SOL     OW31984   1.724   1.066   5.377  0.0699 -0.2081 -0.1589
 6783SOL    HW131985   1.650   1.023   5.418 -1.0096  0.3777 -1.4822
 6783SOL    HW231986   1.718   1.160   5.394 -1.7019 -0.0313 -1.7241
 6784SOL     OW31987   3.184   0.575   5.697 -0.6816 -0.1581  0.6148
 6784SOL    HW131988   3.198   0.530   5.614 -2.1143  0.2379  0.1774
 6784SOL    HW231989   3.275   0.601   5.715  0.0986 -2.2030 -0.3322
 6785SOL     OW31990   0.326   1.878   8.674 -0.2784  0.2712  0.1417
 6785SOL    HW131991   0.263   1.912   8.611 -0.6001  0.7139  0.7035
 6785SOL    HW231992   0.379   1.951   8.704  0.4427  0.3434 -1.3034
 6786SOL     OW31993   3.711   3.664  15.454  0.0277  0.1772  0.6184
 6786SOL    HW131994   3.696   3.640  15.363  0.7699 -1.3562  0.9005
 6786SOL    HW231995   3.754   3.748  15.443  1.0646 -0.2770  1.2341
 6787SOL     OW31996   0.421   4.452   9.827  0.3220  0.1443  0.2753
 6787SOL    HW131997   0.454   4.454   9.737 -1.1242  3.3129 -0.1834
 6787SOL    HW231998   0.493   4.484   9.880  0.5971 -0.7830  0.4565
 6788SOL     OW31999   2.139   3.979  16.772  0.5260 -0.5712 -0.0767
 6788SOL    HW132000   2.157   3.983  16.678  1.9123  2.4501  0.3225
 6788SOL    HW232001   2.188   4.049  16.814  0.0399  0.3877 -1.0956
 6789SOL     OW32002   4.211   4.165   5.809 -0.3490  0.0589 -0.0070
 6789SOL    HW132003   4.259   4.225   5.752  1.5283 -1.0930  0.3774
 6789SOL    HW232004   4.167   4.229   5.865  1.1859  0.8614  0.2667
 6790SOL     OW32005   1.904   4.399  13.326  0.0651  0.0352  0.0552
 6790SOL    HW132006   1.922   4.453  13.249  0.0453 -2.0334 -1.4220
 6790SOL    HW232007   1.811   4.419  13.335 -0.8891 -3.5520 -1.6151
 6791SOL     OW32008   1.445   0.123   2.694  0.0651  0.0745 -0.0772
 6791SOL    HW132009   1.359   0.092   2.724 -1.2667  0.8100 -3.1039
 6791SOL    HW232010   1.412   0.204   2.654 -0.4177 -0.0401  0.0896
 6792SOL     OW32011   3.373   2.303   1.363  0.3667  0.0641 -0.0104
 6792SOL    HW132012   3.361   2.396   1.383  1.6905  0.3086 -0.3906
 6792SOL    HW232013   3.431   2.277   1.434 -0.3668 -1.4637  0.0268
 6793SOL     OW32014   0.980   0.536   2.085  0.1732 -0.5173  0.8304
 6793SOL    HW132015   0.972   0.609   2.024  0.0601 -0.4379  0.9395
 6793SOL    HW232016   1.014   0.580   2.162  0.3660 -1.8970  1.5400
 6794SOL     OW32017   3.453   0.356   5.630 -0.3595  0.2625  0.1613
 6794SOL    HW132018   3.408   0.339   5.713 -1.4800 -0.6210 -0.6157
 6794SOL    HW232019   3.385   0.393   5.574  0.2862  1.0457 -0.1067
 6795SOL     OW32020   2.500   1.251   0.808  0.4587 -0.0702  0.2618
 6795SOL    HW132021   2.478   1.259   0.715 -3.4266  2.2543  1.4068
 6795SOL    HW232022   2.444   1.320   0.843  0.4335  0.1388 -0.1866
 6796SOL     OW32023   0.022   3.731  11.946  0.4574  1.1684  0.1010
 6796SOL    HW132024   0.077   3.807  11.926  0.9204  0.6322 -0.7148
 6796SOL    HW232025   0.019   3.682  11.863  0.5409  1.9325 -0.3539
 6797SOL     OW32026   2.179   1.944  13.427 -0.1430  0.2385  0.6418
 6797SOL    HW132027   2.203   2.024  13.381 -0.6224  0.1692  0.2792
 6797SOL    HW232028   2.087   1.935  13.404  0.8003 -0.6868 -2.7653
 6798SOL     OW32029   0.927   2.697   9.032  0.5630  0.2696 -0.2825
 6798SOL    HW132030   0.843   2.690   8.985  0.4971 -0.2677 -0.0786
 6798SOL    HW232031   0.918   2.781   9.078 -0.3919 -0.8170  1.5048
 6799SOL     OW32032   4.391   4.251   7.455  0.6039  0.5020  0.2177
 6799SOL    HW132033   4.428   4.235   7.542  1.8437 -0.8449 -0.5558
 6799SOL    HW232034   4.382   4.346   7.462 -0.4238  0.4009  0.2863
 6800SOL     OW32035   3.697   4.615   6.565 -0.1295 -0.3417  0.1860
 6800SOL    HW132036   3.645   4.545   6.604 -3.1380  1.2123 -1.0840
 6800SOL    HW232037   3.773   4.567   6.531 -1.5639  0.3035 -3.9772
 6801SOL     OW32038   1.023   0.568   4.522 -0.0155 -0.0530 -0.2418
 6801SOL    HW132039   1.083   0.498   4.545  1.5323  0.9404 -1.2303
 6801SOL    HW232040   0.984   0.542   4.438  0.9393 -0.7608 -0.4765
 6802SOL     OW32041   4.587   0.781   2.683 -0.1439 -0.6494 -0.1398
 6802SOL    HW132042   4.618   0.694   2.708 -1.3497 -1.1036 -0.1884
 6802SOL    HW232043   4.578   0.753   2.592 -2.6224 -1.3145  0.3069
 6803SOL     OW32044   3.608   3.613   0.658 -0.1953  0.1904  0.4551
 6803SOL    HW132045   3.680   3.614   0.722 -0.0123  0.4481  0.2451
 6803SOL    HW232046   3.628   3.526   0.623 -1.7356  0.0469 -0.0543
 6804SOL     OW32047   3.860   0.047   9.609 -0.1890 -0.1443 -0.1982
 6804SOL    HW132048   3.795   0.094   9.662  0.9171  0.1458  0.9094
 6804SOL    HW232049   3.938   0.074   9.657  0.2614 -1.5275 -0.1444
 6805SOL     OW32050   0.243   0.327  14.953 -0.0291 -0.2446  0.7997
 6805SOL    HW132051   0.265   0.266  14.882 -0.7744  1.8956 -1.2721
 6805SOL    HW232052   0.151   0.314  14.977 -0.6454 -2.8481 -2.9607
 6806SOL     OW32053   3.992   0.285   1.184 -0.0335  0.6377  0.2112
 6806SOL    HW132054   3.944   0.286   1.102 -2.4828  0.1563  1.6487
 6806SOL    HW232055   3.916   0.310   1.236  0.1955 -0.2959  1.0030
 6807SOL     OW32056   1.528   0.896   6.837 -0.2070  0.1809  0.8677
 6807SOL    HW132057   1.582   0.960   6.883 -2.3612  2.0009  0.8796
 6807SOL    HW232058   1.568   0.898   6.750 -0.0988 -0.7961  0.8989
 6808SOL     OW32059   4.251   2.326   7.033 -0.3254 -0.0107  0.0364
 6808SOL    HW132060   4.336   2.346   7.072 -0.2542 -1.1248  0.4337
 6808SOL    HW232061   4.283   2.284   6.954 -2.7239  1.1582 -1.5697
 6809SOL     OW32062   1.346   1.231   6.714  0.4534 -0.2945  0.0425
 6809SOL    HW132063   1.309   1.149   6.749 -2.1876  1.6722  1.8108
 6809SOL    HW232064   1.375   1.199   6.629 -2.7623 -0.4360 -1.0060
 6810SOL     OW32065   2.414   2.795   2.794  0.2433  0.0709  0.4658
 6810SOL    HW132066   2.337   2.762   2.748  0.3987  0.1575  0.1477
 6810SOL    HW232067   2.434   2.873   2.743  0.5585 -0.7968 -0.7297
 6811SOL     OW32068   0.478   4.481   1.646 -0.2377  0.2245 -0.2789
 6811SOL    HW132069   0.433   4.558   1.679  0.2318  0.9034 -1.2208
 6811SOL    HW232070   0.567   4.494   1.677  0.0932 -1.6545 -0.4186
 6812SOL     OW32071   4.208   1.495   2.316  0.1415 -0.0625  0.0347
 6812SOL    HW132072   4.225   1.448   2.398 -1.1382  1.1698  1.0012
 6812SOL    HW232073   4.145   1.437   2.273  0.2753  1.0100 -1.5762
 6813SOL     OW32074   0.691   2.166   4.673  0.7400  0.3500  0.3205
 6813SOL    HW132075   0.715   2.209   4.590 -0.9460  0.3138 -0.1924
 6813SOL    HW232076   0.603   2.200   4.688  0.4106  0.1258 -1.0781
 6814SOL     OW32077   0.778   0.724  13.635 -0.4149  0.4148  0.7675
 6814SOL    HW132078   0.736   0.729  13.721  0.3777  0.8613  1.1272
 6814SOL    HW232079   0.727   0.788  13.586 -0.7173 -0.3868  0.0138
 6815SOL     OW32080   1.312   1.171   2.618  0.0053 -0.0825  0.4618
 6815SOL    HW132081   1.256   1.225   2.674 -0.5428  0.1460 -0.3033
 6815SOL    HW232082   1.377   1.137   2.680  0.5156 -0.1334 -0.1083
 6816SOL     OW32083   4.347   0.986  10.110  0.3431 -0.7796  0.1960
 6816SOL    HW132084   4.431   1.029  10.093 -0.8724  1.7263  0.6152
 6816SOL    HW232085   4.325   0.952  10.023  0.1662  1.9331 -0.8043
 6817SOL     OW32086   1.332   2.343  14.811  0.3710  0.2758  0.9193
 6817SOL    HW132087   1.352   2.296  14.892 -0.5494 -0.1926  0.8793
 6817SOL    HW232088   1.315   2.270  14.752 -2.4793  0.8179  1.0300
 6818SOL     OW32089   3.856   3.449   2.800  0.4886 -0.2375  0.0829
 6818SOL    HW132090   3.932   3.438   2.744  0.2304  0.7967 -0.4684
 6818SOL    HW232091   3.843   3.544   2.802  2.5298  0.0282  0.1966
 6819SOL     OW32092   4.616   4.199   1.339  0.0812 -0.3066 -0.0413
 6819SOL    HW132093   4.703   4.237   1.323 -0.6260  1.5056  0.4132
 6819SOL    HW232094   4.558   4.243   1.277  0.0019  0.0584  0.2907
 6820SOL     OW32095   0.480   1.708   1.877  0.2794  0.6605 -0.3426
 6820SOL    HW132096   0.488   1.782   1.817  0.7807  0.5827 -0.3718
 6820SOL    HW232097   0.570   1.710   1.909  0.9560 -1.1896 -2.1764
 6821SOL     OW32098   3.746   0.424  12.225  0.3683  0.2449  0.0813
 6821SOL    HW132099   3.686   0.479  12.275 -0.2570 -0.9733  0.6834
 6821SOL    HW232100   3.693   0.345  12.211  2.6375 -1.4323  1.0346
 6822SOL     OW32101   4.265   2.010   2.392  0.7821 -0.7461  0.3768
 6822SOL    HW132102   4.282   1.941   2.455 -0.3894 -1.3913 -0.0262
 6822SOL    HW232103   4.332   1.989   2.326  1.8632 -0.4674  1.3746
 6823SOL     OW32104   1.870   4.197   7.820  0.1599 -0.0182 -0.5796
 6823SOL    HW132105   1.916   4.114   7.808  1.6745  0.3757  2.4819
 6823SOL    HW232106   1.821   4.207   7.738  0.1414  0.7049 -0.4854
 6824SOL     OW32107   2.580   3.206   1.580 -0.3066  0.0094 -0.4373
 6824SOL    HW132108   2.660   3.168   1.543  1.1635  0.0553  2.7579
 6824SOL    HW232109   2.591   3.197   1.674 -0.0059  0.2214 -0.4538
 6825SOL     OW32110   3.251   4.210  17.657  0.4060 -0.1921  0.2418
 6825SOL    HW132111   3.167   4.239  17.621 -0.9794 -3.1925  1.0476
 6825SOL    HW232112   3.255   4.121  17.622  1.5190 -0.9033  2.1693
 6826SOL     OW32113   3.113   2.481   5.140 -0.7816 -0.2867  0.2786
 6826SOL    HW132114   3.033   2.429   5.151 -1.2755  0.4336  0.1062
 6826SOL    HW232115   3.088   2.562   5.184  2.5394 -0.1307  1.8561
 6827SOL     OW32116   0.524   2.971   7.283 -0.0592  0.0413  0.5097
 6827SOL    HW132117   0.434   2.999   7.264  0.1550  1.6982  1.9432
 6827SOL    HW232118   0.573   3.047   7.316  2.6536 -1.0583 -1.0089
 6828SOL     OW32119   2.828   1.304   9.633  0.6066  0.0800 -0.4724
 6828SOL    HW132120   2.737   1.324   9.654  0.4082 -1.0361 -0.2738
 6828SOL    HW232121   2.863   1.378   9.684 -0.7706 -0.4049  1.1745
 6829SOL     OW32122   0.192   4.727   3.591  0.2231  0.1025  0.2149
 6829SOL    HW132123   0.252   4.656   3.568  2.4323  1.9456  0.2553
 6829SOL    HW232124   0.157   0.011   3.505  1.0032  0.5139  0.0088
 6830SOL     OW32125   1.916   0.298   3.389  0.5212 -0.3097  0.4981
 6830SOL    HW132126   1.964   0.305   3.471  3.2322  0.0318 -1.0934
 6830SOL    HW232127   1.958   0.217   3.357 -0.1212 -1.2404  2.0047
 6831SOL     OW32128   4.065   4.118   9.156 -0.1157  0.4894  0.0517
 6831SOL    HW132129   4.134   4.052   9.148  1.4141  2.1052 -0.2831
 6831SOL    HW232130   4.088   4.160   9.239  2.1894  0.3283 -0.4996
 6832SOL     OW32131   4.660   4.607   1.545  0.0031  0.5233 -0.0263
 6832SOL    HW132132   4.571   4.613   1.510  0.5002  1.2140 -1.1927
 6832SOL    HW232133   4.654   4.518   1.580  0.2612  0.5434  0.0691
 6833SOL     OW32134   0.925   4.566  17.398 -0.1194  0.4800  0.3562
 6833SOL    HW132135   1.002   4.574  17.342  0.6583 -0.3855  1.3029
 6833SOL    HW232136   0.867   4.502  17.357 -0.3223  1.7948 -1.4529
 6834SOL     OW32137   2.326   2.464   0.851 -0.1586 -0.4676 -0.4023
 6834SOL    HW132138   2.232   2.480   0.855 -0.5846 -2.6731 -1.7094
 6834SOL    HW232139   2.331   2.373   0.880 -0.1478  0.3735  2.1859
 6835SOL     OW32140   1.423   0.839   0.204 -0.0001  0.2957 -0.3001
 6835SOL    HW132141   1.419   0.934   0.200 -1.7155  0.2498  0.6976
 6835SOL    HW232142   1.334   0.822   0.235  0.3182  0.4203  0.6927
 6836SOL     OW32143   1.903   4.291   8.281  0.1287  0.0827  0.2004
 6836SOL    HW132144   1.966   4.352   8.318  1.6468 -1.2161 -0.2563
 6836SOL    HW232145   1.866   4.351   8.216 -0.9264 -0.7566  0.0283
 6837SOL     OW32146   0.489   3.223   1.668 -0.6820  0.3009 -0.7753
 6837SOL    HW132147   0.424   3.247   1.734  1.3896  2.2747  0.5735
 6837SOL    HW232148   0.459   3.142   1.628 -0.0313 -0.5681  0.4977
 6838SOL     OW32149   2.759   4.147   3.327  0.4458 -0.2004  0.7027
 6838SOL    HW132150   2.754   4.061   3.286  0.8682  0.4207 -0.6792
 6838SOL    HW232151   2.804   4.192   3.255 -2.1287  1.4113  0.1208
 6839SOL     OW32152   2.863   1.976   7.339  0.1701 -0.3828  0.2492
 6839SOL    HW132153   2.912   2.056   7.360 -1.5143  0.7178  0.0050
 6839SOL    HW232154   2.844   1.947   7.428  0.7426 -0.8895  0.2062
 6840SOL     OW32155   2.282   4.004  16.502  0.5134 -0.8094 -0.4914
 6840SOL    HW132156   2.221   3.997  16.428  1.6007 -0.3806 -1.4124
 6840SOL    HW232157   2.323   4.089  16.489 -0.7656 -0.1657 -0.3332
 6841SOL     OW32158   3.406   4.056   4.441  0.0108 -0.1864 -0.2697
 6841SOL    HW132159   3.492   4.028   4.411  1.0648  1.6752  0.9801
 6841SOL    HW232160   3.428   4.086   4.530  0.9075  1.6824 -1.1241
 6842SOL     OW32161   4.265   3.586   7.151  0.6334  0.2021  0.1572
 6842SOL    HW132162   4.175   3.597   7.181  0.6338  1.4308 -0.2981
 6842SOL    HW232163   4.246   3.601   7.058 -3.4034 -1.9708  0.6090
 6843SOL     OW32164   4.247   3.999   4.554  0.6086  0.1750  0.8024
 6843SOL    HW132165   4.245   3.998   4.650  1.7468 -3.4378  0.8062
 6843SOL    HW232166   4.267   4.088   4.525  0.6569 -0.0043  0.2860
 6844SOL     OW32167   0.183   1.051   4.013  0.0721  0.4064 -0.1888
 6844SOL    HW132168   0.151   0.989   4.079  3.0125  1.3497  2.1211
 6844SOL    HW232169   0.189   0.998   3.933 -2.1147  0.1839 -0.1890
 6845SOL     OW32170   4.657   1.240   3.192  0.6583  0.2503 -0.3539
 6845SOL    HW132171   4.639   1.146   3.192  1.5268  0.0840 -1.0309
 6845SOL    HW232172   4.731   1.252   3.133  0.5277 -0.4019 -0.6455
 6846SOL     OW32173   2.082   1.814   2.829 -0.2474 -0.5236  0.4761
 6846SOL    HW132174   2.036   1.762   2.763 -1.7371  1.0978  0.2131
 6846SOL    HW232175   2.032   1.896   2.829 -3.3117 -2.4119 -1.5196
 6847SOL     OW32176   2.530   4.288   2.191  0.2542 -0.2050 -0.1864
 6847SOL    HW132177   2.610   4.315   2.146  0.5844 -0.2966  0.3432
 6847SOL    HW232178   2.468   4.360   2.175 -0.6720 -0.9915 -0.1096
 6848SOL     OW32179   2.817   2.939   9.049 -0.1246  0.3536  0.5331
 6848SOL    HW132180   2.864   2.982   9.121  0.9587  0.7065 -0.3842
 6848SOL    HW232181   2.873   2.868   9.017 -1.2863 -1.0494  1.6157
 6849SOL     OW32182   0.382   1.978   6.202 -0.0576  0.4490 -0.1644
 6849SOL    HW132183   0.304   1.994   6.148 -0.0051  0.2627 -0.2923
 6849SOL    HW232184   0.431   1.921   6.143  0.2953  0.3141  0.2659
 6850SOL     OW32185   4.558   2.864  16.353  0.6170  0.0947  0.3988
 6850SOL    HW132186   4.495   2.928  16.385  0.0122  0.1108 -0.8183
 6850SOL    HW232187   4.552   2.888  16.261 -0.2255 -1.9806 -0.0902
 6851SOL     OW32188   0.343   3.403   0.967  0.4553  0.5662  0.3733
 6851SOL    HW132189   0.329   3.322   0.918  2.1772  0.1040  0.6568
 6851SOL    HW232190   0.435   3.391   0.990  0.8747 -1.0332 -2.0923
 6852SOL     OW32191   2.063   0.403  10.240  0.3764 -0.0294 -0.3511
 6852SOL    HW132192   2.134   0.364  10.290  0.8572 -2.1257 -2.6891
 6852SOL    HW232193   1.984   0.383  10.291  1.7283 -1.2993  1.2494
 6853SOL     OW32194   0.375   2.698   0.620  0.7402  0.2627 -0.0496
 6853SOL    HW132195   0.305   2.642   0.653  1.3287 -0.0458  0.6698
 6853SOL    HW232196   0.445   2.632   0.621  0.1318 -0.3558  1.8123
 6854SOL     OW32197   2.951   3.749   7.379 -0.2163 -0.5546  0.4891
 6854SOL    HW132198   3.036   3.730   7.341  1.4790  2.3722  2.8707
 6854SOL    HW232199   2.961   3.726   7.472  1.4163 -0.9465  0.2035
 6855SOL     OW32200   2.841   4.635   6.985  0.5981 -0.2690 -0.9852
 6855SOL    HW132201   2.852   4.704   7.051  1.6941 -0.3926 -1.0314
 6855SOL    HW232202   2.920   4.654   6.933 -1.0854  1.3990 -2.9626
 6856SOL     OW32203   1.987   3.891   6.667  0.2044 -0.4604 -0.6560
 6856SOL    HW132204   2.020   3.944   6.594  2.0356 -2.0537 -0.9838
 6856SOL    HW232205   2.005   3.799   6.650 -0.5939 -0.1957 -2.9584
 6857SOL     OW32206   0.952   0.350  12.994 -0.3437  0.3107  0.3033
 6857SOL    HW132207   1.016   0.282  12.974  0.1045  0.0157  2.7488
 6857SOL    HW232208   0.887   0.342  12.924  0.8937 -1.5935 -0.6287
 6858SOL     OW32209   0.123   2.530   0.596  0.0049  0.5954  0.3383
 6858SOL    HW132210   0.044   2.583   0.604  0.3764  1.2350 -0.2848
 6858SOL    HW232211   0.090   2.491   0.515 -0.8665 -1.0775  1.4776
 6859SOL     OW32212   2.321   3.077   6.684  0.0088 -0.3306 -0.2826
 6859SOL    HW132213   2.317   2.990   6.643 -1.6156 -0.4342  0.0834
 6859SOL    HW232214   2.246   3.075   6.744  2.2607 -1.2769  2.5143
 6860SOL     OW32215   1.435   4.574   7.141 -0.6744 -0.3956 -0.5156
 6860SOL    HW132216   1.388   4.640   7.090  0.2056  0.8659  0.2818
 6860SOL    HW232217   1.511   4.552   7.087 -0.8567  0.0083 -0.9361
 6861SOL     OW32218   3.029   3.958   7.613 -0.1800 -0.2618 -0.0300
 6861SOL    HW132219   2.953   3.971   7.556  0.3862  0.2199 -0.6830
 6861SOL    HW232220   3.103   3.992   7.563 -0.6335  1.4881  0.4670
 6862SOL     OW32221   2.988   0.345  10.408  0.0612  0.1684 -0.3039
 6862SOL    HW132222   2.917   0.286  10.432  0.2244 -0.3712 -1.1346
 6862SOL    HW232223   3.066   0.289  10.411 -2.2367 -3.0752 -0.0536
 6863SOL     OW32224   3.192   1.441   2.632 -0.5296  0.0912  0.4692
 6863SOL    HW132225   3.237   1.394   2.562 -0.1618  1.1944 -0.0522
 6863SOL    HW232226   3.262   1.477   2.687 -0.6854 -1.9755  1.9773
 6864SOL     OW32227   2.938   3.635   1.831  0.1426  0.2015 -0.4776
 6864SOL    HW132228   2.966   3.547   1.854 -0.1837 -0.1193 -1.3268
 6864SOL    HW232229   2.849   3.625   1.797  0.4244 -3.6024 -0.0404
 6865SOL     OW32230   2.667   3.136   6.713  0.2542 -0.0702 -0.5200
 6865SOL    HW132231   2.679   3.217   6.763  4.2449 -0.0715 -1.5255
 6865SOL    HW232232   2.600   3.088   6.763  0.9371  0.7548  1.1890
 6866SOL     OW32233   3.655   0.942  16.851 -0.2227  0.2641  0.0426
 6866SOL    HW132234   3.656   0.869  16.789  0.9924 -0.7841  1.3198
 6866SOL    HW232235   3.650   1.019  16.794 -0.4499 -1.0696 -1.7695
 6867SOL     OW32236   2.918   4.309   2.728  0.9279 -0.1024  0.3221
 6867SOL    HW132237   2.881   4.357   2.803 -0.2154 -0.1085 -0.2345
 6867SOL    HW232238   2.836   4.282   2.687  0.9171  1.1354 -0.4779
 6868SOL     OW32239   1.250   0.000   3.964  0.0935  0.4777 -0.0215
 6868SOL    HW132240   1.186   0.011   3.893 -0.3050  2.5070  0.6433
 6868SOL    HW232241   1.209   4.660   3.998  1.6934 -1.0739 -1.7860
 6869SOL     OW32242   0.765   2.882   5.612 -0.0086 -0.5000 -0.6816
 6869SOL    HW132243   0.736   2.793   5.591  2.5437 -1.6973  0.8853
 6869SOL    HW232244   0.856   2.873   5.583  0.2092 -0.1066 -0.1200
 6870SOL     OW32245   4.028   3.704   6.123 -0.1845 -0.0192  0.8467
 6870SOL    HW132246   4.098   3.663   6.073 -0.6907 -0.4808  0.5053
 6870SOL    HW232247   4.049   3.790   6.087  0.9619 -1.4745 -1.9300
 6871SOL     OW32248   3.251   2.266   3.926 -0.9824 -0.5009  0.1679
 6871SOL    HW132249   3.223   2.202   3.861  0.0120 -1.1121  0.3395
 6871SOL    HW232250   3.209   2.225   4.002 -0.4831 -1.7040 -0.2033
 6872SOL     OW32251   3.470   2.164   3.084  0.0449 -0.1226  0.3230
 6872SOL    HW132252   3.508   2.090   3.131  0.7062 -0.1880 -0.3127
 6872SOL    HW232253   3.398   2.119   3.040  0.7560 -1.5764  0.6495
 6873SOL     OW32254   0.868   0.747  16.695 -0.4625  0.4752  0.2404
 6873SOL    HW132255   0.961   0.767  16.700 -0.0540 -1.5806  1.1873
 6873SOL    HW232256   0.859   0.699  16.778  2.8982  2.3183  1.6859
 6874SOL     OW32257   3.999   1.809  16.318 -0.1339  0.1193 -0.6075
 6874SOL    HW132258   4.026   1.774  16.403  0.2231  0.0899 -0.7292
 6874SOL    HW232259   3.921   1.861  16.335 -0.2305 -0.2806  0.1638
 6875SOL     OW32260   3.715   4.050  15.590  0.1120 -0.4838 -0.2326
 6875SOL    HW132261   3.640   4.095  15.549 -0.6888 -1.5268  0.1004
 6875SOL    HW232262   3.754   4.126  15.634 -1.9264  0.0954  0.5663
 6876SOL     OW32263   3.322   4.308   1.638  0.1322  0.1579  0.2343
 6876SOL    HW132264   3.231   4.322   1.614  0.2653 -1.8033 -1.4022
 6876SOL    HW232265   3.357   4.394   1.661 -1.1118  1.2731 -2.0660
 6877SOL     OW32266   0.163   3.437   8.954 -0.2733  0.2972  0.4505
 6877SOL    HW132267   0.188   3.347   8.975 -0.8452  0.1035  0.3150
 6877SOL    HW232268   0.070   3.419   8.936  0.2110 -0.2590 -1.4957
 6878SOL     OW32269   2.993   3.317  12.148 -0.0006 -0.1353 -0.0022
 6878SOL    HW132270   2.935   3.375  12.197  0.2041 -0.8025  1.0445
 6878SOL    HW232271   2.937   3.262  12.095 -0.5878 -1.4666  2.0011
 6879SOL     OW32272   4.129   4.625  10.982 -0.3629 -0.2052  0.2249
 6879SOL    HW132273   4.195   4.670  11.034 -0.3368 -0.5003  0.4451
 6879SOL    HW232274   4.081   4.699  10.946 -0.3308  0.2274  1.0703
 6880SOL     OW32275   1.855   1.520   7.831  0.1924  0.0595  0.0860
 6880SOL    HW132276   1.862   1.563   7.746 -1.2685  0.8668  0.3693
 6880SOL    HW232277   1.940   1.478   7.817 -0.2570  0.0155 -2.5554
 6881SOL     OW32278   2.653   3.935   5.750  0.1521  0.3015  0.0508
 6881SOL    HW132279   2.676   4.026   5.730 -0.8610  0.5698  0.1304
 6881SOL    HW232280   2.570   3.938   5.796  1.3730 -0.7861  2.3246
 6882SOL     OW32281   1.705   4.105  10.798 -0.4367 -0.0696  0.0040
 6882SOL    HW132282   1.640   4.149  10.742  0.5254  1.1845 -0.1150
 6882SOL    HW232283   1.677   4.013  10.792 -1.3812  0.1667  0.7131
 6883SOL     OW32284   4.389   3.050   7.440  0.5050 -0.5163  0.1810
 6883SOL    HW132285   4.393   3.121   7.376  0.2583 -0.5552  0.1224
 6883SOL    HW232286   4.462   3.072   7.497 -1.2473 -0.2223  2.2750
 6884SOL     OW32287   3.987   3.636   4.765 -0.1245 -0.6196 -0.1590
 6884SOL    HW132288   3.975   3.696   4.838  0.9415 -0.1582 -0.3709
 6884SOL    HW232289   4.083   3.634   4.759 -0.2777 -0.9282 -2.5730
 6885SOL     OW32290   2.196   1.984   3.965  0.2637  0.4677 -0.5601
 6885SOL    HW132291   2.150   1.902   3.981  2.5297 -0.6464  0.3063
 6885SOL    HW232292   2.281   1.950   3.936 -0.3538 -1.2130 -0.3887
 6886SOL     OW32293   0.681   4.469   6.611 -0.0238  0.0031 -0.1649
 6886SOL    HW132294   0.672   4.376   6.591  0.0794 -0.9112  4.0332
 6886SOL    HW232295   0.668   4.460   6.705 -0.6458 -0.6388 -0.3139
 6887SOL     OW32296   3.229   4.225  13.271  0.0323  0.3418 -0.2303
 6887SOL    HW132297   3.267   4.163  13.208 -1.0099 -1.3125  0.7664
 6887SOL    HW232298   3.144   4.248  13.235 -0.4967 -1.4356 -0.1420
 6888SOL     OW32299   1.894   0.468   8.547 -0.8504 -0.2354  0.0454
 6888SOL    HW132300   1.832   0.508   8.608 -0.9192 -0.3767  0.0687
 6888SOL    HW232301   1.833   0.464   8.473 -1.8870 -0.4273  0.8941
 6889SOL     OW32302   0.668   3.653   2.807  0.3406  0.5038  0.4059
 6889SOL    HW132303   0.735   3.668   2.873  0.6126 -0.4576  0.3607
 6889SOL    HW232304   0.608   3.590   2.846 -1.3622  0.2110 -2.6662
 6890SOL     OW32305   0.401   2.052   7.267 -0.2281 -0.3394  0.5395
 6890SOL    HW132306   0.323   2.085   7.223  1.7413  1.2185 -1.7840
 6890SOL    HW232307   0.468   2.094   7.213  0.0284  0.8633  1.7967
 6891SOL     OW32308   4.425   3.421   8.870  0.5349 -0.0092  0.3051
 6891SOL    HW132309   4.472   3.486   8.818 -2.7254  3.6098  2.0021
 6891SOL    HW232310   4.498   3.359   8.880 -0.3016 -1.4635 -2.3846
 6892SOL     OW32311   3.319   2.539   7.374 -0.1390 -0.5921  0.1446
 6892SOL    HW132312   3.330   2.615   7.316  2.6542 -0.7494  0.4283
 6892SOL    HW232313   3.316   2.472   7.305 -2.5370 -0.5172  0.1813
 6893SOL     OW32314   4.286   0.240   2.146 -0.3425 -0.6273  0.2933
 6893SOL    HW132315   4.202   0.272   2.112 -0.3211 -0.0544  0.7705
 6893SOL    HW232316   4.250   0.169   2.199 -0.5813  0.3341  1.4030
 6894SOL     OW32317   2.391   2.006   1.806 -0.1372  0.6098  0.9734
 6894SOL    HW132318   2.461   2.044   1.858  1.0045 -2.0112  1.3739
 6894SOL    HW232319   2.324   2.005   1.874  0.2267 -2.0149  1.3045
 6895SOL     OW32320   1.624   2.310   6.108 -0.0667 -0.4283  0.1298
 6895SOL    HW132321   1.680   2.351   6.042  2.4547  0.3823  2.7823
 6895SOL    HW232322   1.628   2.375   6.178  2.1088 -1.3119  0.8246
 6896SOL     OW32323   4.250   3.936   2.650 -0.6613  0.2645 -0.0771
 6896SOL    HW132324   4.241   3.953   2.744  0.9639 -2.5602  0.5706
 6896SOL    HW232325   4.280   3.846   2.653 -1.4342  0.0647  1.9533
 6897SOL     OW32326   1.888   1.110   8.670 -0.5135 -0.4768  0.4016
 6897SOL    HW132327   1.901   1.048   8.599  1.0571  2.3671 -1.7652
 6897SOL    HW232328   1.798   1.134   8.648  0.0138 -0.9946 -2.3213
 6898SOL     OW32329   1.652   3.420   1.506  0.2087 -0.7854  0.5582
 6898SOL    HW132330   1.622   3.459   1.424  1.4021  0.0545  0.5190
 6898SOL    HW232331   1.695   3.502   1.531 -3.2923  1.3287 -0.3360
 6899SOL     OW32332   3.833   2.984  13.430  0.0472  0.1286  0.1661
 6899SOL    HW132333   3.751   2.937  13.417 -0.5782  0.9694  1.0337
 6899SOL    HW232334   3.899   2.920  13.457 -0.0700 -0.2720 -0.5013
 6900SOL     OW32335   0.304   0.009   0.111 -0.3125  0.1660 -0.6720
 6900SOL    HW132336   0.226   4.719   0.065 -0.7240  2.3461 -1.4022
 6900SOL    HW232337   0.324   0.079   0.049 -1.8312  2.1993  1.1492
 6901SOL     OW32338   1.200   0.316  12.060 -0.1666 -0.9354  0.0730
 6901SOL    HW132339   1.187   0.295  11.968  1.8259  0.8693 -0.6232
 6901SOL    HW232340   1.148   0.254  12.111  0.6891 -2.4186 -0.8693
 6902SOL     OW32341   4.088   2.868   5.913  0.0014  0.3804  0.2227
 6902SOL    HW132342   4.166   2.919   5.894  2.0210 -3.2724 -1.4711
 6902SOL    HW232343   4.023   2.934   5.889  0.5483  0.8280 -0.0089
 6903SOL     OW32344   3.694   1.494   9.187  0.0525 -0.1405  0.0162
 6903SOL    HW132345   3.679   1.506   9.094 -0.3273  0.1738  0.1158
 6903SOL    HW232346   3.674   1.402   9.204 -2.7033 -0.0510 -2.7559
 6904SOL     OW32347   3.188   2.685   5.986 -0.2321  0.4892  0.3801
 6904SOL    HW132348   3.156   2.746   6.053  0.2640  0.2667  0.8187
 6904SOL    HW232349   3.111   2.699   5.931  0.4296 -0.6658 -0.8328
 6905SOL     OW32350   4.519   2.608   3.873 -0.1745 -0.5342 -0.0472
 6905SOL    HW132351   4.432   2.646   3.885  0.0675 -0.7375  2.2769
 6905SOL    HW232352   4.571   2.647   3.943  1.5131  0.5613 -1.9274
 6906SOL     OW32353   1.040   0.237  12.299 -0.5497 -0.3761 -0.2779
 6906SOL    HW132354   1.038   0.328  12.330  0.3155 -1.1199  1.9758
 6906SOL    HW232355   1.098   0.196  12.363  0.2689 -2.1109 -2.1614
 6907SOL     OW32356   1.637   3.353  12.436  0.5672  0.0513  0.2889
 6907SOL    HW132357   1.556   3.303  12.428  1.1488 -1.1485  1.9253
 6907SOL    HW232358   1.604   3.426  12.489 -0.8145  0.4960 -1.1892
 6908SOL     OW32359   3.267   2.235   5.147 -0.3526  0.0681  0.5022
 6908SOL    HW132360   3.310   2.247   5.062  0.8116  0.0067  1.0722
 6908SOL    HW232361   3.224   2.321   5.147 -1.2620 -0.3802 -0.9446
 6909SOL     OW32362   3.850   0.310   7.527  0.6615  0.1387  0.1766
 6909SOL    HW132363   3.773   0.365   7.534 -1.2091 -2.7226  2.1864
 6909SOL    HW232364   3.806   0.230   7.497  0.8375 -0.3853  1.3099
 6910SOL     OW32365   2.455   0.954   8.812 -0.3720  0.5707  0.2134
 6910SOL    HW132366   2.481   0.863   8.829 -0.2749  0.1576 -2.1251
 6910SOL    HW232367   2.544   0.985   8.796  0.2993 -1.3632  0.1211
 6911SOL     OW32368   3.919   0.986   3.814 -0.0041  0.1180  0.2190
 6911SOL    HW132369   3.933   0.950   3.902  1.2393  0.0478 -0.0167
 6911SOL    HW232370   3.850   1.052   3.828 -0.4329 -0.3617  0.3654
 6912SOL     OW32371   0.946   4.513  16.936  0.2360  0.0102  0.1533
 6912SOL    HW132372   1.009   4.573  16.975  0.1942  0.8821 -1.0996
 6912SOL    HW232373   0.927   4.458  17.012 -3.1977  1.5749  0.4361
 6913SOL     OW32374   1.825   3.723  14.510 -0.5553 -0.4609  0.2943
 6913SOL    HW132375   1.890   3.679  14.456  0.9631  1.3222  0.6837
 6913SOL    HW232376   1.873   3.749  14.588  1.9631 -1.2690 -0.9968
 6914SOL     OW32377   1.716   1.795   2.900  0.3869  0.1331  0.7282
 6914SOL    HW132378   1.665   1.770   2.822  2.7527 -2.7758  0.1190
 6914SOL    HW232379   1.714   1.886   2.871  0.2075 -0.4209 -1.0282
 6915SOL     OW32380   2.992   2.821   1.921  0.2115  1.0477  0.0657
 6915SOL    HW132381   2.971   2.796   1.831  1.0162  2.6208 -0.5676
 6915SOL    HW232382   2.915   2.790   1.968  0.3815  0.9391  0.2728
 6916SOL     OW32383   4.187   1.692  11.456  0.3703 -0.2280  0.2477
 6916SOL    HW132384   4.242   1.722  11.529  1.9178  1.8998 -1.7923
 6916SOL    HW232385   4.100   1.720  11.484 -0.2586 -1.8687 -0.0700
 6917SOL     OW32386   0.828   2.141   3.945 -0.9471  0.2720 -0.4544
 6917SOL    HW132387   0.751   2.197   3.950 -1.8871 -0.8855 -2.0293
 6917SOL    HW232388   0.803   2.066   3.998 -1.4405  1.5360  1.1023
 6918SOL     OW32389   2.570   1.202   2.444 -0.1125  0.1065 -0.1124
 6918SOL    HW132390   2.571   1.262   2.370  1.8446  1.1616  0.7971
 6918SOL    HW232391   2.512   1.245   2.507 -1.3330  0.9638 -1.8280
 6919SOL     OW32392   0.440   1.188   6.855 -0.3062  0.2310  0.2989
 6919SOL    HW132393   0.394   1.121   6.804  0.0841 -1.1992  1.8615
 6919SOL    HW232394   0.525   1.146   6.866 -0.6005 -0.9505 -1.8082
 6920SOL     OW32395   1.967   3.207   6.612 -0.0903 -0.1145 -0.9857
 6920SOL    HW132396   1.878   3.240   6.600 -1.0868 -2.2894  0.3290
 6920SOL    HW232397   1.965   3.168   6.700 -0.1902 -1.7007 -1.6792
 6921SOL     OW32398   3.433   1.695   8.310  0.0849  0.2956  0.2064
 6921SOL    HW132399   3.399   1.736   8.390 -1.4190 -2.2954  0.8941
 6921SOL    HW232400   3.372   1.740   8.251  1.0584  1.6972  0.2681
 6922SOL     OW32401   2.882   1.849   6.211 -0.1516  0.3727  0.2003
 6922SOL    HW132402   2.914   1.875   6.124  2.3699 -0.1773  0.9575
 6922SOL    HW232403   2.944   1.782   6.239  1.4782  2.1647  0.8725
 6923SOL     OW32404   1.099   3.987   4.984 -0.1511  0.0791 -0.2908
 6923SOL    HW132405   1.023   3.936   5.011 -0.6215  0.5217 -0.7761
 6923SOL    HW232406   1.125   3.940   4.904  1.8040 -1.7710  1.4155
 6924SOL     OW32407   4.178   1.358  10.755 -0.0070  0.3001  0.1130
 6924SOL    HW132408   4.210   1.348  10.666 -0.7289  0.4267 -0.1639
 6924SOL    HW232409   4.084   1.339  10.750 -0.3890  1.9513  1.0232
 6925SOL     OW32410   0.670   3.535   0.636  0.6455  0.1747  0.5553
 6925SOL    HW132411   0.576   3.530   0.654  0.3852 -0.1274 -0.8393
 6925SOL    HW232412   0.694   3.586   0.713 -3.4634  1.5112  0.9189
 6926SOL     OW32413   0.121   4.173   0.691  0.4310  0.0867  0.4736
 6926SOL    HW132414   0.186   4.230   0.733  1.9354 -0.7766 -0.6833
 6926SOL    HW232415   0.114   4.195   0.598  0.1351  0.4911  0.5944
 6927SOL     OW32416   2.565   1.861   5.547 -0.3132  0.2635 -0.3401
 6927SOL    HW132417   2.544   1.948   5.582 -0.1870 -0.1575  0.7547
 6927SOL    HW232418   2.509   1.809   5.604 -0.0082  1.1297  0.7391
 6928SOL     OW32419   3.440   4.200   4.661 -0.3160  0.3223  0.0846
 6928SOL    HW132420   3.447   4.226   4.753  3.2970  0.0190 -0.1069
 6928SOL    HW232421   3.495   4.260   4.611  0.9179 -0.7879  0.0994
 6929SOL     OW32422   0.931   1.680  11.594 -0.0184 -0.3602 -0.2569
 6929SOL    HW132423   0.846   1.692  11.637 -0.4538 -1.4041 -0.8192
 6929SOL    HW232424   0.902   1.663  11.504 -0.2599  0.1800 -0.2774
 6930SOL     OW32425   0.699   2.552   7.231 -0.1407  0.9813 -0.3989
 6930SOL    HW132426   0.776   2.560   7.174  0.6360 -0.5345  0.4287
 6930SOL    HW232427   0.659   2.633   7.200 -3.2339 -0.6272 -0.5705
 6931SOL     OW32428   2.302   4.541   2.455 -0.0626 -0.2394  0.8061
 6931SOL    HW132429   2.269   4.528   2.544 -0.4546  1.1147  0.8541
 6931SOL    HW232430   2.261   4.463   2.417 -0.9841 -0.7348  2.8008
 6932SOL     OW32431   1.926   4.696   9.411  0.4560 -0.3906 -0.0858
 6932SOL    HW132432   1.851   4.653   9.452  0.4990 -0.9715 -0.6120
 6932SOL    HW232433   1.897   4.719   9.323  3.2468  0.2605 -0.8484
 6933SOL     OW32434   4.707   1.274   4.824 -0.2399  0.2971  0.5803
 6933SOL    HW132435   4.681   1.300   4.913  1.0629 -0.7910  1.2645
 6933SOL    HW232436   4.691   1.180   4.823 -1.6952  0.5373  1.7153
 6934SOL     OW32437   3.299   1.830   8.525 -0.0390  0.4870  0.2816
 6934SOL    HW132438   3.213   1.787   8.527  1.3748 -2.4797 -2.1912
 6934SOL    HW232439   3.284   1.916   8.564 -1.4673 -0.0654  0.9374
 6935SOL     OW32440   1.836   0.976  12.631 -0.2987  0.3947 -0.0217
 6935SOL    HW132441   1.842   1.052  12.573  0.2514 -1.1361 -1.9555
 6935SOL    HW232442   1.904   1.007  12.692 -0.1350  0.5364 -0.2756
 6936SOL     OW32443   1.815   2.768   5.041 -0.0682 -0.2556 -0.0605
 6936SOL    HW132444   1.869   2.842   5.011  0.6174 -0.7978 -0.1495
 6936SOL    HW232445   1.874   2.693   5.037  0.0922 -0.1463  0.2621
 6937SOL     OW32446   1.320   1.357   1.754 -0.7280  0.5084  0.5159
 6937SOL    HW132447   1.355   1.314   1.832  1.8933 -1.8909 -1.9929
 6937SOL    HW232448   1.397   1.352   1.697 -2.2088 -0.9891 -1.3670
 6938SOL     OW32449   3.946   2.868  17.425  0.2900  0.1037 -0.0856
 6938SOL    HW132450   3.949   2.789  17.479  0.1076 -1.2758 -2.1228
 6938SOL    HW232451   3.901   2.841  17.345 -0.1145 -2.1260  0.8816
 6939SOL     OW32452   0.918   1.611   6.918  0.5688  1.1444 -0.6284
 6939SOL    HW132453   0.926   1.641   6.828 -0.3717  0.7486 -0.8523
 6939SOL    HW232454   0.826   1.604   6.945  1.1707 -0.4151  1.0307
 6940SOL     OW32455   4.597   3.097  12.181  0.3154  0.1329 -0.0028
 6940SOL    HW132456   4.509   3.073  12.212  0.1624 -0.5121 -0.9430
 6940SOL    HW232457   4.595   3.074  12.088  2.1909  0.5928 -0.1437
 6941SOL     OW32458   0.582   2.214   4.202  0.1048  0.5841  0.3279
 6941SOL    HW132459   0.663   2.164   4.198 -0.5997 -0.4883 -0.8089
 6941SOL    HW232460   0.596   2.267   4.280  1.9359  1.2529 -0.4712
 6942SOL     OW32461   0.900   4.625   7.005 -0.3097  0.1778  0.0172
 6942SOL    HW132462   0.933   4.696   6.951  1.4199 -0.2551  0.5284
 6942SOL    HW232463   0.883   4.673   7.086 -0.0018  1.5165 -0.7187
 6943SOL     OW32464   3.410   1.145   2.639  0.2281 -0.5467  0.1207
 6943SOL    HW132465   3.337   1.133   2.700 -1.0859 -0.8019 -1.4765
 6943SOL    HW232466   3.434   1.237   2.643  0.0647 -0.5202  0.4735
 6944SOL     OW32467   1.735   0.167  11.220 -0.2157 -0.3424 -0.6942
 6944SOL    HW132468   1.826   0.139  11.221 -0.8536 -2.4848 -2.7904
 6944SOL    HW232469   1.742   0.251  11.266  1.4625 -0.6011 -0.5054
 6945SOL     OW32470   3.391   1.329   2.880 -0.0194  0.0349  0.1644
 6945SOL    HW132471   3.403   1.420   2.907  2.2730 -0.4330  0.6606
 6945SOL    HW232472   3.316   1.306   2.935 -0.3732  2.2634  0.6315
 6946SOL     OW32473   0.398   2.881   7.863 -0.3432  0.0591 -0.4596
 6946SOL    HW132474   0.386   2.820   7.936 -0.4544  0.1279 -0.4196
 6946SOL    HW232475   0.319   2.935   7.874  0.8650  1.9623 -1.2418
 6947SOL     OW32476   1.721   1.593   7.296 -0.4079  0.0035 -0.2647
 6947SOL    HW132477   1.711   1.568   7.204 -0.6261  0.6936 -0.4313
 6947SOL    HW232478   1.814   1.612   7.295 -0.3664 -0.1740  0.5959
 6948SOL     OW32479   0.804   1.461   9.606  0.5932 -0.3969  0.5285
 6948SOL    HW132480   0.744   1.396   9.643  0.4094  0.3839  1.5995
 6948SOL    HW232481   0.766   1.544   9.636  0.8559 -0.1855  0.2736
 6949SOL     OW32482   0.418   2.786  11.253  0.0803  0.5656 -0.4899
 6949SOL    HW132483   0.510   2.812  11.252  0.9935 -2.7563 -0.2866
 6949SOL    HW232484   0.388   2.862  11.303  1.0134 -0.7893  2.0802
 6950SOL     OW32485   2.129   2.550  17.076  0.0009 -0.0084 -0.3881
 6950SOL    HW132486   2.191   2.618  17.102 -1.5316  1.0282  0.6102
 6950SOL    HW232487   2.112   2.507  17.159 -0.5675 -0.0691 -0.5323
 6951SOL     OW32488   4.645   3.564   2.349  0.1820 -0.4149  0.1119
 6951SOL    HW132489   4.610   3.600   2.267  0.2237 -1.3061 -0.3025
 6951SOL    HW232490   0.001   3.565   2.344  0.2763 -0.6040  1.9467
 6952SOL     OW32491   3.887   0.607  15.107  1.0070 -0.5612 -0.2279
 6952SOL    HW132492   3.948   0.612  15.034 -0.1316  2.3902 -0.9684
 6952SOL    HW232493   3.832   0.685  15.098 -0.1088 -0.9521  3.2395
 6953SOL     OW32494   3.098   3.792   6.687  0.1394  0.5784 -0.1113
 6953SOL    HW132495   3.034   3.751   6.628  0.1441 -0.9114  0.9170
 6953SOL    HW232496   3.037   3.846   6.736 -0.2403 -1.2579  1.4566
 6954SOL     OW32497   2.908   1.337   2.797 -0.0677  0.2544  0.3587
 6954SOL    HW132498   2.822   1.335   2.754 -0.4993 -0.1999  1.2518
 6954SOL    HW232499   2.922   1.430   2.817  2.2061  0.1679 -0.8029
 6955SOL     OW32500   2.363   0.579   5.676 -0.5279  0.2501 -0.3890
 6955SOL    HW132501   2.315   0.497   5.685  2.2944 -1.4669 -1.0021
 6955SOL    HW232502   2.429   0.552   5.612 -1.4682  0.2156 -1.3382
 6956SOL     OW32503   2.218   4.276   2.074  0.5274 -0.0493  0.1757
 6956SOL    HW132504   2.268   4.213   2.022  0.3516 -0.8796  1.0054
 6956SOL    HW232505   2.145   4.299   2.018  0.3349  0.6964  0.7372
 6957SOL     OW32506   3.268   2.767   6.646  0.0669 -0.0311 -0.3852
 6957SOL    HW132507   3.289   2.717   6.568 -2.5109 -0.9268 -0.4893
 6957SOL    HW232508   3.210   2.839   6.620  1.8741  1.9019  0.9324
 6958SOL     OW32509   0.140   2.223  14.176  0.4325  0.2148  0.1372
 6958SOL    HW132510   0.053   2.223  14.216  0.3872  0.7497  0.0285
 6958SOL    HW232511   0.182   2.297  14.219 -1.0512 -0.1763  2.2457
 6959SOL     OW32512   1.457   3.227  11.662 -0.0423  0.2804 -0.4116
 6959SOL    HW132513   1.441   3.272  11.579  1.0668  0.4544 -0.5431
 6959SOL    HW232514   1.395   3.273  11.718  1.0874  0.6186  0.5740
 6960SOL     OW32515   0.380   4.072   2.188 -0.1980  0.0777  0.0502
 6960SOL    HW132516   0.453   4.058   2.249  0.0126  0.3077 -0.1491
 6960SOL    HW232517   0.416   4.096   2.102  1.4996 -0.5562  0.5890
 6961SOL     OW32518   4.505   2.483   3.215 -0.0626  0.0911 -0.1315
 6961SOL    HW132519   4.467   2.399   3.241 -0.8906  0.4233 -0.2674
 6961SOL    HW232520   4.481   2.532   3.293 -1.0091  2.9921 -2.2464
 6962SOL     OW32521   1.486   3.802   7.977 -0.4267  0.2083  0.2684
 6962SOL    HW132522   1.533   3.885   7.974  1.0259 -0.6111  0.2990
 6962SOL    HW232523   1.555   3.740   7.952 -3.0094 -3.2015  1.6706
 6963SOL     OW32524   4.176   0.637  12.399 -0.2307  0.2997 -0.5033
 6963SOL    HW132525   4.182   0.732  12.401  1.0486  0.1493  2.3382
 6963SOL    HW232526   4.081   0.621  12.403  0.0247 -0.7883  1.2059
 6964SOL     OW32527   4.071   2.352   3.019  0.0803 -0.0556  0.3299
 6964SOL    HW132528   4.048   2.351   2.926 -3.3548 -2.4372  1.2219
 6964SOL    HW232529   4.017   2.423   3.055 -0.4187 -0.5166  0.4786
 6965SOL     OW32530   2.634   3.482   0.847 -0.0268 -0.0273 -0.9130
 6965SOL    HW132531   2.574   3.557   0.847  2.8342  2.2641 -0.0466
 6965SOL    HW232532   2.706   3.521   0.897  0.1207 -2.2659  0.6175
 6966SOL     OW32533   3.826   2.931   6.945  0.2758 -0.5003  0.6579
 6966SOL    HW132534   3.786   2.848   6.971  0.9692 -0.8102  0.7202
 6966SOL    HW232535   3.918   2.909   6.950 -0.3004 -3.5158 -2.1915
 6967SOL     OW32536   4.466   1.314  11.198  0.3080  0.0200  0.3733
 6967SOL    HW132537   4.489   1.397  11.239  1.1517 -0.3330  0.6001
 6967SOL    HW232538   4.416   1.348  11.123  2.0057  0.7271 -0.4403
 6968SOL     OW32539   0.025   1.575   1.632  0.2533  0.1915  0.8670
 6968SOL    HW132540   4.692   1.635   1.615  0.3693  0.2749  0.6622
 6968SOL    HW232541   0.085   1.619   1.692  0.0980  1.3722  0.1693
 6969SOL     OW32542   0.032   3.421   1.834 -0.7437  0.4883 -0.0216
 6969SOL    HW132543   0.052   3.514   1.842 -0.5807  0.3959  0.6606
 6969SOL    HW232544   0.029   3.393   1.925  2.9828 -0.7207 -0.2662
 6970SOL     OW32545   1.210   0.563   7.993  0.8273  0.4790 -0.0228
 6970SOL    HW132546   1.180   0.473   7.975 -1.3653  1.0814  0.5605
 6970SOL    HW232547   1.186   0.576   8.084  0.1400 -0.7195 -0.0326
 6971SOL     OW32548   4.034   4.671   0.942  0.0853  0.0601 -0.5521
 6971SOL    HW132549   4.009   4.612   0.872  0.2637  0.0595 -0.6156
 6971SOL    HW232550   3.953   4.715   0.967 -0.1042 -1.1041  0.9004
 6972SOL     OW32551   1.467   2.348   9.614  0.4420  0.3237  0.4225
 6972SOL    HW132552   1.428   2.430   9.586 -0.3078  0.1985  1.0924
 6972SOL    HW232553   1.429   2.284   9.554  0.3479  1.2278 -0.4775
 6973SOL     OW32554   4.120   1.718   8.870  0.3394  0.0524 -0.1277
 6973SOL    HW132555   4.144   1.638   8.823  1.5189 -0.2699  1.0121
 6973SOL    HW232556   4.056   1.755   8.810  1.8014  1.5406 -0.7585
 6974SOL     OW32557   1.584   0.359   5.550  0.2759 -0.3895  0.5924
 6974SOL    HW132558   1.533   0.279   5.543  2.1453 -1.3708 -1.6875
 6974SOL    HW232559   1.528   0.407   5.611 -0.7256 -0.1951 -0.4915
 6975SOL     OW32560   0.237   2.635  10.309 -0.4665  0.1100  0.1428
 6975SOL    HW132561   0.234   2.647  10.404 -2.2590 -0.8800  0.2040
 6975SOL    HW232562   0.319   2.587  10.301 -2.0055 -2.3675 -0.8744
 6976SOL     OW32563   4.263   2.679  12.561 -0.1675  0.1627  0.0495
 6976SOL    HW132564   4.293   2.708  12.648 -0.5944 -0.1315  0.2911
 6976SOL    HW232565   4.217   2.762  12.552  1.2240  0.9895  0.4203
 6977SOL     OW32566   2.180   1.596   2.430 -0.2737 -0.0290  0.2532
 6977SOL    HW132567   2.110   1.625   2.489  0.6410  0.9789  0.8587
 6977SOL    HW232568   2.146   1.556   2.351 -0.5638 -0.6080  0.6744
 6978SOL     OW32569   4.559   2.676  15.998 -0.0922  0.0833 -0.1946
 6978SOL    HW132570   4.586   2.747  15.940  0.5537  0.6362  0.7989
 6978SOL    HW232571   4.473   2.651  15.963 -0.2052 -0.3602  0.3980
 6979SOL     OW32572   4.234   4.175  11.104  0.1815 -0.3824  0.8226
 6979SOL    HW132573   4.328   4.156  11.096 -0.1994 -2.4752  1.1743
 6979SOL    HW232574   4.214   4.109  11.170 -3.6390  0.5599  0.5746
 6980SOL     OW32575   3.466   1.523  12.054  0.1407 -0.7642  0.7826
 6980SOL    HW132576   3.371   1.519  12.049  0.2541 -1.9312 -0.5114
 6980SOL    HW232577   3.489   1.516  12.146 -2.3534 -1.4138  1.3308
 6981SOL     OW32578   2.951   1.551   9.737  0.0643  0.5827  0.1920
 6981SOL    HW132579   2.884   1.618   9.751 -0.0740  0.2591  1.0872
 6981SOL    HW232580   3.009   1.580   9.807  1.5108 -0.8006 -0.4435
 6982SOL     OW32581   1.931   3.155   8.849 -0.0184  0.0672 -0.0264
 6982SOL    HW132582   1.967   3.216   8.913 -0.6146  0.1398  0.2463
 6982SOL    HW232583   1.901   3.089   8.911  1.5892  0.8848  1.6341
 6983SOL     OW32584   0.631   1.069   8.742 -0.9293  0.4476 -0.4105
 6983SOL    HW132585   0.709   1.123   8.733  0.8779 -1.8526  1.7224
 6983SOL    HW232586   0.661   0.980   8.729  2.0501  1.5974 -1.3805
 6984SOL     OW32587   1.415   1.641   8.314 -0.3749 -0.3581 -0.3939
 6984SOL    HW132588   1.506   1.623   8.335 -0.8082 -2.5598 -0.3220
 6984SOL    HW232589   1.423   1.675   8.225 -0.2195 -2.2608 -1.1119
 6985SOL     OW32590   4.115   3.323  10.940 -0.0284  0.2786 -0.3110
 6985SOL    HW132591   4.161   3.331  10.857  0.2128  1.1153 -0.1021
 6985SOL    HW232592   4.077   3.410  10.950  0.0832  0.3744 -0.7478
 6986SOL     OW32593   0.902   2.158   8.467 -0.4179 -0.3833 -0.3383
 6986SOL    HW132594   0.890   2.233   8.409 -0.0007 -1.0063 -1.2165
 6986SOL    HW232595   0.984   2.188   8.507 -1.2692 -1.0564  1.8945
 6987SOL     OW32596   4.360   0.258   8.028  0.3516  0.6112 -0.2219
 6987SOL    HW132597   4.265   0.248   8.033  0.6528 -0.7622  2.7551
 6987SOL    HW232598   4.371   0.264   7.933 -2.1883  1.6888 -0.4603
 6988SOL     OW32599   0.129   0.050   6.202  0.4449  0.6453  0.3972
 6988SOL    HW132600   0.196   4.724   6.217 -0.4381 -0.2853  0.2462
 6988SOL    HW232601   0.074   0.036   6.279  0.3310 -2.1055 -0.2020
 6989SOL     OW32602   1.828   0.273   6.216  0.1229  0.0692  0.2769
 6989SOL    HW132603   1.744   0.317   6.221 -0.9279 -1.8657 -0.2811
 6989SOL    HW232604   1.853   0.299   6.127 -1.8451  1.3795  0.1252
 6990SOL     OW32605   1.275   0.670   4.038 -0.2020 -0.9757 -0.1240
 6990SOL    HW132606   1.361   0.675   4.079 -0.3707 -0.6161  0.1867
 6990SOL    HW232607   1.294   0.620   3.959  1.0426  2.3499 -1.9638
 6991SOL     OW32608   1.435   2.372   4.792  0.0440  0.6734  0.1946
 6991SOL    HW132609   1.517   2.346   4.751 -0.4670 -1.6621  0.6069
 6991SOL    HW232610   1.375   2.313   4.746  1.6407 -0.5910 -0.2855
 6992SOL     OW32611   1.499   2.978  11.742  0.3700  0.5313  0.0715
 6992SOL    HW132612   1.478   3.063  11.703 -2.1544  0.9931  2.4347
 6992SOL    HW232613   1.452   2.984  11.825  0.0950  0.2975 -0.0693
 6993SOL     OW32614   1.203   3.684   0.176 -0.0584 -0.6877 -0.2710
 6993SOL    HW132615   1.173   3.617   0.115 -1.4337  0.2330 -0.6109
 6993SOL    HW232616   1.170   3.648   0.259  1.7112  0.2733  0.8456
 6994SOL     OW32617   4.500   3.608   3.606  1.0777 -0.4406 -0.4540
 6994SOL    HW132618   4.415   3.567   3.597  1.5780 -1.4892 -0.4089
 6994SOL    HW232619   4.504   3.657   3.524 -1.6936 -0.3305 -0.4930
 6995SOL     OW32620   0.773   2.950   6.988  0.1454  0.2771  0.4962
 6995SOL    HW132621   0.828   2.917   6.917 -2.5474 -2.1337 -0.4714
 6995SOL    HW232622   0.741   3.029   6.946  0.2606 -0.4971 -1.0285
 6996SOL     OW32623   2.748   1.432   9.267 -0.4742 -0.2776  0.0768
 6996SOL    HW132624   2.817   1.485   9.307 -1.6952  3.0709 -2.1815
 6996SOL    HW232625   2.765   1.445   9.173 -0.8954  2.7172  0.4045
 6997SOL     OW32626   3.558   2.023   3.693 -0.0201 -0.3313  0.1946
 6997SOL    HW132627   3.509   1.941   3.703 -0.5786  0.0043  0.2102
 6997SOL    HW232628   3.603   2.031   3.777 -1.2470 -1.7502  0.9928
 6998SOL     OW32629   0.210   0.754  13.498  0.2637 -0.0285  0.6129
 6998SOL    HW132630   0.298   0.730  13.469 -0.0784  0.9669 -1.2196
 6998SOL    HW232631   0.222   0.733  13.591  2.7269 -1.4132 -0.0052
 6999SOL     OW32632   3.208   4.116   4.749 -0.2746 -0.0668 -0.5909
 6999SOL    HW132633   3.181   4.203   4.779 -1.4943 -0.3701 -0.8284
 6999SOL    HW232634   3.297   4.145   4.730 -0.9826  2.2810 -0.3287
 7000SOL     OW32635   1.019   0.362   2.740  0.5362 -0.3334  0.5136
 7000SOL    HW132636   1.071   0.427   2.787  2.1441 -0.6804 -0.7800
 7000SOL    HW232637   1.021   0.401   2.652  2.7233 -0.5338  0.4618
 7001SOL     OW32638   1.494   1.391   5.196 -0.1267 -0.2741  0.4544
 7001SOL    HW132639   1.531   1.436   5.120  1.9956 -0.2918  1.4748
 7001SOL    HW232640   1.519   1.300   5.182 -1.2805 -1.0015  3.0881
 7002SOL     OW32641   2.048   4.415   7.323 -0.1844  0.1979  0.0427
 7002SOL    HW132642   2.052   4.478   7.395  1.7742  0.6444 -0.4638
 7002SOL    HW232643   2.141   4.392   7.316 -0.4550  0.0498 -2.8423
 7003SOL     OW32644   4.094   4.239   5.416 -0.4461 -0.1647  0.5666
 7003SOL    HW132645   4.124   4.284   5.495  0.4666 -1.5771  1.0200
 7003SOL    HW232646   4.025   4.178   5.444  0.0800 -2.1397 -2.3631
 7004SOL     OW32647   1.575   0.136   6.993 -0.7823 -0.0700  0.5187
 7004SOL    HW132648   1.584   0.220   6.949  2.3931  0.1267  1.5254
 7004SOL    HW232649   1.605   0.077   6.924  0.5652 -0.0808  1.1208
 7005SOL     OW32650   4.267   0.709   1.339 -0.1921  0.0311 -0.3854
 7005SOL    HW132651   4.256   0.672   1.251 -0.4283  1.9133 -1.1446
 7005SOL    HW232652   4.338   0.661   1.382 -0.5188 -0.7367 -0.6961
 7006SOL     OW32653   0.969   1.783   1.864 -0.2182  0.5023 -0.2052
 7006SOL    HW132654   0.995   1.805   1.953  0.4755  0.0085 -0.2792
 7006SOL    HW232655   0.888   1.734   1.878 -1.0225  1.8125 -0.3699
 7007SOL     OW32656   1.706   2.388   1.841  0.8713 -0.6384  0.5978
 7007SOL    HW132657   1.773   2.449   1.874 -0.0273 -0.0784  1.4028
 7007SOL    HW232658   1.656   2.450   1.788  0.2957 -2.8295 -1.4098
 7008SOL     OW32659   2.849   0.924   3.206  0.1545  0.0723 -0.1201
 7008SOL    HW132660   2.793   1.000   3.189 -0.1105 -0.0582  0.1643
 7008SOL    HW232661   2.791   0.863   3.252 -1.9208  0.4743 -2.2047
 7009SOL     OW32662   1.700   1.694   9.998  0.2297 -0.2858  0.0530
 7009SOL    HW132663   1.655   1.703  10.082  0.4074  0.8659  0.0227
 7009SOL    HW232664   1.635   1.654   9.941  0.5721 -2.0111  0.8818
 7010SOL     OW32665   3.678   3.174   7.783 -0.4180  0.6580  0.5193
 7010SOL    HW132666   3.667   3.114   7.857 -0.6960  1.4003  1.0845
 7010SOL    HW232667   3.679   3.260   7.825 -0.9437  0.4285  1.0121
 7011SOL     OW32668   1.783   4.540  14.823 -0.1001  0.0812  0.2132
 7011SOL    HW132669   1.711   4.570  14.880 -1.0113  0.7000 -1.2563
 7011SOL    HW232670   1.851   4.526  14.889 -1.5390 -1.1010  1.4546
 7012SOL     OW32671   1.140   1.724   4.724 -0.1690 -0.0337 -0.1440
 7012SOL    HW132672   1.054   1.737   4.765 -0.7884 -0.4397 -1.3363
 7012SOL    HW232673   1.198   1.693   4.794  0.3618 -2.2280 -1.5638
 7013SOL     OW32674   0.416   2.234   2.739  0.6497  0.2432 -0.9832
 7013SOL    HW132675   0.495   2.221   2.686  0.0944  2.3179 -2.3064
 7013SOL    HW232676   0.432   2.327   2.752 -1.3716  0.7100 -1.8775
 7014SOL     OW32677   1.064   1.555  16.836 -0.3251 -0.5011 -0.8875
 7014SOL    HW132678   1.008   1.549  16.914 -0.3956  0.9258 -0.8251
 7014SOL    HW232679   1.154   1.532  16.859 -0.1659  0.6350 -0.4060
 7015SOL     OW32680   1.068   1.963   9.206 -0.5037 -0.2731 -0.2642
 7015SOL    HW132681   1.067   2.003   9.119 -0.5947  0.7478  0.2067
 7015SOL    HW232682   1.077   2.046   9.253  1.6817  0.6267 -2.2547
 7016SOL     OW32683   1.086   2.055   3.245  0.3200  0.0411  0.3229
 7016SOL    HW132684   1.168   2.096   3.218  0.7368 -1.5208 -0.8229
 7016SOL    HW232685   1.100   2.036   3.337 -2.9341  0.8938  1.0184
 7017SOL     OW32686   3.258   1.097   1.315 -0.0861  0.0071  0.2676
 7017SOL    HW132687   3.286   1.006   1.322  3.2234  0.9700 -0.2980
 7017SOL    HW232688   3.340   1.130   1.277  0.2196 -1.1240 -0.0552
 7018SOL     OW32689   4.623   4.535   2.536  0.6084 -0.0697 -0.0486
 7018SOL    HW132690   4.616   4.531   2.631  0.5310 -0.9411 -0.0927
 7018SOL    HW232691   4.529   4.526   2.516  0.7957  1.0534 -1.4600
 7019SOL     OW32692   1.083   0.034  15.688  0.0077  0.5946 -0.4733
 7019SOL    HW132693   1.054   0.049  15.777  2.0466  0.1303  0.2726
 7019SOL    HW232694   1.009   0.062  15.634 -0.9923 -0.3948  0.3736
 7020SOL     OW32695   2.169   0.884   9.269 -0.3716 -0.1000 -0.0006
 7020SOL    HW132696   2.237   0.829   9.230 -0.4014  1.2417 -1.9483
 7020SOL    HW232697   2.225   0.958   9.294 -1.0236 -0.6138  2.9099
 7021SOL     OW32698   3.761   2.055  17.260 -0.1400 -0.1065  0.1772
 7021SOL    HW132699   3.719   2.098  17.334  0.4163  2.2040 -0.8353
 7021SOL    HW232700   3.853   2.078  17.275 -0.2747  0.9989 -0.6683
 7022SOL     OW32701   2.202   2.804   1.127  0.2132 -0.3577  0.0883
 7022SOL    HW132702   2.228   2.801   1.219 -0.4690  2.4264  0.3635
 7022SOL    HW232703   2.142   2.729   1.127  2.2633 -2.0349 -2.6937
 7023SOL     OW32704   1.161   2.395   5.553 -0.1026 -0.0673 -0.1335
 7023SOL    HW132705   1.256   2.396   5.541 -0.0041  0.0889  0.6446
 7023SOL    HW232706   1.140   2.302   5.545  0.8906 -0.1658 -1.6438
 7024SOL     OW32707   0.078   1.358   6.201  0.6439 -0.5763  0.2770
 7024SOL    HW132708   0.132   1.390   6.273  1.3847 -1.2196  0.0103
 7024SOL    HW232709   0.132   1.375   6.123 -0.4916  0.0329 -0.3715
 7025SOL     OW32710   0.503   4.322  12.557 -0.2866  0.4602 -0.1901
 7025SOL    HW132711   0.472   4.343  12.469 -2.2419 -0.1462  0.3414
 7025SOL    HW232712   0.591   4.291  12.535 -0.0793  1.0745 -0.2206
 7026SOL     OW32713   3.305   3.937   6.578 -0.4418  0.2323  0.9257
 7026SOL    HW132714   3.240   3.869   6.597 -0.2341  0.1700  1.4241
 7026SOL    HW232715   3.347   3.936   6.664  1.5578  3.2954 -0.0389
 7027SOL     OW32716   2.238   0.149  15.228 -0.0157 -0.5461  0.2639
 7027SOL    HW132717   2.153   0.156  15.271 -0.4552 -2.3498 -0.3205
 7027SOL    HW232718   2.247   0.235  15.186 -0.3838 -1.6062 -1.9719
 7028SOL     OW32719   3.016   0.791   4.279 -0.3859  0.4721 -0.0276
 7028SOL    HW132720   3.099   0.836   4.261 -1.2518  2.2285  0.3689
 7028SOL    HW232721   3.004   0.733   4.204  2.7258  0.3550 -0.4599
 7029SOL     OW32722   0.392   1.286   7.504 -0.1818 -0.6210 -0.4578
 7029SOL    HW132723   0.442   1.205   7.512  0.6444 -0.1866 -1.2220
 7029SOL    HW232724   0.354   1.280   7.416 -0.2400 -1.0599 -0.4020
 7030SOL     OW32725   2.054   4.590   8.506  0.5102  0.1695  0.7907
 7030SOL    HW132726   1.963   4.584   8.475  1.2561 -1.9104 -0.9328
 7030SOL    HW232727   2.094   4.595   8.420  1.7045  0.3571  1.3566
 7031SOL     OW32728   1.450   0.277   6.005  0.3999 -0.0298 -0.4533
 7031SOL    HW132729   1.502   0.225   5.944  1.4347  2.6009 -1.8379
 7031SOL    HW232730   1.378   0.215   6.010  0.9174 -0.6707 -1.0511
 7032SOL     OW32731   2.086   4.575  15.545  0.8090  0.5199  0.2056
 7032SOL    HW132732   2.122   4.494  15.509 -1.6082 -0.9382  1.0684
 7032SOL    HW232733   2.018   4.548  15.607 -0.2599 -0.1527 -1.2486
 7033SOL     OW32734   2.380   4.559   8.446 -0.2313 -0.1391 -0.0099
 7033SOL    HW132735   2.341   4.595   8.366 -0.4547  0.4998  0.3882
 7033SOL    HW232736   2.470   4.589   8.435 -0.2695  0.3667  1.1501
 7034SOL     OW32737   2.271   4.477   5.023  0.2316  0.0339 -0.1557
 7034SOL    HW132738   2.227   4.550   4.978  1.3713  1.0880  0.4495
 7034SOL    HW232739   2.265   4.408   4.957  2.2105  1.3541 -1.6918
 7035SOL     OW32740   0.263   0.384  13.214 -0.6951  0.1675  0.0429
 7035SOL    HW132741   0.185   0.342  13.179  0.4709 -1.1334 -0.9769
 7035SOL    HW232742   0.219   0.446  13.273 -0.7007  1.6947 -1.5514
 7036SOL     OW32743   2.993   2.763   9.325 -0.4625 -0.2535  0.6293
 7036SOL    HW132744   2.982   2.856   9.303  1.0973  0.1635  1.5778
 7036SOL    HW232745   3.001   2.778   9.419  0.5569  3.1758  0.0116
 7037SOL     OW32746   4.335   3.450  16.624 -0.0376  0.0065 -0.2551
 7037SOL    HW132747   4.262   3.476  16.568 -0.0241 -0.3926 -0.4595
 7037SOL    HW232748   4.391   3.521  16.592 -1.8038  0.9963 -1.1370
 7038SOL     OW32749   0.390   0.078   9.311  0.6386 -0.0702 -0.2053
 7038SOL    HW132750   0.304   0.115   9.291  0.8002  0.5796  0.2788
 7038SOL    HW232751   0.355   0.030   9.386  3.0707 -0.6847  0.5229
 7039SOL     OW32752   3.943   3.349   3.042 -0.2889 -0.8879  0.1866
 7039SOL    HW132753   3.906   3.395   2.967 -0.4253 -1.3015  0.0018
 7039SOL    HW232754   3.918   3.416   3.106  3.0687  0.1501  0.4466
 7040SOL     OW32755   3.778   2.902   2.939 -0.4496 -0.1024 -0.2629
 7040SOL    HW132756   3.861   2.875   2.901  1.4713  3.3171  1.4992
 7040SOL    HW232757   3.731   2.819   2.949  1.6150 -0.8858  2.9382
 7041SOL     OW32758   3.869   2.739  13.058 -0.5416 -0.2137 -0.3946
 7041SOL    HW132759   3.929   2.812  13.074 -1.2927  0.4452 -0.5999
 7041SOL    HW232760   3.904   2.712  12.973  2.1615 -0.3358  0.7348
 7042SOL     OW32761   4.731   3.467  12.070 -0.3237 -0.5284  0.3106
 7042SOL    HW132762   0.001   3.559  12.045 -2.2896 -0.4374 -0.1309
 7042SOL    HW232763   0.046   3.455  12.148  1.1410 -1.4050 -0.8411
 7043SOL     OW32764   4.510   3.534   9.726  0.0261  0.0033  0.6439
 7043SOL    HW132765   4.481   3.611   9.775 -1.1926 -0.3864  0.5364
 7043SOL    HW232766   4.439   3.517   9.665 -0.3576 -0.5478  1.2432
 7044SOL     OW32767   0.020   3.655   0.179  0.4024  0.5821  0.0034
 7044SOL    HW132768   0.088   3.617   0.125 -1.3841 -1.1506 -1.0331
 7044SOL    HW232769   0.033   3.598   0.255  0.6432  0.1525 -0.3632
 7045SOL     OW32770   3.265   1.190   1.574  0.5208  0.0062 -0.3109
 7045SOL    HW132771   3.264   1.275   1.531 -0.4786  0.6031  0.8975
 7045SOL    HW232772   3.278   1.133   1.498  0.7504 -0.0703 -0.2139
 7046SOL     OW32773   4.167   0.567   4.225 -0.8112 -0.3704 -0.0802
 7046SOL    HW132774   4.226   0.632   4.264 -1.8684  1.5360 -1.6357
 7046SOL    HW232775   4.164   0.516   4.305 -1.2696 -1.6946 -0.9461
 7047SOL     OW32776   1.767   4.576   3.417 -0.2132 -0.0170 -0.2084
 7047SOL    HW132777   1.765   4.560   3.511 -0.8310 -0.0119 -0.2183
 7047SOL    HW232778   1.686   4.628   3.411  0.2736  0.9236  1.4323
 7048SOL     OW32779   0.837   4.595   2.744 -0.3131  0.4429 -0.3388
 7048SOL    HW132780   0.766   4.586   2.808  0.1027 -2.8524 -0.2904
 7048SOL    HW232781   0.916   4.603   2.797 -1.4877 -3.5876  2.0485
 7049SOL     OW32782   1.262   4.182   5.708  0.8117  0.0982  0.7016
 7049SOL    HW132783   1.355   4.163   5.695  0.5199 -0.6144 -0.2988
 7049SOL    HW232784   1.234   4.090   5.713  1.3978 -0.0463  1.2900
 7050SOL     OW32785   3.490   4.038   4.092 -0.3281 -0.4182 -0.1513
 7050SOL    HW132786   3.490   3.959   4.147  0.0381 -0.5004 -0.2692
 7050SOL    HW232787   3.550   4.101   4.131 -0.2041 -1.7132  1.7623
 7051SOL     OW32788   1.788   2.883   0.269 -0.0404 -0.2396  0.2545
 7051SOL    HW132789   1.694   2.901   0.264  0.3550  2.1559  1.1977
 7051SOL    HW232790   1.799   2.930   0.352  0.6132  1.3685 -0.7392
 7052SOL     OW32791   2.561   2.330  10.740  0.3882 -0.1529  0.4159
 7052SOL    HW132792   2.644   2.323  10.692 -0.3509  0.4018 -0.9141
 7052SOL    HW232793   2.513   2.335  10.658 -0.7867 -1.8460  1.0088
 7053SOL     OW32794   0.212   3.398   4.857  0.0056 -0.3768 -0.0361
 7053SOL    HW132795   0.198   3.313   4.899  1.1281 -1.1210 -1.1830
 7053SOL    HW232796   0.177   3.455   4.926 -1.4347 -0.0400 -1.0327
 7054SOL     OW32797   1.488   2.154  11.571 -0.4400  0.0646  0.4737
 7054SOL    HW132798   1.524   2.234  11.533  1.2160 -0.6875  0.4635
 7054SOL    HW232799   1.425   2.195  11.630 -0.2096 -1.2379  1.6198
 7055SOL     OW32800   0.447   4.422   4.883 -0.1771  0.5054  0.5027
 7055SOL    HW132801   0.457   4.502   4.831 -1.0519  1.6726  2.1074
 7055SOL    HW232802   0.386   4.375   4.827 -1.5914 -0.1581  2.6132
 7056SOL     OW32803   3.045   4.032   4.008  0.1857  0.2417 -0.5948
 7056SOL    HW132804   2.951   4.027   4.025 -0.5784  1.2463 -4.4052
 7056SOL    HW232805   3.069   3.948   3.970  1.2503  1.4352 -2.5519
 7057SOL     OW32806   0.983   3.763   2.709 -0.2744 -0.0464 -0.4133
 7057SOL    HW132807   0.958   3.688   2.655 -1.0885 -0.9729  1.2495
 7057SOL    HW232808   0.986   3.834   2.645  0.8955  1.2948  1.1244
 7058SOL     OW32809   1.138   3.515   8.305  0.0682 -0.0100  0.3371
 7058SOL    HW132810   1.056   3.489   8.263  1.1819 -4.3051  0.8035
 7058SOL    HW232811   1.106   3.592   8.352 -0.7124 -0.8015  1.1111
 7059SOL     OW32812   1.261   0.669  17.168  1.0388  0.2807  0.2066
 7059SOL    HW132813   1.281   0.744  17.225  0.9418 -0.5284  1.2865
 7059SOL    HW232814   1.181   0.691  17.121 -0.0874 -1.0678  1.5384
 7060SOL     OW32815   2.877   2.461  12.838  0.2338  0.3393 -0.5872
 7060SOL    HW132816   2.914   2.535  12.886 -0.7090  1.2349 -1.2342
 7060SOL    HW232817   2.832   2.423  12.914 -1.8602  0.3346 -1.8047
 7061SOL     OW32818   0.915   2.533   8.658  0.0852 -0.2223 -0.2220
 7061SOL    HW132819   0.858   2.569   8.726 -0.7629 -1.0705 -0.4752
 7061SOL    HW232820   0.997   2.581   8.650 -1.0843  1.8675  0.3307
 7062SOL     OW32821   4.333   2.408   9.176 -0.8049  0.1613 -0.1160
 7062SOL    HW132822   4.333   2.316   9.149 -1.4051 -0.0460  0.6071
 7062SOL    HW232823   4.402   2.391   9.240 -0.2764  1.1261 -0.4226
 7063SOL     OW32824   1.105   4.437   2.237  0.8733 -0.3792  0.3627
 7063SOL    HW132825   1.188   4.389   2.246  1.7501  1.1188  0.2047
 7063SOL    HW232826   1.070   4.444   2.326  0.1301  1.1768 -0.0677
 7064SOL     OW32827   4.087   4.452   7.231 -0.3328 -0.5811 -0.0481
 7064SOL    HW132828   4.039   4.372   7.252 -2.8302  1.4268  1.7634
 7064SOL    HW232829   4.146   4.460   7.306 -0.4154  3.1313 -0.4128
 7065SOL     OW32830   1.581   4.681   9.001  0.0394 -0.5509  0.0810
 7065SOL    HW132831   1.677   4.678   9.005  0.1718  0.7193 -2.0213
 7065SOL    HW232832   1.553   4.683   9.092  1.5470  0.6130  0.5204
 7066SOL     OW32833   2.642   1.584   6.992 -0.0008  0.5099  0.2643
 7066SOL    HW132834   2.568   1.528   6.969 -0.0605  1.1876 -1.1856
 7066SOL    HW232835   2.612   1.668   6.958 -2.0831 -0.7281 -0.9904
 7067SOL     OW32836   2.249   1.118   5.519 -0.3506 -0.2063 -0.4984
 7067SOL    HW132837   2.207   1.146   5.438  1.8106 -1.7101 -2.1160
 7067SOL    HW232838   2.302   1.194   5.547 -2.2200  1.2081 -0.8076
 7068SOL     OW32839   1.692   4.001   2.496  0.6290 -0.3279 -0.5982
 7068SOL    HW132840   1.697   3.916   2.540  1.1121 -0.0388 -0.0860
 7068SOL    HW232841   1.695   3.972   2.405 -0.7189 -2.1078 -0.0725
 7069SOL     OW32842   4.036   1.976   8.351  0.4112  0.0708  0.1964
 7069SOL    HW132843   3.965   1.916   8.327  0.2758  1.3934 -2.8173
 7069SOL    HW232844   4.106   1.953   8.290 -0.3674  0.4211 -0.8309
 7070SOL     OW32845   2.982   3.818  13.660 -0.1946  0.6247  0.0480
 7070SOL    HW132846   2.922   3.756  13.618 -1.5512  0.6704  1.9567
 7070SOL    HW232847   2.959   3.801  13.751 -0.6683  0.5564 -0.0842
 7071SOL     OW32848   2.975   2.880  16.256  0.6079 -0.0098  0.1629
 7071SOL    HW132849   2.893   2.882  16.305  0.7754 -1.1340  0.5041
 7071SOL    HW232850   2.957   2.873  16.162  1.4507  1.7128 -0.1180
 7072SOL     OW32851   2.325   2.995  11.405  0.5672  0.0410  0.0330
 7072SOL    HW132852   2.372   2.964  11.482 -0.1250 -0.6509  0.1833
 7072SOL    HW232853   2.335   2.914  11.355  0.4133 -0.1130  0.2514
 7073SOL     OW32854   4.649   4.309  16.874 -0.4219  0.2440  0.1449
 7073SOL    HW132855   4.637   4.363  16.953 -0.7084  0.2474  0.0967
 7073SOL    HW232856   4.702   4.243  16.919  1.4157  0.4546 -1.6806
 7074SOL     OW32857   3.708   0.930   8.504  0.5452 -0.0218 -0.0467
 7074SOL    HW132858   3.787   0.932   8.558  0.0168  0.6320  0.7066
 7074SOL    HW232859   3.658   1.006   8.533 -0.0169 -0.1673 -0.6316
 7075SOL     OW32860   2.452   4.520   2.935 -0.1795 -0.1372 -0.3522
 7075SOL    HW132861   2.462   4.595   2.995 -0.0730  0.3644 -0.9909
 7075SOL    HW232862   2.385   4.468   2.979 -0.3102  0.2243 -0.1202
 7076SOL     OW32863   2.599   1.201   2.964 -0.5673  0.2560 -0.3777
 7076SOL    HW132864   2.608   1.289   2.929 -0.9361  0.5572  0.2868
 7076SOL    HW232865   2.668   1.196   3.030 -1.7925  1.5963  0.9898
 7077SOL     OW32866   2.514   2.368  15.060 -0.3969 -0.2472  0.3403
 7077SOL    HW132867   2.536   2.279  15.086  3.1109  0.4087 -0.4102
 7077SOL    HW232868   2.441   2.387  15.119 -0.8625 -0.7787 -0.0579
 7078SOL     OW32869   1.744   0.809   9.265 -0.1794 -0.1902 -0.2387
 7078SOL    HW132870   1.797   0.795   9.187  0.8106 -1.2891  0.6371
 7078SOL    HW232871   1.688   0.733   9.248 -1.3714  0.7826 -0.6385
 7079SOL     OW32872   3.549   3.962  14.929 -0.5087 -0.3454 -0.0239
 7079SOL    HW132873   3.631   4.013  14.927 -1.2774  0.9665  2.0243
 7079SOL    HW232874   3.486   4.023  14.892 -0.6194 -1.8099 -2.2238
 7080SOL     OW32875   0.781   0.509   7.097 -0.3514  0.5031 -0.0354
 7080SOL    HW132876   0.850   0.502   7.032 -0.6010 -3.9683  0.1645
 7080SOL    HW232877   0.710   0.458   7.058 -0.8120 -0.2323  1.7210
 7081SOL     OW32878   2.228   4.725   5.955 -0.5210 -0.2940 -0.5473
 7081SOL    HW132879   2.259   0.042   5.885 -0.0466 -2.1578 -1.8782
 7081SOL    HW232880   2.311   4.703   5.998  0.3126 -0.1908 -2.0888
 7082SOL     OW32881   4.402   2.399   1.634  0.2003  0.3692  0.3334
 7082SOL    HW132882   4.473   2.336   1.621  2.7944  2.8615  2.4194
 7082SOL    HW232883   4.451   2.472   1.673  0.1390 -1.1358  3.2836
 7083SOL     OW32884   1.096   0.270   7.052  0.2816 -0.0984 -0.2568
 7083SOL    HW132885   1.100   0.236   6.963 -1.7141 -1.6083  0.2192
 7083SOL    HW232886   1.149   0.203   7.095 -0.1957  0.2252  0.8305
 7084SOL     OW32887   0.465   3.682   0.820  0.4672  0.0237 -0.5198
 7084SOL    HW132888   0.452   3.615   0.887 -1.3575  0.7121 -0.1884
 7084SOL    HW232889   0.400   3.749   0.842  2.5112  2.6104 -2.3258
 7085SOL     OW32890   3.067   4.072  13.653 -0.0283  0.2307  0.2605
 7085SOL    HW132891   2.994   4.131  13.673 -0.4019 -0.0044 -0.4231
 7085SOL    HW232892   3.035   3.996  13.701 -1.8042 -0.1050 -1.4653
 7086SOL     OW32893   2.646   2.979   0.806  0.2425  0.5991 -0.1779
 7086SOL    HW132894   2.669   3.068   0.778  0.7311  0.2303 -0.9237
 7086SOL    HW232895   2.598   2.995   0.888  1.1104 -1.9489  0.8112
 7087SOL     OW32896   2.506   0.384   3.502 -0.0662 -0.2863 -0.3666
 7087SOL    HW132897   2.421   0.350   3.474 -0.6592 -0.2841  1.4522
 7087SOL    HW232898   2.553   0.301   3.499  0.5594  0.0520 -0.0641
 7088SOL     OW32899   0.344   2.695   9.147  0.6223 -0.4214  0.5720
 7088SOL    HW132900   0.321   2.602   9.146  0.1128 -0.3303  3.6908
 7088SOL    HW232901   0.257   2.733   9.135 -0.1656 -2.4606 -0.0669
 7089SOL     OW32902   2.873   1.869   6.622 -0.6629  0.4811  0.1862
 7089SOL    HW132903   2.874   1.951   6.573 -0.0189  0.9205  0.9317
 7089SOL    HW232904   2.833   1.809   6.559 -0.1226  1.8367 -1.4319
 7090SOL     OW32905   0.743   4.214   6.519  0.5207  0.2314 -0.1317
 7090SOL    HW132906   0.781   4.200   6.606 -1.0168 -1.8535  0.2125
 7090SOL    HW232907   0.730   4.131   6.473  1.1802  0.8561 -1.4400
 7091SOL     OW32908   0.827   2.177   8.939 -0.2763 -0.0814 -0.2719
 7091SOL    HW132909   0.786   2.121   9.005  1.2091 -0.1731  0.5738
 7091SOL    HW232910   0.794   2.152   8.853 -1.5035  1.0175 -0.1204
 7092SOL     OW32911   3.559   1.659   3.945 -0.2901  0.1683  0.3567
 7092SOL    HW132912   3.487   1.716   3.970  0.0500  1.8723 -2.4632
 7092SOL    HW232913   3.616   1.695   4.013  2.3876 -1.8131 -0.8729
 7093SOL     OW32914   4.235   4.670   9.976  0.2536 -0.2029 -0.6354
 7093SOL    HW132915   4.248   4.730   9.903 -0.7728 -2.1394 -2.4219
 7093SOL    HW232916   4.142   4.685   9.994  0.5281  0.7839 -0.0605
 7094SOL     OW32917   0.162   4.460  12.465 -0.2551 -0.1459 -0.2584
 7094SOL    HW132918   0.145   4.552  12.484 -0.0782 -0.3452  0.8758
 7094SOL    HW232919   0.126   4.448  12.378 -1.3809  0.0026  0.1900
 7095SOL     OW32920   1.341   4.556   3.098 -0.9280 -0.1822  0.3001
 7095SOL    HW132921   1.249   4.538   3.113 -1.1723 -0.9615 -2.0835
 7095SOL    HW232922   1.353   4.645   3.129 -0.0719  0.2974 -1.4146
 7096SOL     OW32923   3.508   3.980   0.409 -0.2394 -0.2760 -0.1222
 7096SOL    HW132924   3.588   4.010   0.454 -1.0047 -0.6493  1.5018
 7096SOL    HW232925   3.480   3.903   0.457  1.3349 -0.9365 -0.2701
 7097SOL     OW32926   1.954   3.451   3.279 -0.3108  0.1007  0.1850
 7097SOL    HW132927   1.898   3.384   3.240 -0.3850 -0.6265  1.5263
 7097SOL    HW232928   2.025   3.452   3.215 -1.0411  2.3250 -0.5750
 7098SOL     OW32929   4.334   0.397   4.017 -0.6581 -0.1507 -0.4045
 7098SOL    HW132930   4.268   0.443   4.068 -1.4641 -2.0714  0.2750
 7098SOL    HW232931   4.405   0.457   4.040 -0.4032 -0.5119 -0.2397
 7099SOL     OW32932   2.213   2.590  15.486 -0.1816  0.6276 -0.2781
 7099SOL    HW132933   2.121   2.615  15.486 -0.3791 -0.0742 -0.4065
 7099SOL    HW232934   2.212   2.533  15.563  0.4242  2.5721  1.1739
 7100SOL     OW32935   1.791   4.523  15.446 -0.0261 -0.5894 -0.3015
 7100SOL    HW132936   1.768   4.588  15.512 -0.3985 -2.8824  1.8256
 7100SOL    HW232937   1.724   4.525  15.377  0.4708  0.5961 -0.7465
 7101SOL     OW32938   4.689   0.273   8.620  0.2431 -0.1951  0.2991
 7101SOL    HW132939   4.641   0.355   8.628 -0.5851 -0.6348 -0.1613
 7101SOL    HW232940   0.022   0.296   8.562 -0.0825 -0.1473 -0.0879
 7102SOL     OW32941   3.308   4.128   8.676 -0.1794  0.4784 -0.0663
 7102SOL    HW132942   3.378   4.127   8.611 -0.2157  1.0653 -0.1160
 7102SOL    HW232943   3.340   4.086   8.756 -1.2973  0.5289  0.4140
 7103SOL     OW32944   4.023   3.667   7.898 -0.6087 -0.0516 -0.4235
 7103SOL    HW132945   4.031   3.743   7.957 -1.5234  1.6555 -2.5009
 7103SOL    HW232946   4.042   3.706   7.812 -1.3199  0.6593 -0.2605
 7104SOL     OW32947   4.502   0.778   3.638  0.3951  0.0574 -0.9683
 7104SOL    HW132948   4.443   0.841   3.597 -2.1923 -1.1577  0.8989
 7104SOL    HW232949   4.451   0.697   3.625  0.3713 -0.2572  1.2001
 7105SOL     OW32950   4.653   0.002   0.805  0.3801 -0.2350  0.1906
 7105SOL    HW132951   4.672   0.088   0.841 -0.9298  0.7027 -1.3476
 7105SOL    HW232952   4.578   4.709   0.855  0.8151 -1.2498  0.1825
 7106SOL     OW32953   1.005   0.436   3.760  0.3169  0.3907 -0.3456
 7106SOL    HW132954   0.956   0.491   3.700  0.1277  3.0608  2.2735
 7106SOL    HW232955   0.957   0.353   3.758  0.3531  0.3389  0.9762
 7107SOL     OW32956   1.519   3.177   7.626  0.1789  0.2911  0.6068
 7107SOL    HW132957   1.559   3.129   7.554  0.6115  0.4224  0.7549
 7107SOL    HW232958   1.565   3.150   7.706  0.1082 -1.3503  0.0813
 7108SOL     OW32959   1.958   4.581  15.032  0.4661 -0.5953  0.5757
 7108SOL    HW132960   1.912   4.664  15.025  0.5436 -0.2808  4.0121
 7108SOL    HW232961   2.052   4.597  15.044  0.4985 -1.5484  1.5970
 7109SOL     OW32962   0.351   0.704  13.721 -0.4261 -0.0017  0.0641
 7109SOL    HW132963   0.375   0.700  13.813 -1.2209 -0.4737  0.2491
 7109SOL    HW232964   0.342   0.609  13.708 -0.1475  0.1724 -1.4429
 7110SOL     OW32965   4.118   1.260   3.047 -0.1090 -0.6272 -0.0155
 7110SOL    HW132966   4.173   1.195   3.003 -1.0212 -1.0732 -0.5040
 7110SOL    HW232967   4.033   1.240   3.007 -1.3680  2.1636  1.2899
 7111SOL     OW32968   0.656   1.915   4.575 -0.4187 -0.1218 -0.9380
 7111SOL    HW132969   0.563   1.894   4.580 -0.5670  0.7466 -0.2138
 7111SOL    HW232970   0.656   2.010   4.583  0.5212 -0.1265 -0.7964
 7112SOL     OW32971   3.195   0.721  11.091  0.0769 -0.0911  0.2361
 7112SOL    HW132972   3.260   0.786  11.066  0.6555 -1.7904 -2.7182
 7112SOL    HW232973   3.126   0.787  11.098 -0.5451 -0.6216 -0.8771
 7113SOL     OW32974   1.079   1.294  13.588  0.0282 -0.0007 -0.5474
 7113SOL    HW132975   1.025   1.370  13.567 -2.1911 -1.5416 -0.3661
 7113SOL    HW232976   1.017   1.223  13.596  0.9585 -0.5576  1.5596
 7114SOL     OW32977   2.030   3.610   6.659 -0.0734 -0.9240  0.3313
 7114SOL    HW132978   2.109   3.598   6.711 -0.3791  0.3974  1.1032
 7114SOL    HW232979   1.966   3.573   6.720  0.4036  1.2035  2.1325
 7115SOL     OW32980   2.318   2.975   0.202 -0.4634  0.0954 -0.0143
 7115SOL    HW132981   2.364   2.942   0.125  1.2993  0.0574  1.0615
 7115SOL    HW232982   2.382   2.945   0.267 -0.4102  1.7340  0.6767
 7116SOL     OW32983   1.156   2.662   1.422  0.5128  0.1174 -0.2086
 7116SOL    HW132984   1.106   2.645   1.342  1.8830 -0.1571 -0.9892
 7116SOL    HW232985   1.242   2.627   1.401  0.3248 -2.4282  3.2364
 7117SOL     OW32986   0.846   4.515  16.291  0.0776  0.0101 -0.3316
 7117SOL    HW132987   0.850   4.424  16.322  0.1138  0.9169  2.2866
 7117SOL    HW232988   0.912   4.549  16.351  0.3229 -0.1190 -0.5254
 7118SOL     OW32989   0.041   0.368  14.130  0.4851 -0.4523  0.1676
 7118SOL    HW132990   0.042   0.284  14.084  1.4268 -0.7591  0.7395
 7118SOL    HW232991   0.116   0.406  14.086  1.5371  0.8192  3.0366
 7119SOL     OW32992   2.153   2.289   1.917  0.4516 -0.4512 -0.2795
 7119SOL    HW132993   2.208   2.217   1.887  0.0316 -0.0497 -2.0186
 7119SOL    HW232994   2.114   2.308   1.831  1.5866  0.1459 -0.6611
 7120SOL     OW32995   4.481   4.336  15.301  0.3443  0.6906  0.4670
 7120SOL    HW132996   4.549   4.294  15.248 -0.8047 -0.3949 -0.1179
 7120SOL    HW232997   4.408   4.275  15.304  0.2774  0.7175 -0.5745
 7121SOL     OW32998   1.274   2.741   9.313  0.5081 -0.2411 -0.1160
 7121SOL    HW132999   1.276   2.735   9.218 -2.0192  0.0943 -0.2002
 7121SOL    HW233000   1.354   2.791   9.331  1.3190 -1.5641 -0.0263
 7122SOL     OW33001   0.192   2.672   2.634  0.0625 -0.0985  0.2513
 7122SOL    HW133002   0.128   2.603   2.651 -0.6376  1.0759  2.4521
 7122SOL    HW233003   0.228   2.689   2.722 -0.4722 -0.3516  0.5170
 7123SOL     OW33004   3.497   1.599   4.739  0.0663  0.0255  0.0619
 7123SOL    HW133005   3.509   1.524   4.682  1.2886 -0.1055  0.4890
 7123SOL    HW233006   3.554   1.579   4.813  0.1708  0.4637  0.1033
 7124SOL     OW33007   4.205   4.530   8.931 -0.3762 -0.0831  0.8268
 7124SOL    HW133008   4.241   4.442   8.935  2.4188  0.9703 -1.2649
 7124SOL    HW233009   4.112   4.509   8.944 -0.3116 -0.6047  0.4038
 7125SOL     OW33010   2.866   0.584   7.302 -0.0874  0.0150 -0.3697
 7125SOL    HW133011   2.793   0.522   7.296 -0.6677  0.4567  2.3719
 7125SOL    HW233012   2.834   0.659   7.252 -1.9415 -0.3406  0.3078
 7126SOL     OW33013   1.023   3.011   5.555 -0.3989  0.1471 -0.9059
 7126SOL    HW133014   1.042   3.090   5.606  0.0588 -0.7150  0.2443
 7126SOL    HW233015   1.039   2.944   5.622 -1.9478  1.0023  0.3243
 7127SOL     OW33016   0.820   0.535  11.351  0.3171 -0.0795 -0.9090
 7127SOL    HW133017   0.757   0.541  11.423 -0.0841  0.0597 -1.2762
 7127SOL    HW233018   0.862   0.620  11.359 -1.2629  0.5377  0.8373
 7128SOL     OW33019   0.778   0.248  12.809 -0.8476 -0.1008  0.4711
 7128SOL    HW133020   0.688   0.252  12.843 -0.9005  3.2893 -0.0882
 7128SOL    HW233021   0.779   0.152  12.800 -0.9623  0.1771 -2.6176
 7129SOL     OW33022   1.658   0.730   5.666 -0.1495  0.2069  0.1667
 7129SOL    HW133023   1.597   0.658   5.680  0.3979 -0.1903  0.4959
 7129SOL    HW233024   1.599   0.795   5.626 -1.1376  0.0244  1.3081
 7130SOL     OW33025   0.050   4.402  11.142 -0.0140 -1.1616  0.1634
 7130SOL    HW133026   0.050   4.495  11.163 -1.2535 -1.0536 -0.3058
 7130SOL    HW233027   0.128   4.393  11.087 -0.0649 -2.0047  0.2243
 7131SOL     OW33028   3.918   0.983   4.675  0.5933  0.6104  0.0422
 7131SOL    HW133029   3.955   0.941   4.753  1.5943  0.3083 -0.5858
 7131SOL    HW233030   3.960   0.931   4.606 -1.3698 -0.2506 -0.5079
 7132SOL     OW33031   4.185   2.366   6.475 -0.1855 -0.6230 -0.2404
 7132SOL    HW133032   4.160   2.456   6.456  1.2774 -0.0243  0.6486
 7132SOL    HW233033   4.280   2.381   6.468 -0.5820  1.7909 -0.4816
 7133SOL     OW33034   0.749   3.046   1.871  0.1903  0.1536  0.1952
 7133SOL    HW133035   0.708   3.130   1.851 -1.0859 -0.3864  0.4894
 7133SOL    HW233036   0.695   3.012   1.943 -0.9338  1.5146 -0.0070
 7134SOL     OW33037   4.691   4.578  14.615 -0.5290  0.7220 -0.3432
 7134SOL    HW133038   4.697   4.485  14.640  0.1568  0.6877 -0.6280
 7134SOL    HW233039   4.715   4.582  14.522 -0.2635 -0.8522 -0.3442
 7135SOL     OW33040   2.635   2.225   6.612 -0.9499 -0.1600 -0.0649
 7135SOL    HW133041   2.573   2.161   6.648 -0.8100  0.1218  0.6672
 7135SOL    HW233042   2.606   2.301   6.662  1.2813 -0.9534  2.4358
 7136SOL     OW33043   3.337   4.000  14.746  0.5183  0.9217 -0.6671
 7136SOL    HW133044   3.280   4.054  14.802  0.6891  2.6225 -2.1422
 7136SOL    HW233045   3.276   3.955  14.688  2.2752 -1.0558 -0.9672
 7137SOL     OW33046   4.598   2.312   3.805 -0.5127 -0.3308 -0.4618
 7137SOL    HW133047   4.615   2.315   3.711 -1.4220 -0.0608 -0.6238
 7137SOL    HW233048   4.563   2.396   3.836 -2.2460  0.2738 -4.0925
 7138SOL     OW33049   1.166   2.469  16.549  0.0238 -0.5116 -0.0854
 7138SOL    HW133050   1.153   2.483  16.455  0.2184 -1.7887 -0.3051
 7138SOL    HW233051   1.094   2.526  16.572 -0.7146 -0.7966 -1.6757
 7139SOL     OW33052   3.726   3.501  12.788  0.8130 -0.2793  0.4839
 7139SOL    HW133053   3.804   3.457  12.753  1.3633 -0.0526  1.4594
 7139SOL    HW233054   3.714   3.571  12.724  0.1983 -1.0093 -0.2055
 7140SOL     OW33055   0.863   2.918   8.628 -0.5243  0.4065  0.1205
 7140SOL    HW133056   0.863   2.940   8.722 -0.0764 -0.7538  0.3971
 7140SOL    HW233057   0.947   2.960   8.608  0.3989 -1.0508  0.9429
 7141SOL     OW33058   0.166   0.349   4.706  0.3226  0.0953  0.4311
 7141SOL    HW133059   0.162   0.277   4.642  0.7023  0.9860 -0.5977
 7141SOL    HW233060   0.249   0.384   4.674  0.0088  0.4941  0.0436
 7142SOL     OW33061   2.123   0.249   7.031 -0.8951 -0.0483  0.1058
 7142SOL    HW133062   2.170   0.296   7.099 -1.8856  0.7118  0.2758
 7142SOL    HW233063   2.070   0.189   7.084 -0.3110  1.3320  2.2732
 7143SOL     OW33064   3.256   4.321   3.438  0.4640  0.2689 -0.1097
 7143SOL    HW133065   3.261   4.263   3.513 -0.3680  0.3623  0.0146
 7143SOL    HW233066   3.248   4.404   3.486  1.1587  0.5655 -0.5035
 7144SOL     OW33067   1.402   0.088   4.494 -0.0789 -0.0373 -0.4454
 7144SOL    HW133068   1.422   0.155   4.560  0.8478  0.2309 -0.9915
 7144SOL    HW233069   1.309   0.104   4.483 -0.0003  0.4620 -0.3917
 7145SOL     OW33070   2.267   4.592   6.611 -0.2251  0.2533  0.3011
 7145SOL    HW133071   2.226   4.554   6.688  1.6306 -1.5947  0.3845
 7145SOL    HW233072   2.280   4.682   6.642 -0.7968  0.4784 -0.1166
 7146SOL     OW33073   0.951   1.168   5.545 -0.3741 -0.3293 -0.2154
 7146SOL    HW133074   0.901   1.250   5.553 -0.1404 -0.0304 -1.7253
 7146SOL    HW233075   0.909   1.120   5.615  1.0032  1.3178  1.7501
 7147SOL     OW33076   3.678   0.034   7.602 -0.1248 -0.2012 -0.5471
 7147SOL    HW133077   3.698   0.025   7.508  0.9885  0.9035 -0.4147
 7147SOL    HW233078   3.585   0.021   7.586  0.3781 -3.0490 -1.1858
 7148SOL     OW33079   1.515   3.928  17.654 -0.3270 -0.2953  0.3157
 7148SOL    HW133080   1.608   3.905  17.649 -0.3655 -0.2029 -0.8411
 7148SOL    HW233081   1.497   3.998  17.591  1.0156  1.2565  1.6409
 7149SOL     OW33082   1.352   2.499   1.384 -0.1106  0.2007 -0.0728
 7149SOL    HW133083   1.334   2.418   1.432 -0.5631  1.2907  1.5656
 7149SOL    HW233084   1.432   2.476   1.336 -0.4076  1.2835 -1.0702
 7150SOL     OW33085   1.116   1.906   7.408  0.8129 -0.0896  0.6907
 7150SOL    HW133086   1.093   1.843   7.476  1.8746 -0.5354  0.6292
 7150SOL    HW233087   1.132   1.861   7.325  0.8422 -3.8241  2.7139
 7151SOL     OW33088   3.469   2.702  12.669  0.2047  0.1123  0.6324
 7151SOL    HW133089   3.426   2.728  12.750 -2.8051 -0.9109 -0.6464
 7151SOL    HW233090   3.418   2.623  12.651 -0.3229  0.9511 -1.5103
 7152SOL     OW33091   0.290   3.568   1.175  1.1610 -0.0375  0.8119
 7152SOL    HW133092   0.300   3.534   1.085  1.2866 -1.7623  1.4733
 7152SOL    HW233093   0.210   3.616   1.156  1.2055 -0.9178 -1.5824
 7153SOL     OW33094   0.621   4.247   7.013  0.2523  0.0977 -0.1121
 7153SOL    HW133095   0.612   4.317   7.078  0.4422 -0.3945  0.4468
 7153SOL    HW233096   0.533   4.209   7.002  0.4348 -0.4986  0.4626
 7154SOL     OW33097   0.512   1.719   5.459 -0.0339  0.1039 -0.1077
 7154SOL    HW133098   0.533   1.779   5.388  0.7024 -0.4651 -0.3753
 7154SOL    HW233099   0.564   1.646   5.427 -1.9381 -0.7010 -1.3433
 7155SOL     OW33100   3.988   2.056  16.630 -0.5265 -0.0336 -0.6975
 7155SOL    HW133101   3.980   2.152  16.630 -1.1993 -0.0844 -0.2619
 7155SOL    HW233102   3.935   2.039  16.708 -0.6963  1.3443 -0.5122
 7156SOL     OW33103   0.092   0.732   7.250  0.1770  0.4499 -0.4910
 7156SOL    HW133104   0.046   0.694   7.175 -2.4279  1.5530  0.5425
 7156SOL    HW233105   0.064   0.821   7.228 -2.2817 -0.2310 -0.1796
 7157SOL     OW33106   0.522   2.771   6.739 -0.5153 -0.1455 -0.3871
 7157SOL    HW133107   0.459   2.759   6.810 -0.1630  1.1331  0.1336
 7157SOL    HW233108   0.475   2.828   6.679 -2.0628  0.4829  1.4343
 7158SOL     OW33109   1.931   3.618  16.685 -0.0024 -0.5180  0.3330
 7158SOL    HW133110   1.894   3.544  16.732 -1.3939 -0.6581 -0.9784
 7158SOL    HW233111   1.999   3.637  16.750  1.6186 -0.7555 -1.2602
 7159SOL     OW33112   0.795   2.508   1.623 -0.3454 -0.4650  0.5448
 7159SOL    HW133113   0.749   2.591   1.614  0.5228 -0.0437 -0.0574
 7159SOL    HW233114   0.794   2.490   1.717  0.4865 -0.7891  0.4960
 7160SOL     OW33115   2.087   2.309  13.838 -0.4626  0.2276 -0.0904
 7160SOL    HW133116   2.083   2.215  13.822 -1.2896  0.2914 -0.2321
 7160SOL    HW233117   2.055   2.322  13.928 -2.1187 -1.5006 -0.4368
 7161SOL     OW33118   1.488   2.722   4.034  0.0083 -0.3956 -0.1848
 7161SOL    HW133119   1.581   2.712   4.055 -0.6990 -0.4939  2.9300
 7161SOL    HW233120   1.453   2.661   4.099 -2.8053  1.0225 -0.3315
 7162SOL     OW33121   1.724   1.284  10.056 -0.4531 -0.3450 -0.2201
 7162SOL    HW133122   1.767   1.219  10.112  0.5866 -0.2304 -0.8927
 7162SOL    HW233123   1.665   1.330  10.117  0.9909 -0.9299  1.6274
 7163SOL     OW33124   4.600   3.891   0.610 -0.0448 -0.2462 -0.5849
 7163SOL    HW133125   4.695   3.894   0.620 -0.0763  1.5787 -0.9420
 7163SOL    HW233126   4.574   3.803   0.638 -0.7555  0.4268  0.8751
 7164SOL     OW33127   3.980   1.678   2.736  0.0334  0.1621 -0.0762
 7164SOL    HW133128   3.983   1.585   2.712  0.1120  0.9391 -3.1279
 7164SOL    HW233129   4.070   1.710   2.740 -0.7221  2.0327  2.0137
 7165SOL     OW33130   3.836   0.391   3.797  0.3026  0.1463 -0.1290
 7165SOL    HW133131   3.813   0.484   3.797  0.6703  0.2362 -2.0918
 7165SOL    HW233132   3.898   0.381   3.724  1.9513  0.1296  1.2664
 7166SOL     OW33133   3.888   2.205   5.898  0.1228 -0.4531 -0.3367
 7166SOL    HW133134   3.823   2.193   5.967  0.4054  1.5298  0.2672
 7166SOL    HW233135   3.919   2.115   5.886  0.7734  0.0307 -2.1211
 7167SOL     OW33136   3.214   1.798   9.788 -0.0499 -0.3185  0.8991
 7167SOL    HW133137   3.181   1.873   9.739  1.4773  0.7566  1.5628
 7167SOL    HW233138   3.137   1.762   9.833 -1.2083 -0.4879 -1.1969
 7168SOL     OW33139   4.232   0.133   7.150 -0.0633  0.2077 -0.1127
 7168SOL    HW133140   4.271   0.052   7.183 -0.5738 -0.6282 -1.5563
 7168SOL    HW233141   4.168   0.153   7.218  0.8956  1.4606  0.4260
 7169SOL     OW33142   0.548   0.476   0.737 -0.0107 -0.0215 -0.0526
 7169SOL    HW133143   0.524   0.433   0.819  0.6135  0.5676  0.4462
 7169SOL    HW233144   0.564   0.567   0.764 -1.2648 -0.0729  0.9016
 7170SOL     OW33145   0.655   3.317  12.022  0.4409 -0.5102  0.3919
 7170SOL    HW133146   0.570   3.356  12.039  1.0342  1.8953 -2.0677
 7170SOL    HW233147   0.708   3.375  12.077 -0.8808  1.0249  0.0388
 7171SOL     OW33148   2.119   4.578   7.555  0.0428  0.0816  0.3421
 7171SOL    HW133149   2.039   4.537   7.589  0.1788 -0.6719 -0.2481
 7171SOL    HW233150   2.092   4.668   7.573  1.3480  0.7322 -0.9988
 7172SOL     OW33151   0.104   2.901   6.119  0.8856  0.3219 -0.6225
 7172SOL    HW133152   0.075   2.991   6.109  0.3388  0.3961  1.5811
 7172SOL    HW233153   0.199   2.901   6.133  0.6003  0.6064  1.3992
 7173SOL     OW33154   1.387   2.232  12.870  0.3966 -0.5550 -0.1213
 7173SOL    HW133155   1.477   2.223  12.839  1.1780  0.4436  1.9077
 7173SOL    HW233156   1.394   2.204  12.961 -0.0951 -1.0023 -0.2183
 7174SOL     OW33157   4.248   1.200   5.864 -0.3673 -0.1606  0.2893
 7174SOL    HW133158   4.163   1.240   5.844 -0.0886  1.1732  1.7955
 7174SOL    HW233159   4.307   1.271   5.838  1.5583 -2.3201 -1.2716
 7175SOL     OW33160   0.150   3.224  16.441 -0.3891 -0.2185 -0.3091
 7175SOL    HW133161   0.226   3.192  16.392  1.2834  2.6818  0.3678
 7175SOL    HW233162   0.193   3.277  16.508 -0.2298 -0.2284 -0.4040
 7176SOL     OW33163   1.657   0.930   6.205 -0.1914  0.0802  0.0528
 7176SOL    HW133164   1.654   0.988   6.129  1.9306 -1.1909 -0.9922
 7176SOL    HW233165   1.619   0.852   6.164  1.8396 -1.2958  0.7740
 7177SOL     OW33166   1.124   2.226   8.593  0.4808  0.5674 -0.1411
 7177SOL    HW133167   1.202   2.171   8.600  0.1233  0.0162 -0.5536
 7177SOL    HW233168   1.149   2.294   8.656 -2.4541  0.0852  1.5276
 7178SOL     OW33169   1.246   0.331  10.500  0.0376  0.2286  0.3934
 7178SOL    HW133170   1.196   0.263  10.544  0.0062 -0.4115 -0.6392
 7178SOL    HW233171   1.217   0.409  10.547 -2.8961 -1.7171  1.7978
 7179SOL     OW33172   0.464   1.440   1.521  0.6652  0.3976  0.1612
 7179SOL    HW133173   0.398   1.372   1.507 -0.1562  1.1368  0.3754
 7179SOL    HW233174   0.422   1.508   1.469  0.6043  0.6732  0.5698
 7180SOL     OW33175   3.802   2.370   2.469  0.5255 -0.3557  0.6899
 7180SOL    HW133176   3.803   2.274   2.472  2.2559 -0.4025 -1.4898
 7180SOL    HW233177   3.889   2.384   2.432  0.3975  0.9966  0.9051
 7181SOL     OW33178   3.524   4.510   3.318 -0.1875  0.1021  0.1428
 7181SOL    HW133179   3.587   4.503   3.390  0.4961 -0.6791 -0.5224
 7181SOL    HW233180   3.568   4.457   3.252 -0.7847 -0.6459  0.3448
 7182SOL     OW33181   2.455   0.932   3.574  0.4596  0.3166 -0.4581
 7182SOL    HW133182   2.422   0.961   3.489 -1.6455 -2.3906 -0.5814
 7182SOL    HW233183   2.469   0.839   3.556  0.3444  0.1919  0.0778
 7183SOL     OW33184   1.293   1.197  10.068  0.3016 -0.0446  0.1801
 7183SOL    HW133185   1.332   1.191   9.980 -1.7733  0.4100 -0.7600
 7183SOL    HW233186   1.218   1.256  10.060  0.2244 -0.2069 -0.3691
 7184SOL     OW33187   4.412   0.538  11.967  0.4469 -0.2314 -0.2761
 7184SOL    HW133188   4.408   0.455  11.920 -2.7587 -0.8272  1.0323
 7184SOL    HW233189   4.340   0.531  12.030  0.6176  0.2413 -0.0246
 7185SOL     OW33190   2.723   1.562   7.367  0.4843 -0.4453 -0.3564
 7185SOL    HW133191   2.708   1.476   7.405 -0.2420  0.4373  1.3533
 7185SOL    HW233192   2.788   1.598   7.428 -0.5137 -0.2419  0.5884
 7186SOL     OW33193   4.587   1.520   9.182  0.1793  0.0764 -0.1225
 7186SOL    HW133194   4.536   1.600   9.193 -1.1477 -0.7641 -0.1483
 7186SOL    HW233195   4.670   1.553   9.217  1.4736 -1.4397 -1.7365
 7187SOL     OW33196   3.732   0.064  17.186  0.1072  0.1173 -0.6932
 7187SOL    HW133197   3.823   0.068  17.216  0.4015 -0.1178 -1.5371
 7187SOL    HW233198   3.742   0.031  17.096  0.1584 -1.1973 -0.2100
 7188SOL     OW33199   1.703   3.913  12.733  0.1823  0.2636  0.4684
 7188SOL    HW133200   1.757   3.959  12.798  1.1386  0.6405 -0.5828
 7188SOL    HW233201   1.706   3.986  12.670 -0.7853  0.3718  0.5609
 7189SOL     OW33202   1.313   2.318   8.006  0.5022 -0.1432 -0.0833
 7189SOL    HW133203   1.277   2.395   7.961  1.2955  0.0013 -0.4587
 7189SOL    HW233204   1.247   2.293   8.071 -0.7455 -1.6627 -1.9233
 7190SOL     OW33205   3.942   3.873   2.430 -0.6095 -0.2364  0.0347
 7190SOL    HW133206   3.937   3.835   2.343  1.0793  0.2132 -0.2452
 7190SOL    HW233207   4.025   3.832   2.452 -0.8593 -0.1711  1.1364
 7191SOL     OW33208   0.206   1.943  15.713 -0.5569 -0.1939  0.2773
 7191SOL    HW133209   0.149   1.936  15.637 -1.1691  0.3404  0.6795
 7191SOL    HW233210   0.217   2.038  15.715  3.1178 -0.6220  1.0266
 7192SOL     OW33211   3.986   4.633  10.049  0.2161 -0.5588  0.2060
 7192SOL    HW133212   3.971   4.553  10.099 -1.9982  0.2298  0.8425
 7192SOL    HW233213   3.913   4.634   9.987 -0.0489  1.8824  0.5538
 7193SOL     OW33214   1.666   3.060   2.995 -0.2334 -0.0788 -0.7609
 7193SOL    HW133215   1.707   3.038   2.911 -4.1988 -0.4957 -2.5978
 7193SOL    HW233216   1.721   3.005   3.052 -0.5557  1.4643  1.0305
 7194SOL     OW33217   0.812   0.149  15.928  0.0727  0.0331  0.8180
 7194SOL    HW133218   0.899   0.114  15.946  0.3551 -0.1725 -0.9347
 7194SOL    HW233219   0.766   0.143  16.012 -1.1074  0.7522  0.2325
 7195SOL     OW33220   1.735   3.321   3.780  0.4744  0.1994  0.3160
 7195SOL    HW133221   1.814   3.267   3.777 -0.1039 -0.5780 -0.9722
 7195SOL    HW233222   1.671   3.258   3.746  0.7265  0.5550 -0.8227
 7196SOL     OW33223   0.201   4.473   1.899  0.1258 -0.2291 -0.2663
 7196SOL    HW133224   0.267   4.537   1.925 -0.9603  0.6542  0.3461
 7196SOL    HW233225   0.130   4.529   1.870 -0.1796 -2.1144 -3.1574
 7197SOL     OW33226   4.387   2.766   0.834 -0.6481 -0.8896  0.2503
 7197SOL    HW133227   4.380   2.692   0.894  0.3397  1.0599  2.8198
 7197SOL    HW233228   4.337   2.833   0.881  1.1752  0.9458 -0.4063
 7198SOL     OW33229   1.318   1.641   5.639 -0.4189 -1.0647  0.6472
 7198SOL    HW133230   1.372   1.591   5.700  2.2496  1.7099  0.5778
 7198SOL    HW233231   1.333   1.595   5.556 -1.3795 -0.5109  0.1656
 7199SOL     OW33232   4.629   1.917   5.067 -0.2746 -0.4776  0.2251
 7199SOL    HW133233   4.603   1.874   4.986 -1.9053  0.1100  0.4348
 7199SOL    HW233234   4.583   2.001   5.069 -1.0142 -0.8755 -0.7030
 7200SOL     OW33235   4.370   1.988   7.027 -0.2217 -0.0373  0.1259
 7200SOL    HW133236   4.277   2.005   7.038 -0.3913 -0.6819 -0.3053
 7200SOL    HW233237   4.370   1.893   7.029 -1.5649 -0.0458 -0.3650
 7201SOL     OW33238   4.585   0.815   9.178 -0.1163  0.2313  1.1257
 7201SOL    HW133239   4.528   0.882   9.139  1.8060  1.5305  0.5397
 7201SOL    HW233240   4.593   0.848   9.267 -2.9706  1.8608  0.7763
 7202SOL     OW33241   0.809   0.521  15.572  0.1906 -0.4014 -0.1229
 7202SOL    HW133242   0.775   0.481  15.653  3.2342 -0.9601  0.8791
 7202SOL    HW233243   0.847   0.440  15.538 -0.6605 -1.6316  1.8271
 7203SOL     OW33244   2.249   1.597   4.717 -0.1321  0.1216 -0.3778
 7203SOL    HW133245   2.302   1.621   4.642  0.5170  0.1270  0.0828
 7203SOL    HW233246   2.312   1.558   4.778 -0.4827 -0.1526 -0.1915
 7204SOL     OW33247   1.451   2.642  12.491 -0.3228  0.0621 -0.4621
 7204SOL    HW133248   1.419   2.575  12.553 -2.4664 -1.0542 -2.7719
 7204SOL    HW233249   1.435   2.723  12.540  0.4101  1.3006 -2.3007
 7205SOL     OW33250   2.884   3.471   5.451 -0.6444  0.2671 -0.6500
 7205SOL    HW133251   2.960   3.517   5.486 -1.0690  0.5570 -0.1071
 7205SOL    HW233252   2.855   3.520   5.374  0.1415  0.6847 -0.6715
 7206SOL     OW33253   2.786   0.247   4.665 -0.4439 -0.1805 -0.3853
 7206SOL    HW133254   2.792   0.310   4.593 -1.1962  0.2799 -0.0522
 7206SOL    HW233255   2.874   0.254   4.702 -1.1758  0.9824  1.1089
 7207SOL     OW33256   4.255   0.563   9.795  0.4315 -0.4900 -0.0823
 7207SOL    HW133257   4.334   0.516   9.768  1.5131  1.2671  0.0442
 7207SOL    HW233258   4.217   0.492   9.846 -0.6014 -0.4205 -0.7670
 7208SOL     OW33259   1.535   0.704  17.247 -0.0804 -0.0788 -0.7080
 7208SOL    HW133260   1.467   0.694  17.181  0.4092 -1.7983 -0.9601
 7208SOL    HW233261   1.580   0.784  17.223  0.2432  0.0399  0.2757
 7209SOL     OW33262   3.698   2.265   7.418  0.3252 -0.2565 -0.3192
 7209SOL    HW133263   3.690   2.258   7.513 -0.8096  2.2671 -0.2350
 7209SOL    HW233264   3.793   2.279   7.412 -0.1740  2.4908 -1.6912
 7210SOL     OW33265   0.978   2.738  14.470  0.2080 -0.2263  0.2609
 7210SOL    HW133266   0.970   2.833  14.464 -1.8153 -0.4749 -1.0567
 7210SOL    HW233267   0.932   2.703  14.394 -0.1808  3.0694 -1.0073
 7211SOL     OW33268   0.973   0.359   8.477  0.7382 -0.3800  0.6163
 7211SOL    HW133269   1.039   0.418   8.513  2.1687 -1.9449  0.5266
 7211SOL    HW233270   0.901   0.368   8.539 -0.0815 -0.8827 -0.2551
 7212SOL     OW33271   3.397   4.469   4.390  0.3437 -0.0804  0.1900
 7212SOL    HW133272   3.307   4.472   4.423  0.9149  1.2892  1.6211
 7212SOL    HW233273   3.376   4.424   4.308  2.1091  0.5543 -0.5987
 7213SOL     OW33274   3.439   0.042   1.257  0.3213  0.4766  0.3078
 7213SOL    HW133275   3.378   0.025   1.329 -0.2398  0.9215 -0.0540
 7213SOL    HW233276   3.507   0.091   1.302 -0.4653  1.5128  0.3946
 7214SOL     OW33277   1.954   4.167  13.538  0.2197 -0.0017  0.5437
 7214SOL    HW133278   1.863   4.180  13.512 -0.4392 -3.5431  1.0638
 7214SOL    HW233279   1.947   4.091  13.596  2.1154  0.8310  1.8656
 7215SOL     OW33280   0.226   2.941  13.439 -0.6795 -0.3531  0.2350
 7215SOL    HW133281   0.260   2.860  13.401 -0.7375 -0.1516 -0.2500
 7215SOL    HW233282   0.135   2.923  13.463 -0.9442  1.7573  0.8370
 7216SOL     OW33283   3.445   0.710   2.280  0.1167 -0.2617 -0.3919
 7216SOL    HW133284   3.445   0.805   2.290 -0.6119 -0.3243  0.1383
 7216SOL    HW233285   3.515   0.691   2.342 -0.2188 -1.1695 -0.2951
 7217SOL     OW33286   3.009   1.763  16.751 -0.0018 -0.2474 -0.5659
 7217SOL    HW133287   2.939   1.791  16.810  0.8152  1.6910 -0.5030
 7217SOL    HW233288   2.996   1.668  16.752  0.2653 -0.2525  2.0956
 7218SOL     OW33289   2.575   4.702   5.379  0.3749  0.2449 -0.1782
 7218SOL    HW133290   2.583   4.708   5.474  0.1666 -0.0545 -0.1414
 7218SOL    HW233291   2.525   0.042   5.364 -0.5877 -0.3336 -0.0956
 7219SOL     OW33292   1.611   3.574   7.960  0.2785 -0.1362  0.0085
 7219SOL    HW133293   1.683   3.582   8.022  1.2911 -3.2575 -0.7730
 7219SOL    HW233294   1.629   3.484   7.931  0.9070  0.2807 -0.8986
 7220SOL     OW33295   3.935   2.312   9.187 -0.6989  0.1578 -0.5713
 7220SOL    HW133296   3.885   2.332   9.266  0.2634 -1.9088  0.5906
 7220SOL    HW233297   3.951   2.403   9.163  1.0844 -0.3618 -1.3726
 7221SOL     OW33298   3.237   0.935   4.252 -0.0689 -0.0059  0.5070
 7221SOL    HW133299   3.333   0.939   4.249 -0.1395 -0.0614 -1.8040
 7221SOL    HW233300   3.221   0.952   4.159 -1.2034 -0.5600  0.6031
 7222SOL     OW33301   3.073   3.028   7.014  0.6996  0.3021 -0.3225
 7222SOL    HW133302   3.001   3.084   6.985  0.6209 -0.1316 -0.9504
 7222SOL    HW233303   3.044   2.947   6.972  3.1897 -0.6924 -0.1424
 7223SOL     OW33304   4.474   3.802   9.191 -0.1541  0.0904  0.1023
 7223SOL    HW133305   4.540   3.802   9.122  2.9362 -1.7306  3.0423
 7223SOL    HW233306   4.498   3.724   9.240 -2.6747  0.8407  2.5433
 7224SOL     OW33307   0.718   0.445   2.351 -0.4860  0.4143 -0.2630
 7224SOL    HW133308   0.694   0.414   2.263 -1.4615  1.5287 -0.3943
 7224SOL    HW233309   0.790   0.387   2.375 -0.3966 -0.5571 -2.8653
 7225SOL     OW33310   2.697   0.083   8.300 -0.1575  0.4924 -0.0647
 7225SOL    HW133311   2.771   0.105   8.355  0.8408 -1.3041 -0.7028
 7225SOL    HW233312   2.695   0.168   8.255 -0.0761  0.4631 -0.1233
 7226SOL     OW33313   3.928   0.039  13.738  0.3112  0.0868 -0.8368
 7226SOL    HW133314   3.931   0.128  13.702 -4.5461  0.2320 -0.8408
 7226SOL    HW233315   4.014   0.015  13.773  0.4942  2.1861  0.2238
 7227SOL     OW33316   1.281   2.078   4.351  0.2272  0.0492 -0.1856
 7227SOL    HW133317   1.353   2.052   4.294  0.8250 -0.6166  0.8745
 7227SOL    HW233318   1.288   2.173   4.341 -0.6363  0.2186  0.7811
 7228SOL     OW33319   3.013   1.379  13.361 -0.1139  0.4137 -0.0674
 7228SOL    HW133320   2.963   1.460  13.372  0.6363  0.8339  0.2816
 7228SOL    HW233321   3.091   1.404  13.312 -0.9326  2.0813 -0.5139
 7229SOL     OW33322   3.009   2.816   5.528 -0.0235  0.2466  0.8339
 7229SOL    HW133323   3.004   2.884   5.595  1.2438  2.1338 -0.9968
 7229SOL    HW233324   3.025   2.860   5.445  3.5850 -0.8034  0.9727
 7230SOL     OW33325   4.374   3.396   5.844 -0.4447  0.1888  0.4020
 7230SOL    HW133326   4.411   3.401   5.756 -0.5032  1.2581  0.4353
 7230SOL    HW233327   4.433   3.338   5.892 -2.2493  0.6555  3.1964
 7231SOL     OW33328   3.839   1.314   2.291  0.2453 -0.5079  0.0245
 7231SOL    HW133329   3.882   1.250   2.235 -0.7445 -0.8316 -0.3638
 7231SOL    HW233330   3.881   1.287   2.373 -2.4824  0.7398  1.8564
 7232SOL     OW33331   3.922   3.056   5.326 -0.1135 -0.4217 -0.2157
 7232SOL    HW133332   3.926   2.988   5.393  0.8387 -1.2911 -1.1469
 7232SOL    HW233333   3.984   3.120   5.360  0.3027 -0.7029 -0.4383
 7233SOL     OW33334   2.128   2.165   7.456 -0.1782 -0.1032  0.5814
 7233SOL    HW133335   2.043   2.205   7.473  0.2642  0.1564  2.2339
 7233SOL    HW233336   2.110   2.072   7.473 -1.2366  0.1715  0.9547
 7234SOL     OW33337   4.583   2.811   8.404 -0.9440 -0.0398 -0.1352
 7234SOL    HW133338   4.530   2.731   8.405  0.5338 -1.0314 -0.8555
 7234SOL    HW233339   4.621   2.806   8.316  2.1534 -0.3326  1.2205
 7235SOL     OW33340   1.536   0.493   3.921  0.3466  0.2237 -0.0644
 7235SOL    HW133341   1.462   0.495   3.861  0.4656 -1.5358 -0.2709
 7235SOL    HW233342   1.608   0.494   3.858  0.6357  0.6870  0.2769
 7236SOL     OW33343   2.771   0.123   9.716 -0.3602  0.2413  0.1198
 7236SOL    HW133344   2.808   0.076   9.790  0.6743  0.1243 -0.4741
 7236SOL    HW233345   2.761   0.212   9.750  0.1834  0.3879 -0.1126
 7237SOL     OW33346   2.980   2.293  14.462 -0.7423  0.3369 -0.0418
 7237SOL    HW133347   2.963   2.314  14.370 -1.5996 -2.1224 -0.4549
 7237SOL    HW233348   2.921   2.219  14.476  2.3581 -1.7041  2.3050
 7238SOL     OW33349   0.291   1.379   9.233 -0.3758  0.6937 -0.1471
 7238SOL    HW133350   0.267   1.288   9.249 -2.4512  1.3198  0.3942
 7238SOL    HW233351   0.295   1.385   9.137  1.6174 -0.3478 -0.1200
 7239SOL     OW33352   2.591   3.909  12.350 -0.2337 -0.1389  0.5486
 7239SOL    HW133353   2.562   3.994  12.317  2.7708  0.9140  0.6095
 7239SOL    HW233354   2.506   3.869  12.369 -0.4461 -0.0079 -0.1018
 7240SOL     OW33355   4.228   1.314  10.496 -0.0578  0.2661  0.2244
 7240SOL    HW133356   4.204   1.305  10.404 -1.5311 -1.3240  0.7668
 7240SOL    HW233357   4.289   1.240  10.499  0.4669  0.7040  0.4969
 7241SOL     OW33358   2.031   4.578   3.323  0.1534 -0.0083  0.4551
 7241SOL    HW133359   1.938   4.596   3.334  0.3815 -0.2065  2.7006
 7241SOL    HW233360   2.039   4.495   3.370  0.8448  0.0486  0.4436
 7242SOL     OW33361   1.973   4.449   2.306  0.1448  0.0638  0.1184
 7242SOL    HW133362   1.918   4.397   2.364  0.4596  0.2156  0.5593
 7242SOL    HW233363   2.017   4.374   2.265  2.3690  1.4234  0.0132
 7243SOL     OW33364   0.015   2.281   8.199 -1.1543 -0.3807  0.9371
 7243SOL    HW133365   0.010   2.371   8.231  0.8227 -0.2716  0.9276
 7243SOL    HW233366   0.107   2.261   8.216 -0.2881  1.4474 -1.6687
 7244SOL     OW33367   2.325   3.217  16.458  0.1463  0.2472 -0.0420
 7244SOL    HW133368   2.386   3.224  16.384  0.3969 -0.3447  0.1074
 7244SOL    HW233369   2.243   3.203  16.411 -0.8633 -0.3014  1.8663
 7245SOL     OW33370   4.740   2.350   4.684 -0.1691 -0.2348  0.1791
 7245SOL    HW133371   0.054   2.397   4.749 -0.2116  2.3061 -1.6247
 7245SOL    HW233372   4.727   2.421   4.621 -2.0347 -0.3950  0.3755
 7246SOL     OW33373   1.727   0.979  14.759 -0.6005 -0.1535 -0.6460
 7246SOL    HW133374   1.762   0.948  14.843  0.5337  0.4576 -0.8892
 7246SOL    HW233375   1.793   0.952  14.696  0.3541 -0.9605  0.7099
 7247SOL     OW33376   0.138   4.593   0.730  0.2811 -0.0921 -0.8009
 7247SOL    HW133377   0.051   4.623   0.758  1.5821  1.5295  1.5297
 7247SOL    HW233378   0.200   4.661   0.757  0.3561 -0.4026 -0.1800
 7248SOL     OW33379   3.046   2.507   2.006  0.4132  0.2157  0.3935
 7248SOL    HW133380   3.111   2.576   1.994 -1.3462  1.8498  0.3023
 7248SOL    HW233381   3.023   2.529   2.097  1.1906  1.9448  0.1794
 7249SOL     OW33382   1.683   0.765   8.837  0.0437  0.2043 -0.1990
 7249SOL    HW133383   1.614   0.804   8.783  0.8416 -0.2430 -1.5513
 7249SOL    HW233384   1.707   0.848   8.877 -1.8324  0.9329 -0.6010
 7250SOL     OW33385   0.933   4.319   6.078  0.5114  0.4217 -0.2958
 7250SOL    HW133386   0.942   4.348   6.168 -0.2271 -0.2544 -0.0039
 7250SOL    HW233387   0.932   4.224   6.089 -2.5742  0.5382  0.4534
 7251SOL     OW33388   2.698   2.354   3.701 -0.3673  0.5590  0.4254
 7251SOL    HW133389   2.684   2.439   3.660 -2.4940 -0.0624 -0.1095
 7251SOL    HW233390   2.791   2.340   3.683 -0.3218  2.0271 -0.4445
 7252SOL     OW33391   1.647   3.824   0.357 -0.1881  0.1178 -1.0163
 7252SOL    HW133392   1.735   3.809   0.321  0.4107 -2.4541  1.5497
 7252SOL    HW233393   1.586   3.802   0.286 -3.0420 -0.8276  1.7698
 7253SOL     OW33394   4.144   3.464  14.540  0.4282  0.5663 -0.4844
 7253SOL    HW133395   4.090   3.437  14.614 -1.3233  0.9563 -1.6424
 7253SOL    HW233396   4.231   3.478  14.577  0.3760 -1.8451  0.5421
 7254SOL     OW33397   3.849   0.607   9.349 -0.2038 -0.4327 -0.0394
 7254SOL    HW133398   3.913   0.599   9.277  0.1858 -1.6472  0.4471
 7254SOL    HW233399   3.898   0.554   9.411 -0.5137  0.8056  1.2669
 7255SOL     OW33400   2.972   1.537   4.070  0.4716 -0.2312 -0.0451
 7255SOL    HW133401   3.032   1.546   3.997 -2.1901  2.2323 -1.9470
 7255SOL    HW233402   3.016   1.470   4.123 -0.4510 -0.6862  0.1459
 7256SOL     OW33403   2.082   4.379   5.198  0.2908 -0.0212 -0.3676
 7256SOL    HW133404   2.075   4.473   5.211  0.2858 -0.6187  3.7001
 7256SOL    HW233405   2.144   4.382   5.124  0.9261  0.3419  0.1853
 7257SOL     OW33406   3.094   3.652  10.346 -0.1841 -0.1334  0.3352
 7257SOL    HW133407   3.094   3.722  10.411  1.0815 -1.2712  1.5685
 7257SOL    HW233408   3.085   3.574  10.400 -0.8438 -1.9950 -2.4599
 7258SOL     OW33409   2.592   3.149   3.676 -0.3072  0.5047 -0.7127
 7258SOL    HW133410   2.532   3.111   3.612 -0.5333 -0.4552  0.0761
 7258SOL    HW233411   2.676   3.111   3.651  0.0420  0.1344  0.9884
 7259SOL     OW33412   2.115   4.664   4.898 -0.0944 -1.0366 -0.7512
 7259SOL    HW133413   2.081   4.736   4.952  0.3467 -1.0219 -0.4887
 7259SOL    HW233414   2.039   4.607   4.908  0.0260 -0.7410  2.0547
 7260SOL     OW33415   4.346   2.591  10.529 -0.2267 -0.0992  0.0982
 7260SOL    HW133416   4.347   2.503  10.494  0.2453  0.1584 -0.5387
 7260SOL    HW233417   4.298   2.638  10.461 -2.7009 -3.0934 -0.1912
 7261SOL     OW33418   0.198   2.057  17.554 -0.0945  0.4077 -0.8478
 7261SOL    HW133419   0.122   2.015  17.513 -0.0690  2.7546 -3.2441
 7261SOL    HW233420   0.267   2.008  17.511 -0.2635 -0.5641 -0.0189
 7262SOL     OW33421   1.761   0.545   4.246 -0.2569  0.0100  0.1470
 7262SOL    HW133422   1.798   0.471   4.198  2.8263  0.6379  1.5714
 7262SOL    HW233423   1.838   0.572   4.296  1.5111 -0.0155 -2.5305
 7263SOL     OW33424   2.328   1.129   3.098 -0.0626 -0.8212 -0.2946
 7263SOL    HW133425   2.417   1.143   3.065 -0.9416  0.4884 -2.1048
 7263SOL    HW233426   2.320   1.201   3.161  0.8861 -0.5809 -0.4468
 7264SOL     OW33427   0.507   0.330   9.076  0.7451 -0.5042 -0.1730
 7264SOL    HW133428   0.437   0.339   9.140 -0.8544 -0.6088 -1.9154
 7264SOL    HW233429   0.560   0.262   9.118 -0.9700 -1.8026 -0.1240
 7265SOL     OW33430   0.989   3.814   2.059 -0.5788  0.3514  0.0093
 7265SOL    HW133431   0.956   3.734   2.019 -3.3953  1.4269  0.1021
 7265SOL    HW233432   0.974   3.798   2.153 -0.4687  3.1788  0.5185
 7266SOL     OW33433   4.262   0.788   4.387  0.0846  0.6698 -0.1762
 7266SOL    HW133434   4.307   0.759   4.466 -0.0421 -0.0705 -0.3810
 7266SOL    HW233435   4.315   0.865   4.366 -0.7903  0.9123 -1.5086
 7267SOL     OW33436   0.050   3.733   1.785 -0.5411 -0.6577 -0.3939
 7267SOL    HW133437   0.060   3.807   1.844 -1.2340  0.0761 -1.2014
 7267SOL    HW233438   4.695   3.737   1.773 -0.6872 -2.6086  0.0095
 7268SOL     OW33439   3.896   2.326  16.716 -0.5522 -0.3544 -1.1854
 7268SOL    HW133440   3.803   2.325  16.737 -0.2499  0.9057  0.2731
 7268SOL    HW233441   3.918   2.418  16.726  0.3441 -0.8041  1.1014
 7269SOL     OW33442   0.974   2.969   2.821 -0.0285 -0.3398  0.2965
 7269SOL    HW133443   0.906   3.014   2.772  1.0451  0.0346 -0.8496
 7269SOL    HW233444   0.934   2.890   2.859  2.9407 -1.4277  1.1424
 7270SOL     OW33445   4.496   3.950  12.836 -0.6602 -0.0415  0.6614
 7270SOL    HW133446   4.579   3.994  12.857 -0.5341  0.3115 -0.5595
 7270SOL    HW233447   4.426   4.011  12.859 -0.2261  0.3710  0.9141
 7271SOL     OW33448   2.065   1.656   8.346  0.1072 -0.4565 -0.1473
 7271SOL    HW133449   2.152   1.619   8.360  0.1417 -0.1703  0.4477
 7271SOL    HW233450   2.062   1.688   8.256  1.5437 -1.3120 -0.5064
 7272SOL     OW33451   2.542   2.539   3.133 -0.9355  0.1083  0.4087
 7272SOL    HW133452   2.502   2.454   3.153  0.9341 -1.0627 -0.8036
 7272SOL    HW233453   2.531   2.595   3.210 -1.7335  1.2532 -0.5564
 7273SOL     OW33454   2.708   0.094  17.485 -0.5559 -0.4949 -0.3955
 7273SOL    HW133455   2.691   0.163  17.548 -0.3242 -0.4218 -0.4123
 7273SOL    HW233456   2.802   0.081  17.501 -0.5491  0.7011  0.4835
 7274SOL     OW33457   2.719   2.108   2.763  0.3820 -0.1456  0.0940
 7274SOL    HW133458   2.682   2.024   2.735 -0.5123  0.2319  0.1497
 7274SOL    HW233459   2.779   2.135   2.693 -1.4026 -0.1648 -1.4404
 7275SOL     OW33460   0.774   4.071   1.786  0.2834  0.3811  0.3037
 7275SOL    HW133461   0.740   4.146   1.736 -0.1711  0.7628  1.1876
 7275SOL    HW233462   0.845   4.048   1.726  1.6758  1.8639  1.3761
 7276SOL     OW33463   2.775   2.848   4.996  0.3856 -0.0414  0.4396
 7276SOL    HW133464   2.850   2.819   5.046 -0.3872  0.3576  1.8170
 7276SOL    HW233465   2.707   2.848   5.063 -0.9028  1.0753 -0.8580
 7277SOL     OW33466   3.044   0.506   4.254  0.6250 -0.0576  0.3686
 7277SOL    HW133467   3.138   0.496   4.273  0.6828  2.5039  1.5060
 7277SOL    HW233468   3.041   0.535   4.163 -0.4094 -0.6588  0.2205
 7278SOL     OW33469   3.297   1.697  12.514  0.1755 -0.3360 -0.4675
 7278SOL    HW133470   3.274   1.625  12.456  1.2969 -2.1223  1.3175
 7278SOL    HW233471   3.314   1.767  12.451  0.2117 -1.6522 -1.9053
 7279SOL     OW33472   1.340   3.532   8.006  0.0779  0.6588  0.6201
 7279SOL    HW133473   1.326   3.602   8.070 -2.1057 -0.9531  1.8983
 7279SOL    HW233474   1.416   3.572   7.963 -1.0317 -0.2367 -2.1406
 7280SOL     OW33475   3.350   3.628   4.503 -0.0834  0.6067 -0.5869
 7280SOL    HW133476   3.346   3.649   4.410  0.1035 -0.5944 -0.8637
 7280SOL    HW233477   3.389   3.707   4.539 -1.7204  2.4579 -2.8731
 7281SOL     OW33478   1.696   4.634   9.593 -0.4064  0.6520  0.0591
 7281SOL    HW133479   1.615   4.634   9.645  0.3098  1.3972  1.1841
 7281SOL    HW233480   1.721   4.727   9.594 -0.0194  0.5516 -0.4445
 7282SOL     OW33481   1.868   3.810  11.985  0.6148 -0.1218  0.1228
 7282SOL    HW133482   1.961   3.795  12.000  0.3653 -1.0717  0.7580
 7282SOL    HW233483   1.842   3.727  11.945 -0.0808  0.4825 -0.6839
 7283SOL     OW33484   1.508   0.846   7.453 -0.3706  0.1049  0.8289
 7283SOL    HW133485   1.483   0.788   7.381 -1.4846  3.1101 -1.2186
 7283SOL    HW233486   1.437   0.909   7.442 -0.5059 -0.2276 -0.2122
 7284SOL     OW33487   4.671   1.632   2.619  0.2340 -0.5971 -0.5824
 7284SOL    HW133488   0.013   1.639   2.667  0.1053 -1.3731 -0.2496
 7284SOL    HW233489   4.602   1.641   2.685  1.0823 -0.0092  0.2137
 7285SOL     OW33490   4.127   0.434   9.993  0.0309 -0.3162  0.6666
 7285SOL    HW133491   4.089   0.489  10.061 -2.4282 -1.1389 -0.0608
 7285SOL    HW233492   4.088   0.351  10.019 -0.2150 -0.0011  1.3113
 7286SOL     OW33493   3.660   4.430   6.246 -0.2747  0.5136 -0.2466
 7286SOL    HW133494   3.744   4.447   6.287  0.7612 -2.0297 -1.2919
 7286SOL    HW233495   3.604   4.413   6.321 -0.3065 -2.1097 -0.8662
 7287SOL     OW33496   4.652   1.124  15.275 -0.2545  0.5023 -0.1123
 7287SOL    HW133497   4.648   1.075  15.357 -3.2769  1.1633  0.1344
 7287SOL    HW233498   4.653   1.058  15.206 -2.3624 -0.4980  0.8061
 7288SOL     OW33499   0.647   0.734   0.833 -0.6519  0.2006  0.4148
 7288SOL    HW133500   0.683   0.819   0.860 -1.3992  0.8527 -0.6549
 7288SOL    HW233501   0.559   0.766   0.816 -0.8102 -1.3960 -1.6967
 7289SOL     OW33502   3.449   2.107   8.317 -0.6105  0.1961  0.0264
 7289SOL    HW133503   3.490   2.191   8.338  0.8128 -0.0260 -1.8345
 7289SOL    HW233504   3.411   2.076   8.399  0.3548  1.1337  0.8352
 7290SOL     OW33505   1.313   3.939   6.941 -0.7156 -0.0143 -0.3356
 7290SOL    HW133506   1.266   3.891   6.873  1.9917 -1.3987 -1.2151
 7290SOL    HW233507   1.248   4.008   6.958 -0.3418  1.3102 -4.4108
 7291SOL     OW33508   0.352   2.371   7.888  0.2165  0.2592  0.0188
 7291SOL    HW133509   0.379   2.459   7.863 -0.3727  0.9230  1.7429
 7291SOL    HW233510   0.423   2.347   7.946  0.1626 -0.3256 -0.1562
 7292SOL     OW33511   0.965   4.252   4.425 -0.2410 -0.0629 -0.9643
 7292SOL    HW133512   0.998   4.342   4.429 -1.0231  0.2198 -0.8197
 7292SOL    HW233513   0.881   4.260   4.470  1.0170  2.0519  1.0251
 7293SOL     OW33514   3.460   1.867   1.822  0.2221  0.6815  0.1486
 7293SOL    HW133515   3.549   1.893   1.799  1.4286 -1.8281  2.0132
 7293SOL    HW233516   3.432   1.833   1.737 -0.0643  0.2877  0.4024
 7294SOL     OW33517   4.645   2.953   3.933 -0.1744  0.1903 -0.4001
 7294SOL    HW133518   4.693   3.036   3.943  0.3736 -0.2802  0.8007
 7294SOL    HW233519   4.560   2.963   3.888  2.0253  2.8493 -4.0071
 7295SOL     OW33520   2.526   1.562  12.989 -0.4501 -0.1757 -0.0069
 7295SOL    HW133521   2.585   1.622  13.033  0.4306 -0.7259 -0.4387
 7295SOL    HW233522   2.470   1.621  12.937 -0.6207 -0.7757 -0.5102
 7296SOL     OW33523   1.816   0.778  10.002  0.1923  0.0504 -0.3247
 7296SOL    HW133524   1.814   0.815   9.914  0.8714 -1.0737 -0.8105
 7296SOL    HW233525   1.782   0.860  10.039  1.9435 -0.1620  1.7906
 7297SOL     OW33526   0.800   2.531   7.477 -0.2656 -0.5299  0.5007
 7297SOL    HW133527   0.776   2.481   7.399 -0.7788  2.3276 -1.1810
 7297SOL    HW233528   0.728   2.593   7.483 -0.5561 -0.6487 -1.5749
 7298SOL     OW33529   2.279   4.014   4.055  0.1227  0.2793 -0.4607
 7298SOL    HW133530   2.249   3.987   4.142 -0.4395 -0.5573 -0.9215
 7298SOL    HW233531   2.215   3.960   4.008  0.3052 -1.1333  0.9324
 7299SOL     OW33532   1.297   4.053   8.410  0.1020  0.5252  0.6084
 7299SOL    HW133533   1.272   4.143   8.390  0.7245  0.3887 -0.7561
 7299SOL    HW233534   1.264   3.997   8.340  1.9977  0.6059 -0.3440
 7300SOL     OW33535   4.525   0.828   0.796  0.2738  0.1386 -0.2196
 7300SOL    HW133536   4.617   0.805   0.801 -0.1181 -1.3119  0.1042
 7300SOL    HW233537   4.512   0.832   0.701 -0.5043 -0.8750 -0.1561
 7301SOL     OW33538   1.289   3.164   5.229  0.6729  0.0229 -0.3718
 7301SOL    HW133539   1.384   3.161   5.236  0.7413  1.8028 -0.4510
 7301SOL    HW233540   1.259   3.097   5.290  1.2469  0.2882  0.1928
 7302SOL     OW33541   2.337   1.848  14.973 -0.0719  0.2834  0.0252
 7302SOL    HW133542   2.423   1.839  14.933 -0.3481 -1.1105 -0.2550
 7302SOL    HW233543   2.322   1.758  15.001 -2.2031  0.6874  0.2202
 7303SOL     OW33544   1.439   0.396  17.619  0.1827 -0.1877  0.2264
 7303SOL    HW133545   1.440   0.386  17.524  0.7436  0.7157  0.1415
 7303SOL    HW233546   1.376   0.468  17.625 -0.2707 -0.6644  1.0979
 7304SOL     OW33547   1.390   4.453   1.972  0.1762  0.3479  0.2805
 7304SOL    HW133548   1.323   4.513   1.940  1.6359  0.9111 -1.7272
 7304SOL    HW233549   1.359   4.425   2.058 -1.0641 -2.0005 -0.9346
 7305SOL     OW33550   3.716   3.796  16.087  0.0468 -0.3747 -0.0946
 7305SOL    HW133551   3.694   3.882  16.051  1.1371  0.1545  0.5175
 7305SOL    HW233552   3.638   3.798  16.142 -1.1126  1.3209 -1.8044
 7306SOL     OW33553   2.698   4.705   1.593 -0.2249  0.4229  0.1377
 7306SOL    HW133554   2.663   0.041   1.640  1.3366  0.9710  0.4304
 7306SOL    HW233555   2.618   4.661   1.565 -0.2514 -1.1531  2.7216
 7307SOL     OW33556   2.509   0.816  11.086 -0.2767  0.1263  0.2469
 7307SOL    HW133557   2.515   0.906  11.053  1.1895 -1.0637 -2.7270
 7307SOL    HW233558   2.495   0.833  11.179 -0.1297 -0.4450  0.3729
 7308SOL     OW33559   4.394   3.874   0.419  0.3554 -0.0762  0.2540
 7308SOL    HW133560   4.437   3.859   0.335  0.6244  0.4049  0.3071
 7308SOL    HW233561   4.473   3.868   0.474 -0.3570 -0.6010  1.2317
 7309SOL     OW33562   1.674   4.158   3.356 -0.0885 -0.4212  0.3919
 7309SOL    HW133563   1.705   4.190   3.440 -0.7882  0.7096  0.2231
 7309SOL    HW233564   1.679   4.237   3.302  1.6677  0.5086  1.9134
 7310SOL     OW33565   0.928   4.565   7.568  0.1680  0.5288 -0.2495
 7310SOL    HW133566   0.970   4.610   7.642 -0.0835 -1.3573  1.0490
 7310SOL    HW233567   0.970   4.479   7.578 -0.7006  0.0052 -1.0895
 7311SOL     OW33568   0.856   0.868   2.712  0.3570 -0.5294 -0.2108
 7311SOL    HW133569   0.800   0.799   2.679 -1.8836  0.1665  2.0648
 7311SOL    HW233570   0.807   0.886   2.793 -2.2629 -5.4326 -0.7238
 7312SOL     OW33571   0.110   4.683   2.447 -0.1269  0.1504 -0.2526
 7312SOL    HW133572   0.177   4.616   2.457 -0.7791 -0.3393  0.7863
 7312SOL    HW233573   0.029   4.638   2.473  0.8267 -1.5905 -0.3041
 7313SOL     OW33574   1.589   1.366   4.328  0.4603  0.6200 -0.3493
 7313SOL    HW133575   1.553   1.321   4.252 -0.1563 -0.6020  0.6611
 7313SOL    HW233576   1.673   1.396   4.293  1.1019 -0.1790  0.5075
 7314SOL     OW33577   4.101   1.983   9.029 -0.6768 -0.1360 -0.3897
 7314SOL    HW133578   4.040   1.999   9.102 -1.7483  1.3126 -1.6059
 7314SOL    HW233579   4.184   1.964   9.074 -0.6608 -2.1554 -1.2772
 7315SOL     OW33580   4.190   3.758   8.270 -0.1281  0.3128  0.2428
 7315SOL    HW133581   4.178   3.851   8.286 -1.0903  0.0882  0.8655
 7315SOL    HW233582   4.264   3.755   8.209  0.0977 -0.1233  0.5345
 7316SOL     OW33583   1.210   2.834   6.018 -0.4290 -0.5823  0.0117
 7316SOL    HW133584   1.142   2.804   5.959 -0.9088 -0.7582  0.6551
 7316SOL    HW233585   1.279   2.789   5.969  0.7852  0.3939  0.7972
 7317SOL     OW33586   1.920   2.746  16.989 -0.1082  0.0673  0.0379
 7317SOL    HW133587   1.945   2.818  16.932  0.8280 -1.1518 -1.0693
 7317SOL    HW233588   1.996   2.688  16.992 -0.5908 -0.5757 -0.2838
 7318SOL     OW33589   3.274   0.384   7.187  0.1688 -0.0715 -0.1160
 7318SOL    HW133590   3.265   0.473   7.221  0.0292 -0.1908  0.1615
 7318SOL    HW233591   3.309   0.406   7.101 -2.4368 -1.6373 -1.5886
 7319SOL     OW33592   0.227   0.465   9.567  0.2639  0.5687 -0.2488
 7319SOL    HW133593   0.182   0.419   9.496 -1.6967  0.9313  0.7600
 7319SOL    HW233594   0.313   0.423   9.558  0.2883  0.4258  0.7227
 7320SOL     OW33595   1.559   3.961   8.473  0.0637 -0.1726  0.1314
 7320SOL    HW133596   1.471   3.959   8.437 -0.4619 -0.4743  1.4309
 7320SOL    HW233597   1.610   4.012   8.410 -1.7592 -0.7004 -1.7642
 7321SOL     OW33598   4.654   4.265  13.701  0.0131 -0.1219  0.4221
 7321SOL    HW133599   4.622   4.282  13.790 -1.1513 -1.0407  0.1921
 7321SOL    HW233600   4.610   4.329  13.645 -0.0446  1.6582  2.4942
 7322SOL     OW33601   0.218   0.832  12.502 -0.1220 -0.1640  0.1446
 7322SOL    HW133602   0.313   0.832  12.518 -0.1802 -0.1722  0.4767
 7322SOL    HW233603   0.192   0.913  12.544 -0.7580  0.6567 -1.8210
 7323SOL     OW33604   0.444   0.878   7.885  0.0905  0.2966  0.2348
 7323SOL    HW133605   0.407   0.938   7.820 -0.9785 -1.3558 -0.6957
 7323SOL    HW233606   0.437   0.922   7.969 -0.1654 -0.2567  0.4990
 7324SOL     OW33607   4.230   4.359   2.746 -0.2588 -0.2790 -0.1724
 7324SOL    HW133608   4.322   4.334   2.731 -0.4806 -1.1074 -0.1474
 7324SOL    HW233609   4.235   4.356   2.842 -4.3158  0.0852  0.0435
 7325SOL     OW33610   2.845   4.329   6.362 -0.0711  0.3461  0.2434
 7325SOL    HW133611   2.801   4.410   6.387 -0.8520 -0.7582  2.4843
 7325SOL    HW233612   2.919   4.351   6.305 -0.4972  0.8953 -0.1036
 7326SOL     OW33613   1.495   0.656   8.344  0.4091  0.0418  0.1105
 7326SOL    HW133614   1.456   0.696   8.421  1.5665  1.6758 -0.1371
 7326SOL    HW233615   1.470   0.721   8.277 -0.4079 -0.4736 -0.0837
 7327SOL     OW33616   1.102   0.683   3.429  0.3115  0.3690  0.6255
 7327SOL    HW133617   1.017   0.651   3.459  0.0395  1.4222  0.9781
 7327SOL    HW233618   1.105   0.765   3.477  2.7033 -1.0930  2.9925
 7328SOL     OW33619   3.436   3.881   6.802  0.2218  0.3399  0.5884
 7328SOL    HW133620   3.384   3.843   6.872 -3.2615  0.5851 -1.8372
 7328SOL    HW233621   3.519   3.835   6.816  1.2149  1.6037 -1.0895
 7329SOL     OW33622   1.319   4.538   9.515  0.0730  0.3785  0.4617
 7329SOL    HW133623   1.372   4.535   9.595  1.8867  0.8077 -0.7198
 7329SOL    HW233624   1.306   4.445   9.501 -0.9090  0.3318  1.6902
 7330SOL     OW33625   4.587   3.168   4.903  0.0718  0.0173 -0.0631
 7330SOL    HW133626   4.544   3.246   4.938 -0.2943 -0.0223 -0.4253
 7330SOL    HW233627   4.616   3.191   4.814 -0.0255 -2.6878 -0.7843
 7331SOL     OW33628   3.618   3.142   8.969 -0.3392 -0.6792 -0.0596
 7331SOL    HW133629   3.699   3.182   9.001  0.0390  1.2299 -3.3493
 7331SOL    HW233630   3.596   3.202   8.897 -1.2141 -1.0630 -0.1146
 7332SOL     OW33631   0.123   4.682   4.674  0.2974  0.1092 -0.2088
 7332SOL    HW133632   0.030   4.704   4.672 -0.0059 -0.8992  2.2132
 7332SOL    HW233633   0.155   0.019   4.627 -0.4034 -0.9709 -2.4322
 7333SOL     OW33634   4.311   1.689  16.773  0.3469 -0.7888  0.2554
 7333SOL    HW133635   4.350   1.623  16.716  0.5897 -0.9650  0.6215
 7333SOL    HW233636   4.263   1.746  16.713  2.8066  2.5828  1.5252
 7334SOL     OW33637   1.425   2.835   2.457  0.0706 -0.0509 -0.3147
 7334SOL    HW133638   1.505   2.880   2.483  0.4002  0.2691 -1.8648
 7334SOL    HW233639   1.452   2.806   2.370  0.6724  0.0792 -0.1683
 7335SOL     OW33640   3.224   4.578   2.400 -0.6416  0.0040  0.2595
 7335SOL    HW133641   3.199   4.576   2.492  0.8985 -0.0319  0.6699
 7335SOL    HW233642   3.275   4.499   2.382  1.6014  1.5073  0.0008
 7336SOL     OW33643   3.240   1.467  12.835 -0.3925 -0.4455 -0.8062
 7336SOL    HW133644   3.185   1.545  12.829 -0.7404 -0.6224  0.0102
 7336SOL    HW233645   3.328   1.496  12.812 -0.7632  1.8555  0.7191
 7337SOL     OW33646   0.488   2.350   3.000  0.3306 -0.1083  0.2844
 7337SOL    HW133647   0.521   2.260   2.989 -0.4456 -0.4570  0.7904
 7337SOL    HW233648   0.490   2.362   3.095  1.1379 -2.7886  0.6120
 7338SOL     OW33649   2.656   4.318   9.880  0.4978 -0.1373 -0.1150
 7338SOL    HW133650   2.672   4.358   9.794 -1.7986  1.2253  0.0709
 7338SOL    HW233651   2.563   4.300   9.870  0.7869 -1.9387  0.6265
 7339SOL     OW33652   0.840   3.651   5.168 -0.0092  0.3241  0.0129
 7339SOL    HW133653   0.905   3.629   5.234  0.8113  0.8696 -0.6013
 7339SOL    HW233654   0.858   3.582   5.105 -0.6427 -0.1467  0.3564
 7340SOL     OW33655   2.025   3.928  13.372 -0.1201 -0.1903  0.1050
 7340SOL    HW133656   2.038   3.968  13.286  2.2285 -0.9102  0.0990
 7340SOL    HW233657   2.006   4.012  13.414 -0.7822 -0.4131  0.2357
 7341SOL     OW33658   1.369   2.113  13.122 -0.0980 -0.0812 -0.2158
 7341SOL    HW133659   1.348   2.026  13.157  1.3503  0.0404  0.9467
 7341SOL    HW233660   1.376   2.161  13.204  0.7008  0.5263 -0.6491
 7342SOL     OW33661   0.094   0.543  13.374 -0.3601 -0.1386 -0.4108
 7342SOL    HW133662   0.114   0.636  13.385  0.8997 -0.5687  0.7920
 7342SOL    HW233663   0.012   0.538  13.423  0.4466 -1.9339  0.7480
 7343SOL     OW33664   2.518   4.278   9.122  0.2013  0.5015 -0.3886
 7343SOL    HW133665   2.571   4.357   9.131 -0.8377  0.9713  1.4750
 7343SOL    HW233666   2.432   4.313   9.102 -0.0130  1.0299  1.5176
 7344SOL     OW33667   3.291   2.011   6.809 -0.6092 -0.3576  0.4427
 7344SOL    HW133668   3.202   2.010   6.842 -0.0765  3.8383  2.0612
 7344SOL    HW233669   3.314   1.920   6.828  0.3517 -0.3239 -0.5798
 7345SOL     OW33670   1.115   3.510   4.503 -0.4916 -0.6716  0.2651
 7345SOL    HW133671   1.054   3.526   4.575 -1.6730  0.3763 -0.9671
 7345SOL    HW233672   1.116   3.414   4.503 -1.4256 -0.6779 -0.1370
 7346SOL     OW33673   2.220   2.119  12.540 -0.0713  0.0280  0.0106
 7346SOL    HW133674   2.137   2.095  12.498 -0.5120  1.4137  0.0977
 7346SOL    HW233675   2.210   2.075  12.624  0.8109  0.4496  0.3358
 7347SOL     OW33676   3.555   0.437   2.064 -0.4424 -0.4081 -0.1872
 7347SOL    HW133677   3.568   0.423   2.158 -1.3097  2.3186  0.3189
 7347SOL    HW233678   3.504   0.517   2.077 -0.9504 -0.9976  1.4489
 7348SOL     OW33679   3.741   0.929   0.481  0.4527  0.2731  0.3937
 7348SOL    HW133680   3.743   0.849   0.533  0.9190 -0.5763 -0.9608
 7348SOL    HW233681   3.816   0.980   0.512  1.0115 -1.0303  1.1725
 7349SOL     OW33682   0.016   1.583   7.794  0.3451  0.1742 -0.4650
 7349SOL    HW133683   4.674   1.561   7.748  1.2839 -0.0527 -2.0140
 7349SOL    HW233684   0.084   1.587   7.727  0.1838 -0.9348 -0.6877
 7350SOL     OW33685   0.796   0.938   5.945 -0.0005 -0.2136  0.0177
 7350SOL    HW133686   0.880   0.925   5.901  0.8749 -1.3347  2.0546
 7350SOL    HW233687   0.811   0.968   6.034 -0.3838  0.7814 -0.2544
 7351SOL     OW33688   4.456   2.385  10.777 -0.2536 -0.2249  0.8531
 7351SOL    HW133689   4.413   2.465  10.806 -1.5466 -1.2407  1.7480
 7351SOL    HW233690   4.516   2.417  10.709 -2.6390  1.2081 -0.6010
 7352SOL     OW33691   4.476   4.129  16.728  0.5772 -0.8183  0.3542
 7352SOL    HW133692   4.412   4.142  16.797  1.2859  0.1331  0.8225
 7352SOL    HW233693   4.529   4.207  16.740  1.6524 -1.3337 -1.0234
 7353SOL     OW33694   1.406   0.229   7.605  0.4179 -0.4171 -0.5159
 7353SOL    HW133695   1.403   0.249   7.699  1.0005 -2.4400 -0.0696
 7353SOL    HW233696   1.393   0.313   7.562 -1.3562 -0.0336  0.7395
 7354SOL     OW33697   1.918   1.543   3.356 -0.3936  0.1479 -0.4849
 7354SOL    HW133698   1.924   1.581   3.443 -0.3177 -1.6103  0.2802
 7354SOL    HW233699   1.827   1.538   3.326 -0.2752 -1.0334 -0.6609
 7355SOL     OW33700   0.809   4.446   0.988  0.0106 -0.5429 -0.0253
 7355SOL    HW133701   0.825   4.370   0.933 -1.3097  0.4054 -1.7427
 7355SOL    HW233702   0.824   4.409   1.075  0.3388  0.3414  0.2921
 7356SOL     OW33703   4.325   0.364   5.268  0.2377 -0.4076 -0.0757
 7356SOL    HW133704   4.406   0.340   5.223  0.4181 -1.0405  0.5795
 7356SOL    HW233705   4.270   0.286   5.252 -2.9171  1.8640 -0.3644
 7357SOL     OW33706   0.141   3.413   6.186  0.6353 -0.2603  0.3820
 7357SOL    HW133707   0.097   3.329   6.197  0.4098  0.0007  1.4559
 7357SOL    HW233708   0.069   3.474   6.199  0.6357 -0.1695 -0.0272
 7358SOL     OW33709   1.205   2.925   5.368  0.2429  0.0827 -0.4459
 7358SOL    HW133710   1.128   2.970   5.403  1.3525  0.9034  0.9395
 7358SOL    HW233711   1.162   2.858   5.314  1.9131 -0.0627 -1.6002
 7359SOL     OW33712   3.006   1.246  16.307 -0.0397  0.2610 -0.3560
 7359SOL    HW133713   2.925   1.201  16.282  1.1904 -0.9015 -2.2149
 7359SOL    HW233714   2.989   1.334  16.273  1.5034  0.6957  0.0058
 7360SOL     OW33715   1.767   2.034   4.678  0.0068  0.1146 -0.5872
 7360SOL    HW133716   1.763   1.965   4.612 -0.0904 -0.4840  0.0334
 7360SOL    HW233717   1.786   1.977   4.754  1.2882 -1.8788 -2.4021
 7361SOL     OW33718   0.681   4.704   9.498 -0.2456 -0.2627  0.0902
 7361SOL    HW133719   0.741   4.630   9.510  0.0369 -0.2207 -1.0609
 7361SOL    HW233720   0.649   4.715   9.588 -1.0261  3.3700 -0.6249
 7362SOL     OW33721   1.524   1.892   3.647 -0.4152  0.1088 -0.2182
 7362SOL    HW133722   1.469   1.863   3.575  0.9200  0.5838 -1.4405
 7362SOL    HW233723   1.608   1.904   3.602  0.3864  1.5857  1.6494
 7363SOL     OW33724   3.008   1.316   9.113 -0.0244  0.1414  0.0057
 7363SOL    HW133725   3.069   1.382   9.144 -2.2099  1.3018  1.7346
 7363SOL    HW233726   3.032   1.242   9.169  0.0156 -1.4617 -2.0908
 7364SOL     OW33727   1.995   3.664   4.921  0.3148 -0.2392 -0.0725
 7364SOL    HW133728   1.915   3.701   4.959  0.4596 -1.0175  1.0093
 7364SOL    HW233729   1.955   3.610   4.853  2.1992 -1.1094 -0.4844
 7365SOL     OW33730   0.396   2.079   5.415 -0.2923 -0.0261  0.2108
 7365SOL    HW133731   0.462   2.130   5.369 -0.7779 -0.0913 -0.5756
 7365SOL    HW233732   0.365   2.034   5.336  0.1634  0.7188 -0.3955
 7366SOL     OW33733   4.724   2.274   3.017 -0.1904 -0.4136  0.1987
 7366SOL    HW133734   4.665   2.252   2.945  0.2921 -1.2548  0.0640
 7366SOL    HW233735   4.714   2.368   3.004  1.6075 -0.3167 -0.5647
 7367SOL     OW33736   1.493   4.172   5.566 -0.5991  0.1599  0.6225
 7367SOL    HW133737   1.576   4.173   5.613 -0.6515  0.7003  0.6972
 7367SOL    HW233738   1.529   4.215   5.488  0.9991 -0.4109  1.0501
 7368SOL     OW33739   3.040   4.449   4.825 -0.1780 -0.0912  0.8613
 7368SOL    HW133740   2.968   4.487   4.875 -1.5957  0.4952 -1.6211
 7368SOL    HW233741   3.000   4.363   4.809  0.8972 -0.2355 -0.9594
 7369SOL     OW33742   0.051   4.663   7.776 -0.2518  0.0929  0.0701
 7369SOL    HW133743   0.119   4.603   7.806 -0.4786 -1.4385 -2.4866
 7369SOL    HW233744   0.098   0.006   7.772  1.2557 -0.8871 -2.3083
 7370SOL     OW33745   4.159   3.180  12.779 -0.0749 -0.0596  0.7445
 7370SOL    HW133746   4.096   3.151  12.845 -0.0590 -0.2521  0.6741
 7370SOL    HW233747   4.148   3.275  12.777 -0.8797 -0.1952 -0.5960
 7371SOL     OW33748   0.146   2.254   3.595  0.1326 -0.7210  0.1891
 7371SOL    HW133749   0.209   2.267   3.524  1.1434  3.1453  1.7682
 7371SOL    HW233750   0.066   2.253   3.542  0.6034  0.3827 -0.5682
 7372SOL     OW33751   3.158   1.747  15.323 -0.2455  0.3457 -0.2560
 7372SOL    HW133752   3.076   1.790  15.347 -0.3148 -0.6464  1.2722
 7372SOL    HW233753   3.208   1.749  15.405  0.7491 -1.3654 -0.8423
 7373SOL     OW33754   0.553   2.635   1.884 -0.4118  0.0604  0.2373
 7373SOL    HW133755   0.611   2.577   1.835 -0.4051  0.8268 -0.6642
 7373SOL    HW233756   0.518   2.568   1.943 -0.8921 -1.9248 -2.3223
 7374SOL     OW33757   4.176   4.552  17.312 -0.1663  0.8885 -0.4271
 7374SOL    HW133758   4.190   4.530  17.404 -1.5082 -2.3774 -1.0009
 7374SOL    HW233759   4.259   4.585  17.279  0.6529 -1.2036 -0.4429
 7375SOL     OW33760   1.927   0.447   3.992 -0.3841 -0.0912 -0.5685
 7375SOL    HW133761   1.875   0.468   3.915  0.8029  2.2588 -0.7214
 7375SOL    HW233762   1.954   0.532   4.026 -0.5173  0.7108 -2.5031
 7376SOL     OW33763   1.830   1.681   5.638 -0.4780 -0.3035  0.0050
 7376SOL    HW133764   1.798   1.598   5.673 -0.2844 -0.6091 -0.5341
 7376SOL    HW233765   1.756   1.731   5.670 -2.0119 -2.3192 -0.3960
 7377SOL     OW33766   1.132   2.997   8.607 -0.0550 -0.0757 -0.0469
 7377SOL    HW133767   1.214   2.951   8.623  0.4071  2.1636  3.9555
 7377SOL    HW233768   1.159   3.086   8.586 -1.7531  0.8664  1.7546
 7378SOL     OW33769   1.333   0.535   6.020 -0.6629  0.1631  0.7608
 7378SOL    HW133770   1.354   0.442   6.014 -2.2867 -0.0906 -1.1254
 7378SOL    HW233771   1.260   0.536   6.082 -0.3769 -0.9964  1.1106
 7379SOL     OW33772   0.167   0.784   8.424 -0.6166  0.1985 -1.0618
 7379SOL    HW133773   0.105   0.710   8.424 -0.5577  0.1535 -0.3810
 7379SOL    HW233774   0.097   0.841   8.392 -0.2498  1.6285  0.7346
 7380SOL     OW33775   0.172   4.115   4.992  0.0169  0.7717  0.3530
 7380SOL    HW133776   0.258   4.149   4.968  0.5622  1.0392  2.6621
 7380SOL    HW233777   0.167   4.160   5.076 -1.1061  0.2315  0.5785
 7381SOL     OW33778   0.725   0.001  15.541  0.4293 -0.2996 -0.0273
 7381SOL    HW133779   0.631   4.732  15.527  0.8642 -0.6287 -2.6667
 7381SOL    HW233780   0.735   0.096  15.542  2.9064 -0.5385 -2.9983
 7382SOL     OW33781   1.073   2.918   1.338 -0.0136 -0.0551  0.1622
 7382SOL    HW133782   1.087   2.915   1.243  0.4516  1.3234  0.1955
 7382SOL    HW233783   1.105   2.832   1.366  0.0396 -0.2949 -0.6173
 7383SOL     OW33784   3.692   2.723   3.986  0.2923  0.2876  0.2153
 7383SOL    HW133785   3.657   2.799   4.033 -3.7171 -1.2976 -0.2352
 7383SOL    HW233786   3.667   2.740   3.895 -3.9912  0.3219  1.4243
 7384SOL     OW33787   0.179   0.009   6.738 -0.5742  0.3818  0.6065
 7384SOL    HW133788   0.271   0.015   6.764 -0.3694  0.9073 -0.2518
 7384SOL    HW233789   0.138   4.730   6.822 -2.0094 -2.3676 -0.7353
 7385SOL     OW33790   2.503   2.915   4.939 -0.1110 -0.0856 -0.2413
 7385SOL    HW133791   2.576   2.974   4.918 -1.8802  1.6044 -1.6590
 7385SOL    HW233792   2.460   2.960   5.011  0.0191 -1.7213  0.8598
 7386SOL     OW33793   2.247   2.485   7.505  0.2235  0.3067  0.2284
 7386SOL    HW133794   2.177   2.424   7.481 -1.1394  2.3406 -0.8949
 7386SOL    HW233795   2.320   2.429   7.478  0.1382  1.0769 -1.5934
 7387SOL     OW33796   1.600   3.542   2.288  0.1221 -0.0793  0.0407
 7387SOL    HW133797   1.539   3.501   2.348  1.5981  2.3807  3.2308
 7387SOL    HW233798   1.544   3.614   2.258 -2.1811 -0.5725  3.2379
 7388SOL     OW33799   2.464   4.508  15.205 -0.1961 -0.3597  0.0915
 7388SOL    HW133800   2.500   4.422  15.224  0.6032 -1.0401 -4.4114
 7388SOL    HW233801   2.446   4.500  15.111  0.0984  1.7376 -0.1523
 7389SOL     OW33802   4.650   0.892  16.738 -0.0202 -0.4261 -0.1552
 7389SOL    HW133803   4.693   0.807  16.732  2.4027  0.7811  0.0568
 7389SOL    HW233804   4.666   0.916  16.646  2.4520 -1.2433  0.0686
 7390SOL     OW33805   3.214   3.682   2.771 -0.1781  0.4760 -0.6970
 7390SOL    HW133806   3.300   3.699   2.733  0.6873 -1.5707  0.3727
 7390SOL    HW233807   3.158   3.735   2.714  0.6147 -1.7567 -3.5149
 7391SOL     OW33808   2.552   0.504   6.604  0.7212 -0.4342 -0.1806
 7391SOL    HW133809   2.492   0.569   6.640  1.1650  0.7867 -1.6548
 7391SOL    HW233810   2.600   0.476   6.682  2.7454 -3.4005 -2.5076
 7392SOL     OW33811   2.849   1.743   4.628 -0.5354  0.1943  0.4103
 7392SOL    HW133812   2.828   1.809   4.694  1.6915 -0.1817  1.4731
 7392SOL    HW233813   2.931   1.708   4.661 -0.4462  0.1765  0.1718
 7393SOL     OW33814   2.721   1.752   2.912 -0.5764 -0.0952 -0.2462
 7393SOL    HW133815   2.702   1.790   2.998 -2.1099  1.6527 -1.3468
 7393SOL    HW233816   2.689   1.818   2.850 -0.3917  0.3921  0.1709
 7394SOL     OW33817   1.341   0.060   7.399 -0.1829  0.1201  0.1528
 7394SOL    HW133818   1.263   0.110   7.375  0.4745  0.7646 -0.6834
 7394SOL    HW233819   1.360   0.116   7.474 -1.2771  0.3516  0.2535
 7395SOL     OW33820   4.367   0.947   1.425 -0.0356 -0.0610  0.6607
 7395SOL    HW133821   4.307   1.021   1.424 -0.1720 -0.1732  0.3984
 7395SOL    HW233822   4.310   0.871   1.408 -1.7335  0.7808  2.5233
 7396SOL     OW33823   3.334   1.326   1.913  0.4377  0.5341 -0.4880
 7396SOL    HW133824   3.360   1.268   1.984  2.0311 -0.0331 -1.5507
 7396SOL    HW233825   3.420   1.357   1.885  1.1660 -4.0478 -3.3681
 7397SOL     OW33826   0.113   1.103   1.308 -0.0714 -0.5863  0.2746
 7397SOL    HW133827   0.110   1.008   1.304 -0.2572 -0.7089  3.2163
 7397SOL    HW233828   0.031   1.118   1.356  1.0725  3.2714  1.0225
 7398SOL     OW33829   4.220   0.019   5.609  0.5111 -0.6445  0.0690
 7398SOL    HW133830   4.168   4.724   5.536  2.3882  1.2207 -2.1368
 7398SOL    HW233831   4.283   0.072   5.562 -1.0226  1.7294  0.6856
 7399SOL     OW33832   0.532   1.033   8.455  0.0465 -0.1652  0.1644
 7399SOL    HW133833   0.528   1.068   8.544 -1.5231  1.2960 -0.4940
 7399SOL    HW233834   0.626   1.038   8.436  0.0616  0.6044  0.4571
 7400SOL     OW33835   4.094   3.707   7.653 -0.3185  0.2708  0.1545
 7400SOL    HW133836   4.004   3.707   7.621 -0.6110 -0.3103  0.9980
 7400SOL    HW233837   4.138   3.671   7.576 -0.3452 -0.5732  0.5345
 7401SOL     OW33838   3.570   0.153   0.853  0.2212  0.4676  0.3754
 7401SOL    HW133839   3.563   0.248   0.860 -0.3054  0.3567  1.4220
 7401SOL    HW233840   3.633   0.139   0.783 -0.2167 -1.7973  0.4325
 7402SOL     OW33841   2.274   3.276  17.333  0.3581 -0.7756 -0.3305
 7402SOL    HW133842   2.239   3.200  17.286 -1.5643  1.9434 -3.2795
 7402SOL    HW233843   2.324   3.234  17.403 -0.6009  0.6555  1.2176
 7403SOL     OW33844   1.569   3.000   4.567 -0.0080  0.0986 -0.0248
 7403SOL    HW133845   1.621   3.034   4.495 -2.7444 -1.3401 -2.6890
 7403SOL    HW233846   1.635   2.991   4.635  0.4387  0.0292 -0.4711
 7404SOL     OW33847   1.533   3.666   3.702  0.1656  0.6090 -0.0523
 7404SOL    HW133848   1.577   3.685   3.785 -0.2849  4.5205 -0.7031
 7404SOL    HW233849   1.451   3.710   3.725 -0.3343 -0.4036  0.1436
 7405SOL     OW33850   3.791   1.806   3.404 -0.1873 -1.0395  0.0854
 7405SOL    HW133851   3.815   1.835   3.492 -1.1487  2.1772 -0.7166
 7405SOL    HW233852   3.720   1.749   3.432 -0.2298 -0.9081  0.2457
 7406SOL     OW33853   2.971   2.480   3.682 -0.1445 -0.6302 -0.2705
 7406SOL    HW133854   3.033   2.512   3.746 -0.2603 -0.5462 -0.2001
 7406SOL    HW233855   3.028   2.428   3.625 -0.0466  0.2325 -0.9603
 7407SOL     OW33856   1.067   3.768   3.496  0.4232  0.0654  0.0871
 7407SOL    HW133857   0.983   3.791   3.456  0.1040 -2.7076 -0.8510
 7407SOL    HW233858   1.045   3.691   3.549  2.9021 -0.3102  0.5411
 7408SOL     OW33859   0.088   2.998  13.198 -0.5182  0.2481  0.2688
 7408SOL    HW133860   0.122   2.989  13.287  1.1654  1.8662 -0.1924
 7408SOL    HW233861   0.106   3.090  13.176  1.8858  0.3951  2.8156
 7409SOL     OW33862   3.382   3.707   5.296 -0.4850  0.4679  0.2155
 7409SOL    HW133863   3.334   3.787   5.318  0.6014  1.8116 -2.3338
 7409SOL    HW233864   3.310   3.644   5.290 -0.8142  0.6962  1.6637
 7410SOL     OW33865   2.585   4.722   5.667 -0.0781  0.9497  0.2895
 7410SOL    HW133866   2.644   0.009   5.737  0.7110 -0.2721  0.0883
 7410SOL    HW233867   2.607   4.632   5.644 -1.3200  0.1283  2.3518
 7411SOL     OW33868   3.217   4.092   2.154  0.2725  0.5344  0.6398
 7411SOL    HW133869   3.212   4.188   2.159  1.3651  0.7062 -1.3843
 7411SOL    HW233870   3.164   4.081   2.075  0.4925 -0.0814  0.5769
 7412SOL     OW33871   3.109   1.848   7.237  0.1732 -0.8000 -0.1487
 7412SOL    HW133872   3.037   1.855   7.300  2.3739 -0.3813  2.3047
 7412SOL    HW233873   3.118   1.753   7.245 -1.5660 -0.9373  0.1188
 7413SOL     OW33874   2.263   4.332  15.467 -0.4300 -0.1989 -0.3086
 7413SOL    HW133875   2.327   4.400  15.490  1.8306 -2.0959 -1.0166
 7413SOL    HW233876   2.249   4.292  15.553  1.5269  0.6261  0.4072
 7414SOL     OW33877   2.366   1.596  10.621  0.0769 -0.2765 -0.2836
 7414SOL    HW133878   2.288   1.599  10.678 -0.7174 -0.1633 -1.3783
 7414SOL    HW233879   2.438   1.576  10.681 -0.8699  0.0905  0.9939
 7415SOL     OW33880   2.152   4.369   8.345  0.0751  0.4451  0.5135
 7415SOL    HW133881   2.217   4.405   8.406  0.2236  0.5651  0.2848
 7415SOL    HW233882   2.193   4.287   8.317  0.3328 -0.1891  2.7258
 7416SOL     OW33883   0.858   1.143   3.032  0.2372 -0.3142  0.5120
 7416SOL    HW133884   0.841   1.133   3.125  2.1219 -1.8110  0.6809
 7416SOL    HW233885   0.795   1.210   3.004  1.5339  0.1907 -1.1906
 7417SOL     OW33886   3.471   2.239   4.956 -0.3739 -0.1645  0.3201
 7417SOL    HW133887   3.524   2.283   4.890 -0.1898 -0.4453  0.2806
 7417SOL    HW233888   3.456   2.151   4.923 -0.5153  0.1812 -0.5479
 7418SOL     OW33889   3.027   0.086  10.714 -0.2272 -0.3906  0.1983
 7418SOL    HW133890   2.933   0.105  10.713 -0.2478 -0.5390 -0.7015
 7418SOL    HW233891   3.030   0.015  10.650 -2.7251  1.1582 -1.6559
 7419SOL     OW33892   3.814   0.443   8.978 -0.2710 -0.1141  0.2278
 7419SOL    HW133893   3.812   0.402   8.891  2.7996  0.4142 -0.0755
 7419SOL    HW233894   3.783   0.530   8.952  0.9666 -0.2851 -1.8310
 7420SOL     OW33895   1.007   4.004  10.259  0.1450 -0.3186  0.1218
 7420SOL    HW133896   0.989   4.091  10.295  0.8493 -0.1653  0.1214
 7420SOL    HW233897   1.069   3.967  10.322 -0.6758 -2.4513 -0.3279
 7421SOL     OW33898   2.170   2.095   5.803 -0.3021  0.6648  0.1833
 7421SOL    HW133899   2.122   2.099   5.885 -0.7245  2.0827 -0.1441
 7421SOL    HW233900   2.137   2.014   5.765  1.2692  0.6560 -1.1857
 7422SOL     OW33901   4.514   2.541  16.238  0.0335 -0.1731  0.0663
 7422SOL    HW133902   4.545   2.601  16.170 -1.3042  0.6385  0.1664
 7422SOL    HW233903   4.458   2.479  16.191 -2.2445  1.1314  1.0844
 7423SOL     OW33904   3.973   0.646   8.655  0.1634 -0.1074  0.2040
 7423SOL    HW133905   3.893   0.594   8.647 -0.1560  0.5469 -0.8072
 7423SOL    HW233906   3.948   0.716   8.717 -0.8599 -1.8690  1.7746
 7424SOL     OW33907   0.256   2.782   5.715  0.7499  0.2021  0.1511
 7424SOL    HW133908   0.221   2.699   5.685 -1.6366  1.7581 -1.3727
 7424SOL    HW233909   0.305   2.812   5.638 -0.5743 -2.4569 -1.7106
 7425SOL     OW33910   0.858   4.142   6.765  0.0115 -0.2840 -0.5912
 7425SOL    HW133911   0.792   4.119   6.829  0.5579 -0.4391 -0.0818
 7425SOL    HW233912   0.905   4.208   6.816 -1.3503  0.4182 -0.2655
 7426SOL     OW33913   0.427   3.742   4.254 -0.2583 -0.3866 -0.4535
 7426SOL    HW133914   0.358   3.799   4.219 -0.5133 -0.5271 -0.1788
 7426SOL    HW233915   0.505   3.786   4.220  0.1151 -2.2608 -2.0467
 7427SOL     OW33916   2.527   0.516   5.464 -0.3442 -0.0028 -0.0549
 7427SOL    HW133917   2.483   0.494   5.382 -1.2971 -0.8768  0.6870
 7427SOL    HW233918   2.570   0.430   5.467 -0.7296 -0.1526  1.1305
 7428SOL     OW33919   4.194   3.311   2.596  0.3678  0.4185 -0.3541
 7428SOL    HW133920   4.172   3.276   2.683 -1.5186 -0.4550 -1.1884
 7428SOL    HW233921   4.283   3.344   2.608  0.5137 -0.3450  0.6339
 7429SOL     OW33922   3.924   4.022   1.631  0.1969  0.4533  0.3550
 7429SOL    HW133923   3.916   4.066   1.546  0.9191 -3.5582 -1.8203
 7429SOL    HW233924   3.846   3.967   1.629 -0.5536  1.4585  2.4279
 7430SOL     OW33925   2.117   3.909   1.751  0.4304 -0.2936 -0.4543
 7430SOL    HW133926   2.037   3.960   1.764  0.9685  0.0839  1.3347
 7430SOL    HW233927   2.151   3.946   1.670 -2.1947  0.3355 -1.2670
 7431SOL     OW33928   3.949   4.269   0.888  0.8899 -0.2535  0.0810
 7431SOL    HW133929   3.920   4.341   0.945  1.8223 -0.5780  0.9717
 7431SOL    HW233930   3.980   4.315   0.810 -0.2704  1.2602  0.5027
 7432SOL     OW33931   2.892   4.177  14.403  0.8752 -0.1021  0.1950
 7432SOL    HW133932   2.936   4.172  14.488 -1.2889 -1.4435  1.2457
 7432SOL    HW233933   2.902   4.087  14.370 -1.5929 -0.5023  0.5710
 7433SOL     OW33934   0.081   2.332   5.883 -0.0729  0.0850 -0.4283
 7433SOL    HW133935   0.089   2.298   5.793 -1.1980  1.9174 -1.2212
 7433SOL    HW233936   0.108   2.422   5.868 -0.8371  0.2106 -1.0699
 7434SOL     OW33937   1.436   3.023   2.005  0.8880 -0.0389  0.1265
 7434SOL    HW133938   1.364   3.011   1.944 -0.3345 -0.0597  1.5656
 7434SOL    HW233939   1.492   2.946   1.993  0.1519 -0.5096 -0.2873
 7435SOL     OW33940   2.673   2.742   9.497 -0.0169 -0.0339 -0.2622
 7435SOL    HW133941   2.657   2.718   9.588 -0.6828 -1.2017 -0.6866
 7435SOL    HW233942   2.750   2.798   9.510 -2.4613  2.7222  2.1911
 7436SOL     OW33943   2.583   3.026   1.059 -0.2706  0.0898 -0.0385
 7436SOL    HW133944   2.652   3.068   1.110 -0.7954  3.3971 -2.0779
 7436SOL    HW233945   2.579   2.943   1.107  0.1908  0.3543  0.4671
 7437SOL     OW33946   3.809   4.113   2.363 -0.3512 -0.9009  0.4905
 7437SOL    HW133947   3.827   4.027   2.401  2.0045  0.0730  1.5702
 7437SOL    HW233948   3.722   4.134   2.396 -0.5210 -0.6376 -0.1318
 7438SOL     OW33949   4.243   2.074  12.446  0.0433 -0.2233 -0.4284
 7438SOL    HW133950   4.227   2.086  12.540  0.0735  2.0762 -0.7205
 7438SOL    HW233951   4.160   2.045  12.408 -0.1875 -0.3038  0.1321
 7439SOL     OW33952   1.843   2.591  16.417 -0.0534 -0.2640  0.1209
 7439SOL    HW133953   1.812   2.659  16.357  2.7167  0.7988 -0.1225
 7439SOL    HW233954   1.872   2.643  16.493 -0.7658 -2.6152  1.9953
 7440SOL     OW33955   3.496   1.079   8.591  0.2108 -1.0403  0.5811
 7440SOL    HW133956   3.428   1.106   8.652  0.9465  0.5035  0.7013
 7440SOL    HW233957   3.463   1.119   8.511  0.3349 -1.5729  0.2629
 7441SOL     OW33958   2.888   1.721  12.858 -0.6074  0.0767 -0.0174
 7441SOL    HW133959   2.963   1.686  12.811  0.3054  1.4382  0.4156
 7441SOL    HW233960   2.878   1.803  12.810  3.2674  1.4334  1.4344
 7442SOL     OW33961   3.923   2.580   0.513  0.0052 -0.5073  0.0387
 7442SOL    HW133962   3.829   2.594   0.521  0.5217  2.8275  0.3488
 7442SOL    HW233963   3.944   2.574   0.606  0.9437  0.0988 -0.1302
 7443SOL     OW33964   3.824   3.791   9.303  0.8930 -0.0014  0.4125
 7443SOL    HW133965   3.895   3.838   9.348  0.9662  0.6206 -0.3643
 7443SOL    HW233966   3.773   3.757   9.377  2.4420  0.4150  1.6976
 7444SOL     OW33967   0.498   0.305   2.485  0.4052 -0.2241  0.1392
 7444SOL    HW133968   0.560   0.353   2.430 -2.5581  2.9327 -0.4334
 7444SOL    HW233969   0.455   0.246   2.423 -0.8719  1.0137 -0.1595
 7445SOL     OW33970   0.442   0.617   7.601  0.0026 -0.3074  0.5549
 7445SOL    HW133971   0.474   0.637   7.513 -0.6115 -1.6414  0.0123
 7445SOL    HW233972   0.496   0.539   7.616  1.7785  0.7245 -0.5551
 7446SOL     OW33973   1.234   0.790   4.821 -0.0933 -0.0326  0.0702
 7446SOL    HW133974   1.287   0.833   4.755  1.5705 -1.1934  0.6530
 7446SOL    HW233975   1.298   0.732   4.863  0.4820  0.2931 -0.3602
 7447SOL     OW33976   4.694   0.497   7.163  0.0365 -0.1808 -0.7133
 7447SOL    HW133977   4.730   0.436   7.099  0.6306  0.9013 -1.3923
 7447SOL    HW233978   4.615   0.527   7.118  1.4362  1.5616 -2.0252
 7448SOL     OW33979   0.048   1.651   2.871 -0.5668 -0.3210  0.1647
 7448SOL    HW133980   0.034   1.684   2.959  2.7856 -0.7439  0.8671
 7448SOL    HW233981   4.720   1.584   2.877 -1.3915  0.0897 -4.5389
 7449SOL     OW33982   3.787   2.227   3.114 -0.8692 -0.0683  0.1444
 7449SOL    HW133983   3.809   2.191   3.200 -1.4586 -0.7433  0.0203
 7449SOL    HW233984   3.816   2.162   3.048  0.3716  1.6973 -1.0541
 7450SOL     OW33985   2.327   2.027   3.542 -0.2385 -0.1512  0.1835
 7450SOL    HW133986   2.327   2.123   3.538  1.9641 -0.1646 -0.0997
 7450SOL    HW233987   2.341   2.019   3.636  0.0567  2.0147  0.3333
 7451SOL     OW33988   3.572   1.083   1.344 -0.1684  0.2345 -0.4897
 7451SOL    HW133989   3.544   1.081   1.435  0.2375  0.1056 -0.3698
 7451SOL    HW233990   3.657   1.126   1.347 -2.0044  3.7640  1.2325
 7452SOL     OW33991   2.206   0.438   6.049 -0.1089  0.4989 -0.1131
 7452SOL    HW133992   2.133   0.413   5.991 -0.0723 -0.0425  0.0819
 7452SOL    HW233993   2.228   0.518   6.001 -2.6172  1.3520  0.1160
 7453SOL     OW33994   2.335   4.568   0.431  0.2082  0.4877 -0.0787
 7453SOL    HW133995   2.331   4.663   0.441 -0.9855  0.5679 -1.3218
 7453SOL    HW233996   2.407   4.546   0.372  0.1845 -0.7884  0.3649
 7454SOL     OW33997   1.874   2.986   3.896  0.2219  0.4369 -0.1868
 7454SOL    HW133998   1.953   2.945   3.931 -0.0827  0.0340  0.0282
 7454SOL    HW233999   1.910   3.069   3.866 -0.5537  0.6047 -0.6572
 7455SOL     OW34000   2.263   3.702   0.446 -0.7795  0.1598  1.2627
 7455SOL    HW134001   2.306   3.629   0.491 -0.8935  0.1646  1.3810
 7455SOL    HW234002   2.177   3.664   0.427 -0.8115 -0.2643  2.2434
 7456SOL     OW34003   3.438   0.259   2.538  0.2372  0.1059 -0.2454
 7456SOL    HW134004   3.377   0.271   2.465 -0.0597  1.0469  0.1613
 7456SOL    HW234005   3.449   0.167   2.514  0.0906  0.4287 -1.6022
 7457SOL     OW34006   3.646   1.435   4.895 -0.5448  0.1326  0.2093
 7457SOL    HW134007   3.662   1.341   4.882 -0.2086  0.1399  0.5550
 7457SOL    HW234008   3.560   1.426   4.935 -0.7129 -1.0095 -0.4039
 7458SOL     OW34009   4.735   0.107   5.972  0.4616 -0.1784 -0.3731
 7458SOL    HW134010   4.696   0.191   5.995 -2.5042 -1.8878  0.8487
 7458SOL    HW234011   0.059   0.093   6.042 -0.2045 -1.4926 -0.0381
 7459SOL     OW34012   3.379   3.234   6.803  0.1484  0.6931 -0.0115
 7459SOL    HW134013   3.447   3.183   6.847 -2.1581 -1.5060  0.9643
 7459SOL    HW234014   3.437   3.281   6.742  0.0890  1.2561  0.3716
 7460SOL     OW34015   0.809   2.307   5.760 -0.1395  0.1849  0.1245
 7460SOL    HW134016   0.874   2.248   5.723  1.4724  1.1248  1.4727
 7460SOL    HW234017   0.762   2.329   5.680 -0.5874  0.5350  0.4864
 7461SOL     OW34018   1.417   4.500   7.658  0.5575  0.0013 -0.3066
 7461SOL    HW134019   1.344   4.561   7.653  0.3495 -0.1648  0.7578
 7461SOL    HW234020   1.485   4.565   7.641 -0.4295  1.4138  1.2205
 7462SOL     OW34021   2.621   0.329  10.981 -0.1582 -0.3006 -0.1402
 7462SOL    HW134022   2.648   0.308  11.071 -0.0080 -0.3974 -0.2085
 7462SOL    HW234023   2.639   0.423  10.977 -0.1245 -0.3244 -0.5027
 7463SOL     OW34024   2.103   1.781   4.927  0.2364 -0.6304  0.7483
 7463SOL    HW134025   2.170   1.762   4.861  0.7200  0.0816  1.0304
 7463SOL    HW234026   2.135   1.861   4.969  0.5167  0.0214 -0.6951
 7464SOL     OW34027   4.330   3.724  11.167 -0.2811  0.1097  0.3709
 7464SOL    HW134028   4.340   3.764  11.253  3.1860 -2.3611  1.0984
 7464SOL    HW234029   4.236   3.727  11.149 -0.2166 -1.8829 -0.2882
 7465SOL     OW34030   3.432   0.074   6.042 -0.0482 -0.4455 -0.2945
 7465SOL    HW134031   3.501   0.046   6.102  1.2122  0.7847 -1.1879
 7465SOL    HW234032   3.367   0.004   6.049 -0.7370  0.3249  1.1294
 7466SOL     OW34033   3.447   3.195   3.583  0.3834 -0.0030  0.1869
 7466SOL    HW134034   3.505   3.120   3.594  0.1224 -0.6069 -2.6421
 7466SOL    HW234035   3.406   3.172   3.499  3.1601 -0.9944 -0.8985
 7467SOL     OW34036   1.732   3.016   7.795 -0.4096 -0.3584 -0.7161
 7467SOL    HW134037   1.686   2.933   7.801 -2.3043  0.8543  1.5618
 7467SOL    HW234038   1.823   2.984   7.795 -0.2799  0.0143 -0.1928
 7468SOL     OW34039   2.351   2.813   1.368 -0.3821  0.2749 -0.2258
 7468SOL    HW134040   2.364   2.739   1.428 -1.9894 -0.3170 -0.6190
 7468SOL    HW234041   2.420   2.869   1.405  0.8532 -1.3767 -0.0598
 7469SOL     OW34042   1.497   4.106   2.086 -0.2706 -0.4693 -0.4551
 7469SOL    HW134043   1.455   4.055   2.017 -0.3019 -2.1747  0.8013
 7469SOL    HW234044   1.585   4.123   2.051 -1.3704  2.8713 -1.4878
 7470SOL     OW34045   3.829   3.585   2.433  0.2702 -0.2788 -0.6650
 7470SOL    HW134046   3.754   3.571   2.491  1.7197  0.3639  1.3665
 7470SOL    HW234047   3.822   3.677   2.408  1.5631  0.5008  1.8966
 7471SOL     OW34048   1.765   3.196   1.550  0.2701  0.4444 -0.1227
 7471SOL    HW134049   1.720   3.171   1.631  0.4497 -2.5348 -0.9372
 7471SOL    HW234050   1.736   3.287   1.541 -0.2639  0.4508  1.5352
 7472SOL     OW34051   0.184   4.113   2.382  0.7406  0.3974 -0.1602
 7472SOL    HW134052   0.242   4.084   2.311  0.1527 -1.2901  0.0490
 7472SOL    HW234053   0.176   4.205   2.357 -0.7541 -0.3859 -2.6254
 7473SOL     OW34054   3.232   3.902   5.002  0.4215 -0.5707 -0.4852
 7473SOL    HW134055   3.246   3.953   5.082 -1.1272  1.3707 -1.4569
 7473SOL    HW234056   3.203   3.972   4.944 -0.7432 -0.2857  0.4543
 7474SOL     OW34057   2.022   1.378   2.632  0.3988 -0.6374 -0.0229
 7474SOL    HW134058   1.987   1.329   2.706  0.8434  0.0359  0.6348
 7474SOL    HW234059   1.944   1.392   2.579  1.7256  1.4861 -1.4007
 7475SOL     OW34060   3.499   3.345   7.964  0.3652 -0.2659 -0.3100
 7475SOL    HW134061   3.501   3.429   8.010  0.9124 -2.0255  2.8685
 7475SOL    HW234062   3.478   3.373   7.875 -0.4350 -2.4210 -0.8124
 7476SOL     OW34063   4.451   3.378   4.732 -0.3491 -0.1669 -0.0541
 7476SOL    HW134064   4.479   3.467   4.753  0.5747 -0.8338  1.5674
 7476SOL    HW234065   4.479   3.355   4.644 -0.2296  1.1594 -0.3593
 7477SOL     OW34066   0.236   4.565  14.420  0.0462  0.1352 -0.0867
 7477SOL    HW134067   0.287   4.579  14.500 -0.8162  0.8693  0.3293
 7477SOL    HW234068   0.288   4.496  14.379  0.7685  0.9069 -0.4778
 7478SOL     OW34069   2.339   3.006   0.520  0.1890 -0.2423  0.0070
 7478SOL    HW134070   2.386   3.073   0.471 -0.9916  0.6092  0.0510
 7478SOL    HW234071   2.409   2.942   0.534 -1.4191 -1.7712  1.0870
 7479SOL     OW34072   4.658   1.606   6.344  0.1133  0.0624  0.5105
 7479SOL    HW134073   4.724   1.650   6.290  1.5036  0.6245  2.6636
 7479SOL    HW234074   4.678   1.656   6.423 -0.5710 -0.6809  1.1467
 7480SOL     OW34075   1.317   0.027   6.345 -0.4114 -0.3579  0.6966
 7480SOL    HW134076   1.274   0.103   6.306  0.7505  0.7375  1.5137
 7480SOL    HW234077   1.285   0.029   6.436  0.1625 -0.7137  0.9059
 7481SOL     OW34078   0.213   4.704  16.236  0.5049 -0.4885  0.2523
 7481SOL    HW134079   0.121   4.680  16.224  0.5952 -0.3387 -0.7311
 7481SOL    HW234080   0.246   4.664  16.316 -0.3624  1.5125  1.6268
 7482SOL     OW34081   0.760   0.740   7.249  0.3326  0.3653 -0.2284
 7482SOL    HW134082   0.726   0.701   7.330  0.5906  0.0240 -0.2852
 7482SOL    HW234083   0.764   0.661   7.195  1.6460  0.5632 -0.4232
 7483SOL     OW34084   4.358   1.468   5.338  0.0694 -0.0457  0.1922
 7483SOL    HW134085   4.387   1.515   5.416 -0.5444  0.6279  0.0240
 7483SOL    HW234086   4.305   1.398   5.375  0.0106 -0.2662 -0.3056
 7484SOL     OW34087   2.613   2.268   2.297 -0.3426  0.2501 -0.5871
 7484SOL    HW134088   2.689   2.232   2.342 -0.5115  0.6420  0.0157
 7484SOL    HW234089   2.545   2.218   2.341  0.0132  0.3543  0.0804
 7485SOL     OW34090   0.586   3.922   3.974 -0.4572 -0.6251  0.1226
 7485SOL    HW134091   0.509   3.955   3.928 -0.8668 -0.6040  0.8189
 7485SOL    HW234092   0.600   3.990   4.039  2.0925 -0.3867 -0.6797
 7486SOL     OW34093   1.663   1.130   3.296  0.4173  0.4734 -0.1511
 7486SOL    HW134094   1.666   1.155   3.204  1.7166  0.6676 -0.0474
 7486SOL    HW234095   1.684   1.209   3.346  1.5712 -0.0814  0.2241
 7487SOL     OW34096   4.336   4.076  16.977 -0.1539 -0.4793 -0.2099
 7487SOL    HW134097   4.374   4.096  17.063  1.2772  2.7947 -1.6006
 7487SOL    HW234098   4.324   3.981  16.979 -1.8496 -0.2117  2.4910
 7488SOL     OW34099   4.026   2.795   3.267 -0.2309 -0.0928 -0.4048
 7488SOL    HW134100   3.957   2.765   3.208  0.7128  0.9310 -1.9984
 7488SOL    HW234101   4.088   2.722   3.266 -0.7647 -0.5117 -2.5402
 7489SOL     OW34102   4.391   0.550   6.305 -0.6063 -0.7581  0.6704
 7489SOL    HW134103   4.373   0.457   6.314  3.6208 -1.5822  0.5075
 7489SOL    HW234104   4.337   0.581   6.232 -1.2379  1.0806  1.9022
 7490SOL     OW34105   1.874   0.798   1.140 -0.2821  0.2769  0.8093
 7490SOL    HW134106   1.926   0.775   1.063 -0.3893 -0.9266  1.0960
 7490SOL    HW234107   1.927   0.770   1.214  0.1928  2.5284  1.3335
 7491SOL     OW34108   4.410   0.279   6.359  0.5574  0.8599  0.1347
 7491SOL    HW134109   4.480   0.214   6.356  0.8547  1.2074 -0.6472
 7491SOL    HW234110   4.386   0.283   6.452  0.9674 -0.5123  0.2863
 7492SOL     OW34111   2.471   3.112   4.511  0.2308 -0.4411 -0.0555
 7492SOL    HW134112   2.529   3.047   4.552  0.1525 -1.0383 -0.9059
 7492SOL    HW234113   2.393   3.105   4.566  1.9735 -0.1144  2.5110
 7493SOL     OW34114   3.005   3.228   5.591  0.2371  0.9300  1.0585
 7493SOL    HW134115   2.992   3.292   5.522 -0.0029 -0.9574 -0.6510
 7493SOL    HW234116   2.968   3.278   5.663  1.0972  1.4155  1.1686
 7494SOL     OW34117   0.202   1.344  14.388  0.9600 -0.5860 -0.3320
 7494SOL    HW134118   0.110   1.320  14.397  0.1539  2.4017 -0.4897
 7494SOL    HW234119   0.227   1.376  14.475  1.4091  1.5462 -1.2419
 7495SOL     OW34120   0.495   1.242  10.652  0.4357 -0.4232 -0.4191
 7495SOL    HW134121   0.453   1.156  10.651 -0.1273 -0.1063 -2.1641
 7495SOL    HW234122   0.420   1.298  10.638  1.4349  1.3473  1.3471
 7496SOL     OW34123   0.097   0.492   4.034 -0.4188  0.4083  0.2555
 7496SOL    HW134124   0.028   0.507   3.969 -0.0940  2.9611  0.4793
 7496SOL    HW234125   0.166   0.486   3.969 -1.1452  3.9667 -0.8628
 7497SOL     OW34126   1.874   4.590   5.420  0.0852 -0.4700 -0.2253
 7497SOL    HW134127   1.873   4.547   5.505  2.4949  0.2137  0.1552
 7497SOL    HW234128   1.809   4.542   5.368 -1.6313  1.7317 -0.1223
 7498SOL     OW34129   2.366   2.543  10.724  0.0535  0.1285 -0.0289
 7498SOL    HW134130   2.357   2.471  10.661  1.9283  1.2904 -1.6244
 7498SOL    HW234131   2.454   2.574  10.701  0.2853 -0.5571 -0.0784
 7499SOL     OW34132   4.605   1.970  14.500 -0.4779  0.3551  0.5245
 7499SOL    HW134133   4.576   2.033  14.566  0.4053  0.8299  0.4472
 7499SOL    HW234134   4.688   2.004  14.469  0.5032 -1.9741  0.5712
 7500SOL     OW34135   1.344   0.444   5.077 -0.0726 -0.3188  0.6968
 7500SOL    HW134136   1.438   0.429   5.086 -0.2539 -1.5240  0.5544
 7500SOL    HW234137   1.343   0.465   4.984 -0.4352  0.0954  0.7942
 7501SOL     OW34138   2.845   4.084   5.522  0.5881 -0.1141 -0.2651
 7501SOL    HW134139   2.892   4.019   5.573  1.1945  1.2406  0.8902
 7501SOL    HW234140   2.797   4.145   5.578  2.3449  0.7115  0.3587
 7502SOL     OW34141   4.044   0.196   6.726 -0.6083  0.3462 -0.0060
 7502SOL    HW134142   4.035   0.290   6.740  2.6000  0.7168 -0.4399
 7502SOL    HW234143   3.954   0.180   6.754 -0.4346  1.8574  1.4373
 7503SOL     OW34144   4.620   1.326   7.379 -0.0619 -0.4829 -0.3636
 7503SOL    HW134145   4.703   1.367   7.353 -0.0538  0.6020  1.3706
 7503SOL    HW234146   4.613   1.241   7.337  0.4123  0.1084 -1.6288
 7504SOL     OW34147   3.449   1.996   4.115  0.4108  0.2489 -0.0463
 7504SOL    HW134148   3.464   2.084   4.081  0.4505  0.4614  0.5237
 7504SOL    HW234149   3.356   1.987   4.132  0.2917  0.0915 -0.7708
 7505SOL     OW34150   1.082   2.702   3.651  0.2354 -0.0031 -0.3942
 7505SOL    HW134151   1.155   2.686   3.710 -0.8934 -0.0569  0.9897
 7505SOL    HW234152   1.019   2.635   3.676 -3.4528  2.6523 -2.5407
 7506SOL     OW34153   0.120   4.418   4.876  0.2147 -0.1727 -0.6553
 7506SOL    HW134154   0.059   4.418   4.950  1.2282 -3.3660  0.1722
 7506SOL    HW234155   0.076   4.485   4.824 -0.1006 -2.1233 -2.8965
 7507SOL     OW34156   1.320   2.989   7.916 -0.0522 -1.0153 -0.2532
 7507SOL    HW134157   1.306   3.078   7.882  3.1025 -0.0160  1.0543
 7507SOL    HW234158   1.346   2.940   7.838 -2.1514  1.1567 -2.3265
 7508SOL     OW34159   3.340   4.486   5.898  0.2027  0.2028  0.2213
 7508SOL    HW134160   3.342   4.515   5.989 -0.4120  1.5999 -0.2137
 7508SOL    HW234161   3.434   4.494   5.881  0.2406 -0.6496  0.0267
 7509SOL     OW34162   0.975   1.507   3.874 -0.0662  0.0646 -0.0846
 7509SOL    HW134163   0.896   1.490   3.926  0.0573  0.1441  0.1307
 7509SOL    HW234164   0.935   1.526   3.789 -2.7613  0.1956  1.1922
 7510SOL     OW34165   2.534   2.407   6.776 -0.5767  0.0153 -0.2370
 7510SOL    HW134166   2.591   2.482   6.759 -0.7320  0.0383 -0.6659
 7510SOL    HW234167   2.448   2.447   6.761 -1.5084 -0.4582  3.9139
 7511SOL     OW34168   3.509   2.847   5.044  0.4015  0.1631 -0.1502
 7511SOL    HW134169   3.451   2.863   4.970  0.0123 -0.6839 -0.0309
 7511SOL    HW234170   3.506   2.753   5.026 -0.4519  0.1117  0.2503
 7512SOL     OW34171   3.703   3.001   8.555  0.0533  0.0705 -0.2042
 7512SOL    HW134172   3.720   2.971   8.465 -0.7447  1.2256 -0.7354
 7512SOL    HW234173   3.632   3.062   8.538 -0.0924  0.0559  0.3476
 7513SOL     OW34174   0.287   2.474   7.535  0.1444  0.2610 -0.2598
 7513SOL    HW134175   0.347   2.548   7.523 -1.7333  1.7510 -0.4308
 7513SOL    HW234176   0.357   2.414   7.561 -1.7412 -1.2224  1.3383
 7514SOL     OW34177   2.988   1.220   4.843  0.0403  0.3290 -0.0190
 7514SOL    HW134178   2.948   1.136   4.823 -1.8342  1.1099  0.4797
 7514SOL    HW234179   3.075   1.209   4.803 -0.9287  0.4693 -2.1978
 7515SOL     OW34180   1.944   3.838  17.523 -0.4275 -0.3858  0.4991
 7515SOL    HW134181   1.989   3.891  17.458 -3.0408 -0.6187 -1.5057
 7515SOL    HW234182   1.992   3.756  17.518 -0.9048 -0.6384  0.1095
 7516SOL     OW34183   0.855   3.256   7.711  0.5001 -0.1844  0.2621
 7516SOL    HW134184   0.798   3.191   7.671  0.1795  1.9996 -2.8555
 7516SOL    HW234185   0.796   3.332   7.711 -1.9979 -2.1431 -0.3834
 7517SOL     OW34186   3.103   2.924   2.857  0.0667 -0.1305  0.1961
 7517SOL    HW134187   3.014   2.954   2.839  0.4714  0.0631 -1.4967
 7517SOL    HW234188   3.103   2.960   2.946  1.8561 -1.1168  0.5938
 7518SOL     OW34189   4.473   2.484   2.740 -0.6827 -0.2792 -0.3387
 7518SOL    HW134190   4.559   2.442   2.735 -0.2296  0.8111 -1.5304
 7518SOL    HW234191   4.414   2.414   2.712 -1.6648 -0.3451  1.8924
 7519SOL     OW34192   4.002   0.087   4.656  0.0772  0.4649  0.3331
 7519SOL    HW134193   3.963   0.030   4.723  0.1072  2.0525  1.7103
 7519SOL    HW234194   3.925   0.141   4.637  1.1461  2.4053  1.5530
 7520SOL     OW34195   2.396   2.152  15.416  0.0329  0.0053  0.3056
 7520SOL    HW134196   2.397   2.228  15.358  0.8326 -0.0678  0.2126
 7520SOL    HW234197   2.376   2.079  15.358 -0.4187 -0.7136  1.3571
 7521SOL     OW34198   0.154   4.153  14.187 -0.4048  0.0667  0.5967
 7521SOL    HW134199   0.146   4.121  14.276 -0.4162  0.8643  0.8827
 7521SOL    HW234200   0.065   4.133  14.157  0.5055  0.8103 -2.5784
 7522SOL     OW34201   0.025   4.483   5.431 -0.1344 -0.1542  0.4850
 7522SOL    HW134202   4.675   4.513   5.416 -0.8527 -1.5491  2.0674
 7522SOL    HW234203   0.043   4.441   5.347 -0.3852  0.5705  0.0676
 7523SOL     OW34204   1.989   1.126   5.307  0.3807 -0.2539 -0.4273
 7523SOL    HW134205   1.918   1.066   5.285  0.3885 -0.2927 -0.3466
 7523SOL    HW234206   1.946   1.210   5.319  0.3078 -0.2577 -0.6538
 7524SOL     OW34207   0.415   4.571   3.455  0.2143 -0.0525 -0.1412
 7524SOL    HW134208   0.412   4.506   3.385  0.2633 -0.3265  0.1098
 7524SOL    HW234209   0.382   4.643   3.401  1.2776 -0.6508 -1.6146
 7525SOL     OW34210   0.524   0.382   7.770  0.0252 -0.1945  0.1540
 7525SOL    HW134211   0.456   0.376   7.837  0.2459 -1.2504  0.2768
 7525SOL    HW234212   0.569   0.462   7.799 -0.1348 -0.2313  0.5100
 7526SOL     OW34213   4.321   2.414   3.684  0.0330 -0.7238 -0.0536
 7526SOL    HW134214   4.292   2.440   3.772 -0.1691 -1.9914  0.2549
 7526SOL    HW234215   4.252   2.350   3.668  0.6117 -1.4045  0.1551
 7527SOL     OW34216   1.121   0.170   2.945  0.1181 -0.0522  1.0274
 7527SOL    HW134217   1.132   0.259   2.912 -0.4090 -0.4841 -0.3272
 7527SOL    HW234218   1.132   0.172   3.040  0.4587  0.8484  0.9669
 7528SOL     OW34219   2.771   2.348   8.997  0.2911  0.0707  0.3161
 7528SOL    HW134220   2.851   2.355   8.946 -0.9335 -1.6846 -1.8200
 7528SOL    HW234221   2.747   2.440   8.985 -0.9495 -0.4622 -1.3066
 7529SOL     OW34222   2.078   2.528   3.163 -0.0728  0.8626  0.2793
 7529SOL    HW134223   2.076   2.535   3.067 -1.6875  0.0956  0.2495
 7529SOL    HW234224   1.996   2.566   3.194 -1.3644 -0.5314 -1.3662
 7530SOL     OW34225   4.496   0.798   7.180 -0.4770 -0.0429 -0.0545
 7530SOL    HW134226   4.507   0.814   7.274 -1.6468 -0.0132  0.0779
 7530SOL    HW234227   4.565   0.857   7.150 -0.4178  1.2704  2.6077
 7531SOL     OW34228   2.998   1.885  13.690  0.0332 -0.0091  0.9428
 7531SOL    HW134229   2.959   1.817  13.745  2.1021 -2.4732 -0.6805
 7531SOL    HW234230   3.000   1.847  13.603 -1.2671 -1.6453  1.6177
 7532SOL     OW34231   2.143   2.791  17.327 -0.2117  0.9284 -0.6186
 7532SOL    HW134232   2.069   2.822  17.380 -0.0941 -0.7665  0.5697
 7532SOL    HW234233   2.098   2.706  17.327  0.2730  0.6653  0.2688
 7533SOL     OW34234   3.496   0.520   9.405  0.4898 -0.4327 -0.2193
 7533SOL    HW134235   3.467   0.429   9.404 -0.6815 -0.0591 -1.1495
 7533SOL    HW234236   3.588   0.506   9.427  1.0074  3.9939  0.5727
 7534SOL     OW34237   1.988   3.187   3.758 -0.3980  0.2587  0.2390
 7534SOL    HW134238   2.052   3.253   3.786  1.3509  0.2670 -3.8216
 7534SOL    HW234239   1.987   3.206   3.664 -1.6367  0.0318  0.2069
 7535SOL     OW34240   1.038   0.722   7.271 -0.0040 -0.4042 -0.5588
 7535SOL    HW134241   0.947   0.743   7.248 -0.4160 -0.5686  0.9667
 7535SOL    HW234242   1.095   0.762   7.206  1.4781 -1.9763 -0.2162
 7536SOL     OW34243   3.136   3.876  11.335  0.2605  0.1034  0.5215
 7536SOL    HW134244   3.214   3.838  11.376  1.0796  0.0961 -1.0225
 7536SOL    HW234245   3.113   3.935  11.406 -0.4299 -0.4795  0.7756
 7537SOL     OW34246   2.266   4.638   8.202 -0.3038 -0.3357 -0.2156
 7537SOL    HW134247   2.333   4.628   8.134 -0.4978  1.2519 -0.6449
 7537SOL    HW234248   2.231   4.721   8.170 -0.9769 -0.4322  0.2679
 7538SOL     OW34249   2.684   1.990  16.801 -0.0006 -0.5625  0.4753
 7538SOL    HW134250   2.636   2.071  16.818 -0.0952 -0.7521  1.1300
 7538SOL    HW234251   2.693   1.998  16.706  3.0310  0.7084  0.8867
 7539SOL     OW34252   0.995   3.917   6.400 -0.1893  0.0228  0.1717
 7539SOL    HW134253   1.016   3.950   6.488 -3.0457  3.3363 -0.4097
 7539SOL    HW234254   0.923   3.860   6.428  1.2693 -1.9678 -0.0725
 7540SOL     OW34255   0.711   2.318   9.338 -0.0447 -0.0414 -0.2596
 7540SOL    HW134256   0.757   2.245   9.380  0.3214  0.6122  0.4571
 7540SOL    HW234257   0.648   2.344   9.405  1.5501  1.7654  0.5157
 7541SOL     OW34258   4.064   3.337   4.365  0.0298 -0.5036 -0.4925
 7541SOL    HW134259   3.973   3.367   4.365  0.6768  1.4573 -1.2809
 7541SOL    HW234260   4.076   3.303   4.454 -1.3488 -1.2889 -0.6224
 7542SOL     OW34261   2.518   0.329  16.470  0.5676 -0.3260 -0.7086
 7542SOL    HW134262   2.435   0.342  16.424 -0.2850 -1.5467  0.4949
 7542SOL    HW234263   2.577   0.394  16.433 -1.8238  1.9259 -0.5857
 7543SOL     OW34264   1.857   2.307   5.598  0.3104 -0.2586  0.0203
 7543SOL    HW134265   1.858   2.400   5.620 -0.9008 -0.0640 -0.7463
 7543SOL    HW234266   1.916   2.301   5.523 -1.3214  0.2345 -1.2955
 7544SOL     OW34267   2.084   3.757   9.482  0.8231 -0.1053 -0.0701
 7544SOL    HW134268   2.112   3.807   9.406 -0.8105 -0.9072 -1.2137
 7544SOL    HW234269   2.166   3.715   9.506 -0.0251 -1.5234  0.3555
 7545SOL     OW34270   0.811   2.095   9.450  0.3789 -0.4726 -0.1256
 7545SOL    HW134271   0.857   2.015   9.424  0.6506 -0.8597  1.5350
 7545SOL    HW234272   0.745   2.062   9.512 -0.1539 -1.6468 -1.3191
 7546SOL     OW34273   0.437   0.593   3.344 -0.5780 -0.0119  0.2398
 7546SOL    HW134274   0.492   0.516   3.331 -0.6591 -0.2538  1.3301
 7546SOL    HW234275   0.502   0.657   3.371  0.2571 -0.1182 -1.5127
 7547SOL     OW34276   0.944   3.029   4.829  0.6314 -0.3368 -0.6250
 7547SOL    HW134277   1.014   2.979   4.873  0.5000 -0.5327 -0.6401
 7547SOL    HW234278   0.945   2.996   4.740  0.3949  1.8823 -1.4425
 7548SOL     OW34279   0.960   0.439   8.211 -0.2313  0.4368  0.1789
 7548SOL    HW134280   0.991   0.375   8.147 -0.4617  0.0921  0.4146
 7548SOL    HW234281   0.960   0.394   8.295  2.1296  1.4387  0.7313
 7549SOL     OW34282   3.764   0.377   8.690  0.9294  0.0258  0.4716
 7549SOL    HW134283   3.707   0.347   8.619  0.7352 -0.1361  0.6971
 7549SOL    HW234284   3.734   0.468   8.698  1.2544  0.2341 -0.6418
 7550SOL     OW34285   2.686   3.730   1.005  0.0287  0.2652 -0.4861
 7550SOL    HW134286   2.703   3.754   1.096 -0.3521  2.0416 -0.8911
 7550SOL    HW234287   2.594   3.703   1.001  0.3099 -0.4706 -1.9862
 7551SOL     OW34288   3.739   1.094  10.240  0.4558  0.3809  0.1634
 7551SOL    HW134289   3.673   1.085  10.309 -1.4516  0.8606 -1.5806
 7551SOL    HW234290   3.697   1.168  10.196  2.6050  1.3149 -0.3185
 7552SOL     OW34291   2.084   2.994   8.381  0.5043 -0.4763  0.3596
 7552SOL    HW134292   2.073   2.900   8.376 -1.2921 -0.3100  1.0612
 7552SOL    HW234293   2.138   3.005   8.460 -0.2076  1.5175  0.5710
 7553SOL     OW34294   1.624   4.735  14.955 -0.4140  0.5137  0.0396
 7553SOL    HW134295   1.548   0.053  14.945  0.2324  1.5657  1.1728
 7553SOL    HW234296   1.679   0.034  15.023 -2.1086  1.2604  0.9761
 7554SOL     OW34297   3.321   4.168  16.505 -0.1970 -0.4185  0.1001
 7554SOL    HW134298   3.341   4.108  16.433 -0.5325  0.5787 -0.8316
 7554SOL    HW234299   3.229   4.140  16.500 -0.4241  0.1171  1.3426
 7555SOL     OW34300   4.154   1.491   8.707  0.5908  0.2449 -0.3699
 7555SOL    HW134301   4.231   1.462   8.659  0.2566  0.0356 -0.7857
 7555SOL    HW234302   4.113   1.551   8.644 -0.6921  1.6477  1.7807
 7556SOL     OW34303   3.643   3.951   4.350 -0.3758  0.4558  0.3419
 7556SOL    HW134304   3.705   4.023   4.336 -0.0293  0.4041  1.6492
 7556SOL    HW234305   3.691   3.897   4.412 -0.6278  0.0805  0.2097
 7557SOL     OW34306   1.106   1.260  10.357  0.4895 -0.5900  0.0492
 7557SOL    HW134307   1.173   1.261  10.425  0.7258 -2.0935 -0.1520
 7557SOL    HW234308   1.106   1.354  10.340  1.4922 -0.4942  0.5750
 7558SOL     OW34309   2.253   1.120   1.710  0.2223 -0.5652 -0.1562
 7558SOL    HW134310   2.320   1.089   1.771  1.2449  2.5886  0.3302
 7558SOL    HW234311   2.215   1.033   1.694 -0.3201 -0.1672 -1.0097
 7559SOL     OW34312   1.476   3.265   4.283  0.0330 -0.4504 -0.0337
 7559SOL    HW134313   1.493   3.342   4.230  0.6046 -0.1486  0.5988
 7559SOL    HW234314   1.487   3.300   4.371  0.9352 -0.8565  0.0057
 7560SOL     OW34315   2.457   1.444  12.347  0.0333  0.1003 -0.0653
 7560SOL    HW134316   2.436   1.537  12.349 -0.8033 -0.1233  2.2672
 7560SOL    HW234317   2.403   1.416  12.421 -3.3418  0.7776 -2.2529
 7561SOL     OW34318   1.211   0.057   1.064  0.6272  0.6125 -0.3677
 7561SOL    HW134319   1.212   0.028   1.155  3.1353  0.2961 -0.5039
 7561SOL    HW234320   1.122   0.036   1.035 -0.1798  0.8044  1.9885
 7562SOL     OW34321   4.314   0.289   6.100 -0.1873 -0.4751 -0.3802
 7562SOL    HW134322   4.229   0.290   6.143 -0.2391 -3.7549 -0.4356
 7562SOL    HW234323   4.374   0.258   6.168  0.2963 -1.2772 -1.1702
 7563SOL     OW34324   2.488   3.687   2.621  0.2977 -0.0593  0.1223
 7563SOL    HW134325   2.492   3.749   2.693 -1.0622 -1.0918  1.0864
 7563SOL    HW234326   2.561   3.627   2.639  1.5239  1.2871 -0.3577
 7564SOL     OW34327   3.233   3.354   8.874  0.3122  0.6574 -0.1721
 7564SOL    HW134328   3.173   3.303   8.818  0.0004 -0.9704  1.6249
 7564SOL    HW234329   3.222   3.440   8.834  1.2776  0.9487  0.2001
 7565SOL     OW34330   1.666   0.813   0.545  0.6483 -0.1565  0.4058
 7565SOL    HW134331   1.573   0.790   0.537  0.7183 -0.8105  1.3650
 7565SOL    HW234332   1.683   0.738   0.603 -0.3341  0.2960  1.2651
 7566SOL     OW34333   3.913   3.691   8.249  0.6814  0.4073  0.0961
 7566SOL    HW134334   3.998   3.733   8.258  1.8211 -2.2714  1.9107
 7566SOL    HW234335   3.912   3.685   8.154 -1.8759 -1.2033  0.2033
 7567SOL     OW34336   2.106   0.738   5.020  0.1200 -0.2006  0.3360
 7567SOL    HW134337   2.097   0.711   5.112  0.4644  1.3678  0.8184
 7567SOL    HW234338   2.060   0.666   4.977 -1.2186 -0.6607  2.5005
 7568SOL     OW34339   4.740   4.468   6.913 -0.5897  0.3683  0.3204
 7568SOL    HW134340   0.053   4.464   6.834  0.6692  1.1522  1.1257
 7568SOL    HW234341   0.065   4.497   6.978 -0.6234 -0.9022  0.9188
 7569SOL     OW34342   1.639   3.515   6.530 -0.1548 -0.5210  0.0387
 7569SOL    HW134343   1.591   3.517   6.613 -1.6291 -2.0782 -0.7658
 7569SOL    HW234344   1.683   3.430   6.527  1.2564  0.2178 -0.5610
 7570SOL     OW34345   2.319   2.920  16.688 -0.3404  0.4758  0.3267
 7570SOL    HW134346   2.354   2.897  16.602  0.8618  1.6228  0.5100
 7570SOL    HW234347   2.234   2.959  16.668  0.1293  0.7969 -1.0254
 7571SOL     OW34348   2.056   4.564   9.718 -0.1265 -0.2318 -0.0409
 7571SOL    HW134349   2.106   4.630   9.670 -0.2757  1.7346  2.5611
 7571SOL    HW234350   1.990   4.619   9.759  0.5960  1.0307 -0.5676
 7572SOL     OW34351   4.641   2.800  13.158  0.5617  0.0586 -0.2837
 7572SOL    HW134352   4.688   2.876  13.191 -0.0372  1.4235 -2.6094
 7572SOL    HW234353   4.581   2.839  13.094  0.4553  2.3651  1.2421
 7573SOL     OW34354   4.677   3.900   8.615 -0.8844 -0.4453 -0.1260
 7573SOL    HW134355   4.681   3.996   8.614 -1.2817 -0.4175  0.6760
 7573SOL    HW234356   4.621   3.885   8.691  0.2724  2.1398  1.2173
 7574SOL     OW34357   1.903   1.879   7.040  0.3560 -0.5050  0.0666
 7574SOL    HW134358   1.933   1.796   7.078  1.2903 -0.3947 -0.4412
 7574SOL    HW234359   1.907   1.844   6.951 -0.8000  0.7922 -0.4878
 7575SOL     OW34360   1.535   2.039   1.698  0.3034 -0.2550 -0.5953
 7575SOL    HW134361   1.557   1.947   1.683 -0.4007 -1.0255  3.1244
 7575SOL    HW234362   1.449   2.050   1.657 -0.3984 -0.7823  0.7138
 7576SOL     OW34363   2.952   0.452   5.728 -0.7082 -0.0217  0.0176
 7576SOL    HW134364   2.926   0.472   5.818  0.2109  1.7018 -0.1016
 7576SOL    HW234365   3.037   0.496   5.728  0.4110 -2.2117  0.7279
 7577SOL     OW34366   1.830   2.277   4.025  0.2393 -0.4815  0.2941
 7577SOL    HW134367   1.919   2.282   4.058  0.5171  0.3663 -0.5975
 7577SOL    HW234368   1.780   2.256   4.104 -1.7966  0.8026 -0.6364
 7578SOL     OW34369   3.603   3.502   2.959 -0.1832  0.4531  0.1815
 7578SOL    HW134370   3.662   3.427   2.948  1.4777  1.8906 -0.7729
 7578SOL    HW234371   3.540   3.482   2.890 -0.7251  0.8755  0.5530
 7579SOL     OW34372   2.320   0.317  13.705  0.0086  0.0508  0.3957
 7579SOL    HW134373   2.395   0.319  13.764 -0.2721 -1.8626  0.8312
 7579SOL    HW234374   2.339   0.238  13.654  0.0117 -0.1231  0.6615
 7580SOL     OW34375   1.599   0.067  15.375 -0.1402 -0.3955 -0.0922
 7580SOL    HW134376   1.526   0.068  15.313 -0.8114  0.4417  0.7068
 7580SOL    HW234377   1.633   4.718  15.362 -1.1643 -0.6985 -0.7283
 7581SOL     OW34378   0.181   1.045  12.675 -0.3503 -0.0603  0.3597
 7581SOL    HW134379   0.092   1.061  12.644 -0.3054 -0.2417  0.1321
 7581SOL    HW234380   0.192   1.131  12.715 -1.7048 -0.0615  0.7159
 7582SOL     OW34381   1.685   0.065   2.277  1.2829  0.0290 -0.0851
 7582SOL    HW134382   1.674   0.088   2.369  0.4624  0.0372 -0.1855
 7582SOL    HW234383   1.778   0.042   2.282  1.3478  0.3842  0.3242
 7583SOL     OW34384   1.095   3.393   2.046  0.2045  0.8299 -0.7193
 7583SOL    HW134385   1.038   3.447   1.991  0.1452  1.2662 -0.2281
 7583SOL    HW234386   1.045   3.312   2.042  0.9849  0.2811  0.7093
 7584SOL     OW34387   4.114   3.306   6.988 -0.3079  0.6191  0.3920
 7584SOL    HW134388   4.066   3.231   7.024  0.1141  0.9525  1.6580
 7584SOL    HW234389   4.073   3.308   6.902  0.5816  0.5465 -0.0418
 7585SOL     OW34390   1.978   1.053  15.014 -0.5374  0.7717 -0.4132
 7585SOL    HW134391   2.043   1.106  15.060  0.3011  0.0517 -0.7780
 7585SOL    HW234392   2.027   1.009  14.945 -2.0919 -1.2526 -0.2090
 7586SOL     OW34393   2.798   1.724   8.145  0.1103  0.4816 -0.0238
 7586SOL    HW134394   2.803   1.818   8.164 -1.3561  0.5775 -0.1277
 7586SOL    HW234395   2.891   1.714   8.165  1.0144  6.9380 -1.1003
 7587SOL     OW34396   4.163   2.011   2.738  0.3019 -0.7077  0.4899
 7587SOL    HW134397   4.087   2.068   2.739  0.1506 -0.9196  1.8478
 7587SOL    HW234398   4.221   2.078   2.775  0.5920 -0.2574 -0.7968
 7588SOL     OW34399   0.534   4.376   2.770  0.8089  0.2677 -0.5336
 7588SOL    HW134400   0.566   4.455   2.813  1.4880  0.0122 -0.5719
 7588SOL    HW234401   0.440   4.391   2.761  0.6297 -1.1815 -1.0871
 7589SOL     OW34402   1.535   3.567   1.933 -0.1309 -0.0188  0.8641
 7589SOL    HW134403   1.622   3.598   1.958 -0.3464  0.7573  0.6558
 7589SOL    HW234404   1.546   3.472   1.930 -2.0655 -0.1838 -1.0487
 7590SOL     OW34405   1.108   1.515   7.601  0.0863 -0.3597 -0.0100
 7590SOL    HW134406   1.013   1.515   7.592  0.2981  2.4282 -2.2303
 7590SOL    HW234407   1.112   1.591   7.659  1.8114 -1.9750  2.0112
 7591SOL     OW34408   3.005   3.357   1.866  0.6867 -0.3093  0.3767
 7591SOL    HW134409   3.098   3.375   1.885  0.6216 -0.5001  0.8614
 7591SOL    HW234410   3.015   3.263   1.876 -1.2777 -0.6753 -1.2377
 7592SOL     OW34411   4.296   0.331  13.494  0.2890  0.4291  0.0211
 7592SOL    HW134412   4.222   0.305  13.549  0.0067 -0.7542 -0.9271
 7592SOL    HW234413   4.335   0.400  13.547 -0.2223  1.3375 -0.7765
 7593SOL     OW34414   2.665   1.312   7.494 -0.4219 -0.6416 -0.1653
 7593SOL    HW134415   2.739   1.257   7.519 -0.1021 -0.9574 -1.8639
 7593SOL    HW234416   2.600   1.242   7.505 -0.9404 -0.3286 -1.2153
 7594SOL     OW34417   2.189   4.135   5.144  0.3863  0.0576 -0.8593
 7594SOL    HW134418   2.157   4.221   5.171  1.6740 -0.2506  1.6252
 7594SOL    HW234419   2.212   4.151   5.053  3.0974  0.8711 -0.0137
 7595SOL     OW34420   3.901   4.014   8.180 -0.2624  0.2774 -0.2148
 7595SOL    HW134421   3.972   3.994   8.119 -0.1990  1.3437 -0.4748
 7595SOL    HW234422   3.917   4.105   8.203 -0.0530  0.2092 -0.0849
 7596SOL     OW34423   1.960   2.677  15.423 -0.2262  0.2534  0.1981
 7596SOL    HW134424   1.978   2.613  15.353 -1.2683 -0.5507  0.6672
 7596SOL    HW234425   1.884   2.724  15.388 -0.3522 -0.0306  0.0870
 7597SOL     OW34426   4.310   2.097   6.101 -0.3976 -0.1598  0.0356
 7597SOL    HW134427   4.248   2.122   6.170  0.0277  1.0009 -0.0015
 7597SOL    HW234428   4.329   2.185   6.070  3.9556 -1.8586 -2.1290
 7598SOL     OW34429   2.952   2.363  11.792  0.1773  0.1331  0.8209
 7598SOL    HW134430   3.022   2.385  11.730 -1.0619  0.3437 -0.4991
 7598SOL    HW234431   3.001   2.303  11.849  0.3890  1.1417  1.7019
 7599SOL     OW34432   1.778   3.656   1.972  0.0918 -0.3561  0.0513
 7599SOL    HW134433   1.856   3.703   1.942 -0.7172 -0.0757 -1.5937
 7599SOL    HW234434   1.815   3.573   2.002 -0.6027 -0.0447  1.7697
 7600SOL     OW34435   3.965   4.408   9.104 -0.1127  0.2384 -0.0534
 7600SOL    HW134436   3.879   4.368   9.117  0.4351 -1.0265 -0.3629
 7600SOL    HW234437   3.989   4.355   9.028  0.2821  0.1766  0.1163
 7601SOL     OW34438   3.384   1.012   3.059 -0.1322  0.6399 -0.0090
 7601SOL    HW134439   3.364   1.074   2.989 -1.4458  0.4873  0.2372
 7601SOL    HW234440   3.400   0.932   3.010 -3.0265  0.6258 -0.9241
 7602SOL     OW34441   3.382   1.369   4.948  0.4080 -1.2006  0.4881
 7602SOL    HW134442   3.372   1.276   4.965  0.7855 -1.0865  1.3623
 7602SOL    HW234443   3.357   1.390   4.858  1.8724 -0.5087  0.2464
 7603SOL     OW34444   3.524   1.228  14.923  0.2219 -0.1325 -0.5888
 7603SOL    HW134445   3.461   1.298  14.938  0.9044 -0.0943  2.1930
 7603SOL    HW234446   3.487   1.198  14.841 -1.1833 -0.3973  0.1443
 7604SOL     OW34447   0.246   0.159   4.964  0.4390 -0.1518 -0.3572
 7604SOL    HW134448   0.311   0.225   4.941  1.0649 -0.7944 -0.4341
 7604SOL    HW234449   0.254   0.169   5.059  1.1267  3.8532 -0.8450
 7605SOL     OW34450   0.658   0.893   5.372 -0.4151  0.2025  0.0322
 7605SOL    HW134451   0.664   0.817   5.314 -1.2234  1.9798 -2.3490
 7605SOL    HW234452   0.677   0.863   5.462 -1.0827 -1.7972 -0.4924
 7606SOL     OW34453   3.672   3.865   1.765  0.0711  0.1382  0.4647
 7606SOL    HW134454   3.631   3.928   1.706  0.0171 -2.3580 -2.1793
 7606SOL    HW234455   3.604   3.865   1.831 -0.5375  2.2169 -0.1705
 7607SOL     OW34456   3.702   1.870   7.131 -0.0555  0.1025  0.0767
 7607SOL    HW134457   3.641   1.941   7.110  0.9191  2.1355  4.0066
 7607SOL    HW234458   3.767   1.918   7.184  1.1610 -0.0668 -1.2623
 7608SOL     OW34459   2.163   2.114   8.358 -0.3081  0.1488  0.2978
 7608SOL    HW134460   2.230   2.049   8.340  0.2465  0.6845  0.4244
 7608SOL    HW234461   2.109   2.119   8.279 -0.6022 -0.3973  0.4671
 7609SOL     OW34462   1.350   1.357   2.109 -0.3339 -0.3660 -0.8243
 7609SOL    HW134463   1.400   1.329   2.186 -0.1850 -2.8944 -1.8237
 7609SOL    HW234464   1.349   1.284   2.047  1.5675 -1.9850  1.0645
 7610SOL     OW34465   1.179   2.607   4.408 -0.5332 -0.1897 -0.4764
 7610SOL    HW134466   1.168   2.513   4.392 -0.1060 -0.6982  2.1115
 7610SOL    HW234467   1.092   2.643   4.393 -0.8845 -0.8533 -0.0908
 7611SOL     OW34468   1.005   1.967   3.741 -0.4401  0.3934 -0.5011
 7611SOL    HW134469   1.029   2.023   3.815 -1.3985  0.9972 -0.6362
 7611SOL    HW234470   0.911   1.983   3.728 -0.7314 -0.8958  0.1444
 7612SOL     OW34471   2.790   4.347  14.209  0.1199  0.0075  0.2178
 7612SOL    HW134472   2.819   4.289  14.139 -0.1175 -2.0569  1.8399
 7612SOL    HW234473   2.829   4.298  14.281 -0.4320  1.4311  1.4927
 7613SOL     OW34474   2.692   2.960  16.024  0.1166  0.1120  0.2093
 7613SOL    HW134475   2.785   2.956  16.005  0.3183  1.0824  1.0001
 7613SOL    HW234476   2.672   2.879  15.976 -0.2370  0.4475 -0.2133
 7614SOL     OW34477   2.390   4.428  17.209  0.1854 -0.2145 -0.0053
 7614SOL    HW134478   2.457   4.415  17.276 -0.6824  1.2775  1.1492
 7614SOL    HW234479   2.440   4.437  17.127  2.2454  1.5565  1.4526
 7615SOL     OW34480   3.528   3.836   4.952 -0.5960 -0.8305 -0.1675
 7615SOL    HW134481   3.448   3.836   5.005 -0.9073  2.1674 -0.6068
 7615SOL    HW234482   3.581   3.895   5.006  1.6984 -0.7093 -2.5514
 7616SOL     OW34483   2.452   1.901  16.591 -0.8020 -0.4467 -0.1047
 7616SOL    HW134484   2.371   1.864  16.556 -0.5445  0.6836 -1.9041
 7616SOL    HW234485   2.438   1.880  16.684  4.5941  2.5212  1.3672
 7617SOL     OW34486   1.883   1.481   9.929  0.2647  0.2738 -0.2410
 7617SOL    HW134487   1.826   1.554   9.953  0.1757 -0.0783  0.6261
 7617SOL    HW234488   1.822   1.408   9.945  0.9736 -0.3718 -0.4673
 7618SOL     OW34489   0.576   1.281   4.864  0.1022 -0.2178  0.1348
 7618SOL    HW134490   0.602   1.327   4.944  0.3180  0.3819 -0.2736
 7618SOL    HW234491   0.578   1.346   4.793  2.9280  1.8562  2.1095
 7619SOL     OW34492   2.605   1.430   8.747 -0.1394  0.3161  0.3962
 7619SOL    HW134493   2.547   1.433   8.823  1.0174 -0.5166  1.2960
 7619SOL    HW234494   2.678   1.481   8.783 -0.0094  0.5929 -0.2532
 7620SOL     OW34495   4.659   4.358   3.056 -0.4499 -0.3616  0.7104
 7620SOL    HW134496   4.710   4.300   3.113 -1.3955 -2.0087 -0.1007
 7620SOL    HW234497   4.578   4.373   3.104 -1.7413 -1.7321 -1.0023
 7621SOL     OW34498   1.560   0.385   6.233  0.2923  0.1578 -0.4667
 7621SOL    HW134499   1.502   0.343   6.296 -0.6064 -1.0156 -2.0732
 7621SOL    HW234500   1.529   0.356   6.147  0.2836 -0.9115 -0.0985
 7622SOL     OW34501   0.692   2.056  10.407  0.4094 -0.0461  0.0952
 7622SOL    HW134502   0.606   2.066  10.368  0.3431 -1.8289 -0.1835
 7622SOL    HW234503   0.742   2.033  10.328 -2.1524 -1.1124 -1.2020
 7623SOL     OW34504   2.185   2.975   9.745 -0.0907 -0.1578  0.2709
 7623SOL    HW134505   2.145   3.034   9.682 -0.9323  0.9521  1.8225
 7623SOL    HW234506   2.126   2.901   9.732 -0.1593  0.2193 -1.4613
 7624SOL     OW34507   2.246   4.369  11.420 -0.0170 -0.1485 -0.4633
 7624SOL    HW134508   2.328   4.411  11.448  0.6458 -1.2837 -0.7060
 7624SOL    HW234509   2.267   4.277  11.404 -0.7609 -0.4495  0.3093
 7625SOL     OW34510   1.102   0.614   4.235 -0.1957  0.1879  0.0600
 7625SOL    HW134511   1.180   0.604   4.290 -1.5647 -0.7026  1.8381
 7625SOL    HW234512   1.142   0.640   4.152  0.2448  3.1311  1.1707
 7626SOL     OW34513   1.101   2.124  12.913  0.2360  0.4658  0.4253
 7626SOL    HW134514   1.197   2.117  12.913  0.2031 -0.0632  1.9126
 7626SOL    HW234515   1.094   2.167  12.999 -1.7348  1.1018 -0.0779
 7627SOL     OW34516   2.030   0.470  12.981 -0.0834 -0.6284  0.6575
 7627SOL    HW134517   2.110   0.518  12.957 -1.0003  1.1544  1.1798
 7627SOL    HW234518   1.970   0.499  12.912 -0.7366 -2.0944  0.6023
 7628SOL     OW34519   2.838   2.159   4.068 -0.6097 -0.3223  0.1597
 7628SOL    HW134520   2.785   2.112   4.133 -1.0089  2.1724  1.6560
 7628SOL    HW234521   2.910   2.194   4.120 -1.5070 -0.5818  1.5699
 7629SOL     OW34522   1.117   1.113   4.719 -0.4655  0.0638  0.1072
 7629SOL    HW134523   1.070   1.155   4.647  0.4728  0.2949 -0.3766
 7629SOL    HW234524   1.191   1.173   4.729 -0.6273  0.8538 -3.1960
 7630SOL     OW34525   4.377   1.702   1.834 -0.2273  0.3061 -0.0659
 7630SOL    HW134526   4.337   1.630   1.787  0.0623 -0.1373  0.3643
 7630SOL    HW234527   4.401   1.752   1.756  0.4024 -2.9526 -1.9494
 7631SOL     OW34528   2.666   0.288   2.083 -0.2319 -0.6145 -0.0202
 7631SOL    HW134529   2.624   0.373   2.095 -1.6275 -0.9331 -2.6730
 7631SOL    HW234530   2.600   0.248   2.140  0.8402 -0.7774  1.1100
 7632SOL     OW34531   2.887   2.984   4.377 -0.0904  0.1893  0.0059
 7632SOL    HW134532   2.900   2.911   4.438  2.4456  0.0309 -0.7472
 7632SOL    HW234533   2.874   2.950   4.289 -1.1603  0.0545  0.2157
 7633SOL     OW34534   3.015   1.390   8.606  0.3445 -0.0234  0.5862
 7633SOL    HW134535   2.960   1.458   8.645 -0.7473 -0.2969 -0.4621
 7633SOL    HW234536   3.020   1.326   8.676  0.5972 -0.2555  0.3518
 7634SOL     OW34537   3.169   2.515   3.883 -0.8852  0.6593 -0.5274
 7634SOL    HW134538   3.178   2.577   3.956  2.7805 -1.2111  0.5902
 7634SOL    HW234539   3.185   2.429   3.920 -2.1116  0.5414 -0.2601
 7635SOL     OW34540   4.184   4.711   6.738 -0.3789  0.0494 -0.5051
 7635SOL    HW134541   4.144   0.057   6.724 -0.8474  0.7651  5.4681
 7635SOL    HW234542   4.140   4.687   6.819 -1.1485  0.8537 -0.6898
 7636SOL     OW34543   0.350   3.152   8.241 -0.4245 -0.3478  0.5825
 7636SOL    HW134544   0.407   3.121   8.170 -1.8371 -0.9065 -0.2994
 7636SOL    HW234545   0.343   3.241   8.205 -1.0304 -0.1190  1.2740
 7637SOL     OW34546   0.377   0.717   7.292  0.4225  0.2803  0.1534
 7637SOL    HW134547   0.282   0.733   7.289  0.1464 -1.4264  0.0805
 7637SOL    HW234548   0.412   0.799   7.257  0.6712  0.2208  0.2697
 7638SOL     OW34549   2.839   2.303   9.326 -0.3563 -0.0982 -0.7114
 7638SOL    HW134550   2.932   2.325   9.321 -0.3104 -0.1122  0.1649
 7638SOL    HW234551   2.801   2.367   9.265  1.4602  1.9682  0.3442
 7639SOL     OW34552   3.232   3.423  13.866  0.4226  0.3944 -0.1860
 7639SOL    HW134553   3.164   3.357  13.878  0.6059  0.4800  1.4148
 7639SOL    HW234554   3.297   3.379  13.812  0.3001 -0.0977  0.0745
 7640SOL     OW34555   3.629   2.427   5.543 -0.1177  0.0663 -0.2612
 7640SOL    HW134556   3.658   2.336   5.555 -1.3783 -0.2461  0.4343
 7640SOL    HW234557   3.687   2.487   5.590 -2.2553 -1.1868  4.0237
 7641SOL     OW34558   4.291   0.509   5.794 -0.2092  0.0780  0.3144
 7641SOL    HW134559   4.321   0.433   5.845 -0.1952 -0.1505 -0.0281
 7641SOL    HW234560   4.347   0.577   5.832  2.0048 -1.3186 -0.3935
 7642SOL     OW34561   1.602   1.278   9.262  0.5542  0.0946  0.5258
 7642SOL    HW134562   1.591   1.184   9.256 -0.3603  0.3367 -1.5427
 7642SOL    HW234563   1.688   1.279   9.220  0.1634  1.2770 -0.2477
 7643SOL     OW34564   3.845   3.704  11.522  0.6043  0.4758 -0.1498
 7643SOL    HW134565   3.869   3.690  11.614  1.4897  2.1091 -0.1243
 7643SOL    HW234566   3.760   3.748  11.534 -0.8495 -2.5059  0.6077
 7644SOL     OW34567   2.850   0.362   0.999 -0.3356 -0.7492 -0.3966
 7644SOL    HW134568   2.928   0.379   1.052 -1.2341 -1.4687  1.1265
 7644SOL    HW234569   2.800   0.442   1.012  1.7701  0.3951  0.7516
 7645SOL     OW34570   0.046   1.132   8.352  0.5090  0.1124  0.3339
 7645SOL    HW134571   4.696   1.160   8.369  1.3504  3.5050 -0.8216
 7645SOL    HW234572   0.091   1.208   8.388 -0.6826  1.3929 -0.8925
 7646SOL     OW34573   0.797   3.549  15.029 -0.0937 -0.0227  0.2132
 7646SOL    HW134574   0.734   3.486  14.995  1.1752 -0.4590 -1.3179
 7646SOL    HW234575   0.757   3.592  15.106 -1.8759 -1.3213  0.0239
 7647SOL     OW34576   3.123   1.280   8.835 -0.2073  0.9792 -0.4489
 7647SOL    HW134577   3.105   1.289   8.928 -1.3465  0.3508 -0.6086
 7647SOL    HW234578   3.194   1.218   8.820 -1.6050 -1.0171  1.2907
 7648SOL     OW34579   4.229   1.864   6.632 -0.0821  0.1268  0.3729
 7648SOL    HW134580   4.198   1.776   6.652 -0.8314  0.5560  1.1062
 7648SOL    HW234581   4.314   1.853   6.675  0.2419 -1.7084 -0.7287
 7649SOL     OW34582   4.149   2.224   3.234 -0.4122 -0.2170 -0.4663
 7649SOL    HW134583   4.093   2.274   3.294 -0.1236  0.0705 -0.4334
 7649SOL    HW234584   4.125   2.262   3.149 -0.6447  0.5917 -0.0436
 7650SOL     OW34585   1.215   2.891  17.397  0.8714  0.7866  0.4409
 7650SOL    HW134586   1.255   2.884  17.483 -0.0249 -2.2769  0.6077
 7650SOL    HW234587   1.257   2.825  17.340 -1.6518  0.2477 -0.8217
 7651SOL     OW34588   3.924   1.179   6.578  0.0325 -0.4269 -0.2222
 7651SOL    HW134589   3.930   1.127   6.497 -0.2112  1.0263 -1.1809
 7651SOL    HW234590   3.879   1.259   6.552 -0.8592 -0.7842  0.2528
 7652SOL     OW34591   2.278   2.534   6.765 -0.0724  0.8556 -0.3469
 7652SOL    HW134592   2.185   2.548   6.781  0.3102 -0.6816  3.4145
 7652SOL    HW234593   2.283   2.479   6.687 -0.6333 -1.1740  1.0434
 7653SOL     OW34594   0.459   0.637  13.464  0.0325 -0.1315  0.5882
 7653SOL    HW134595   0.495   0.617  13.550  1.7555 -1.4868 -0.4636
 7653SOL    HW234596   0.527   0.606  13.405  1.5780  1.6780  1.3972
 7654SOL     OW34597   0.592   3.129   6.237  0.1390 -0.2182  0.1433
 7654SOL    HW134598   0.677   3.087   6.248  0.2038 -0.1355 -0.0418
 7654SOL    HW234599   0.533   3.061   6.203  1.4472 -1.1275 -0.2853
 7655SOL     OW34600   4.507   2.570   6.829  0.6755  0.7679  0.4160
 7655SOL    HW134601   4.526   2.649   6.777 -0.5284  0.6198 -0.2422
 7655SOL    HW234602   4.517   2.497   6.769  0.1899  1.2076 -0.1993
 7656SOL     OW34603   4.721   4.673   1.844 -0.3266  0.0195 -0.1604
 7656SOL    HW134604   4.642   4.723   1.865 -1.1530 -1.9867  1.4041
 7656SOL    HW234605   4.718   4.661   1.749  0.8765  1.7733 -0.4381
 7657SOL     OW34606   1.228   0.712  12.367 -0.2050 -0.4953 -0.4822
 7657SOL    HW134607   1.247   0.624  12.336 -1.8492 -0.1979 -2.3579
 7657SOL    HW234608   1.152   0.695  12.423 -3.4073  1.8340 -4.0735
 7658SOL     OW34609   2.395   2.996   2.490 -0.5982 -0.2664  0.1672
 7658SOL    HW134610   2.449   3.052   2.434  0.8533 -2.0373 -0.1933
 7658SOL    HW234611   2.402   3.021   2.582 -0.9206 -0.5041  0.2557
 7659SOL     OW34612   0.458   4.196   5.595  0.0035  0.1163 -0.0990
 7659SOL    HW134613   0.552   4.182   5.584 -0.0530 -0.7072  0.5179
 7659SOL    HW234614   0.437   4.253   5.521 -0.6390  0.5253  0.3967
 7660SOL     OW34615   0.433   1.227   6.521 -0.5636 -0.8572  0.1369
 7660SOL    HW134616   0.453   1.167   6.449  1.7055 -0.4832  0.4400
 7660SOL    HW234617   0.432   1.168   6.596  0.3480 -2.9188 -1.4566
 7661SOL     OW34618   2.955   3.437   7.022 -0.2329 -0.3629  0.9258
 7661SOL    HW134619   2.955   3.419   7.116 -2.8553 -0.1725  0.9489
 7661SOL    HW234620   3.043   3.404   7.001 -1.0356  0.9335 -4.6475
 7662SOL     OW34621   3.496   2.949   6.548  0.1604 -0.0476  0.3230
 7662SOL    HW134622   3.555   3.013   6.509  2.1976 -0.3684  2.8806
 7662SOL    HW234623   3.438   2.933   6.474 -1.3005 -0.1222  1.4840
 7663SOL     OW34624   1.747   2.415   9.795 -0.0940  0.5019 -0.2805
 7663SOL    HW134625   1.748   2.343   9.732 -0.5571  1.4038 -1.3056
 7663SOL    HW234626   1.655   2.440   9.804  0.3855  2.1925 -0.0651
 7664SOL     OW34627   3.488   2.252   7.935 -0.2001 -0.5562  0.0016
 7664SOL    HW134628   3.479   2.195   7.859 -1.3481 -1.7400  1.0197
 7664SOL    HW234629   3.557   2.204   7.981  0.6184  0.7265  0.1132
 7665SOL     OW34630   2.420   2.140   2.445  0.3491  0.2768 -0.5395
 7665SOL    HW134631   2.432   2.183   2.530 -0.7990 -0.3987 -0.0332
 7665SOL    HW234632   2.386   2.052   2.465  0.1413  0.2514 -1.0037
 7666SOL     OW34633   0.534   1.412   9.355 -0.2259  0.3509  0.4937
 7666SOL    HW134634   0.567   1.326   9.379  1.0673  1.2543  1.9032
 7666SOL    HW234635   0.462   1.393   9.293 -1.6251 -0.8365  2.4751
 7667SOL     OW34636   3.238   2.721   2.013 -0.7334 -0.0886  0.4889
 7667SOL    HW134637   3.276   2.781   2.077 -1.9537  3.0321 -1.6970
 7667SOL    HW234638   3.157   2.760   1.981  0.1009  1.5458  0.3684
 7668SOL     OW34639   3.099   3.672   4.992 -0.4144 -0.5774  0.0735
 7668SOL    HW134640   3.085   3.675   4.897 -2.9447 -0.5309  0.4609
 7668SOL    HW234641   3.160   3.745   5.004 -0.7552  0.2831 -3.4549
 7669SOL     OW34642   2.328   2.559   4.585 -0.2397  0.0817 -0.2342
 7669SOL    HW134643   2.290   2.625   4.526  3.6084 -0.4044 -3.2982
 7669SOL    HW234644   2.320   2.603   4.669  0.9576  2.0323 -1.1285
 7670SOL     OW34645   2.310   1.301   6.241  0.2720  0.0725 -0.0254
 7670SOL    HW134646   2.386   1.281   6.188  0.4952  1.5577 -0.2656
 7670SOL    HW234647   2.283   1.216   6.276 -4.8552  0.3406 -3.3093
 7671SOL     OW34648   0.436   1.907   9.841  0.0444  0.0191  0.6187
 7671SOL    HW134649   0.488   1.843   9.889 -0.4284 -0.1143  0.9567
 7671SOL    HW234650   0.435   1.855   9.760  1.4726  1.1580 -0.1238
 7672SOL     OW34651   0.234   3.605   3.512  0.3610 -0.1270  0.3194
 7672SOL    HW134652   0.139   3.605   3.519  0.2919  2.0835 -0.6602
 7672SOL    HW234653   0.254   3.548   3.587  2.2992  2.2985  1.6339
 7673SOL     OW34654   2.233   3.689   5.042 -0.8534 -0.0659 -0.5475
 7673SOL    HW134655   2.149   3.688   4.997 -1.1549  2.2554 -0.0591
 7673SOL    HW234656   2.222   3.613   5.099 -0.5224  0.2990  0.0086
 7674SOL     OW34657   1.177   3.166   5.770 -0.1009  0.0357 -0.5087
 7674SOL    HW134658   1.233   3.230   5.727  1.1487  0.2602  1.4143
 7674SOL    HW234659   1.129   3.228   5.825 -2.0923  0.1403 -2.3590
 7675SOL     OW34660   2.149   3.033   7.396 -0.1842 -0.3928  0.1143
 7675SOL    HW134661   2.222   3.024   7.333 -0.7312 -0.7975 -0.4654
 7675SOL    HW234662   2.134   2.940   7.416 -0.5625 -0.3190  0.1690
 7676SOL     OW34663   3.744   1.563   9.542  0.3717 -0.3842 -0.8777
 7676SOL    HW134664   3.714   1.481   9.503 -0.9591 -0.8487  1.1675
 7676SOL    HW234665   3.776   1.528   9.625  3.1939  1.7260 -1.0481
 7677SOL     OW34666   1.217   1.778   5.287  0.1927  0.3377 -0.2725
 7677SOL    HW134667   1.125   1.752   5.285 -0.3580  2.4171 -1.2662
 7677SOL    HW234668   1.249   1.703   5.337 -0.4443  0.4221  0.2636
 7678SOL     OW34669   3.456   1.304   6.485 -0.4245  0.2398  0.4055
 7678SOL    HW134670   3.418   1.284   6.571  1.1796  1.2159  1.3379
 7678SOL    HW234671   3.462   1.399   6.493 -0.1896  0.1733  1.0534
 7679SOL     OW34672   4.359   2.231   2.610  0.3520 -0.1966  0.8316
 7679SOL    HW134673   4.283   2.264   2.562  2.2301  2.6076 -0.1606
 7679SOL    HW234674   4.382   2.168   2.541 -1.0240 -0.7561  0.8924
 7680SOL     OW34675   1.863   2.943   3.134  0.9864 -0.3007  0.1812
 7680SOL    HW134676   1.921   2.884   3.085 -1.6821 -3.2366  0.6227
 7680SOL    HW234677   1.882   2.914   3.223 -0.6718 -1.8016  0.0322
 7681SOL     OW34678   0.616   0.637   7.871 -0.6692 -0.2114 -0.6075
 7681SOL    HW134679   0.575   0.724   7.873  1.2431  0.6943 -1.8510
 7681SOL    HW234680   0.688   0.653   7.932  0.7066 -1.8302 -1.8095
 7682SOL     OW34681   2.577   0.153   1.795  0.2062  0.5945  0.0866
 7682SOL    HW134682   2.569   0.199   1.878  1.5279  0.3098  0.3786
 7682SOL    HW234683   2.486   0.132   1.775 -0.1796  1.5014  0.9139
 7683SOL     OW34684   4.300   3.557   2.280  0.0009 -0.3130  0.3370
 7683SOL    HW134685   4.352   3.484   2.313  2.3959 -0.4748 -3.8657
 7683SOL    HW234686   4.211   3.535   2.309  0.4126 -1.0616  1.0271
 7684SOL     OW34687   0.996   2.802   6.839  0.3783  0.1201 -0.4999
 7684SOL    HW134688   1.049   2.820   6.762  0.3271  1.2848 -0.2781
 7684SOL    HW234689   1.065   2.794   6.904  0.3612 -1.8903 -0.7534
 7685SOL     OW34690   3.610   4.390   8.694 -0.3439  0.2997  0.5985
 7685SOL    HW134691   3.594   4.327   8.624 -0.2811 -1.1815  1.9215
 7685SOL    HW234692   3.693   4.354   8.725  0.7870  1.7476 -0.7001
 7686SOL     OW34693   0.589   0.807  13.883 -0.2082  0.1643  0.3607
 7686SOL    HW134694   0.640   0.837  13.959 -0.1882  3.5627 -1.0115
 7686SOL    HW234695   0.517   0.756  13.921  0.3813 -0.5228  0.5570
 7687SOL     OW34696   3.448   0.359   3.240 -0.3419  0.7163 -0.5228
 7687SOL    HW134697   3.494   0.432   3.281  1.0969 -1.5410  1.8742
 7687SOL    HW234698   3.490   0.284   3.282  1.3083  1.2283 -1.2635
 7688SOL     OW34699   0.536   2.333   8.299 -0.3862  0.5584  0.7603
 7688SOL    HW134700   0.477   2.273   8.345 -0.9806  1.5742  1.3512
 7688SOL    HW234701   0.602   2.355   8.365  0.5407  1.1137 -0.3528
 7689SOL     OW34702   1.647   4.257   4.171 -0.8828 -0.4792 -0.0764
 7689SOL    HW134703   1.741   4.258   4.155 -0.9004 -0.9685 -0.2259
 7689SOL    HW234704   1.636   4.329   4.233 -2.4483 -0.3508 -0.5055
 7690SOL     OW34705   2.320   1.358   3.241  0.1042  0.1508  0.8966
 7690SOL    HW134706   2.234   1.401   3.240  0.2376  0.4427  1.6115
 7690SOL    HW234707   2.377   1.395   3.309  1.3339 -0.3147  0.1231
 7691SOL     OW34708   4.697   3.925   1.408 -0.0934 -0.2714  0.0046
 7691SOL    HW134709   4.648   3.857   1.363  0.7218  0.4564 -1.9862
 7691SOL    HW234710   4.672   4.007   1.365 -0.8787 -1.8837 -2.5852
 7692SOL     OW34711   3.951   3.389   4.684  0.2173 -0.3982 -0.1490
 7692SOL    HW134712   3.959   3.484   4.692  1.4198 -0.5648  0.6105
 7692SOL    HW234713   3.915   3.374   4.772 -0.9245 -0.7620 -0.6766
 7693SOL     OW34714   2.945   1.611   0.577  0.1136 -0.2843  0.1809
 7693SOL    HW134715   3.023   1.605   0.633  0.4043  1.2468 -0.0461
 7693SOL    HW234716   2.882   1.566   0.634  1.7412 -2.2384  0.4562
 7694SOL     OW34717   4.580   4.437  16.643  0.0240  0.0482 -0.1149
 7694SOL    HW134718   4.601   4.391  16.725  0.9869  2.7955  1.1751
 7694SOL    HW234719   4.650   4.408  16.585  1.3205  0.5136  1.1976
 7695SOL     OW34720   1.923   1.354   1.119 -0.2204  0.5237 -0.2470
 7695SOL    HW134721   1.977   1.356   1.039 -2.3227  1.6089 -1.6160
 7695SOL    HW234722   1.961   1.279   1.165  1.5489  2.3177  1.1980
 7696SOL     OW34723   2.027   2.599   4.140  0.0862  0.3641 -0.2710
 7696SOL    HW134724   2.058   2.626   4.226  1.2968 -1.0511 -0.2756
 7696SOL    HW234725   2.107   2.561   4.103  0.7216  0.7958  0.6764
 7697SOL     OW34726   4.568   3.957   7.286 -0.2830  0.9641  0.2450
 7697SOL    HW134727   4.516   3.926   7.360 -0.2105 -0.1858 -0.1886
 7697SOL    HW234728   4.622   3.878   7.278 -0.7955  0.6887 -0.4661
 7698SOL     OW34729   0.219   2.382   5.255  0.5000  0.2693  0.1445
 7698SOL    HW134730   0.160   2.354   5.325 -1.1105  2.7107 -0.2402
 7698SOL    HW234731   0.152   2.425   5.201  2.5583  0.1990 -2.4536
 7699SOL     OW34732   1.872   2.653   8.646 -0.1922 -0.2485  0.1775
 7699SOL    HW134733   1.928   2.611   8.581  0.8100 -0.0261  0.9049
 7699SOL    HW234734   1.779   2.650   8.622 -0.2606  0.4136  0.3595
 7700SOL     OW34735   0.258   0.169  12.605  0.2902 -0.0195 -0.2728
 7700SOL    HW134736   0.255   0.136  12.695 -1.1866 -0.1672 -0.3839
 7700SOL    HW234737   0.197   0.118  12.553  1.0511  0.7241 -1.9046
 7701SOL     OW34738   3.000   0.623   7.539  0.3816 -0.2580 -0.5537
 7701SOL    HW134739   2.935   0.672   7.589  1.3934  1.5998 -1.0233
 7701SOL    HW234740   2.948   0.604   7.461 -0.1677 -1.4350  0.0976
 7702SOL     OW34741   4.221   2.926   8.430 -0.2405 -0.0274  0.1084
 7702SOL    HW134742   4.255   2.863   8.367  0.1280 -0.9350  1.2081
 7702SOL    HW234743   4.216   2.998   8.367 -3.0241  0.7534  1.2599
 7703SOL     OW34744   2.009   2.449   7.344  0.2172 -0.1760  0.2615
 7703SOL    HW134745   1.933   2.486   7.299  0.9265 -0.6058 -1.2658
 7703SOL    HW234746   1.965   2.384   7.398 -0.1866 -0.8908 -0.9431
 7704SOL     OW34747   2.881   2.793  15.223  0.4353 -0.2781  0.4487
 7704SOL    HW134748   2.818   2.739  15.176 -0.0421  0.1154  0.6427
 7704SOL    HW234749   2.839   2.878  15.207  0.9917 -0.3303 -1.2709
 7705SOL     OW34750   3.597   1.969   3.205  0.5843 -0.2465 -0.0063
 7705SOL    HW134751   3.625   1.878   3.215  0.0864 -0.5804 -1.7832
 7705SOL    HW234752   3.655   2.012   3.267 -0.0984  1.2783 -0.4236
 7706SOL     OW34753   1.208   3.772   7.845  0.1244 -0.5990 -0.4250
 7706SOL    HW134754   1.150   3.747   7.917  0.6973  0.3722  0.3724
 7706SOL    HW234755   1.288   3.791   7.895 -0.1806 -0.6293  0.0777
 7707SOL     OW34756   3.351   0.319   9.127  0.4043 -0.4583 -0.2613
 7707SOL    HW134757   3.445   0.301   9.124  0.3924 -0.6672  0.5567
 7707SOL    HW234758   3.346   0.292   9.219 -0.3977 -1.8347 -0.7024
 7708SOL     OW34759   3.838   3.734   7.538 -0.3550  0.1577  0.1977
 7708SOL    HW134760   3.770   3.742   7.605  1.2069 -0.9942  1.9397
 7708SOL    HW234761   3.811   3.791   7.466 -1.7095 -0.8117 -0.0610
 7709SOL     OW34762   0.457   2.237   6.275 -0.8256 -0.5752  0.3325
 7709SOL    HW134763   0.409   2.294   6.215 -1.1745  1.9195  3.0188
 7709SOL    HW234764   0.424   2.148   6.260  0.1707 -1.0680  1.0905
 7710SOL     OW34765   2.000   3.651   1.745 -0.2035 -0.7882 -0.1556
 7710SOL    HW134766   2.070   3.596   1.780 -0.8020 -0.4066  1.6272
 7710SOL    HW234767   2.030   3.742   1.745 -3.6722  0.3291  2.0923
 7711SOL     OW34768   0.497   4.053  16.685 -0.1498  0.1771  0.0885
 7711SOL    HW134769   0.574   4.011  16.647 -0.5560  0.1183 -0.6768
 7711SOL    HW234770   0.536   4.107  16.754 -1.9449 -0.7370  1.8305
 7712SOL     OW34771   4.011   2.128  17.245  0.1113  0.5333  0.1474
 7712SOL    HW134772   4.054   2.200  17.292 -1.2429  1.6541 -0.3317
 7712SOL    HW234773   4.017   2.162  17.156  0.6037 -2.3249 -0.9211
 7713SOL     OW34774   3.977   2.000   1.973  0.1523  0.5828 -0.2971
 7713SOL    HW134775   4.023   2.078   2.004  0.8641 -0.6638  1.8065
 7713SOL    HW234776   4.048   1.935   1.965  0.1861  0.7669 -1.5135
 7714SOL     OW34777   4.176   0.954   7.819 -0.1533 -0.2646  0.3432
 7714SOL    HW134778   4.106   0.908   7.864  0.7406 -0.9514  1.0215
 7714SOL    HW234779   4.196   1.028   7.876  1.2343 -0.1809 -0.2472
 7715SOL     OW34780   0.490   1.487   0.107  0.1591 -0.1658 -0.3144
 7715SOL    HW134781   0.473   1.434   0.030 -1.7354 -0.9442  0.6445
 7715SOL    HW234782   0.565   1.434   0.136 -0.4370 -1.6145 -1.4317
 7716SOL     OW34783   0.020   3.176  12.407  0.3482 -0.2645 -0.4116
 7716SOL    HW134784   4.725   3.153  12.322 -0.4706  1.6560 -0.5839
 7716SOL    HW234785   4.731   3.104  12.463 -2.1537  0.6095 -0.5945
 7717SOL     OW34786   0.377   4.697   4.805 -0.4376 -0.2965  0.2223
 7717SOL    HW134787   0.318   0.024   4.839  0.3266  1.3796 -1.7286
 7717SOL    HW234788   0.318   4.659   4.740 -1.1738 -1.0087  1.3090
 7718SOL     OW34789   2.227   4.496  13.299 -0.0091  0.1170 -0.2821
 7718SOL    HW134790   2.290   4.438  13.257  0.4498  0.9824 -0.7877
 7718SOL    HW234791   2.170   4.499  13.222 -0.0073 -0.1915 -0.2933
 7719SOL     OW34792   0.981   1.335   2.248  0.0176  0.4421 -0.6314
 7719SOL    HW134793   1.014   1.405   2.192 -1.8157  1.4634 -0.4135
 7719SOL    HW234794   1.003   1.356   2.339 -0.4042 -1.8205 -0.0136
 7720SOL     OW34795   2.136   0.545  15.097  0.4381 -0.0308 -0.5982
 7720SOL    HW134796   2.161   0.505  15.014  1.2773 -1.4979  0.3621
 7720SOL    HW234797   2.089   0.473  15.140  3.3396 -0.3121  2.1412
 7721SOL     OW34798   2.123   3.947   7.309 -0.2261 -0.2104  0.2737
 7721SOL    HW134799   2.058   3.961   7.240 -2.2654  1.0300  2.4421
 7721SOL    HW234800   2.187   4.004   7.266 -0.4509 -0.3537 -0.2537
 7722SOL     OW34801   0.627   1.643   6.996  0.2807  0.1138 -0.2712
 7722SOL    HW134802   0.600   1.551   6.991 -0.3533  0.1530  2.3151
 7722SOL    HW234803   0.607   1.667   7.086 -0.1351  0.0376 -0.3439
 7723SOL     OW34804   1.833   1.148   6.635 -0.0790 -0.1914 -0.4550
 7723SOL    HW134805   1.847   1.210   6.564  3.4180  0.1278  0.5338
 7723SOL    HW234806   1.817   1.210   6.706 -1.6201 -2.1727  0.9445
 7724SOL     OW34807   1.675   1.307   8.920 -0.2454 -0.0763 -0.1110
 7724SOL    HW134808   1.635   1.390   8.947  3.1475  1.5609 -0.1788
 7724SOL    HW234809   1.766   1.312   8.949 -0.0724 -0.9651 -0.5079
 7725SOL     OW34810   1.134   2.586  15.742  0.2102 -0.1668  0.2486
 7725SOL    HW134811   1.100   2.666  15.702 -0.9381 -1.6297 -1.6649
 7725SOL    HW234812   1.212   2.578  15.687 -0.1796  2.4992 -0.7379
 7726SOL     OW34813   4.548   0.436   7.527 -0.2119 -0.3201 -1.2760
 7726SOL    HW134814   4.515   0.393   7.448 -1.4541 -0.2399 -0.8081
 7726SOL    HW234815   4.634   0.466   7.499  0.2970 -0.3340  0.2458
 7727SOL     OW34816   2.552   3.724   5.603 -0.7065 -0.2579  0.0505
 7727SOL    HW134817   2.600   3.651   5.642  0.8447 -1.0113 -3.3230
 7727SOL    HW234818   2.612   3.790   5.638 -1.7873 -0.8275  3.0496
 7728SOL     OW34819   4.323   3.092   5.108 -0.3703 -0.4510  0.8852
 7728SOL    HW134820   4.296   3.145   5.033 -1.2001 -0.9052  0.8676
 7728SOL    HW234821   4.239   3.055   5.136 -0.6171  0.2733  1.1020
 7729SOL     OW34822   4.100   3.263   0.648 -0.1027  0.4372 -0.5494
 7729SOL    HW134823   4.012   3.226   0.653  1.1462 -2.3643  0.6018
 7729SOL    HW234824   4.119   3.261   0.554  3.2874  1.0278  0.1177
 7730SOL     OW34825   2.124   4.129   9.272  0.2416  0.9094 -0.2358
 7730SOL    HW134826   2.132   4.055   9.212 -0.1152  0.9131 -0.2879
 7730SOL    HW234827   2.175   4.106   9.350  1.6212 -0.6464 -1.6081
 7731SOL     OW34828   1.520   0.667   9.269  0.2299  0.0213  0.1222
 7731SOL    HW134829   1.499   0.586   9.315  1.3912 -0.5239 -0.3122
 7731SOL    HW234830   1.433   0.705   9.255  0.0202 -0.6119 -0.2763
 7732SOL     OW34831   1.766   3.860  11.737  0.1950  0.4972 -0.2187
 7732SOL    HW134832   1.795   3.827  11.822  0.4027 -0.6655 -0.7428
 7732SOL    HW234833   1.837   3.864  11.674 -0.5796 -0.1366 -1.1443
 7733SOL     OW34834   3.080   4.410   6.227 -0.4478  0.2949  0.3321
 7733SOL    HW134835   3.128   4.476   6.177 -3.3434  3.4191  1.6751
 7733SOL    HW234836   3.131   4.329   6.220 -0.9863 -0.1129  1.1679
 7734SOL     OW34837   2.892   3.687   6.503  0.1515 -0.1965  0.5363
 7734SOL    HW134838   2.831   3.628   6.547  0.5578  0.4082  1.9301
 7734SOL    HW234839   2.830   3.741   6.454 -0.0620  0.3083  1.3629
 7735SOL     OW34840   4.204   3.706   6.441 -0.4383  0.0625 -0.1800
 7735SOL    HW134841   4.137   3.768   6.470  1.3813  2.0116 -0.2092
 7735SOL    HW234842   4.163   3.623   6.467  2.4160 -0.6994  1.9488
 7736SOL     OW34843   3.827   1.114   1.493 -0.2972  0.3442 -0.6300
 7736SOL    HW134844   3.859   1.148   1.409 -2.4052 -2.1470 -2.4435
 7736SOL    HW234845   3.893   1.146   1.555  0.1725 -1.6966 -0.1046
 7737SOL     OW34846   0.850   1.620  14.991  0.4701 -0.5715  0.3806
 7737SOL    HW134847   0.810   1.701  14.956 -2.0736 -1.5863  0.9460
 7737SOL    HW234848   0.876   1.643  15.080  3.7409 -0.0019 -0.7079
 7738SOL     OW34849   0.859   4.097   2.794 -0.3971 -0.0365  0.5439
 7738SOL    HW134850   0.924   4.061   2.734  1.2049  4.2794 -0.3243
 7738SOL    HW234851   0.905   4.150   2.860 -1.9093  1.0099  0.7757
 7739SOL     OW34852   1.401   1.079   3.161 -0.3435  0.0194 -0.0162
 7739SOL    HW134853   1.459   1.040   3.227 -0.7573  1.5481  1.2610
 7739SOL    HW234854   1.412   1.173   3.175 -0.4321  0.1514 -0.8919
 7740SOL     OW34855   3.507   3.159   3.895 -0.2172 -0.1452 -0.2181
 7740SOL    HW134856   3.428   3.207   3.872  0.4259  0.0136 -2.0506
 7740SOL    HW234857   3.516   3.161   3.991 -0.1827 -0.5151 -0.2158
 7741SOL     OW34858   2.635   0.906  14.677 -0.1588 -0.0999  0.0261
 7741SOL    HW134859   2.717   0.952  14.695 -0.2150  0.0212 -0.0256
 7741SOL    HW234860   2.602   0.946  14.596 -1.6526 -3.4646 -1.0127
 7742SOL     OW34861   1.539   3.525   7.450  0.5294 -0.2184 -0.8333
 7742SOL    HW134862   1.482   3.577   7.506  0.2536 -0.5914 -0.7669
 7742SOL    HW234863   1.483   3.458   7.411 -0.3237  0.2635 -0.4328
 7743SOL     OW34864   0.860   4.220   8.074  0.1636 -0.3082  0.3558
 7743SOL    HW134865   0.790   4.195   8.133  0.3924 -1.7177  0.0273
 7743SOL    HW234866   0.812   4.260   8.002  1.2462 -1.1454 -0.8417
 7744SOL     OW34867   0.486   2.051  14.394  0.2711 -0.0797  0.1994
 7744SOL    HW134868   0.466   2.033  14.486  0.6056 -2.7384 -0.2204
 7744SOL    HW234869   0.456   1.967  14.358 -0.8941 -0.0837  1.1832
 7745SOL     OW34870   1.425   2.849  15.462  0.4333 -0.4840 -0.2761
 7745SOL    HW134871   1.347   2.814  15.505 -0.9367  0.0900 -2.3055
 7745SOL    HW234872   1.386   2.915  15.404  1.2009  0.8337  0.6953
 7746SOL     OW34873   4.687   0.542   6.882 -0.0658 -0.2361 -0.0470
 7746SOL    HW134874   4.715   0.451   6.889  0.5579  0.0925  1.7904
 7746SOL    HW234875   4.697   0.560   6.789 -0.6152  0.9061  0.1123
 7747SOL     OW34876   4.180   3.317   9.341 -0.0793 -0.0281  0.0492
 7747SOL    HW134877   4.266   3.307   9.300  0.5383  0.7451  1.1402
 7747SOL    HW234878   4.155   3.225   9.352 -0.4030  0.2077  1.3514
 7748SOL     OW34879   3.570   3.455   5.589 -0.4450 -0.1173  0.0087
 7748SOL    HW134880   3.559   3.427   5.680  0.8699 -2.9477 -0.7021
 7748SOL    HW234881   3.478   3.460   5.563 -0.4236 -1.0622 -0.2599
 7749SOL     OW34882   3.728   3.953   8.371  0.0339 -0.2565  0.5538
 7749SOL    HW134883   3.789   3.979   8.302 -0.0819  1.2197  1.0078
 7749SOL    HW234884   3.753   3.861   8.379  0.6455 -0.1579 -0.2488
 7750SOL     OW34885   2.269   1.900  16.024 -0.7686  0.1913  0.3660
 7750SOL    HW134886   2.302   1.839  16.090  1.9325  1.4974  0.2216
 7750SOL    HW234887   2.212   1.852  15.964  0.9168 -1.7334  0.3121
 7751SOL     OW34888   4.739   2.803   8.075  0.2235 -0.1715  0.2234
 7751SOL    HW134889   0.002   2.849   7.991 -0.2622  1.0948  0.8984
 7751SOL    HW234890   4.659   2.753   8.065 -2.0861  3.2911  1.2988
 7752SOL     OW34891   2.748   4.312  17.666  0.1357 -0.3472 -0.1619
 7752SOL    HW134892   2.744   4.408  17.656  2.4599 -0.0145  2.0571
 7752SOL    HW234893   2.755   4.301   0.004 -1.2544 -0.6199 -0.0962
 7753SOL     OW34894   0.830   3.887  16.853 -0.3405 -0.5034  0.2149
 7753SOL    HW134895   0.824   3.979  16.879 -1.2750 -1.0605  1.9127
 7753SOL    HW234896   0.909   3.862  16.902 -0.4785 -2.5647 -0.6290
 7754SOL     OW34897   2.663   2.284   7.514 -0.0977 -0.0225  0.2163
 7754SOL    HW134898   2.684   2.279   7.421 -2.5235  0.0349 -0.3230
 7754SOL    HW234899   2.569   2.269   7.503  0.3455 -2.4415 -0.4115
 7755SOL     OW34900   3.803   1.355   5.875 -0.2144  0.5294 -0.1773
 7755SOL    HW134901   3.771   1.275   5.914 -1.0423 -0.4680 -2.9103
 7755SOL    HW234902   3.742   1.423   5.905 -0.0278  1.1987 -1.3017
 7756SOL     OW34903   1.533   1.246   0.349  0.4667 -0.3293  0.6429
 7756SOL    HW134904   1.490   1.196   0.280 -0.4561  1.0293  0.2417
 7756SOL    HW234905   1.594   1.180   0.383 -1.7449 -2.6549  0.0907
 7757SOL     OW34906   1.343   1.662   7.907  0.3330  0.4223  0.1596
 7757SOL    HW134907   1.287   1.740   7.907  0.6351  0.6397  0.9101
 7757SOL    HW234908   1.400   1.687   7.980  0.2962 -1.3485  0.7834
 7758SOL     OW34909   2.832   0.203   5.253 -0.5617  0.0101 -0.8020
 7758SOL    HW134910   2.750   0.212   5.204 -2.1422 -1.6534  1.5597
 7758SOL    HW234911   2.876   0.121   5.230  1.3688  1.0365 -0.7927
 7759SOL     OW34912   3.668   2.944   3.798 -0.5431 -0.0875  0.2362
 7759SOL    HW134913   3.635   2.938   3.708 -0.2392 -2.7450  0.3180
 7759SOL    HW234914   3.613   3.008   3.843  0.4431 -0.3766  1.8454
 7760SOL     OW34915   4.239   3.285   4.901  0.2845  0.7881 -0.0138
 7760SOL    HW134916   4.300   3.287   4.827  0.6604 -1.0328  0.2458
 7760SOL    HW234917   4.274   3.356   4.954  3.1503 -0.1159 -0.6659
 7761SOL     OW34918   0.601   0.743   3.509 -0.1123 -0.2168 -0.8633
 7761SOL    HW134919   0.593   0.833   3.480 -0.3928 -0.2974 -1.0354
 7761SOL    HW234920   0.602   0.755   3.604  0.3618  0.7276 -0.9913
 7762SOL     OW34921   0.417   3.416  12.019 -0.0456 -0.3426 -0.3233
 7762SOL    HW134922   0.371   3.491  12.056  0.7639 -0.2646  0.5172
 7762SOL    HW234923   0.352   3.348  12.000 -0.5214 -1.0027  3.7464
 7763SOL     OW34924   4.627   4.123   4.042  0.0569  0.1755  0.0391
 7763SOL    HW134925   4.553   4.078   4.083  1.4223 -2.3159 -0.2308
 7763SOL    HW234926   4.594   4.211   4.063 -0.5148 -0.0887  0.2322
 7764SOL     OW34927   0.238   2.956   7.276  0.1924  0.3613 -0.0238
 7764SOL    HW134928   0.244   2.987   7.366  1.3460 -0.2640  0.1067
 7764SOL    HW234929   0.152   2.994   7.255  0.3518  1.1292  0.7447
 7765SOL     OW34930   0.858   0.144   0.766 -0.3116 -0.1350 -0.4307
 7765SOL    HW134931   0.904   0.212   0.815  0.4729  0.9804 -2.6996
 7765SOL    HW234932   0.924   0.133   0.697 -0.7382 -0.8531 -0.7220
 7766SOL     OW34933   3.298   0.300  10.375 -0.0501  0.6120  0.4517
 7766SOL    HW134934   3.271   0.214  10.407 -0.7873 -0.0065 -1.8320
 7766SOL    HW234935   3.269   0.355  10.448 -0.9288  0.0928  0.4912
 7767SOL     OW34936   2.590   2.938   1.384  0.3145  0.2239  0.1644
 7767SOL    HW134937   2.635   3.022   1.372  1.9793 -1.1198 -2.9373
 7767SOL    HW234938   2.658   2.871   1.376 -1.8569 -1.9359 -0.3400
 7768SOL     OW34939   4.478   0.778   1.634 -0.2380  0.2943  0.0328
 7768SOL    HW134940   4.450   0.701   1.584  0.9448 -1.7759  2.5529
 7768SOL    HW234941   4.454   0.843   1.569  0.8087 -1.0942 -1.7547
 7769SOL     OW34942   1.376   4.234  15.218 -0.6794 -0.0992 -0.0218
 7769SOL    HW134943   1.332   4.300  15.273  0.3029  0.1728  0.4306
 7769SOL    HW234944   1.329   4.159  15.254 -0.2676  0.7670  2.3315
 7770SOL     OW34945   0.735   3.580   2.533  0.3466 -0.2332 -0.7413
 7770SOL    HW134946   0.740   3.605   2.626  0.5886  0.0799 -0.8369
 7770SOL    HW234947   0.750   3.486   2.537 -0.0846 -0.3431 -1.8297
 7771SOL     OW34948   4.426   1.957   5.644 -0.5737  0.3347  0.4027
 7771SOL    HW134949   4.371   2.029   5.676  0.5128  0.1957  2.5704
 7771SOL    HW234950   4.376   1.946   5.563  1.0828 -2.1248 -0.2743
 7772SOL     OW34951   1.448   4.040  12.053  0.1178  0.2285 -0.5726
 7772SOL    HW134952   1.430   3.995  11.970  2.7594  0.9765 -1.5603
 7772SOL    HW234953   1.544   4.035  12.054  0.0736 -0.2353  1.2108
 7773SOL     OW34954   4.279   2.601   6.950 -0.3818  0.1718  0.4975
 7773SOL    HW134955   4.242   2.513   6.945 -0.1804  0.1327 -0.4253
 7773SOL    HW234956   4.369   2.582   6.923 -0.7913 -0.9143 -0.1146
 7774SOL     OW34957   3.270   2.458  12.621 -0.1611 -0.4008 -0.2133
 7774SOL    HW134958   3.300   2.423  12.537 -1.1592  2.1482 -1.6230
 7774SOL    HW234959   3.188   2.498  12.594 -1.0182 -1.6786  0.5265
 7775SOL     OW34960   2.478   0.689   8.902  0.0496  0.1304  0.0829
 7775SOL    HW134961   2.444   0.600   8.912  1.8963 -0.5142  0.6580
 7775SOL    HW234962   2.453   0.716   8.990 -1.4009 -0.8744 -0.0276
 7776SOL     OW34963   2.705   4.567   6.396 -0.1814 -0.4786 -0.4822
 7776SOL    HW134964   2.655   4.608   6.325  0.5393  1.6038  0.2265
 7776SOL    HW234965   2.638   4.517   6.442  2.3881 -1.8794  1.7333
 7777SOL     OW34966   1.550   2.640   9.391  0.4401  0.1604  0.6314
 7777SOL    HW134967   1.543   2.615   9.483 -0.7908 -0.0663  0.4837
 7777SOL    HW234968   1.594   2.568   9.346 -0.1965 -0.8629  1.6625
 7778SOL     OW34969   4.551   1.467  13.116  0.2646 -1.0397 -0.1656
 7778SOL    HW134970   4.594   1.389  13.081  0.8934 -0.9887  0.5010
 7778SOL    HW234971   4.618   1.535  13.120 -0.4987 -0.3289  0.5214
 7779SOL     OW34972   1.580   1.818   5.696 -0.0700  0.8827  0.3644
 7779SOL    HW134973   1.524   1.877   5.646 -0.8039  1.4348  1.8304
 7779SOL    HW234974   1.649   1.873   5.732 -0.3530  2.0689 -0.9424
 7780SOL     OW34975   2.856   2.912   4.746 -0.6304 -0.2398 -0.3057
 7780SOL    HW134976   2.844   2.904   4.840  1.3207 -0.0824 -0.0373
 7780SOL    HW234977   2.897   2.828   4.729  1.0058  0.2284  1.3375
 7781SOL     OW34978   2.808   2.058   4.350 -0.0913 -0.6975 -0.1000
 7781SOL    HW134979   2.831   1.965   4.353  1.5678 -0.2614  1.0294
 7781SOL    HW234980   2.728   2.063   4.402 -0.7566  0.8113 -1.2545
 7782SOL     OW34981   4.516   2.998   1.903  0.0968  0.1061 -0.1838
 7782SOL    HW134982   4.508   2.992   1.808 -0.1480  2.9530 -0.3233
 7782SOL    HW234983   4.607   3.012   1.927 -0.5316  1.9428  1.1688
 7783SOL     OW34984   1.859   0.716   9.564 -0.3494  0.4625 -0.4023
 7783SOL    HW134985   1.841   0.760   9.481 -1.0631 -1.2605 -1.1604
 7783SOL    HW234986   1.949   0.687   9.544 -1.7221 -3.6534 -0.5463
 7784SOL     OW34987   0.689   2.202   1.670  0.1345 -0.1266 -0.1728
 7784SOL    HW134988   0.621   2.248   1.720 -1.1447  1.8593 -3.6780
 7784SOL    HW234989   0.764   2.211   1.728  1.0681  0.9594 -1.5413
 7785SOL     OW34990   4.112   1.114  14.205  0.5055  0.3395  0.5213
 7785SOL    HW134991   4.047   1.174  14.241  0.1008  1.8121 -2.6245
 7785SOL    HW234992   4.154   1.090  14.287  1.6414  0.1065 -0.1232
 7786SOL     OW34993   3.303   2.720   4.071  0.2312  0.4436 -0.2626
 7786SOL    HW134994   3.393   2.734   4.101  0.6788 -1.1982 -0.8280
 7786SOL    HW234995   3.263   2.794   4.116  0.4781  0.7056 -0.4804
 7787SOL     OW34996   4.357   1.428   9.044  0.5570  0.3651 -0.3898
 7787SOL    HW134997   4.408   1.400   8.968  0.6289  2.0524 -0.9643
 7787SOL    HW234998   4.424   1.460   9.103 -0.8008  0.7724  0.9341
 7788SOL     OW34999   3.157   1.544   1.999 -0.0901 -0.3296 -0.5120
 7788SOL    HW135000   3.185   1.455   2.021  0.2766 -0.1106 -0.0891
 7788SOL    HW235001   3.184   1.563   1.909  0.2893  1.0805 -0.1108
 7789SOL     OW35002   4.069   4.079  11.556 -0.5106 -0.1937 -0.6087
 7789SOL    HW135003   4.126   4.156  11.558 -0.0921 -0.5429  0.8724
 7789SOL    HW235004   3.987   4.108  11.595 -0.4364  0.2448 -0.7849
 7790SOL     OW35005   4.018   1.208   9.394 -0.1181 -0.5552  0.4594
 7790SOL    HW135006   4.027   1.118   9.424  0.7565 -0.8613 -0.6965
 7790SOL    HW235007   4.109   1.234   9.380 -0.4254  1.4940  2.2107
 7791SOL     OW35008   3.547   3.261  17.162 -0.2251 -0.5310  0.2436
 7791SOL    HW135009   3.544   3.173  17.124  0.0714 -0.8326  0.9324
 7791SOL    HW235010   3.627   3.255  17.214 -0.8874  0.5210  1.3866
 7792SOL     OW35011   4.721   0.050   5.451 -0.4400  0.0627 -0.2882
 7792SOL    HW135012   0.072   0.043   5.479 -1.4117 -1.6219  2.4478
 7792SOL    HW235013   4.673   0.001   5.518  0.0539 -0.8623 -0.6245
 7793SOL     OW35014   1.040   4.369   3.730 -0.0162  0.7500  0.0718
 7793SOL    HW135015   0.973   4.320   3.683  2.9345 -0.7156 -2.6306
 7793SOL    HW235016   1.126   4.327   3.721 -0.3410 -0.3541  2.1481
 7794SOL     OW35017   3.417   0.430   6.688 -0.4204  0.1479 -0.1286
 7794SOL    HW135018   3.328   0.452   6.660 -0.1302  1.6369  0.0922
 7794SOL    HW235019   3.463   0.501   6.644 -1.1452  0.2942 -0.6514
 7795SOL     OW35020   4.074   2.267   5.549  0.3609 -0.4156 -0.7177
 7795SOL    HW135021   4.121   2.347   5.573 -0.3121 -0.1303 -0.3678
 7795SOL    HW235022   4.103   2.201   5.612 -0.7623  0.3371  0.5754
 7796SOL     OW35023   3.714   4.734   5.698 -0.5312  0.1334 -0.1924
 7796SOL    HW135024   3.749   0.041   5.623 -0.3722 -0.6797 -0.6161
 7796SOL    HW235025   3.795   4.709   5.742 -0.9183 -1.5037 -0.4244
 7797SOL     OW35026   1.585   2.880   6.812  0.3797 -0.3298  0.2011
 7797SOL    HW135027   1.493   2.872   6.784  0.3082 -0.1985  0.3926
 7797SOL    HW235028   1.584   2.879   6.908 -1.0349  0.1870  0.2049
 7798SOL     OW35029   3.947   3.725   8.810  0.0718 -0.1028 -0.2673
 7798SOL    HW135030   3.982   3.814   8.814 -0.8682  0.2361  0.2288
 7798SOL    HW235031   4.008   3.678   8.867 -0.4933  0.3836  0.7317
 7799SOL     OW35032   3.821   4.487   5.173 -0.2066 -0.3041 -0.0990
 7799SOL    HW135033   3.775   4.570   5.158  0.6211  0.5214  2.0120
 7799SOL    HW235034   3.779   4.475   5.257  0.4637 -0.7651  0.1677
 7800SOL     OW35035   0.306   2.790  10.993 -0.0234  0.0974  0.0474
 7800SOL    HW135036   0.283   2.882  11.004  3.7340  0.5387  4.2218
 7800SOL    HW235037   0.332   2.775  11.084  1.0787 -3.4791 -0.8477
 7801SOL     OW35038   2.369   2.701   8.868  0.0648  0.2695  0.0736
 7801SOL    HW135039   2.401   2.677   8.955  1.3641  0.9472 -0.2073
 7801SOL    HW235040   2.421   2.637   8.819 -1.8170  0.4202 -2.1281
 7802SOL     OW35041   3.209   1.903   5.822  0.3910 -0.1390 -0.0501
 7802SOL    HW135042   3.258   1.911   5.903 -0.9543  2.7446  0.4700
 7802SOL    HW235043   3.278   1.885   5.758  1.3522 -1.4224  1.3492
 7803SOL     OW35044   3.000   2.113   8.048 -0.4016  0.6319  0.2579
 7803SOL    HW135045   3.019   2.201   8.081  0.4068  0.7163 -0.4300
 7803SOL    HW235046   3.085   2.093   8.008  0.8474 -0.7651  3.5491
 7804SOL     OW35047   2.025   3.278   4.576 -0.2241  0.3879  0.2860
 7804SOL    HW135048   1.946   3.289   4.522  0.4357 -3.3955 -1.4283
 7804SOL    HW235049   2.092   3.313   4.516 -1.4803  0.3152 -1.1682
 7805SOL     OW35050   3.776   2.023   4.830  0.1828  0.1169 -0.2176
 7805SOL    HW135051   3.857   1.975   4.853 -0.1335 -0.9309 -1.2873
 7805SOL    HW235052   3.788   2.106   4.876  1.0825 -0.7026  1.0678
 7806SOL     OW35053   1.154   4.305   8.261 -1.0975 -0.2948  0.9702
 7806SOL    HW135054   1.087   4.240   8.283 -0.7727 -0.8200  0.3858
 7806SOL    HW235055   1.103   4.371   8.213 -0.3503  0.4359  1.1776
 7807SOL     OW35056   2.419   1.801   3.414 -0.0357  0.7569 -0.1340
 7807SOL    HW135057   2.388   1.877   3.463 -0.0437 -0.1029  1.2246
 7807SOL    HW235058   2.379   1.798   3.328 -0.8317  2.6470  0.1777
 7808SOL     OW35059   0.385   0.990  13.770 -0.0565 -0.3036  0.3085
 7808SOL    HW135060   0.352   0.909  13.732  2.1860 -1.0431 -0.0626
 7808SOL    HW235061   0.465   0.957  13.811 -0.6534 -3.0273 -0.7139
 7809SOL     OW35062   1.037   1.888   1.606  0.0689 -0.4185  0.4138
 7809SOL    HW135063   0.944   1.906   1.594  0.0550 -0.5445  0.3368
 7809SOL    HW235064   1.043   1.845   1.691  0.5734 -1.9769 -0.4092
 7810SOL     OW35065   1.977   4.024   5.554  0.0021  0.0772  0.6167
 7810SOL    HW135066   1.981   3.932   5.582 -1.3036 -0.7045 -1.7257
 7810SOL    HW235067   2.046   4.021   5.488 -0.0545  1.8408  0.4925
 7811SOL     OW35068   0.952   0.399  11.694 -0.3899  0.1077  0.4401
 7811SOL    HW135069   0.901   0.468  11.651  0.7078  1.1767  0.8560
 7811SOL    HW235070   0.888   0.382  11.763 -0.7418 -1.5747 -0.3012
 7812SOL     OW35071   2.230   0.938   1.300  0.1938 -0.8036  0.0622
 7812SOL    HW135072   2.193   0.923   1.387  0.0008 -2.7888 -0.3555
 7812SOL    HW235073   2.302   0.875   1.309  0.1080 -0.8247  0.6236
 7813SOL     OW35074   3.929   1.878   7.902 -0.0979 -0.1031  0.0667
 7813SOL    HW135075   3.837   1.893   7.927 -1.1251 -0.6782 -3.4445
 7813SOL    HW235076   3.962   1.968   7.900  0.3420 -0.3115 -1.6656
 7814SOL     OW35077   3.207   3.434  17.448 -0.3260 -0.0513 -0.0632
 7814SOL    HW135078   3.300   3.425  17.425 -0.2005  0.8879  0.0829
 7814SOL    HW235079   3.193   3.367  17.514 -1.1802  0.0354 -0.1564
 7815SOL     OW35080   3.661   1.536   3.735  0.6603 -0.3493 -0.1158
 7815SOL    HW135081   3.624   1.585   3.809 -0.2586 -0.1498 -0.7074
 7815SOL    HW235082   3.734   1.495   3.781  0.5075  1.6303  1.9096
 7816SOL     OW35083   4.600   1.694   1.985  0.1345 -0.1412  0.4106
 7816SOL    HW135084   4.516   1.650   1.971 -0.0498  0.6876 -1.0584
 7816SOL    HW235085   4.645   1.624   2.034 -1.3049  0.1905  2.2296
 7817SOL     OW35086   1.233   3.814   5.188 -0.1672  0.1162 -0.1975
 7817SOL    HW135087   1.277   3.884   5.235  0.7185 -0.1541 -0.6134
 7817SOL    HW235088   1.195   3.866   5.117  0.4247  0.1698 -0.4745
 7818SOL     OW35089   1.575   1.485   1.960  0.2345  0.2009  0.1586
 7818SOL    HW135090   1.489   1.461   1.995  1.0593 -1.4745  1.0211
 7818SOL    HW235091   1.626   1.412   1.995 -0.8925 -1.3353 -1.4293
 7819SOL     OW35092   3.752   2.963   0.914 -0.3494 -0.2266 -0.0342
 7819SOL    HW135093   3.688   2.940   0.846 -0.7304  1.6652 -0.3295
 7819SOL    HW235094   3.685   2.979   0.981  0.5789  1.2881  0.5387
 7820SOL     OW35095   0.297   3.499   4.615  0.8575  0.2273 -0.2126
 7820SOL    HW135096   0.391   3.482   4.615  0.4519 -2.0663 -2.0969
 7820SOL    HW235097   0.282   3.461   4.702  0.2210  0.6105 -0.1512
 7821SOL     OW35098   0.142   1.339  10.921  0.5185 -0.0881  0.2503
 7821SOL    HW135099   0.196   1.339  10.843  1.9709  2.8233  1.2332
 7821SOL    HW235100   0.058   1.372  10.889  0.6708  1.4507  1.4061
 7822SOL     OW35101   1.083   1.313   5.327 -0.0704  0.6704  0.1627
 7822SOL    HW135102   1.008   1.364   5.298 -1.6788 -1.0423  1.3053
 7822SOL    HW235103   1.045   1.246   5.384  1.4610 -1.9853 -1.9595
 7823SOL     OW35104   3.958   3.973   4.603  0.3250  0.7503  0.7069
 7823SOL    HW135105   4.054   3.979   4.601  0.5939 -4.0181  0.2496
 7823SOL    HW235106   3.934   3.891   4.562  0.7412  0.1316  1.6977
 7824SOL     OW35107   0.011   2.162   8.862  0.2117  0.5374 -0.4075
 7824SOL    HW135108   0.013   2.231   8.928 -2.6366  1.0385 -0.8289
 7824SOL    HW235109   4.664   2.185   8.827 -0.4420 -3.4045 -1.4190
 7825SOL     OW35110   2.320   1.360   1.980 -0.1614  0.0702 -0.8978
 7825SOL    HW135111   2.306   1.285   1.922  0.8862  0.5923 -1.8086
 7825SOL    HW235112   2.359   1.429   1.927 -1.1148  0.9464 -0.4724
 7826SOL     OW35113   1.500   0.417   9.386 -0.0404 -0.3066 -0.0383
 7826SOL    HW135114   1.492   0.333   9.341  0.6789 -0.3577 -0.0619
 7826SOL    HW235115   1.452   0.407   9.468 -2.4396 -0.6603 -1.4791
 7827SOL     OW35116   3.483   0.731   5.140  0.1658  0.0237 -0.2111
 7827SOL    HW135117   3.492   0.705   5.232 -0.6477 -1.9832 -0.7033
 7827SOL    HW235118   3.408   0.792   5.138 -0.0035 -0.2123 -1.0255
 7828SOL     OW35119   4.476   3.848  11.376 -0.6244 -0.5756 -0.0158
 7828SOL    HW135120   4.552   3.886  11.333  0.9296 -2.4237  1.0763
 7828SOL    HW235121   4.455   3.914  11.442  0.2981 -1.2258  0.9275
 7829SOL     OW35122   1.361   0.288   3.681  0.3228 -0.0183 -0.5462
 7829SOL    HW135123   1.302   0.218   3.654  1.0568 -1.0256  0.4388
 7829SOL    HW235124   1.399   0.240   3.755 -1.0887 -2.4172 -1.4078
 7830SOL     OW35125   3.301   2.008   2.243 -0.2482 -0.2625 -0.0859
 7830SOL    HW135126   3.271   2.004   2.153  0.0384  0.4366 -0.2113
 7830SOL    HW235127   3.261   2.094   2.260  1.9343  1.0403 -1.5632
 7831SOL     OW35128   2.445   2.840   4.592 -0.4387 -0.1737 -0.1744
 7831SOL    HW135129   2.499   2.809   4.519  2.5785  0.2671  1.8708
 7831SOL    HW235130   2.441   2.765   4.651  1.1366  0.4339  0.6968
 7832SOL     OW35131   2.419   2.491   2.790  0.1915 -0.1666  0.5120
 7832SOL    HW135132   2.457   2.573   2.758 -0.5664 -0.0944 -0.2109
 7832SOL    HW235133   2.393   2.512   2.879 -0.0740 -0.5298  0.5234
 7833SOL     OW35134   3.076   0.206   2.755 -0.6254  0.0688  0.4843
 7833SOL    HW135135   3.071   0.286   2.703  0.5979  0.1762  0.5222
 7833SOL    HW235136   3.137   0.231   2.825 -1.5853  0.9893  0.9887
 7834SOL     OW35137   4.654   2.529   9.456  0.1213 -0.2582 -0.2593
 7834SOL    HW135138   4.660   2.609   9.508  1.1420  0.6403 -1.7506
 7834SOL    HW235139   0.003   2.514   9.423 -0.4488 -2.0761 -0.9617
 7835SOL     OW35140   1.246   4.622  13.508  0.5475 -0.2331 -0.2754
 7835SOL    HW135141   1.318   4.633  13.571  3.0327 -0.0025 -3.1520
 7835SOL    HW235142   1.255   4.534  13.473  0.9256 -0.6818  0.9379
 7836SOL     OW35143   1.723   3.260  14.892 -0.6903 -0.1869  0.1102
 7836SOL    HW135144   1.790   3.209  14.846 -0.9901 -0.4694 -0.0094
 7836SOL    HW235145   1.779   3.332  14.922 -1.3899 -0.0925  1.1741
 7837SOL     OW35146   0.575   2.723  13.103 -0.4381 -0.0059 -0.1764
 7837SOL    HW135147   0.626   2.667  13.044 -0.3948 -0.0355 -0.1107
 7837SOL    HW235148   0.565   2.674  13.184 -0.7491 -1.4771 -1.1121
 7838SOL     OW35149   2.454   3.224  16.216 -0.0725  0.3060  0.2672
 7838SOL    HW135150   2.521   3.283  16.181  0.4896 -1.5016 -1.6539
 7838SOL    HW235151   2.388   3.244  16.149  0.9725  0.8781 -0.5964
 7839SOL     OW35152   3.790   0.699   7.676  0.5671 -0.0788  0.3915
 7839SOL    HW135153   3.859   0.645   7.638  0.1835 -0.2117 -0.1068
 7839SOL    HW235154   3.719   0.636   7.686  0.7910 -0.6545 -1.5695
 7840SOL     OW35155   3.328   2.087  10.016 -0.3538 -0.1752 -0.2822
 7840SOL    HW135156   3.356   2.003   9.978  1.7315 -0.4108  1.7462
 7840SOL    HW235157   3.275   2.117   9.942  0.9120  0.0404 -1.1037
 7841SOL     OW35158   4.506   2.141   7.704  0.1177 -0.8208  0.2699
 7841SOL    HW135159   4.491   2.112   7.614 -0.1481  0.4923 -0.1170
 7841SOL    HW235160   4.592   2.101   7.719  0.0209 -0.1427  2.6027
 7842SOL     OW35161   0.069   1.377   3.503 -0.2667  0.1537  0.1221
 7842SOL    HW135162   0.045   1.285   3.514  0.7557 -0.1848 -0.5195
 7842SOL    HW235163   0.012   1.413   3.571 -0.9139  0.6531 -0.6699
 7843SOL     OW35164   4.452   4.280   4.794 -0.2593 -0.5351  0.0642
 7843SOL    HW135165   4.422   4.337   4.725  1.0789 -1.6634 -1.4501
 7843SOL    HW235166   4.376   4.221   4.796 -1.0926  0.5750  1.8414
 7844SOL     OW35167   4.120   1.189   6.284  0.2857  0.9862 -0.2301
 7844SOL    HW135168   4.205   1.147   6.296  0.2478  1.4011  1.5238
 7844SOL    HW235169   4.137   1.271   6.237  0.3362  1.1807  0.1226
 7845SOL     OW35170   2.357   1.709  14.601  0.5162 -0.5556  0.7281
 7845SOL    HW135171   2.420   1.767  14.559 -0.2543 -1.2019 -1.3473
 7845SOL    HW235172   2.413   1.652  14.653  0.3388 -1.8221 -0.4585
 7846SOL     OW35173   1.463   4.537   9.748 -0.1487 -0.0102 -0.2959
 7846SOL    HW135174   1.525   4.465   9.753  0.2254  0.2874 -0.6145
 7846SOL    HW235175   1.443   4.553   9.840  0.2377 -0.0691 -0.2006
 7847SOL     OW35176   0.446   4.142   6.768  0.1180  0.2023  0.4096
 7847SOL    HW135177   0.357   4.131   6.801 -0.2712 -1.3064 -1.1567
 7847SOL    HW235178   0.450   4.237   6.777 -1.0404  0.5975 -2.9911
 7848SOL     OW35179   2.369   1.034  17.577 -0.2456 -0.2255 -0.3127
 7848SOL    HW135180   2.363   1.025  17.672 -1.0094  0.1165 -0.3289
 7848SOL    HW235181   2.351   0.943  17.553  0.4653 -0.2609 -0.7252
 7849SOL     OW35182   0.895   4.284   2.126 -0.8780  0.1597 -0.3305
 7849SOL    HW135183   0.936   4.200   2.108 -0.2400 -0.0263  1.9818
 7849SOL    HW235184   0.964   4.333   2.170 -1.3812 -0.1889  0.8446
 7850SOL     OW35185   0.452   0.953   4.731  0.1248 -0.1050  0.2032
 7850SOL    HW135186   0.527   1.004   4.702  1.6479 -3.4422 -1.8166
 7850SOL    HW235187   0.419   1.008   4.802  0.7397 -0.6297  0.8935
 7851SOL     OW35188   1.180   0.944   8.080  0.6617  0.3384 -0.0759
 7851SOL    HW135189   1.272   0.920   8.093  0.4377  0.1147  1.1567
 7851SOL    HW235190   1.146   0.893   8.007  1.9158 -1.7281  0.7903
 7852SOL     OW35191   1.458   3.429   8.810 -0.0105  0.5456  0.2294
 7852SOL    HW135192   1.524   3.375   8.765 -0.1410  0.9708 -0.4596
 7852SOL    HW235193   1.395   3.446   8.741  1.0558  1.1655 -0.5971
 7853SOL     OW35194   1.395   2.462   8.261 -0.2527 -0.1758  0.0983
 7853SOL    HW135195   1.441   2.378   8.272 -0.9628 -0.8542 -2.1930
 7853SOL    HW235196   1.309   2.423   8.248  0.5565 -2.6522  2.0562
 7854SOL     OW35197   2.803   0.749   4.452  0.1961  0.0981  0.4612
 7854SOL    HW135198   2.865   0.733   4.380 -1.8694 -2.0478 -0.8601
 7854SOL    HW235199   2.848   0.821   4.495  0.3300  0.2898  0.0001
 7855SOL     OW35200   0.438   3.784  14.858 -0.4854  0.0292 -0.2673
 7855SOL    HW135201   0.530   3.777  14.885 -0.0230  1.7660 -1.4030
 7855SOL    HW235202   0.388   3.721  14.909  1.5163  1.2172  3.1553
 7856SOL     OW35203   3.296   3.815   3.666 -0.7847  0.4578  0.7783
 7856SOL    HW135204   3.222   3.823   3.607 -0.1365  1.7054  0.1496
 7856SOL    HW235205   3.373   3.809   3.610 -1.0210 -0.1649  0.5133
 7857SOL     OW35206   1.691   0.130   8.450 -0.1229  0.5238 -0.3862
 7857SOL    HW135207   1.646   0.192   8.507  0.0603  0.7918 -0.5376
 7857SOL    HW235208   1.692   0.182   8.370 -0.5553  0.5667 -0.3594
 7858SOL     OW35209   1.295   0.432   0.265 -0.0514  0.2096  0.5756
 7858SOL    HW135210   1.292   0.348   0.219 -0.1106  0.3388  0.3444
 7858SOL    HW235211   1.384   0.462   0.245  1.1779 -2.7826  1.5859
 7859SOL     OW35212   2.501   0.438   5.180 -0.1575  0.0429  0.2047
 7859SOL    HW135213   2.509   0.444   5.084  1.4632  1.7328  0.4515
 7859SOL    HW235214   2.532   0.348   5.192 -0.1894 -0.2734 -2.0264
 7860SOL     OW35215   3.365   0.601   8.229 -0.1112  0.6510 -0.3482
 7860SOL    HW135216   3.458   0.580   8.242 -0.1288 -1.0549 -2.9438
 7860SOL    HW235217   3.340   0.639   8.313  1.7226  0.1104  0.4627
 7861SOL     OW35218   0.609   3.882  13.829  0.3559  0.2004 -0.2631
 7861SOL    HW135219   0.540   3.932  13.873  0.4475 -0.9318  1.1693
 7861SOL    HW235220   0.664   3.856  13.903  0.7664 -0.3761 -0.7685
 7862SOL     OW35221   0.355   0.033   9.947  0.7271 -0.4499  0.1062
 7862SOL    HW135222   0.287   4.706   9.959 -1.7919  2.0792 -0.3007
 7862SOL    HW235223   0.328   0.076   9.866 -1.3559 -1.0243  0.5066
 7863SOL     OW35224   1.330   1.337   4.765  0.4156 -0.4418  0.3698
 7863SOL    HW135225   1.387   1.297   4.699 -1.3356  0.8954 -1.9678
 7863SOL    HW235226   1.391   1.399   4.804  0.1974 -0.7605  1.2064
 7864SOL     OW35227   2.587   3.464   6.146  0.0904 -0.2816 -0.3312
 7864SOL    HW135228   2.520   3.533   6.151  1.7690  1.3604 -0.5690
 7864SOL    HW235229   2.581   3.441   6.053  0.0253  0.1441 -0.4324
 7865SOL     OW35230   3.830   4.424  13.331 -0.5512 -0.1138  0.0800
 7865SOL    HW135231   3.864   4.462  13.412  0.8735  0.1168 -0.6342
 7865SOL    HW235232   3.900   4.441  13.269 -0.8964 -0.0740 -0.3006
 7866SOL     OW35233   3.819   1.281  15.764 -0.4088  0.0059 -0.3948
 7866SOL    HW135234   3.828   1.309  15.855  1.5652 -0.8801 -0.3160
 7866SOL    HW235235   3.909   1.291  15.733 -0.1432 -1.6160 -0.1348
 7867SOL     OW35236   1.955   3.625   9.646  0.2366  0.0180 -0.8583
 7867SOL    HW135237   1.960   3.682   9.723 -0.5235  2.6647 -2.7551
 7867SOL    HW235238   1.976   3.685   9.575  0.6398  1.0978  0.1716
 7868SOL     OW35239   3.261   3.994   5.280  0.8887 -0.3057  0.2617
 7868SOL    HW135240   3.204   4.026   5.349  0.7270 -0.6272  0.2748
 7868SOL    HW235241   3.335   4.052   5.296  0.9263 -0.2918  0.0498
 7869SOL     OW35242   1.523   4.341   9.120  0.1241  0.2080  0.4616
 7869SOL    HW135243   1.501   4.315   9.209 -1.5494 -0.0559 -0.0217
 7869SOL    HW235244   1.578   4.267   9.094 -2.0264  0.1041 -3.7976
 7870SOL     OW35245   2.171   0.415   4.435 -0.4668 -0.1991  0.6211
 7870SOL    HW135246   2.239   0.438   4.371 -2.4090 -1.2675 -1.8412
 7870SOL    HW235247   2.215   0.415   4.520  0.7603 -3.0610 -0.0047
 7871SOL     OW35248   0.880   1.152   8.658  0.2351 -0.0332  0.1258
 7871SOL    HW135249   0.886   1.246   8.674 -1.6892  0.2508 -0.7933
 7871SOL    HW235250   0.919   1.113   8.736  2.5713  2.3964  0.1888
 7872SOL     OW35251   3.955   2.653   6.178  0.1351 -0.5124  0.1759
 7872SOL    HW135252   3.869   2.661   6.219 -0.0184  0.3605 -0.3136
 7872SOL    HW235253   3.937   2.595   6.104  0.4043 -1.3994  0.7947
 7873SOL     OW35254   3.311   4.187  16.069  0.9373  0.1843  0.1650
 7873SOL    HW135255   3.368   4.258  16.040  0.6731  0.3435  0.0387
 7873SOL    HW235256   3.270   4.153  15.990  1.4614  1.0830 -0.4873
 7874SOL     OW35257   4.657   0.483   5.816 -0.0500  0.2299  0.2460
 7874SOL    HW135258   4.646   0.445   5.903 -0.2776  1.9033  0.9439
 7874SOL    HW235259   0.002   0.444   5.793  0.6781  2.2472 -0.4872
 7875SOL     OW35260   0.892   3.484  12.359  0.2337 -0.3438  0.2804
 7875SOL    HW135261   0.897   3.560  12.300  1.5254 -1.0099 -0.4720
 7875SOL    HW235262   0.815   3.504  12.412  0.0880 -0.5747  0.1528
 7876SOL     OW35263   0.734   1.751   1.530  0.3553  0.2862  0.0334
 7876SOL    HW135264   0.792   1.690   1.575 -0.6211 -0.7179 -0.0782
 7876SOL    HW235265   0.716   1.714   1.443  1.0793 -0.4978  0.2215
 7877SOL     OW35266   0.676   1.452   5.760  0.0567 -0.3643  0.1925
 7877SOL    HW135267   0.751   1.471   5.816  1.3630 -0.5598 -1.4849
 7877SOL    HW235268   0.673   1.357   5.759 -3.4412 -0.2505 -0.7157
 7878SOL     OW35269   2.302   1.987   7.761  0.2081  0.0540 -0.7645
 7878SOL    HW135270   2.345   2.054   7.707 -0.0172 -0.1509 -1.2013
 7878SOL    HW235271   2.384   1.961   7.803  0.1346 -1.4236 -1.5248
 7879SOL     OW35272   1.719   2.395   6.531 -0.1010  0.5611 -0.5291
 7879SOL    HW135273   1.781   2.466   6.548 -1.5277  1.5639  0.4745
 7879SOL    HW235274   1.697   2.414   6.440 -0.8030 -0.8826 -0.6519
 7880SOL     OW35275   2.090   1.035   6.845 -0.3905  0.2426  0.0321
 7880SOL    HW135276   2.055   0.946   6.849  1.4363 -0.5671 -2.4182
 7880SOL    HW235277   2.181   1.028   6.816 -0.1193  0.1844  0.8752
 7881SOL     OW35278   4.212   4.339   8.295 -0.2394  0.7215  0.4175
 7881SOL    HW135279   4.203   4.426   8.258  0.5762  0.8580  0.5293
 7881SOL    HW235280   4.261   4.361   8.374  1.8094 -0.7220 -0.4459
 7882SOL     OW35281   3.157   1.655   9.483 -0.4382  0.0642  0.0367
 7882SOL    HW135282   3.164   1.732   9.540  0.8832 -0.6978  0.8982
 7882SOL    HW235283   3.234   1.604   9.507  0.8634  0.7125 -2.7462
 7883SOL     OW35284   4.139   3.121   2.385  0.5201  0.0524 -0.3878
 7883SOL    HW135285   4.135   3.047   2.445  0.4188  0.1943 -0.2177
 7883SOL    HW235286   4.164   3.198   2.436  1.5895 -0.7494  0.3021
 7884SOL     OW35287   1.311   3.222  14.546 -0.4776  0.0191  0.0090
 7884SOL    HW135288   1.245   3.270  14.597  2.0336  1.7190  1.6773
 7884SOL    HW235289   1.382   3.237  14.609  0.6815  2.6264 -1.9208
 7885SOL     OW35290   4.517   0.411  16.747 -0.4695 -0.1771 -0.3287
 7885SOL    HW135291   4.543   0.342  16.809 -2.8613 -0.2973  0.5405
 7885SOL    HW235292   4.495   0.491  16.794 -1.0644 -0.0202 -0.8776
 7886SOL     OW35293   2.291   4.174   3.588  0.2556 -0.3728  0.0996
 7886SOL    HW135294   2.364   4.236   3.583 -0.9309  1.1401  1.2296
 7886SOL    HW235295   2.286   4.162   3.683  0.2793 -1.4430 -0.0357
 7887SOL     OW35296   3.040   2.582   6.428  0.0553 -0.3380 -0.1550
 7887SOL    HW135297   3.032   2.594   6.523  0.1200 -0.4677 -0.1335
 7887SOL    HW235298   2.946   2.578   6.410  0.0360 -1.3655  0.1441
 7888SOL     OW35299   4.714   1.089   5.341 -0.4824  0.0157 -0.2722
 7888SOL    HW135300   4.720   1.003   5.383  1.1046 -0.0668 -0.6719
 7888SOL    HW235301   4.621   1.091   5.320 -0.5821  0.2165  0.1841
 7889SOL     OW35302   0.951   0.786   5.119 -0.0032  0.1754 -0.0899
 7889SOL    HW135303   0.945   0.708   5.065  0.0227 -0.3801  0.7134
 7889SOL    HW235304   0.879   0.833   5.077 -0.2959 -0.1669  0.0325
 7890SOL     OW35305   0.333   0.410  12.452 -0.0092  0.1975  0.1487
 7890SOL    HW135306   0.375   0.363  12.379  0.6999 -0.4449  0.9652
 7890SOL    HW235307   0.278   0.345  12.496 -1.1384  0.9856 -0.0963
 7891SOL     OW35308   4.129   2.549   9.113  0.3545 -0.1976 -0.2678
 7891SOL    HW135309   4.195   2.489   9.149  1.2129  0.7273 -0.3214
 7891SOL    HW235310   4.174   2.632   9.122 -0.4718  0.3722 -1.3333
 7892SOL     OW35311   0.564   3.388  11.340 -0.1981 -0.0167 -0.3246
 7892SOL    HW135312   0.609   3.451  11.283 -2.0144  1.4492 -0.1342
 7892SOL    HW235313   0.636   3.337  11.375  0.0424  0.9840  0.6550
 7893SOL     OW35314   0.419   4.522   7.207  0.4819 -0.1911 -0.2827
 7893SOL    HW135315   0.509   4.528   7.176 -0.0507  0.2462 -1.7690
 7893SOL    HW235316   0.388   4.611   7.187 -1.6624 -0.5472  1.3838
 7894SOL     OW35317   1.973   2.111   8.902 -0.3108 -0.1957 -0.8091
 7894SOL    HW135318   1.983   2.085   8.810 -1.4193 -0.2980 -0.8951
 7894SOL    HW235319   1.967   2.022   8.936  0.2146 -0.0914 -0.4364
 7895SOL     OW35320   2.280   0.124   3.991 -0.0466  0.2469  0.1907
 7895SOL    HW135321   2.254   0.168   3.909 -1.9638 -1.0581  0.0967
 7895SOL    HW235322   2.202   0.152   4.039 -1.8466 -1.1571 -1.9087
 7896SOL     OW35323   0.199   1.400  13.697 -0.5549  0.6990 -0.2452
 7896SOL    HW135324   0.114   1.370  13.730 -0.6731  1.0023 -0.2745
 7896SOL    HW235325   0.241   1.323  13.659 -0.6799  0.3896  0.2433
 7897SOL     OW35326   2.408   0.705   1.886  0.1305  0.6407 -0.0987
 7897SOL    HW135327   2.350   0.628   1.889  2.5870 -1.2321 -0.3924
 7897SOL    HW235328   2.419   0.718   1.980 -1.9493  1.6650 -0.0056
 7898SOL     OW35329   1.107   1.416   6.971 -0.3314 -0.2118 -0.4096
 7898SOL    HW135330   1.055   1.339   6.992  0.7467 -1.1416 -1.2121
 7898SOL    HW235331   1.027   1.468   6.958  0.8408  1.1599 -2.1171
 7899SOL     OW35332   2.923   3.043   7.589 -0.0279  0.2321 -0.5440
 7899SOL    HW135333   2.894   3.081   7.672  2.5985 -2.1361  1.4441
 7899SOL    HW235334   2.950   2.962   7.631  2.4091  0.4627 -1.6909
 7900SOL     OW35335   1.499   1.952  13.336 -0.1805  0.0649  0.0485
 7900SOL    HW135336   1.572   1.993  13.290 -0.8171  1.6230  0.4164
 7900SOL    HW235337   1.489   2.005  13.415 -0.4917 -1.8621  1.3069
 7901SOL     OW35338   1.061   0.276   2.030  0.1536 -0.1084 -0.4096
 7901SOL    HW135339   1.032   0.360   2.065  1.3580 -0.5027  1.5250
 7901SOL    HW235340   1.012   0.266   1.948  1.0986 -0.9604 -0.8678
 7902SOL     OW35341   2.444   0.767   6.063  0.0107  0.0712 -0.4899
 7902SOL    HW135342   2.494   0.835   6.109  1.5833 -0.4322 -1.4326
 7902SOL    HW235343   2.499   0.752   5.986  1.7174  0.9295  0.5726
 7903SOL     OW35344   0.298   1.665   5.594  0.1520 -0.3552 -0.8214
 7903SOL    HW135345   0.359   1.636   5.662 -0.8307  1.6108  0.8769
 7903SOL    HW235346   0.366   1.709   5.543 -0.8932  0.9361 -1.1051
 7904SOL     OW35347   3.861   0.473   7.190 -0.4551 -0.4064 -0.9497
 7904SOL    HW135348   3.951   0.472   7.224 -0.5495 -1.2407 -0.7243
 7904SOL    HW235349   3.867   0.555   7.141  1.1035  0.2008  0.2446
 7905SOL     OW35350   0.600   3.753   1.316 -0.3660  0.5742 -0.4360
 7905SOL    HW135351   0.602   3.706   1.399  1.8600  3.8398  1.3744
 7905SOL    HW235352   0.509   3.781   1.308 -1.3325 -2.3571  0.7352
 7906SOL     OW35353   0.353   0.636  10.607 -0.0397  0.0541  0.0928
 7906SOL    HW135354   0.269   0.643  10.562 -0.6847  0.2038  1.3181
 7906SOL    HW235355   0.371   0.543  10.596  0.9673  0.1820  0.6891
 7907SOL     OW35356   3.175   0.247   3.825  0.3837 -0.3631  0.7696
 7907SOL    HW135357   3.094   0.205   3.855 -0.6852 -0.3039 -2.0036
 7907SOL    HW235358   3.222   0.236   3.907  1.9873  0.0990 -0.0864
 7908SOL     OW35359   2.819   2.786  14.877  0.1475 -0.0311 -0.3186
 7908SOL    HW135360   2.790   2.876  14.892  0.0250 -0.2302  0.6358
 7908SOL    HW235361   2.762   2.748  14.944 -2.4974  0.6315 -2.1913
 7909SOL     OW35362   0.274   0.290  16.480  0.1143  0.1200  0.1352
 7909SOL    HW135363   0.326   0.282  16.401 -0.2124 -0.0177 -0.0633
 7909SOL    HW235364   0.185   0.292  16.444  0.1223 -2.2219  0.0183
 7910SOL     OW35365   2.216   1.231   7.150 -0.9226 -0.0394 -0.4634
 7910SOL    HW135366   2.255   1.301   7.201  0.1961 -1.0134  0.0131
 7910SOL    HW235367   2.124   1.256   7.160 -1.1638 -0.0109 -2.8172
 7911SOL     OW35368   4.108   0.639   2.601  0.1458  0.1929 -0.0734
 7911SOL    HW135369   4.019   0.675   2.607 -0.3994 -0.9351 -1.2092
 7911SOL    HW235370   4.104   0.598   2.514  1.8248  0.1508 -0.1380
 7912SOL     OW35371   0.636   2.721   4.194 -0.3489 -0.6457 -0.3640
 7912SOL    HW135372   0.656   2.815   4.193  0.2901 -0.7837 -0.9658
 7912SOL    HW235373   0.542   2.722   4.214 -0.4370  2.6987 -0.8360
 7913SOL     OW35374   1.263   4.272   9.499 -0.2412 -0.2613  0.8866
 7913SOL    HW135375   1.348   4.232   9.518  1.3637  2.1636 -1.2683
 7913SOL    HW235376   1.227   4.222   9.426  1.0511 -2.7010  1.9163
 7914SOL     OW35377   1.010   3.422  12.037  0.4996 -0.0571 -0.4310
 7914SOL    HW135378   1.062   3.501  12.024  1.1337 -0.4938 -0.5072
 7914SOL    HW235379   0.953   3.414  11.960  0.2812 -1.1148 -0.1688
 7915SOL     OW35380   0.673   4.493   6.892 -0.3907 -0.0927  0.3609
 7915SOL    HW135381   0.683   4.406   6.930  1.6440  0.1620  0.4070
 7915SOL    HW235382   0.744   4.532   6.941 -0.7241 -1.8259  2.2338
 7916SOL     OW35383   3.056   1.155   2.235 -0.2320  0.0346 -0.7088
 7916SOL    HW135384   3.095   1.238   2.261  0.6037 -0.4252 -0.4902
 7916SOL    HW235385   2.966   1.169   2.264 -0.0639  0.3793 -0.3496
 7917SOL     OW35386   4.150   2.221   5.838 -0.3899  0.3737 -0.2839
 7917SOL    HW135387   4.207   2.172   5.898 -0.0693 -0.1660 -1.0325
 7917SOL    HW235388   4.065   2.192   5.869 -0.4715  0.5720 -0.3259
 7918SOL     OW35389   1.312   2.670  12.006  0.1974  0.0363  1.0615
 7918SOL    HW135390   1.366   2.669  12.085  1.1541 -1.8800  0.3888
 7918SOL    HW235391   1.270   2.751  12.034  0.0386 -0.1337  1.3187
 7919SOL     OW35392   3.612   2.039  16.613 -0.5675 -0.1860  0.1021
 7919SOL    HW135393   3.621   2.124  16.570  0.1498 -0.8733 -1.0835
 7919SOL    HW235394   3.519   2.035  16.593 -0.6684 -1.7366  0.8378
 7920SOL     OW35395   1.591   1.743   2.667  0.4592  0.3207 -0.3321
 7920SOL    HW135396   1.546   1.821   2.633  1.0118  0.4171 -0.8524
 7920SOL    HW235397   1.562   1.686   2.596  1.1582 -0.5452  0.0786
 7921SOL     OW35398   4.384   0.907   1.012 -0.3206  0.4256  0.1321
 7921SOL    HW135399   4.427   0.859   1.083  0.9115  1.0852 -0.1732
 7921SOL    HW235400   4.423   0.880   0.929  0.2954  1.6378  0.0307
 7922SOL     OW35401   2.404   4.475   4.555  0.5607 -0.0322  0.3719
 7922SOL    HW135402   2.378   4.565   4.571  0.9809 -0.2640  2.3752
 7922SOL    HW235403   2.364   4.427   4.628 -1.6181 -0.1274 -0.8831
 7923SOL     OW35404   3.431   1.821   7.311 -0.0306 -1.0447 -0.7441
 7923SOL    HW135405   3.337   1.832   7.325  0.1392 -0.1660 -0.3329
 7923SOL    HW235406   3.466   1.890   7.367 -0.8903 -1.5168  0.3822
 7924SOL     OW35407   2.275   3.841  10.877  0.3182  0.0859 -0.3551
 7924SOL    HW135408   2.240   3.755  10.901 -0.3717  0.2606 -0.7159
 7924SOL    HW235409   2.312   3.814  10.793  1.5568 -1.3074  0.6336
 7925SOL     OW35410   2.486   2.753   1.098  0.1648  0.0261 -0.3004
 7925SOL    HW135411   2.396   2.773   1.125 -0.1145 -0.5504 -0.8062
 7925SOL    HW235412   2.522   2.747   1.186 -0.5326 -1.3472 -0.0991
 7926SOL     OW35413   3.571   3.426   4.659 -0.2086 -0.3342 -0.2841
 7926SOL    HW135414   3.569   3.519   4.635 -0.8870 -0.9959 -2.7293
 7926SOL    HW235415   3.630   3.427   4.735 -1.8171  0.4660  0.9785
 7927SOL     OW35416   1.618   1.835   7.566  0.6806  0.4535 -0.2531
 7927SOL    HW135417   1.704   1.796   7.582  1.1258  1.2889 -0.6152
 7927SOL    HW235418   1.582   1.765   7.511  0.7699  1.1898 -1.2395
 7928SOL     OW35419   1.441   1.276  11.002 -0.2420  0.5145 -0.0820
 7928SOL    HW135420   1.359   1.248  10.963 -0.6656  2.1323 -0.3302
 7928SOL    HW235421   1.495   1.220  10.946 -1.4380 -0.3776 -0.3469
 7929SOL     OW35422   2.512   1.875  15.466 -0.7062 -0.0014 -0.2223
 7929SOL    HW135423   2.537   1.903  15.553 -1.5337 -1.9979  0.6607
 7929SOL    HW235424   2.418   1.888  15.479 -0.5590  1.3302 -0.5243
 7930SOL     OW35425   3.469   0.232   7.307  0.6026  0.5514  0.0982
 7930SOL    HW135426   3.408   0.294   7.346  1.0961  0.8651  0.3628
 7930SOL    HW235427   3.429   0.226   7.220  1.0082  0.0753 -0.0547
 7931SOL     OW35428   4.131   1.628   6.628  0.1031  0.2043 -0.1629
 7931SOL    HW135429   4.084   1.608   6.708 -1.5472  0.0162 -1.1836
 7931SOL    HW235430   4.207   1.569   6.626 -1.6929 -2.0326 -1.8672
 7932SOL     OW35431   2.203   0.614   7.761  0.2963  0.7577 -0.1243
 7932SOL    HW135432   2.200   0.704   7.795  0.0437  0.1318  1.5281
 7932SOL    HW235433   2.113   0.583   7.753 -0.2662  2.2056  0.6532
 7933SOL     OW35434   4.341   0.354  15.837  0.1866 -0.0080  0.1829
 7933SOL    HW135435   4.306   0.360  15.926  0.4226  2.8903  0.0580
 7933SOL    HW235436   4.265   0.334  15.781  0.0826 -0.3492  0.4477
 7934SOL     OW35437   1.307   0.238   8.724  0.0064  0.5088  0.0274
 7934SOL    HW135438   1.400   0.222   8.706 -0.4243 -1.2120 -0.7445
 7934SOL    HW235439   1.257   0.181   8.666 -1.7680  1.8564  0.2486
 7935SOL     OW35440   1.012   2.991  12.237  0.1736 -0.5435  0.2521
 7935SOL    HW135441   0.939   2.955  12.288  0.8520  0.6614  2.0827
 7935SOL    HW235442   0.981   3.080  12.223  0.4075 -1.0602 -3.5420
 7936SOL     OW35443   1.719   0.697   6.858  0.4790 -0.4450  0.0155
 7936SOL    HW135444   1.706   0.673   6.949 -0.1551  3.7880  1.0700
 7936SOL    HW235445   1.631   0.734   6.853  1.0457  1.2173  2.3125
 7937SOL     OW35446   0.367   0.657   5.898  0.3953  0.0332  0.9564
 7937SOL    HW135447   0.378   0.746   5.865  2.8252  0.0752  1.8675
 7937SOL    HW235448   0.378   0.608   5.816  2.6475  0.6272  0.8795
 7938SOL     OW35449   2.039   4.570  13.051 -0.1098 -0.1737 -0.1115
 7938SOL    HW135450   2.014   4.608  12.967 -0.4755  1.1602  0.6116
 7938SOL    HW235451   2.017   4.478  13.032 -0.2383 -0.0851 -0.3859
 7939SOL     OW35452   4.149   2.248  15.126  0.6139 -0.3958  0.9005
 7939SOL    HW135453   4.092   2.303  15.073 -0.2715 -0.2635  1.9948
 7939SOL    HW235454   4.234   2.286  15.104  0.0562  0.7567  0.7382
 7940SOL     OW35455   2.268   0.204   2.985  0.2634  0.4095  0.2571
 7940SOL    HW135456   2.244   0.295   3.000  0.2874  0.7992 -2.0422
 7940SOL    HW235457   2.305   0.208   2.897  2.9712 -0.9107  1.3074
 7941SOL     OW35458   0.410   1.530   4.260  0.6536  0.4691  0.6153
 7941SOL    HW135459   0.409   1.570   4.173 -2.4307  1.3956  1.0537
 7941SOL    HW235460   0.385   1.444   4.226 -2.0482  1.0593  1.0352
 7942SOL     OW35461   3.933   4.623   2.891  0.6173 -0.1054  0.3143
 7942SOL    HW135462   3.971   4.711   2.900  1.1384 -0.4374  1.4154
 7942SOL    HW235463   3.847   4.635   2.851  0.4250  0.8949  1.0208
 7943SOL     OW35464   1.786   4.592   8.475  0.2901 -0.1211  0.5427
 7943SOL    HW135465   1.772   4.687   8.466  2.6079  0.0347 -1.3838
 7943SOL    HW235466   1.757   4.564   8.562  0.3015 -0.4304  0.4461
 7944SOL     OW35467   2.047   3.843   4.029 -0.0441 -0.2680  0.0826
 7944SOL    HW135468   2.055   3.807   3.941 -0.3784  0.5375 -0.2730
 7944SOL    HW235469   1.955   3.870   4.031  0.1225  0.3033  0.1647
 7945SOL     OW35470   4.626   0.315   4.718 -0.0154 -1.2394 -0.2757
 7945SOL    HW135471   4.635   0.241   4.778 -1.5936  0.4531  2.0880
 7945SOL    HW235472   4.715   0.350   4.726 -2.2157  4.3964 -0.4080
 7946SOL     OW35473   0.097   0.235   7.442  0.0170 -0.1134  0.3173
 7946SOL    HW135474   0.162   0.210   7.377  1.2559  0.1427  1.4473
 7946SOL    HW235475   0.107   0.328   7.423  0.5392 -0.6203 -1.8806
 7947SOL     OW35476   0.133   4.328   8.284 -0.5554 -0.2873 -0.2454
 7947SOL    HW135477   0.207   4.375   8.246  0.0881 -2.2943 -1.4153
 7947SOL    HW235478   0.164   4.240   8.264  0.4678  0.1666 -0.6418
 7948SOL     OW35479   4.720   1.865   0.907 -0.7079  0.0927 -0.1726
 7948SOL    HW135480   4.671   1.823   0.978  0.5681  0.4073  0.9106
 7948SOL    HW235481   4.695   1.956   0.916  2.9539  1.0560  0.4747
 7949SOL     OW35482   0.270   1.571   3.773  0.6041  0.3326  0.1159
 7949SOL    HW135483   0.362   1.581   3.798  0.7912  1.9156 -1.2080
 7949SOL    HW235484   0.264   1.595   3.680  1.2835 -5.5942 -1.4883
 7950SOL     OW35485   1.542   3.853  15.558 -0.4365  0.5873  0.7406
 7950SOL    HW135486   1.583   3.904  15.489 -0.5690  1.7557  1.5146
 7950SOL    HW235487   1.458   3.899  15.559  0.3375  2.0582 -0.9481
 7951SOL     OW35488   2.264   3.472   5.484  0.0633 -0.2057 -0.4457
 7951SOL    HW135489   2.313   3.465   5.402 -1.7419  1.8505 -1.6648
 7951SOL    HW235490   2.176   3.462   5.448 -0.4057  0.9983  0.3757
 7952SOL     OW35491   3.521   1.240   6.805 -0.7030 -0.1254  0.5704
 7952SOL    HW135492   3.560   1.212   6.887  0.6530  1.5584  0.5031
 7952SOL    HW235493   3.482   1.323   6.833  0.4593  0.2223  1.1334
 7953SOL     OW35494   0.436   3.017  11.475 -0.3833  0.5948 -0.2710
 7953SOL    HW135495   0.391   3.056  11.550 -2.8157 -0.5470 -1.1328
 7953SOL    HW235496   0.497   2.953  11.512  0.6686  1.0807 -1.1402
 7954SOL     OW35497   3.441   0.464  13.262  0.1450  0.8830  0.2217
 7954SOL    HW135498   3.355   0.499  13.287  0.3733 -0.0260  2.3219
 7954SOL    HW235499   3.484   0.538  13.219 -0.2428  0.9265 -0.0841
 7955SOL     OW35500   3.741   3.086   6.117 -0.1617 -0.1057 -0.4234
 7955SOL    HW135501   3.710   3.021   6.179 -0.9853  2.0798  1.4826
 7955SOL    HW235502   3.698   3.068   6.033 -2.0472  1.4279  0.2105
 7956SOL     OW35503   2.190   3.136  12.480 -0.9560  0.2555  0.0245
 7956SOL    HW135504   2.135   3.093  12.415  0.0418  1.0667 -1.3396
 7956SOL    HW235505   2.190   3.226  12.447  0.3400  1.8898  4.4551
 7957SOL     OW35506   2.461   2.097  16.029 -0.4052  0.3171  0.0625
 7957SOL    HW135507   2.406   2.172  16.005  0.2987  1.3866  1.7413
 7957SOL    HW235508   2.401   2.025  16.010  0.0374 -0.3838  1.3061
 7958SOL     OW35509   3.156   1.157   6.293  0.3010  0.8869  0.3768
 7958SOL    HW135510   3.062   1.143   6.285  0.8956 -2.1079 -1.4661
 7958SOL    HW235511   3.174   1.162   6.199 -0.4732 -0.6787  0.1572
 7959SOL     OW35512   2.892   2.582   7.467  0.2023  0.5010 -0.0345
 7959SOL    HW135513   2.866   2.640   7.396  1.5630  0.6993 -0.3677
 7959SOL    HW235514   2.967   2.537   7.429  1.8467  1.9226  1.5435
 7960SOL     OW35515   0.013   0.682   0.878 -0.1740  0.0478  0.2546
 7960SOL    HW135516   0.031   0.642   0.793  1.2558  0.3324  0.4081
 7960SOL    HW235517   0.087   0.644   0.927  2.0162  0.6310 -2.5677
 7961SOL     OW35518   3.755   0.749   2.997  0.0336  0.5206  0.1028
 7961SOL    HW135519   3.741   0.655   3.007 -0.0279  0.7990  2.5393
 7961SOL    HW235520   3.815   0.774   3.067  0.3190 -0.0968  0.0731
 7962SOL     OW35521   4.308   3.861   5.641 -0.2701 -0.1784  0.0541
 7962SOL    HW135522   4.299   3.948   5.603 -1.7045 -1.3561 -2.3312
 7962SOL    HW235523   4.232   3.814   5.606 -0.7449 -1.3750  2.7283
 7963SOL     OW35524   0.835   4.139   5.787  0.4242  0.7037  0.1401
 7963SOL    HW135525   0.778   4.201   5.832 -0.7680 -1.9225  2.2854
 7963SOL    HW235526   0.859   4.070   5.849  0.0380 -0.7325 -1.2791
 7964SOL     OW35527   0.254   3.981   4.616  0.2289 -0.3362  0.6668
 7964SOL    HW135528   0.244   3.890   4.644 -1.4401 -0.0652  0.9755
 7964SOL    HW235529   0.247   4.030   4.698 -1.9371  1.1959 -0.4286
 7965SOL     OW35530   0.540   3.786  16.914  0.0166 -0.8046  0.0067
 7965SOL    HW135531   0.544   3.723  16.842 -5.3774  0.6539 -1.5236
 7965SOL    HW235532   0.633   3.810  16.905 -0.1093 -0.3404 -0.0483
 7966SOL     OW35533   4.535   4.380   4.039  0.1470  0.3187  0.4394
 7966SOL    HW135534   4.595   4.439   4.085 -0.0296  0.5706  0.3479
 7966SOL    HW235535   4.517   4.433   3.962 -1.4048  0.9496  1.2345
 7967SOL     OW35536   3.600   0.723  16.688 -0.2347  0.1576 -0.2585
 7967SOL    HW135537   3.606   0.646  16.744 -1.1674 -0.3425 -0.8389
 7967SOL    HW235538   3.553   0.684  16.614 -1.5950 -0.9087  1.1664
 7968SOL     OW35539   0.099   0.530   2.473  0.2342 -0.3904 -0.0593
 7968SOL    HW135540   0.011   0.568   2.476  0.5459  0.3017  0.5707
 7968SOL    HW235541   0.085   0.449   2.521  1.1766 -1.4827 -1.6485
 7969SOL     OW35542   0.146   4.002  14.872 -0.1224 -0.1364  0.2077
 7969SOL    HW135543   0.168   3.979  14.962 -1.3001  2.0821  1.0773
 7969SOL    HW235544   0.102   4.084  14.896  0.8981  0.4857 -0.0191
 7970SOL     OW35545   4.439   3.580  11.361 -0.0493 -0.1254 -0.2317
 7970SOL    HW135546   4.407   3.594  11.272 -0.2333  0.1683 -0.1205
 7970SOL    HW235547   4.452   3.673  11.381  1.7920 -0.3166 -0.5224
 7971SOL     OW35548   4.203   1.684   9.901 -0.4560 -0.2336 -0.6196
 7971SOL    HW135549   4.292   1.700   9.933  0.2235 -0.8739 -2.2314
 7971SOL    HW235550   4.223   1.609   9.845 -1.2812 -0.1621 -1.0007
 7972SOL     OW35551   4.126   3.447  12.772  0.1155  0.4110  0.3610
 7972SOL    HW135552   4.120   3.478  12.862  0.4832 -1.3055  0.9791
 7972SOL    HW235553   4.219   3.459  12.753  0.7528 -1.1588  2.5373
 7973SOL     OW35554   0.543   2.533   4.505 -0.0142  0.1725 -0.6360
 7973SOL    HW135555   0.532   2.575   4.420 -0.0377 -1.0154 -1.2100
 7973SOL    HW235556   0.474   2.580   4.553  1.4521  2.0877 -0.3888
 7974SOL     OW35557   0.256   1.244  10.215 -0.0993  0.1940 -0.1813
 7974SOL    HW135558   0.282   1.278  10.129 -1.1150 -0.0602 -0.5958
 7974SOL    HW235559   0.331   1.261  10.271 -0.7853  0.3406  0.6982
 7975SOL     OW35560   2.583   0.983   0.778 -0.4325 -0.0737 -0.7358
 7975SOL    HW135561   2.544   1.068   0.797  1.1757  0.4389  0.2532
 7975SOL    HW235562   2.654   1.021   0.726  0.8092 -0.6700  0.5005
 7976SOL     OW35563   3.482   0.045   6.950  0.4596  0.1584 -0.1399
 7976SOL    HW135564   3.412   0.068   6.889  1.6251 -0.0830 -1.5549
 7976SOL    HW235565   3.431   0.050   7.032  0.8801  0.5193  0.0973
 7977SOL     OW35566   3.781   3.341   4.442  0.2149  0.8200 -0.0101
 7977SOL    HW135567   3.704   3.381   4.401 -1.1739  1.0721  2.8350
 7977SOL    HW235568   3.784   3.377   4.531  0.3445  1.6602 -0.3482
 7978SOL     OW35569   1.971   4.037   7.558 -0.1203  0.5985 -0.2508
 7978SOL    HW135570   2.020   3.986   7.493  0.3596  0.6017  0.1028
 7978SOL    HW235571   1.882   4.014   7.530 -0.1987  0.1784  0.3522
 7979SOL     OW35572   4.630   4.489  17.118  0.3298 -0.1148  1.0628
 7979SOL    HW135573   4.593   4.549  17.183 -2.2539 -0.4393 -0.1298
 7979SOL    HW235574   4.723   4.490  17.140  0.8169 -1.9422 -0.9199
 7980SOL     OW35575   0.716   2.528   2.973  0.5439 -0.2950 -0.0575
 7980SOL    HW135576   0.636   2.489   3.009 -0.6871 -0.2310 -2.6966
 7980SOL    HW235577   0.731   2.473   2.895 -2.9285 -0.1408 -0.8488
 7981SOL     OW35578   3.691   3.374  12.473 -0.2289  0.0301 -0.1921
 7981SOL    HW135579   3.734   3.420  12.402  0.5391  0.7806  0.7528
 7981SOL    HW235580   3.745   3.405  12.546 -1.1464  2.0357 -0.3705
 7982SOL     OW35581   0.395   2.339   5.016 -0.2778 -0.0521  0.3244
 7982SOL    HW135582   0.416   2.246   5.006 -0.2836 -0.1851  1.5546
 7982SOL    HW235583   0.352   2.341   5.101 -1.2763 -1.8203 -0.1315
 7983SOL     OW35584   1.034   0.450   3.150  0.5344 -0.3590  0.5670
 7983SOL    HW135585   1.082   0.369   3.169  0.4105 -0.5352  0.1144
 7983SOL    HW235586   1.062   0.473   3.062  0.1652 -2.8414 -0.2112
 7984SOL     OW35587   3.987   4.160   4.860  0.0398  0.3376  0.6158
 7984SOL    HW135588   3.915   4.142   4.800  0.6746  0.8445 -0.3083
 7984SOL    HW235589   3.942   4.227   4.912 -0.2602  0.0998  0.6588
 7985SOL     OW35590   2.993   3.895   5.660 -0.3362 -0.0768  0.0090
 7985SOL    HW135591   2.952   3.837   5.724 -1.5504  0.1064 -0.6081
 7985SOL    HW235592   3.015   3.825   5.598 -1.1345  1.1830 -1.7065
 7986SOL     OW35593   4.197   0.419   1.268 -0.2039  0.3355  0.6902
 7986SOL    HW135594   4.119   0.392   1.219  0.0198  1.2054 -0.1244
 7986SOL    HW235595   4.161   0.448   1.352 -0.3394  0.3725  0.6182
 7987SOL     OW35596   0.739   0.224   4.177 -0.3407 -0.2151 -0.3481
 7987SOL    HW135597   0.784   0.153   4.132 -1.5351 -2.0463  1.3199
 7987SOL    HW235598   0.706   0.273   4.102  2.2519 -0.1980 -1.4668
 7988SOL     OW35599   2.580   4.353   8.027 -0.6379  0.0338  0.0850
 7988SOL    HW135600   2.594   4.274   7.976  2.2430  0.4098  0.3190
 7988SOL    HW235601   2.630   4.327   8.105 -0.3624 -0.2492 -0.1881
 7989SOL     OW35602   4.135   3.651   3.402 -0.1546 -0.8854  0.3739
 7989SOL    HW135603   4.044   3.629   3.419 -0.9918  1.4807 -1.0798
 7989SOL    HW235604   4.186   3.600   3.465  2.9242 -0.2993 -1.6544
 7990SOL     OW35605   1.474   1.010   7.170 -0.3826  0.1074 -0.1644
 7990SOL    HW135606   1.480   1.079   7.104  0.3633  0.8909  0.7173
 7990SOL    HW235607   1.493   1.061   7.249 -1.1177  0.5431 -0.2623
 7991SOL     OW35608   0.091   4.426   6.398 -0.0786  0.6723  0.4833
 7991SOL    HW135609   0.035   4.476   6.338  0.5401  0.5433 -0.2072
 7991SOL    HW235610   0.036   4.361   6.442 -0.0483 -1.5784 -2.7823
 7992SOL     OW35611   0.964   2.924   1.777  0.5790  0.1692 -0.2845
 7992SOL    HW135612   0.892   2.975   1.812 -0.3622 -0.4445 -1.3176
 7992SOL    HW235613   0.938   2.939   1.686  1.2589  0.8132 -0.3713
 7993SOL     OW35614   1.963   1.786  14.275 -0.6592  0.4574  0.0288
 7993SOL    HW135615   2.008   1.710  14.238 -0.7165  1.2277 -1.6315
 7993SOL    HW235616   1.895   1.742  14.324 -0.7345  0.3518 -0.1692
 7994SOL     OW35617   0.480   1.968   9.331 -0.0723 -0.6360  0.0405
 7994SOL    HW135618   0.485   1.987   9.424  0.0883  3.2017 -0.7708
 7994SOL    HW235619   0.541   1.894   9.332 -0.3384 -0.8483  0.3764
 7995SOL     OW35620   3.655   4.603   8.172 -0.0933  0.0144 -0.0344
 7995SOL    HW135621   3.566   4.602   8.208 -0.2693 -1.2303 -0.5241
 7995SOL    HW235622   3.671   4.692   8.203  0.6813 -0.9464  2.2950
 7996SOL     OW35623   1.228   1.972   6.082 -0.0678 -0.1782  0.0887
 7996SOL    HW135624   1.134   1.985   6.084 -0.3574 -1.7078 -3.4769
 7996SOL    HW235625   1.256   2.041   6.142 -0.1062  0.0229 -0.1266
 7997SOL     OW35626   4.234   1.919  13.332  0.2326  0.1082 -0.1844
 7997SOL    HW135627   4.160   1.916  13.270 -1.1427  1.1247  1.3955
 7997SOL    HW235628   4.279   1.839  13.306  1.2272 -0.4218  3.1950
 7998SOL     OW35629   3.121   1.226   6.025 -0.5156 -0.4176  0.2324
 7998SOL    HW135630   3.182   1.168   5.981 -0.3479  1.0941 -1.5208
 7998SOL    HW235631   3.036   1.190   6.003 -0.6435  1.7360 -2.7891
 7999SOL     OW35632   4.425   1.730  12.764  0.2639  0.0575 -0.2412
 7999SOL    HW135633   4.419   1.741  12.669  1.7240  1.5660 -0.1563
 7999SOL    HW235634   4.471   1.810  12.788  1.0690  0.0720 -1.8337
 8000SOL     OW35635   3.347   2.824   2.872 -0.8132  0.6547  0.0266
 8000SOL    HW135636   3.391   2.872   2.942  2.1397 -0.3890 -1.1430
 8000SOL    HW235637   3.256   2.849   2.889 -0.7449  1.2600 -0.5221
 8001SOL     OW35638   2.991   3.401   0.979 -0.5890 -0.6386 -0.0650
 8001SOL    HW135639   2.997   3.347   0.901  0.0432 -0.0949 -0.3901
 8001SOL    HW235640   3.044   3.477   0.955 -0.9644 -0.9506 -1.8214
 8002SOL     OW35641   1.414   4.726   2.121 -0.3715  0.7501 -0.8199
 8002SOL    HW135642   1.441   4.641   2.085 -1.0558  1.0442 -2.0387
 8002SOL    HW235643   1.416   4.709   2.215 -1.6034 -0.3184 -0.9814
 8003SOL     OW35644   1.690   3.084   1.795  0.0804  0.0101 -0.0744
 8003SOL    HW135645   1.650   3.033   1.866  0.3187 -1.9495 -1.3724
 8003SOL    HW235646   1.767   3.027   1.790  0.5783  0.6336  0.4042
 8004SOL     OW35647   0.438   0.353   6.751 -0.3172 -0.4561  0.2839
 8004SOL    HW135648   0.359   0.333   6.700  0.7610 -0.2085 -1.4804
 8004SOL    HW235649   0.459   0.438   6.710  1.8745 -1.4590 -0.6615
 8005SOL     OW35650   1.000   0.250  14.864  0.2055 -0.1256 -0.3745
 8005SOL    HW135651   0.917   0.297  14.859  0.2237  0.0023  0.6753
 8005SOL    HW235652   1.003   0.207  14.778  2.4019  0.9217 -0.8135
 8006SOL     OW35653   1.508   0.186   4.983 -0.2944 -0.7952  0.5797
 8006SOL    HW135654   1.546   0.184   5.071 -2.6923  1.2856  1.6677
 8006SOL    HW235655   1.438   0.127   5.011 -0.2380 -0.5783  1.1843
 8007SOL     OW35656   2.071   0.893   3.520 -0.0351 -0.6714  0.3251
 8007SOL    HW135657   2.101   0.809   3.556 -0.1446 -0.3299  1.2020
 8007SOL    HW235658   2.094   0.883   3.427 -1.4985  3.3032 -0.4353
 8008SOL     OW35659   0.999   1.151   6.794 -0.0143 -0.5199 -0.1124
 8008SOL    HW135660   1.084   1.119   6.764  0.4724 -0.9835  1.7170
 8008SOL    HW235661   1.000   1.242   6.766 -1.3616 -0.6835 -0.7083
 8009SOL     OW35662   2.852   0.609  10.413 -0.0131 -0.1525 -0.2110
 8009SOL    HW135663   2.853   0.514  10.396  0.2317  0.1737 -2.0039
 8009SOL    HW235664   2.943   0.621  10.388 -0.4405 -1.0173 -2.1612
 8010SOL     OW35665   2.924   4.176   9.634  0.1517  0.0370  0.3747
 8010SOL    HW135666   2.921   4.167   9.539  3.1172  1.1361  0.1546
 8010SOL    HW235667   2.839   4.213   9.654  0.6295  1.4415 -0.2111
 8011SOL     OW35668   1.014   3.339  15.268  0.2476  1.0594  0.2687
 8011SOL    HW135669   0.993   3.266  15.210 -0.8603  3.2200 -2.0348
 8011SOL    HW235670   0.944   3.338  15.333 -2.0393 -3.9072 -2.2736
 8012SOL     OW35671   4.464   3.733   7.448  0.4015  0.3153 -1.0902
 8012SOL    HW135672   4.511   3.651   7.458  0.0275  0.3251  0.7819
 8012SOL    HW235673   4.374   3.700   7.449  0.1032  1.1366  0.3408
 8013SOL     OW35674   1.560   0.147  10.971 -0.0898  0.2067 -0.1387
 8013SOL    HW135675   1.619   0.111  11.036 -0.9798 -0.1838  0.4605
 8013SOL    HW235676   1.473   0.130  11.008 -0.4910  0.8746 -0.7513
 8014SOL     OW35677   4.433   1.964   0.045  0.4790  0.1061 -0.0774
 8014SOL    HW135678   4.421   1.914   0.126  0.1500  2.4501  1.3102
 8014SOL    HW235679   4.378   1.913  17.743 -0.8928  0.9098  0.4971
 8015SOL     OW35680   3.531   3.356   7.520 -0.5337 -0.6641 -0.1760
 8015SOL    HW135681   3.540   3.304   7.440 -1.8161  0.7332 -1.2334
 8015SOL    HW235682   3.621   3.370   7.548  0.2555 -0.6493 -2.7296
 8016SOL     OW35683   2.529   3.899   6.521  0.1621  0.7745 -0.5460
 8016SOL    HW135684   2.436   3.904   6.542  0.6019 -0.6177  1.7443
 8016SOL    HW235685   2.556   3.865   6.606 -2.0857 -0.2410 -0.2704
 8017SOL     OW35686   2.841   2.582  16.081  0.3303 -0.2538 -0.0203
 8017SOL    HW135687   2.937   2.584  16.088  0.2913  0.7100  0.1997
 8017SOL    HW235688   2.819   2.667  16.043 -0.7136 -0.6810 -0.3653
 8018SOL     OW35689   4.226   2.334   2.397 -0.0584 -0.4336  0.0004
 8018SOL    HW135690   4.143   2.339   2.349 -1.2395 -0.0526  2.0371
 8018SOL    HW235691   4.283   2.315   2.323 -1.1747 -1.4876 -0.6005
 8019SOL     OW35692   4.034   3.364   1.712 -0.4982 -0.3343  0.2197
 8019SOL    HW135693   4.037   3.441   1.770 -2.5880  0.1586 -0.3313
 8019SOL    HW235694   3.939   3.358   1.706 -0.5599  2.3865 -1.4543
 8020SOL     OW35695   2.541   2.926   9.062  0.0640 -0.2787 -0.7435
 8020SOL    HW135696   2.549   2.853   9.123  0.7660  1.5434  1.3439
 8020SOL    HW235697   2.635   2.937   9.046 -0.1996  0.9440 -1.4929
 8021SOL     OW35698   1.129   2.198   6.257  0.2412 -0.7129 -0.2468
 8021SOL    HW135699   1.114   2.290   6.279  1.3030 -0.5327 -0.2673
 8021SOL    HW235700   1.158   2.157   6.338  1.0561  3.7102  1.6902
 8022SOL     OW35701   1.662   0.339  17.739  0.8318 -0.3078  0.3361
 8022SOL    HW135702   1.659   0.254  17.695  0.0555 -0.3654  0.5039
 8022SOL    HW235703   1.577   0.378  17.718  2.5750  1.9067 -2.5092
 8023SOL     OW35704   3.513   1.615   3.000 -0.0030 -0.2414 -0.3310
 8023SOL    HW135705   3.595   1.616   2.951 -0.8976 -1.1114 -1.8590
 8023SOL    HW235706   3.544   1.581   3.084  3.9321  0.1339 -1.6164
 8024SOL     OW35707   3.713   4.178  14.886 -0.2427 -0.2102  0.3761
 8024SOL    HW135708   3.673   4.265  14.875  0.1298 -0.1272 -0.3174
 8024SOL    HW235709   3.806   4.196  14.877 -1.0479  3.4305 -0.6465
 8025SOL     OW35710   1.467   0.113   3.868 -0.7845  0.1548  0.4976
 8025SOL    HW135711   1.387   0.071   3.899 -1.2715  0.3881 -0.4588
 8025SOL    HW235712   1.522   0.107   3.946  0.0386  2.0292  0.0622
 8026SOL     OW35713   0.370   0.604   0.279  0.7672  0.0078 -0.5113
 8026SOL    HW135714   0.415   0.630   0.359 -0.1768 -2.0653  0.6860
 8026SOL    HW235715   0.341   0.518   0.311  1.3897 -0.0683 -0.1497
 8027SOL     OW35716   2.489   0.153   7.125 -0.0426 -0.2428 -0.4013
 8027SOL    HW135717   2.542   0.076   7.147 -0.9290 -1.3638 -2.1906
 8027SOL    HW235718   2.462   0.119   7.040  1.1879  0.5961 -1.1310
 8028SOL     OW35719   2.906   4.071  16.806  0.0763 -0.3634  0.0637
 8028SOL    HW135720   2.952   4.063  16.722  1.1762  0.0879  0.6297
 8028SOL    HW235721   2.941   4.154  16.837 -0.0431  0.0118 -0.7894
 8029SOL     OW35722   1.084   2.105   5.284  0.2792 -0.0031  0.1516
 8029SOL    HW135723   1.163   2.152   5.256 -0.3653 -0.0889 -1.8362
 8029SOL    HW235724   1.080   2.137   5.374 -0.6992 -1.1772  0.5231
 8030SOL     OW35725   1.634   4.217   8.345  0.5420  0.4118 -0.2685
 8030SOL    HW135726   1.623   4.188   8.254  0.1495  0.0854 -0.1168
 8030SOL    HW235727   1.730   4.223   8.340  0.7555  1.2140  4.7072
 8031SOL     OW35728   2.710   3.304   5.252  0.1889 -0.0188 -0.7159
 8031SOL    HW135729   2.797   3.281   5.283  0.4672 -0.8776 -2.1298
 8031SOL    HW235730   2.736   3.362   5.180  1.1538  0.2142 -0.1708
 8032SOL     OW35731   1.610   1.556   3.929 -0.5097  0.2327  1.2069
 8032SOL    HW135732   1.525   1.569   3.972 -0.4095  2.3353  0.8045
 8032SOL    HW235733   1.593   1.586   3.839  3.4038  1.6314  0.9213
 8033SOL     OW35734   4.357   0.500   6.639 -0.5332 -0.5321 -0.2728
 8033SOL    HW135735   4.396   0.522   6.554  1.1073  0.2880  0.6829
 8033SOL    HW235736   4.298   0.575   6.643  0.3014  0.1381 -0.4524
 8034SOL     OW35737   2.089   1.862   3.093  0.1005  0.3365  0.0410
 8034SOL    HW135738   1.996   1.875   3.113  0.6079  2.0538  1.2481
 8034SOL    HW235739   2.076   1.860   2.998  2.7328 -1.0820 -0.2949
 8035SOL     OW35740   2.446   3.413  13.667  0.5199  0.1041  0.1521
 8035SOL    HW135741   2.420   3.328  13.632  1.4325 -0.5970  1.1788
 8035SOL    HW235742   2.433   3.472  13.593 -0.7089  0.1648  0.4219
 8036SOL     OW35743   2.564   3.338   8.854  0.2546  0.2104  0.1683
 8036SOL    HW135744   2.646   3.311   8.812  0.6323  0.7074  0.5906
 8036SOL    HW235745   2.574   3.433   8.858  2.0236 -0.0204  0.8232
 8037SOL     OW35746   4.125   2.052  12.701  0.5143  0.6561  0.1694
 8037SOL    HW135747   4.096   1.961  12.696 -1.5485  1.3757 -1.1551
 8037SOL    HW235748   4.066   2.085  12.769  0.4725  0.9757 -0.0224
 8038SOL     OW35749   3.378   0.930   1.999  0.3562 -0.2770 -0.4245
 8038SOL    HW135750   3.473   0.944   1.998  0.1152  1.3320 -1.1895
 8038SOL    HW235751   3.354   0.943   2.091  0.2238 -0.1033 -0.4834
 8039SOL     OW35752   2.047   1.344  15.929  0.1843  0.0832 -0.4070
 8039SOL    HW135753   2.097   1.262  15.924 -0.0017  0.0066 -0.9245
 8039SOL    HW235754   2.116   1.409  15.933  1.1657 -0.9532 -0.3579
 8040SOL     OW35755   2.223   1.853   8.851 -0.0741  0.2626  0.2160
 8040SOL    HW135756   2.313   1.855   8.883 -0.4838 -0.7361  1.4512
 8040SOL    HW235757   2.234   1.855   8.756  0.0286  0.0439  0.2244
 8041SOL     OW35758   4.673   4.509   8.317 -0.2752 -0.8378 -0.2839
 8041SOL    HW135759   0.010   4.454   8.302 -1.6378 -2.7728 -0.1399
 8041SOL    HW235760   4.695   4.581   8.258 -0.1372 -2.6023 -2.3964
 8042SOL     OW35761   4.117   1.185   9.727  0.0140 -0.7203 -0.3112
 8042SOL    HW135762   4.038   1.157   9.771 -1.9713 -0.2939 -3.5805
 8042SOL    HW235763   4.114   1.140   9.642  2.1726  2.9289 -2.3369
 8043SOL     OW35764   0.865   2.484   6.059 -0.3810 -0.0700  0.2268
 8043SOL    HW135765   0.775   2.512   6.071 -0.3538 -0.0133  0.2997
 8043SOL    HW235766   0.875   2.445   5.972  0.9920 -0.9729  0.7892
 8044SOL     OW35767   0.717   0.110   8.215 -0.0839 -0.0429 -0.7991
 8044SOL    HW135768   0.641   0.111   8.156 -1.4966 -0.8363  0.9901
 8044SOL    HW235769   0.700   0.188   8.268 -3.6137 -2.5766  1.8348
 8045SOL     OW35770   0.369   0.776   5.334 -0.0571 -0.4141  0.9192
 8045SOL    HW135771   0.330   0.854   5.295 -0.4458  0.1731  2.4911
 8045SOL    HW235772   0.463   0.777   5.316 -0.3217 -0.6345 -0.4864
 8046SOL     OW35773   4.178   1.568  12.530  0.4455  0.0237  0.0180
 8046SOL    HW135774   4.109   1.632  12.545  1.7487  1.9906 -2.4765
 8046SOL    HW235775   4.261   1.615  12.537 -0.8529  2.3895 -0.6158
 8047SOL     OW35776   0.036   4.124  11.546 -0.3645 -0.0484 -0.1751
 8047SOL    HW135777   4.733   4.138  11.462 -1.9050  1.5502  0.8701
 8047SOL    HW235778   0.128   4.135  11.525 -0.3846 -0.8257 -0.6697
 8048SOL     OW35779   4.367   3.022  12.332  0.1701  0.2510  0.5339
 8048SOL    HW135780   4.298   2.957  12.344  0.8842 -0.9231 -1.7475
 8048SOL    HW235781   4.383   3.056  12.420  0.2953  2.1985 -0.2335
 8049SOL     OW35782   2.711   1.766   3.416 -0.0141  0.0799 -0.1347
 8049SOL    HW135783   2.619   1.766   3.442 -0.2449 -2.6489 -0.9135
 8049SOL    HW235784   2.763   1.774   3.496 -1.5059  1.0395  0.7264
 8050SOL     OW35785   2.764   4.359   2.062 -0.7522 -0.3993  0.2732
 8050SOL    HW135786   2.786   4.332   1.973 -2.0473 -0.8038  0.0832
 8050SOL    HW235787   2.846   4.401   2.088 -1.1244  0.4535  0.0891
 8051SOL     OW35788   1.104   4.524   3.945 -0.1081  0.6253 -0.5033
 8051SOL    HW135789   1.175   4.464   3.967 -0.1718  0.8562  0.3311
 8051SOL    HW235790   1.047   4.478   3.883  0.5607  2.3030 -2.3749
 8052SOL     OW35791   3.722   3.356   6.242 -0.0452 -0.1649  0.1596
 8052SOL    HW135792   3.731   3.275   6.192 -0.8238 -0.4360  0.4531
 8052SOL    HW235793   3.631   3.359   6.273 -0.5039 -1.3200 -1.0945
 8053SOL     OW35794   0.241   1.487   1.177 -0.4506  0.5133 -0.2350
 8053SOL    HW135795   0.186   1.410   1.160 -0.1571  0.0195  1.1426
 8053SOL    HW235796   0.196   1.505   1.259  2.3067  1.2421  1.1062
 8054SOL     OW35797   0.296   3.634   2.982  0.1984 -0.0235 -0.6225
 8054SOL    HW135798   0.253   3.716   2.959  0.7054  0.2268 -0.6795
 8054SOL    HW235799   0.297   3.652   3.076 -3.4618  1.4609 -0.8649
 8055SOL     OW35800   4.654   4.555   6.198 -0.0767 -0.1489  0.3921
 8055SOL    HW135801   4.583   4.490   6.198  1.2371 -1.5623  0.3472
 8055SOL    HW235802   4.642   4.587   6.108  0.6454 -1.9403 -0.3252
 8056SOL     OW35803   2.267   3.690   5.628  0.1265 -0.1370 -0.1109
 8056SOL    HW135804   2.270   3.605   5.585  0.7006  0.0478 -0.4437
 8056SOL    HW235805   2.354   3.720   5.602  1.3129 -2.1424  1.5279
 8057SOL     OW35806   0.138   3.031   9.155 -0.0546 -0.7038  0.0538
 8057SOL    HW135807   0.134   2.938   9.131  0.1092 -0.1989 -1.9469
 8057SOL    HW235808   0.126   3.035   9.250  1.1487  0.2694  0.1656
 8058SOL     OW35809   3.740   1.617   2.868 -0.3868 -0.0487 -0.3020
 8058SOL    HW135810   3.834   1.606   2.854 -0.2369 -0.3092  0.8607
 8058SOL    HW235811   3.714   1.617   2.776 -1.6216  1.6417  0.0555
 8059SOL     OW35812   4.121   0.271   7.618 -0.8358 -0.8763  0.3027
 8059SOL    HW135813   4.182   0.345   7.620 -0.2582 -1.3785  1.2678
 8059SOL    HW235814   4.048   0.325   7.589 -0.4902 -1.0838 -0.9456
 8060SOL     OW35815   4.709   0.085  14.738 -0.1707  0.7697 -0.2572
 8060SOL    HW135816   4.708   0.014  14.673  2.2558  0.4889  0.0134
 8060SOL    HW235817   0.016   0.157  14.697  2.6041 -1.3515 -0.8680
 8061SOL     OW35818   1.221   2.963   3.959  0.1501 -0.3609 -0.2676
 8061SOL    HW135819   1.267   2.992   4.037  0.6978 -0.6118 -0.5005
 8061SOL    HW235820   1.295   2.969   3.900  0.8343  1.1530  0.7514
 8062SOL     OW35821   2.115   1.702   4.008  0.3535 -0.3878 -0.2176
 8062SOL    HW135822   2.123   1.709   3.913 -1.4934 -1.6747 -0.4617
 8062SOL    HW235823   2.157   1.617   4.019  1.1652 -0.1467 -1.4570
 8063SOL     OW35824   1.100   0.567   2.896 -0.0833  0.1092 -0.1295
 8063SOL    HW135825   1.144   0.649   2.920 -1.3515  0.4848  0.9134
 8063SOL    HW235826   1.013   0.607   2.903 -0.8763 -1.4788 -0.9094
 8064SOL     OW35827   4.116   2.202   3.656 -0.2737 -0.2081  0.4062
 8064SOL    HW135828   4.081   2.188   3.743 -0.4592 -2.2622  0.0098
 8064SOL    HW235829   4.167   2.120   3.650 -1.6007 -0.7829 -2.9289
 8065SOL     OW35830   3.288   3.197  12.597  0.3361  0.0078 -0.3762
 8065SOL    HW135831   3.354   3.175  12.531  2.1907  0.9024  1.1921
 8065SOL    HW235832   3.209   3.157  12.562  0.4579 -1.2235  0.7926
 8066SOL     OW35833   2.515   0.371   4.363 -0.7758  0.7210  0.1245
 8066SOL    HW135834   2.495   0.284   4.397  0.0233 -0.3225 -2.1049
 8066SOL    HW235835   2.521   0.430   4.439  0.1450  0.0755  0.5540
 8067SOL     OW35836   0.622   2.552   2.661  0.2370 -0.0821 -0.1816
 8067SOL    HW135837   0.619   2.571   2.567  2.6206 -1.5615 -0.5375
 8067SOL    HW235838   0.563   2.623   2.685  0.8673  1.3526 -2.8655
 8068SOL     OW35839   3.305   0.708   4.858 -0.1320 -0.2156 -0.1152
 8068SOL    HW135840   3.306   0.623   4.814 -0.5591  0.2151 -0.9671
 8068SOL    HW235841   3.334   0.678   4.943 -0.4455  0.8227  0.3596
 8069SOL     OW35842   2.668   1.051  17.572 -0.2501 -0.2334  0.1451
 8069SOL    HW135843   2.579   1.079  17.548 -0.2897 -0.7218 -0.2672
 8069SOL    HW235844   2.665   0.956  17.563 -3.1089 -0.0070 -1.4775
 8070SOL     OW35845   3.910   0.082  15.645 -0.1414 -0.4662 -0.3499
 8070SOL    HW135846   3.911   0.021  15.572 -0.3954  0.5521 -1.2122
 8070SOL    HW235847   3.948   0.021  15.708 -0.1787  1.0218  1.0963
 8071SOL     OW35848   0.125   0.776   9.157 -0.2341  0.0266  0.5899
 8071SOL    HW135849   0.153   0.836   9.087  0.3836  2.2424  2.7339
 8071SOL    HW235850   0.029   0.775   9.148 -0.2138  0.9479  0.2164
 8072SOL     OW35851   3.764   4.231   2.937  0.0111  0.2137 -0.3781
 8072SOL    HW135852   3.707   4.215   2.862  0.5899 -1.3223 -0.4887
 8072SOL    HW235853   3.733   4.167   3.001 -0.0448  0.2080 -0.4108
 8073SOL     OW35854   2.500   2.047   7.282 -0.0445  0.1371  0.1121
 8073SOL    HW135855   2.577   2.098   7.256 -0.9199  1.4233  0.0014
 8073SOL    HW235856   2.530   1.957   7.276 -1.1158 -0.0450 -2.5756
 8074SOL     OW35857   1.988   2.864  11.542  0.1153  0.4143  0.1759
 8074SOL    HW135858   2.048   2.875  11.616  0.2122 -2.0866  0.4753
 8074SOL    HW235859   1.923   2.807  11.582  1.1144  0.2374  1.5762
 8075SOL     OW35860   2.039   2.987  12.100 -0.1729 -0.6321  0.2167
 8075SOL    HW135861   1.977   2.922  12.065  1.7448 -3.3067  1.8084
 8075SOL    HW235862   2.105   2.928  12.136  0.9381  0.5498  0.1105
 8076SOL     OW35863   4.480   3.849   9.469  0.4440 -0.0044 -0.3511
 8076SOL    HW135864   4.401   3.874   9.518  1.5078  1.0640  0.8000
 8076SOL    HW235865   4.460   3.863   9.376 -1.4160  2.9174  0.4808
 8077SOL     OW35866   0.005   2.184   5.253  0.4267 -0.4658  0.0347
 8077SOL    HW135867   4.671   2.130   5.225  0.9905  0.4764 -3.2533
 8077SOL    HW235868   4.713   2.215   5.337  0.4780  0.7871 -0.4128
 8078SOL     OW35869   0.168   3.215   4.625 -0.2054  0.0676  0.7697
 8078SOL    HW135870   0.223   3.153   4.673  0.5920  0.7795  0.7895
 8078SOL    HW235871   0.172   3.300   4.669  1.3178  0.5663 -0.3067
 8079SOL     OW35872   4.383   2.924   9.031  0.2704  0.1573  0.2461
 8079SOL    HW135873   4.347   2.923   9.119 -1.6752 -2.5634 -0.6051
 8079SOL    HW235874   4.415   2.834   9.019  0.7967  0.5726 -1.4586
 8080SOL     OW35875   1.922   1.338   5.509  0.2687 -0.3047  0.3681
 8080SOL    HW135876   1.896   1.341   5.601 -0.1052 -3.2068  0.3566
 8080SOL    HW235877   1.842   1.373   5.470  0.7392 -0.6185 -0.8727
 8081SOL     OW35878   0.315   1.609   2.784  0.0557 -0.1033  0.5998
 8081SOL    HW135879   0.307   1.614   2.688  0.8527 -1.0254  0.4809
 8081SOL    HW235880   0.224   1.632   2.802 -0.8041 -2.5527 -0.6632
 8082SOL     OW35881   2.833   0.193   2.340 -0.2460  0.3361 -0.6066
 8082SOL    HW135882   2.758   0.139   2.314  0.4955 -0.4215 -1.1730
 8082SOL    HW235883   2.899   0.134   2.305 -1.5214 -0.3612 -1.8607
 8083SOL     OW35884   1.036   2.950   7.666  0.0026  0.0879  0.1865
 8083SOL    HW135885   0.975   2.966   7.594  0.2233  0.8411  0.1631
 8083SOL    HW235886   1.107   3.013   7.648 -0.7628  1.6881  2.8055
 8084SOL     OW35887   2.951   0.673   8.062  0.2417  0.2878  0.1126
 8084SOL    HW135888   2.962   0.616   7.985  0.6244  1.1876 -0.4992
 8084SOL    HW235889   2.976   0.619   8.137  1.7866  0.1251 -0.5145
 8085SOL     OW35890   0.700   1.682   2.015  0.3939  0.4930 -0.3562
 8085SOL    HW135891   0.706   1.599   2.062 -1.2875  0.6428  0.1132
 8085SOL    HW235892   0.723   1.744   2.084  1.0330 -0.0007 -0.1285
 8086SOL     OW35893   1.153   2.323   1.176  0.2548  0.2995 -0.3421
 8086SOL    HW135894   1.188   2.346   1.263  0.1039 -0.5594 -0.0536
 8086SOL    HW235895   1.106   2.243   1.198  0.1908  0.2885 -0.5237
 8087SOL     OW35896   4.093   1.292   0.560  0.2087  0.4394  0.0818
 8087SOL    HW135897   4.127   1.299   0.470 -2.0403  1.1130 -0.7317
 8087SOL    HW235898   4.034   1.367   0.551 -0.4464 -0.2061 -1.0854
 8088SOL     OW35899   4.624   3.743   2.546 -0.2345  0.1709 -0.1168
 8088SOL    HW135900   4.624   3.821   2.490 -0.5284  0.8230  0.7930
 8088SOL    HW235901   4.656   3.676   2.486 -0.0597 -1.6927  2.0505
 8089SOL     OW35902   0.756   1.291   4.035  0.3213  0.2125  0.0255
 8089SOL    HW135903   0.692   1.332   3.977 -0.7760  0.0143  1.1035
 8089SOL    HW235904   0.733   1.342   4.113  1.3276  3.1431 -1.5998
 8090SOL     OW35905   2.210   2.823   1.710  0.0617  0.2524 -0.5556
 8090SOL    HW135906   2.196   2.812   1.616  0.5469  1.0917 -0.7234
 8090SOL    HW235907   2.164   2.905   1.728 -1.9030 -1.6910  3.1515
 8091SOL     OW35908   1.017   4.457   4.753 -0.2107 -0.3230 -0.2480
 8091SOL    HW135909   0.957   4.486   4.821  0.6936 -0.9352  0.8290
 8091SOL    HW235910   0.994   4.364   4.749  1.1923 -0.5222 -3.8993
 8092SOL     OW35911   0.089   2.290   7.862  0.3761  0.4432 -0.4101
 8092SOL    HW135912   0.098   2.199   7.888 -0.7502 -0.1013 -1.9084
 8092SOL    HW235913   0.170   2.338   7.880 -0.9829  2.7475 -0.4330
 8093SOL     OW35914   4.063   2.968   4.412  0.3771  0.1259  0.2948
 8093SOL    HW135915   3.990   2.949   4.470  0.8705 -2.1557  0.1523
 8093SOL    HW235916   4.124   3.006   4.475  2.3567 -1.1229 -0.8762
 8094SOL     OW35917   0.910   0.759   2.287  0.3921 -0.2955 -0.5442
 8094SOL    HW135918   0.934   0.830   2.347 -2.1147 -1.0206  1.3221
 8094SOL    HW235919   0.862   0.690   2.332  0.2887  0.4621  0.5011
 8095SOL     OW35920   3.987   3.888   4.206  0.7444 -0.5756  0.7941
 8095SOL    HW135921   4.035   3.861   4.128 -0.9215 -0.7319 -0.1716
 8095SOL    HW235922   3.967   3.979   4.182  0.8686 -1.0961 -1.2842
 8096SOL     OW35923   4.580   2.825   8.703  0.1977  0.3182 -0.1850
 8096SOL    HW135924   4.486   2.808   8.702 -0.2340  2.8296 -1.5179
 8096SOL    HW235925   4.604   2.827   8.610 -3.0533 -0.4503 -1.0461
 8097SOL     OW35926   4.412   1.084   6.299 -0.0825  0.3878 -0.2668
 8097SOL    HW135927   4.494   1.116   6.263 -0.6718  0.0157 -1.9398
 8097SOL    HW235928   4.414   1.144   6.374 -0.4343  1.0865 -0.8134
 8098SOL     OW35929   3.453   0.191   0.038  0.0653 -0.2218 -0.0704
 8098SOL    HW135930   3.438   0.286   0.044  0.4522 -0.0582 -1.7721
 8098SOL    HW235931   3.381   0.170  17.735  0.1440 -2.1792  0.5166
 8099SOL     OW35932   4.737   3.629   5.022 -0.4296 -0.2377  0.6026
 8099SOL    HW135933   4.722   3.540   5.054  1.0313 -1.4412 -2.1234
 8099SOL    HW235934   0.012   3.679   5.103 -1.0240 -1.4854  1.4895
 8100SOL     OW35935   0.150   0.865   4.993  0.6568 -0.0652 -0.0451
 8100SOL    HW135936   0.213   0.904   4.932  0.7201 -0.8339 -0.4567
 8100SOL    HW235937   0.177   0.913   5.072 -0.6081 -0.3885  0.5902
 8101SOL     OW35938   4.533   4.144   1.947  0.2686 -0.2295  0.3691
 8101SOL    HW135939   4.539   4.081   1.875 -0.2363 -0.4861  0.5511
 8101SOL    HW235940   4.612   4.192   1.924 -0.2042  1.4395  2.2808
 8102SOL     OW35941   0.330   2.220   8.468 -0.4981  0.8345  0.1140
 8102SOL    HW135942   0.315   2.205   8.562 -0.3388  1.9648  0.3105
 8102SOL    HW235943   0.281   2.147   8.430  0.7078 -0.2717  0.6833
 8103SOL     OW35944   1.598   1.543  10.414 -0.2273 -0.0713 -0.2609
 8103SOL    HW135945   1.570   1.502  10.332  0.3030 -0.2903 -0.3351
 8103SOL    HW235946   1.693   1.528  10.411 -0.1043  0.3769  1.5256
 8104SOL     OW35947   2.072   1.663   5.479 -0.2365 -0.7323  0.0441
 8104SOL    HW135948   2.059   1.751   5.443 -0.5846 -0.6637  0.3440
 8104SOL    HW235949   1.990   1.661   5.529  0.0865 -2.2942  0.5039
 8105SOL     OW35950   0.395   1.465  14.236 -0.6734  0.0991 -0.1333
 8105SOL    HW135951   0.427   1.422  14.156  1.2516  2.2790 -0.5303
 8105SOL    HW235952   0.322   1.410  14.264  2.0677 -2.4349  2.0714
 8106SOL     OW35953   3.865   3.118   0.719 -0.2988  0.6074  0.2044
 8106SOL    HW135954   3.883   3.046   0.658  0.8681  0.5512  0.6293
 8106SOL    HW235955   3.831   3.074   0.797 -1.9511 -0.0911 -0.8936
 8107SOL     OW35956   2.307   1.971  15.237  0.5778  0.2489 -0.4197
 8107SOL    HW135957   2.329   1.895  15.292 -0.4320 -0.2360 -0.7048
 8107SOL    HW235958   2.312   1.932  15.150 -0.0851 -0.5630 -0.0892
 8108SOL     OW35959   1.984   0.349   9.500  0.4780  0.7042 -0.1627
 8108SOL    HW135960   1.966   0.293   9.424  1.5260  1.0083 -0.6383
 8108SOL    HW235961   1.894   0.377   9.519 -0.0725 -0.9966 -0.3348
 8109SOL     OW35962   2.701   2.486  11.825  0.3771  0.0158 -0.5531
 8109SOL    HW135963   2.657   2.404  11.846  1.0498 -0.8985 -2.8465
 8109SOL    HW235964   2.786   2.460  11.791  0.5395 -0.2754  0.0732
 8110SOL     OW35965   3.799   3.626   4.227  0.0104  0.2072  0.1684
 8110SOL    HW135966   3.804   3.704   4.172  0.2179 -0.5409 -0.8762
 8110SOL    HW235967   3.779   3.551   4.171  2.0184 -1.4500  1.6845
 8111SOL     OW35968   0.700   2.726  11.468  0.0353  0.1373 -0.4994
 8111SOL    HW135969   0.787   2.750  11.437  0.8125 -1.6188  0.3039
 8111SOL    HW235970   0.662   2.702  11.384  0.9944 -0.0976 -0.8641
 8112SOL     OW35971   2.527   3.234   5.435  0.6838  0.1495  0.2459
 8112SOL    HW135972   2.605   3.254   5.384 -0.4966  1.4265 -1.0504
 8112SOL    HW235973   2.567   3.174   5.498  2.0777  1.8742  1.0015
 8113SOL     OW35974   4.298   2.792   9.339 -0.1470  0.7319  0.0055
 8113SOL    HW135975   4.203   2.788   9.336 -0.0573 -0.0028 -1.8122
 8113SOL    HW235976   4.318   2.879   9.375  0.5929  1.2023 -1.5144
 8114SOL     OW35977   0.556   0.666   6.313 -0.0903  0.0799 -0.3772
 8114SOL    HW135978   0.564   0.635   6.223  2.5950 -1.0138  0.2326
 8114SOL    HW235979   0.607   0.747   6.307 -0.9665  0.6297 -0.4021
 8115SOL     OW35980   3.423   3.441   2.772  0.5110  0.2238  0.3159
 8115SOL    HW135981   3.336   3.460   2.808 -0.3394  1.2032 -2.2503
 8115SOL    HW235982   3.406   3.380   2.700  1.7024 -0.9698  1.0436
 8116SOL     OW35983   0.608   0.728   9.608  0.0637  0.0322  0.7833
 8116SOL    HW135984   0.540   0.743   9.673  1.3636  1.1796  1.8604
 8116SOL    HW235985   0.672   0.690   9.667  0.3792  0.5567  0.7757
 8117SOL     OW35986   2.371   0.487   2.768  0.3920  0.2876  0.3998
 8117SOL    HW135987   2.454   0.456   2.805  1.6481  1.8302 -1.1282
 8117SOL    HW235988   2.397   0.579   2.770  1.5760 -0.0328 -0.3257
 8118SOL     OW35989   4.118   1.206   8.954  0.7526 -0.3210 -0.0622
 8118SOL    HW135990   4.173   1.282   8.974  0.4713  0.2744 -1.5777
 8118SOL    HW235991   4.175   1.174   8.884  1.0130  1.9283 -0.8671
 8119SOL     OW35992   2.446   2.142   5.840 -0.3170 -0.1266 -0.1258
 8119SOL    HW135993   2.439   2.074   5.907 -2.5920 -0.4468 -0.7048
 8119SOL    HW235994   2.353   2.160   5.825  0.1466 -0.7812 -3.8414
 8120SOL     OW35995   4.172   2.343  11.106 -0.0845 -0.7454 -0.0214
 8120SOL    HW135996   4.257   2.385  11.125  0.1874 -2.1361  1.8254
 8120SOL    HW235997   4.153   2.350  11.012  0.3430  0.4277 -0.0286
 8121SOL     OW35998   4.385   2.757   2.466 -0.5250 -0.2324 -0.1025
 8121SOL    HW135999   4.471   2.797   2.456 -0.7778  0.5291  0.7509
 8121SOL    HW236000   4.403   2.702   2.542  0.2224  1.5302  1.0145
 8122SOL     OW36001   2.554   1.283   9.667 -0.0251 -0.1958  0.3987
 8122SOL    HW136002   2.534   1.326   9.750 -0.2587 -1.0102  0.7633
 8122SOL    HW236003   2.469   1.250   9.639 -0.7730  0.3132  2.1045
 8123SOL     OW36004   0.650   4.355   5.077 -0.2209  0.1048  0.1093
 8123SOL    HW136005   0.712   4.419   5.044  1.6204 -0.2086  2.9446
 8123SOL    HW236006   0.568   4.359   5.028  1.4889  0.1846 -2.7213
 8124SOL     OW36007   2.463   3.053   6.407  0.0460 -0.2658 -0.0331
 8124SOL    HW136008   2.506   3.075   6.490 -0.8917  0.3812  0.2879
 8124SOL    HW236009   2.418   2.976   6.439  2.4404 -0.9173  1.7987
 8125SOL     OW36010   4.504   4.390   7.955  0.6849  0.0857  0.3874
 8125SOL    HW136011   4.542   4.332   8.022 -2.1039  0.0869  2.0022
 8125SOL    HW236012   4.413   4.360   7.959 -0.0302  1.9769 -2.3578
 8126SOL     OW36013   1.142   0.159   3.220 -0.3449 -0.0274 -0.2446
 8126SOL    HW136014   1.102   0.137   3.304 -1.0284  0.8598 -0.3415
 8126SOL    HW236015   1.231   0.126   3.231 -0.3017 -0.0858 -0.7560
 8127SOL     OW36016   3.877   2.304  14.507 -0.6743 -0.1690 -0.0186
 8127SOL    HW136017   3.847   2.380  14.457  2.2364  1.0469  0.0898
 8127SOL    HW236018   3.795   2.278  14.548 -1.3788  1.1588 -0.5853
 8128SOL     OW36019   0.280   3.516   7.673  0.2011  0.5461 -0.2338
 8128SOL    HW136020   0.338   3.440   7.683 -0.3985  0.2646  1.1520
 8128SOL    HW236021   0.196   3.488   7.709 -0.4564  2.5363 -0.2375
 8129SOL     OW36022   0.337   3.799  10.413  0.4168 -0.0400 -0.6873
 8129SOL    HW136023   0.260   3.747  10.434  0.6667  0.2819  1.0647
 8129SOL    HW236024   0.382   3.792  10.497 -1.4567 -0.8071  0.2547
 8130SOL     OW36025   3.442   0.778   8.526 -0.3129 -0.0483 -0.1144
 8130SOL    HW136026   3.528   0.813   8.501  1.2749 -2.5180  1.8853
 8130SOL    HW236027   3.387   0.855   8.540  2.7727  1.8940  1.4545
 8131SOL     OW36028   0.618   0.966   3.175  0.0902  0.2659 -0.1015
 8131SOL    HW136029   0.603   0.959   3.269 -2.6393  1.0979 -0.4569
 8131SOL    HW236030   0.657   0.880   3.161  0.7149  0.2260  1.9943
 8132SOL     OW36031   0.394   3.459   5.230 -0.1264  0.2258  0.2780
 8132SOL    HW136032   0.359   3.548   5.234 -1.0654 -0.1566  0.5617
 8132SOL    HW236033   0.478   3.485   5.194 -1.0775  1.7931 -0.8006
 8133SOL     OW36034   0.815   0.183   3.169 -0.0867  0.2543 -0.1549
 8133SOL    HW136035   0.821   0.244   3.095  1.5027 -1.6826 -1.6149
 8133SOL    HW236036   0.884   0.121   3.145 -0.7091 -0.2606 -0.5988
 8134SOL     OW36037   3.940   4.151   4.062 -0.2536  0.1740 -0.3474
 8134SOL    HW136038   4.036   4.158   4.061 -0.2041 -0.5143 -0.8423
 8134SOL    HW236039   3.930   4.213   4.134  1.5972  0.4066 -0.2845
 8135SOL     OW36040   0.625   4.583   7.629  0.5087 -0.2494 -0.1516
 8135SOL    HW136041   0.713   4.567   7.596  0.4021  0.0802 -0.6026
 8135SOL    HW236042   0.585   4.500   7.603  1.4393  0.0247 -2.4074
 8136SOL     OW36043   4.535   0.872   7.462  0.2613 -0.4017 -0.1935
 8136SOL    HW136044   4.562   0.932   7.532 -0.6848  2.8304 -2.6123
 8136SOL    HW236045   4.471   0.819   7.509 -0.1164  0.1645 -0.0870
 8137SOL     OW36046   0.993   4.040   6.146  0.4400  0.1703 -0.9473
 8137SOL    HW136047   1.086   4.019   6.146  0.3568 -0.2203  0.7230
 8137SOL    HW236048   0.963   4.001   6.228  0.7886  0.2831 -0.7667
 8138SOL     OW36049   0.047   1.590   8.509  0.3194  0.5885 -0.3966
 8138SOL    HW136050   0.112   1.608   8.577  0.6975 -2.2098 -0.0080
 8138SOL    HW236051   4.736   1.670   8.523  2.8155  2.0735  0.2379
 8139SOL     OW36052   1.198   2.947   2.312  0.4407  0.3042 -0.1569
 8139SOL    HW136053   1.258   2.919   2.381 -1.0964  2.4541  2.0822
 8139SOL    HW236054   1.236   3.029   2.281  2.6607  0.0617  1.9597
 8140SOL     OW36055   3.502   1.205   0.676 -0.3241 -0.0078 -0.0419
 8140SOL    HW136056   3.465   1.257   0.605  0.7326 -0.8178 -1.1796
 8140SOL    HW236057   3.596   1.225   0.668 -0.0539 -0.4172  2.0658
 8141SOL     OW36058   2.510   0.160   9.208 -0.7941 -0.0310  0.0362
 8141SOL    HW136059   2.441   0.179   9.143  0.7721  1.8107 -1.0990
 8141SOL    HW236060   2.533   0.248   9.238  0.2862  0.2087 -1.4639
 8142SOL     OW36061   3.489   0.880   4.283 -0.5031 -0.0883  0.1889
 8142SOL    HW136062   3.539   0.845   4.209 -0.4138  0.2287  0.0999
 8142SOL    HW236063   3.557   0.934   4.322  0.6445 -0.7231 -0.9234
 8143SOL     OW36064   3.491   4.650   4.661 -0.0215  0.1901  0.2514
 8143SOL    HW136065   3.458   4.653   4.751 -1.6329 -0.0308 -0.3253
 8143SOL    HW236066   3.405   4.632   4.622 -0.0560  0.7617  0.0588
 8144SOL     OW36067   3.408   4.441   2.613 -0.1674  0.0632  0.1073
 8144SOL    HW136068   3.352   4.363   2.611  2.3710 -1.7194 -0.4195
 8144SOL    HW236069   3.352   4.508   2.653  0.2913  1.8857 -2.3743
 8145SOL     OW36070   2.262   3.910   6.537 -0.3600  0.1585 -0.0885
 8145SOL    HW136071   2.181   3.888   6.491  0.8284  1.4781 -2.8102
 8145SOL    HW236072   2.232   3.990   6.580  1.1305  1.3833 -1.3122
 8146SOL     OW36073   2.382   2.776   5.684 -0.0626  0.1393 -0.6881
 8146SOL    HW136074   2.305   2.833   5.687 -0.7918 -0.9041  0.1870
 8146SOL    HW236075   2.448   2.845   5.678 -0.5124  0.4996 -1.5378
 8147SOL     OW36076   0.035   2.935   3.061  0.0835 -0.6173  0.2931
 8147SOL    HW136077   0.084   2.991   3.121 -0.3279 -2.2056  2.1032
 8147SOL    HW236078   4.709   2.998   3.031 -1.7621 -1.2174  3.0690
 8148SOL     OW36079   4.390   1.097   4.523  0.3518 -0.0179 -0.1290
 8148SOL    HW136080   4.413   1.055   4.441 -0.4346 -0.0361 -0.3423
 8148SOL    HW236081   4.421   1.186   4.508  0.8688 -0.0019  1.0148
 8149SOL     OW36082   1.695   1.058   0.425 -0.1704 -0.2635 -0.1499
 8149SOL    HW136083   1.739   1.048   0.341  2.3274 -0.8271  1.2269
 8149SOL    HW236084   1.691   0.970   0.463 -0.2267  0.0649  0.6161
 8150SOL     OW36085   3.651   1.055   6.659 -0.2771  0.2037 -0.3534
 8150SOL    HW136086   3.640   1.041   6.565  0.5677 -0.5808 -0.3394
 8150SOL    HW236087   3.596   1.134   6.667  0.6974  0.8625 -0.2170
 8151SOL     OW36088   2.490   4.237   4.819 -0.6748 -0.4492  0.6425
 8151SOL    HW136089   2.534   4.293   4.883  1.4195 -2.6227  1.1152
 8151SOL    HW236090   2.540   4.157   4.834 -1.4076 -0.8171  1.1288
 8152SOL     OW36091   2.441   0.791   9.179  0.2676 -0.3664  0.0109
 8152SOL    HW136092   2.510   0.843   9.219 -1.1052 -0.7007  2.8672
 8152SOL    HW236093   2.449   0.698   9.199 -1.4888 -0.5764 -0.2014
 8153SOL     OW36094   3.068   3.533  13.619  0.5359 -0.1570  0.0700
 8153SOL    HW136095   3.038   3.588  13.546  1.7121 -0.5290 -0.7020
 8153SOL    HW236096   3.121   3.591  13.673  1.6726 -0.2464 -0.9360
 8154SOL     OW36097   3.247   2.948  16.630 -0.2338  0.3275 -0.5119
 8154SOL    HW136098   3.260   2.884  16.701  0.8401  1.0808 -0.0279
 8154SOL    HW236099   3.239   2.892  16.553 -1.0153 -1.3500  0.7727
 8155SOL     OW36100   4.125   4.617  12.396 -0.0695 -0.2350 -0.1098
 8155SOL    HW136101   4.051   4.638  12.340  1.1331 -1.4118 -2.1311
 8155SOL    HW236102   4.100   4.527  12.414 -1.4380  0.1294 -0.2465
 8156SOL     OW36103   2.934   3.956   4.390 -0.0523 -0.9187  0.1649
 8156SOL    HW136104   2.929   3.898   4.314 -0.2883 -0.7720  0.0724
 8156SOL    HW236105   3.029   3.962   4.399  0.1721  1.5195 -3.8005
 8157SOL     OW36106   2.404   2.774  17.729  0.3139  0.2147  0.6468
 8157SOL    HW136107   2.401   2.804  17.638  3.5759  0.5804  0.6861
 8157SOL    HW236108   2.493   2.754  17.754  1.7448  1.9767 -2.9696
 8158SOL     OW36109   1.647   2.573  17.018  0.4406 -0.1488 -0.0486
 8158SOL    HW136110   1.730   2.610  16.989  0.1793  0.5430  0.0904
 8158SOL    HW236111   1.628   2.652  17.068 -1.5988 -0.1864 -0.7692
 8159SOL     OW36112   4.338   3.193   3.184  0.0737 -0.1620 -0.0416
 8159SOL    HW136113   4.274   3.133   3.221  1.3387 -1.8773 -0.6099
 8159SOL    HW236114   4.354   3.162   3.094 -0.3946 -1.7582  0.4312
 8160SOL     OW36115   1.153   4.489   7.985 -0.7099 -0.0260 -0.5213
 8160SOL    HW136116   1.098   4.554   8.028 -0.4922 -0.6521  0.7147
 8160SOL    HW236117   1.236   4.488   8.034 -1.1909 -3.7902  0.1810
 8161SOL     OW36118   3.756   2.011   2.144 -0.4389 -0.1254 -0.3050
 8161SOL    HW136119   3.703   2.086   2.172 -0.1499 -0.4425  1.1092
 8161SOL    HW236120   3.826   2.060   2.100  0.1389  0.1215  0.8994
 8162SOL     OW36121   2.234   0.797   3.021  0.0764  0.2990 -0.0986
 8162SOL    HW136122   2.223   0.832   2.933  2.3395  0.1345 -0.4330
 8162SOL    HW236123   2.317   0.751   3.017  0.6916  1.6796 -2.7073
 8163SOL     OW36124   4.595   1.519   5.116 -0.1727  0.1163 -0.4284
 8163SOL    HW136125   4.582   1.425   5.128 -2.8848  0.6893  1.0065
 8163SOL    HW236126   4.521   1.543   5.060 -2.7726 -0.7124  2.6554
 8164SOL     OW36127   4.578   3.089   9.153 -0.1095 -0.2041  0.2791
 8164SOL    HW136128   4.537   3.015   9.107 -1.0760 -0.1069  1.0081
 8164SOL    HW236129   4.667   3.054   9.162 -0.4849 -0.9282  1.2022
 8165SOL     OW36130   2.985   3.020   9.789  0.3197  0.0862  0.5492
 8165SOL    HW136131   2.962   3.113   9.788 -0.7742 -0.1983 -0.2908
 8165SOL    HW236132   3.079   3.033   9.783 -0.0503  2.3273 -0.3251
 8166SOL     OW36133   2.436   2.279   4.816 -0.7714 -0.4982 -0.3386
 8166SOL    HW136134   2.464   2.216   4.750 -0.3195  0.5764 -1.1856
 8166SOL    HW236135   2.359   2.315   4.772 -0.0791  0.8632 -0.4523
 8167SOL     OW36136   0.703   3.457   2.079  0.2459 -0.3430  0.3828
 8167SOL    HW136137   0.729   3.400   2.007  1.3633 -0.6881  1.0523
 8167SOL    HW236138   0.736   3.414   2.158  3.6447 -0.0960 -0.9083
 8168SOL     OW36139   3.995   3.571   9.429 -0.3426  0.8155 -0.1444
 8168SOL    HW136140   3.932   3.622   9.378 -2.0357 -1.0699  0.0828
 8168SOL    HW236141   4.041   3.532   9.355 -3.3483  0.8067 -1.9798
 8169SOL     OW36142   0.658   2.049   2.643 -0.2467  0.2754 -0.7500
 8169SOL    HW136143   0.708   2.011   2.715 -0.8942 -0.2411 -0.5809
 8169SOL    HW236144   0.578   1.997   2.640 -1.9933  2.9244  0.6521
 8170SOL     OW36145   3.403   0.029   7.515 -0.6612  0.2872 -0.8297
 8170SOL    HW136146   3.411   0.123   7.499  0.2358  0.3007 -0.3073
 8170SOL    HW236147   3.367   0.009   7.429 -1.8332  0.7328 -0.4494
 8171SOL     OW36148   3.400   3.905  10.819  0.2921  0.5192  0.0348
 8171SOL    HW136149   3.372   3.816  10.839 -3.0091  1.4352 -0.5286
 8171SOL    HW236150   3.470   3.896  10.754 -0.4111 -2.6134 -0.2498
 8172SOL     OW36151   1.270   2.623   3.294 -0.3912 -0.6009  0.3288
 8172SOL    HW136152   1.341   2.576   3.250 -0.1678 -0.5806  0.6659
 8172SOL    HW236153   1.202   2.555   3.293 -1.0444  0.0696 -0.9124
 8173SOL     OW36154   1.286   0.749   9.564 -0.3684 -0.2656  0.1186
 8173SOL    HW136155   1.212   0.798   9.601 -0.7424 -1.4966  0.9743
 8173SOL    HW236156   1.340   0.815   9.520  0.5574 -0.0156  1.6086
 8174SOL     OW36157   4.255   0.187   5.816 -0.2535 -0.0828 -0.5289
 8174SOL    HW136158   4.321   0.154   5.876  0.2555  0.6604 -0.6661
 8174SOL    HW236159   4.237   0.117   5.753 -1.5414  0.8273 -1.1739
 8175SOL     OW36160   4.430   3.953   5.894  0.5066 -0.2106 -0.3914
 8175SOL    HW136161   4.487   4.029   5.886 -1.8229  1.6469  0.6908
 8175SOL    HW236162   4.419   3.942   5.800  1.3411 -1.6651 -0.3344
 8176SOL     OW36163   4.273   1.225   1.424  0.3007 -0.5487 -0.2771
 8176SOL    HW136164   4.288   1.194   1.335  0.7027  3.1122 -1.4635
 8176SOL    HW236165   4.342   1.291   1.433 -0.5466 -0.2425  3.9522
 8177SOL     OW36166   3.685   4.360   8.328  0.3213  0.5115  0.4631
 8177SOL    HW136167   3.693   4.445   8.285 -1.1063 -0.1951 -1.1946
 8177SOL    HW236168   3.601   4.329   8.295 -0.0261  1.3515  0.5719
 8178SOL     OW36169   4.171   2.827  12.182 -0.3866  0.0475 -0.0980
 8178SOL    HW136170   4.115   2.814  12.258  2.3873  1.1427  2.1575
 8178SOL    HW236171   4.141   2.909  12.144 -0.8696 -0.0494  0.0833
 8179SOL     OW36172   1.247   1.177   3.702  0.1854 -0.6458  0.1543
 8179SOL    HW136173   1.252   1.092   3.745 -4.4733 -0.6974  0.5891
 8179SOL    HW236174   1.332   1.177   3.657 -0.1919 -0.4795 -0.5651
 8180SOL     OW36175   3.630   4.075   6.652 -0.2566  0.2876 -0.0019
 8180SOL    HW136176   3.628   3.993   6.602  0.5483 -1.1304  2.3145
 8180SOL    HW236177   3.584   4.039   6.728  0.6764 -1.4804 -0.2589
 8181SOL     OW36178   3.204   3.009   2.442 -0.1196  0.3722  0.5400
 8181SOL    HW136179   3.270   3.042   2.504  1.1985 -0.1551 -0.5771
 8181SOL    HW236180   3.123   3.005   2.493  0.0299 -2.2052  0.6063
 8182SOL     OW36181   3.953   2.639   8.712 -0.0946  0.1571  0.5311
 8182SOL    HW136182   4.047   2.643   8.696  0.5628 -2.8312  3.6706
 8182SOL    HW236183   3.936   2.550   8.681 -2.7625  1.1669 -0.9218
 8183SOL     OW36184   3.526   3.352   1.854 -0.0563 -0.5481 -0.2820
 8183SOL    HW136185   3.581   3.276   1.838 -0.9638 -1.7910  2.4720
 8183SOL    HW236186   3.578   3.428   1.829 -0.6562 -0.6441 -1.8129
 8184SOL     OW36187   1.824   1.798   6.456 -0.0380  0.2090  0.1853
 8184SOL    HW136188   1.750   1.827   6.508  0.1938 -0.4010  0.8623
 8184SOL    HW236189   1.835   1.880   6.408 -0.1798 -0.4687 -0.9882
 8185SOL     OW36190   0.933   2.516   3.770  0.3825  0.0153  0.6130
 8185SOL    HW136191   0.854   2.466   3.749 -0.3318  1.1935  0.4789
 8185SOL    HW236192   0.895   2.576   3.833  0.4995  1.4631 -0.6993
 8186SOL     OW36193   1.271   3.570   4.811 -0.1636  0.1755  0.2178
 8186SOL    HW136194   1.237   3.554   4.899  0.4340 -1.6751  0.1246
 8186SOL    HW236195   1.234   3.492   4.769 -0.8311  0.6931 -0.1530
 8187SOL     OW36196   4.441   4.695   2.204 -0.1298 -0.1927 -0.3083
 8187SOL    HW136197   4.517   0.000   2.240 -0.3376  0.9288 -1.2782
 8187SOL    HW236198   4.480   4.612   2.179 -0.0155 -0.1755 -0.1842
 8188SOL     OW36199   3.402   0.110   8.496 -0.0911 -0.9926  0.0451
 8188SOL    HW136200   3.402   0.015   8.491  0.5249 -0.9876 -0.0669
 8188SOL    HW236201   3.462   0.118   8.571  0.0093  2.0497 -0.3481
 8189SOL     OW36202   1.905   1.965   9.600  0.5247  0.0514  0.2408
 8189SOL    HW136203   1.960   2.032   9.641 -1.0315  0.7214  1.2252
 8189SOL    HW236204   1.876   1.916   9.677 -1.4272  1.2572  0.2814
 8190SOL     OW36205   4.014   2.541   7.650 -0.1675 -0.1929 -0.1058
 8190SOL    HW136206   3.928   2.508   7.675 -0.2274 -1.8176 -2.4091
 8190SOL    HW236207   3.993   2.566   7.560 -1.1167 -2.1682 -0.4322
 8191SOL     OW36208   0.889   1.215   3.659  0.1409  0.2780  0.9756
 8191SOL    HW136209   0.955   1.234   3.593 -0.9423 -0.2618 -0.2571
 8191SOL    HW236210   0.828   1.289   3.661  1.3409  1.2513  1.0230
 8192SOL     OW36211   0.557   1.935   6.387 -0.1416 -0.6472 -0.4062
 8192SOL    HW136212   0.496   1.949   6.314 -0.1855 -0.3444 -0.3120
 8192SOL    HW236213   0.634   1.972   6.345  0.2976 -2.7592 -1.4405
 8193SOL     OW36214   2.879   3.680  10.178 -0.3119  0.0700 -0.3651
 8193SOL    HW136215   2.942   3.673  10.250 -0.4443 -2.1348 -0.4722
 8193SOL    HW236216   2.937   3.659  10.105 -2.0961 -0.9548 -1.4753
 8194SOL     OW36217   1.807   1.664  17.077 -0.4068  0.0205  0.6407
 8194SOL    HW136218   1.787   1.700  16.990 -0.8251 -2.0791 -0.1416
 8194SOL    HW236219   1.764   1.579  17.064 -0.5949 -0.1818  2.5545
 8195SOL     OW36220   1.852   2.655   9.935  0.2934 -0.3474  0.3871
 8195SOL    HW136221   1.817   2.576   9.892  0.6006  0.0218 -0.5409
 8195SOL    HW236222   1.772   2.707   9.933  1.7832  1.9660  0.7032
 8196SOL     OW36223   2.532   0.006   2.747 -0.3001  0.3725  0.4967
 8196SOL    HW136224   2.475   4.703   2.810 -1.7920  1.1880 -0.3060
 8196SOL    HW236225   2.464   0.063   2.711  0.8059 -0.3741 -2.8066
 8197SOL     OW36226   3.661   2.243   2.260  0.3479  0.1017 -0.0768
 8197SOL    HW136227   3.712   2.310   2.306  0.2443  0.4821 -0.5092
 8197SOL    HW236228   3.572   2.274   2.275  0.7032  0.8270  0.5029
 8198SOL     OW36229   0.630   2.380   5.580 -0.0854  0.6193 -0.3734
 8198SOL    HW136230   0.591   2.385   5.493  0.4428  2.9402 -0.4771
 8198SOL    HW236231   0.560   2.347   5.637  0.8033 -1.8276 -0.6963
 8199SOL     OW36232   4.108   0.474   9.036  0.1529  0.3472 -0.2544
 8199SOL    HW136233   4.147   0.388   9.023  1.6432  1.1134 -0.8836
 8199SOL    HW236234   4.014   0.471   9.019  0.0655  0.7498  0.1435
 8200SOL     OW36235   3.989   4.369  14.431 -0.2578 -0.1614  0.9941
 8200SOL    HW136236   4.056   4.376  14.499 -0.0576 -2.4943  1.0453
 8200SOL    HW236237   3.948   4.455  14.435 -0.3802 -0.1718 -0.1680
 8201SOL     OW36238   3.172   4.672   2.680 -0.6526 -0.2572  0.0245
 8201SOL    HW136239   3.128   0.017   2.682 -0.8913 -0.3956  0.6752
 8201SOL    HW236240   3.181   4.657   2.774 -1.8065  1.8437  0.4581
 8202SOL     OW36241   1.084   0.570  13.820  0.0140 -0.0320  0.1183
 8202SOL    HW136242   1.169   0.552  13.781  0.4198  0.1089  0.9412
 8202SOL    HW236243   1.091   0.500  13.885 -0.0973 -0.1939 -0.0455
 8203SOL     OW36244   4.326   0.763   5.001  0.0566  0.3834 -0.0967
 8203SOL    HW136245   4.285   0.744   5.085  0.4595  1.3920  0.3283
 8203SOL    HW236246   4.367   0.678   4.985  0.9401  0.6655  0.7399
 8204SOL     OW36247   2.474   0.106   4.473 -0.3600 -0.3286  0.3979
 8204SOL    HW136248   2.527   0.046   4.421  0.2213 -0.2802  0.9323
 8204SOL    HW236249   2.391   0.059   4.473 -0.2711 -0.4778 -1.1786
 8205SOL     OW36250   0.428   1.538   3.271 -0.7234 -0.1679  0.0969
 8205SOL    HW136251   0.414   1.483   3.194  1.6706 -0.6366  0.0036
 8205SOL    HW236252   0.341   1.534   3.310 -1.1400 -0.6359 -0.8691
 8206SOL     OW36253   1.086   0.175  17.253 -0.0005 -0.4662  0.3869
 8206SOL    HW136254   1.071   0.267  17.230  0.1827 -0.7988 -1.0667
 8206SOL    HW236255   1.146   0.193  17.326 -0.6927  3.0373  0.1086
 8207SOL     OW36256   2.207   1.355   8.772  0.1268 -0.2829  0.6412
 8207SOL    HW136257   2.117   1.328   8.792 -1.0866  2.2243 -1.3290
 8207SOL    HW236258   2.259   1.306   8.836 -0.4599 -0.4770  0.9697
 8208SOL     OW36259   0.768   3.897  10.901  0.0915 -0.0257  0.0551
 8208SOL    HW136260   0.705   3.911  10.830  1.0352  3.6441 -0.0923
 8208SOL    HW236261   0.849   3.883  10.851  0.1470  0.9053 -0.1277
 8209SOL     OW36262   2.097   3.015  15.427  0.3206 -0.1786  0.2508
 8209SOL    HW136263   2.117   2.923  15.412  0.1401 -0.9745  5.0542
 8209SOL    HW236264   2.020   3.033  15.373  0.1560 -3.2119 -0.5363
 8210SOL     OW36265   2.573   4.659   4.286  0.3649 -0.1238 -0.1718
 8210SOL    HW136266   2.590   4.565   4.286 -1.3561 -0.4382  1.4000
 8210SOL    HW236267   2.533   4.679   4.202 -1.4250 -0.3344  0.6280
 8211SOL     OW36268   0.236   3.587   6.917 -0.1161 -0.0519 -0.1591
 8211SOL    HW136269   0.284   3.612   6.997  0.8968 -0.4209 -0.6498
 8211SOL    HW236270   0.294   3.622   6.849  2.3485 -3.9022 -0.0511
 8212SOL     OW36271   4.088   4.519   6.182  0.3809 -0.0037  0.2492
 8212SOL    HW136272   4.166   4.518   6.238  0.8810  1.4252 -0.4302
 8212SOL    HW236273   4.075   4.613   6.191  1.2355 -0.0431  1.8871
 8213SOL     OW36274   0.240   3.559  14.685 -0.1482 -0.1542  0.6650
 8213SOL    HW136275   0.179   3.627  14.713 -1.2708 -1.3327  1.0706
 8213SOL    HW236276   0.312   3.608  14.645 -2.2072  2.2818 -0.0352
 8214SOL     OW36277   2.054   0.965   6.573  0.4669  0.7223  0.7791
 8214SOL    HW136278   2.056   1.007   6.659 -0.3398 -0.2628  1.2763
 8214SOL    HW236279   1.985   1.009   6.522  0.6488  0.8149  0.6105
 8215SOL     OW36280   3.609   3.025   5.890  0.3047  0.2768 -0.3001
 8215SOL    HW136281   3.519   2.992   5.884  0.4847  0.1407 -2.4392
 8215SOL    HW236282   3.635   2.995   5.802  1.2068 -1.1839  0.4577
 8216SOL     OW36283   2.084   2.812   2.015 -0.3127  0.0259 -0.8080
 8216SOL    HW136284   2.133   2.731   2.028  2.0895  1.5862  0.0760
 8216SOL    HW236285   2.149   2.882   2.005  0.1506 -0.2002  0.6043
 8217SOL     OW36286   3.013   4.625  10.530  0.6358 -0.1970 -0.5175
 8217SOL    HW136287   3.026   4.550  10.588  3.6815  1.2214  0.6413
 8217SOL    HW236288   3.008   4.577  10.448 -2.1045 -1.9573  0.6684
 8218SOL     OW36289   2.032   1.941   7.707  0.1742  0.1776 -0.5512
 8218SOL    HW136290   1.997   1.978   7.788 -1.6228 -0.3261 -1.1001
 8218SOL    HW236291   2.126   1.953   7.714  0.0530 -0.0872  1.3033
 8219SOL     OW36292   1.047   0.637  12.571 -0.2098  0.0794  0.9183
 8219SOL    HW136293   1.068   0.579  12.644  3.2892  2.1773  1.6284
 8219SOL    HW236294   1.093   0.715  12.604 -0.5625  0.3329  0.8058
 8220SOL     OW36295   1.315   2.474   9.168 -0.2421 -0.4691  0.1515
 8220SOL    HW136296   1.375   2.509   9.234  2.8973 -1.7276 -2.0688
 8220SOL    HW236297   1.353   2.391   9.138  0.0347  0.5741 -2.3854
 8221SOL     OW36298   3.447   4.618   2.015  0.1569 -0.0389 -0.1410
 8221SOL    HW136299   3.479   4.650   1.930 -0.4504  0.2262 -0.2677
 8221SOL    HW236300   3.357   4.590   2.005  0.2009 -0.6733  1.2474
 8222SOL     OW36301   0.556   2.542   7.739 -0.1533 -0.8486  0.3903
 8222SOL    HW136302   0.558   2.458   7.692 -0.1429 -0.1912 -0.7939
 8222SOL    HW236303   0.633   2.537   7.795  1.0349  1.0872 -1.0813
 8223SOL     OW36304   4.324   1.113   2.609 -0.1602  0.4965  0.1456
 8223SOL    HW136305   4.329   1.076   2.697 -2.5806  0.9496  0.4568
 8223SOL    HW236306   4.237   1.079   2.589 -0.1072  0.6447 -0.3402
 8224SOL     OW36307   2.220   2.922   8.811  0.5031 -0.5804  0.0943
 8224SOL    HW136308   2.241   2.996   8.869  1.8079 -1.6324  0.9744
 8224SOL    HW236309   2.261   2.844   8.846 -1.7399 -1.0210  1.7055
 8225SOL     OW36310   0.958   2.862  15.966  0.2306  0.5993 -0.8122
 8225SOL    HW136311   0.950   2.820  15.880 -0.0963  1.3994 -1.1728
 8225SOL    HW236312   0.978   2.952  15.941 -0.5258  1.2646  0.9543
 8226SOL     OW36313   1.548   1.554   9.325 -0.6652 -0.4313 -0.2602
 8226SOL    HW136314   1.554   1.470   9.280  0.5747  0.1593 -1.1736
 8226SOL    HW236315   1.614   1.615   9.292 -0.4581 -0.2846  0.4225
 8227SOL     OW36316   1.847   2.810   8.031  0.5033  0.3638 -0.2410
 8227SOL    HW136317   1.795   2.857   8.097 -0.6107 -2.1137  0.6665
 8227SOL    HW236318   1.783   2.792   7.963  0.9343 -0.4299 -0.4362
 8228SOL     OW36319   4.126   3.254   2.861  0.1361 -0.4233 -0.1233
 8228SOL    HW136320   4.102   3.308   2.937 -0.3479  2.4006 -2.2942
 8228SOL    HW236321   4.037   3.236   2.830 -0.4260  1.8653  0.1705
 8229SOL     OW36322   0.807   1.969   4.170  0.1099 -0.0766  0.2481
 8229SOL    HW136323   0.896   1.995   4.196 -0.1590  1.2866 -0.2066
 8229SOL    HW236324   0.815   1.874   4.161 -0.0501 -0.1114  0.4887
 8230SOL     OW36325   2.140   2.335   9.322  0.1321  0.5808 -0.2506
 8230SOL    HW136326   2.221   2.283   9.322  1.7899  3.1438 -0.1260
 8230SOL    HW236327   2.101   2.315   9.237  2.4846 -0.2111 -1.1601
 8231SOL     OW36328   0.679   2.097   7.844 -0.6838  0.2844 -0.6693
 8231SOL    HW136329   0.773   2.114   7.839 -0.4981 -0.6178 -0.1624
 8231SOL    HW236330   0.650   2.183   7.872  1.2258 -0.0753  2.3862
 8232SOL     OW36331   3.811   1.644  17.478  0.9259  0.2571 -0.3377
 8232SOL    HW136332   3.870   1.664  17.406  0.7578  0.0106 -0.5445
 8232SOL    HW236333   3.806   1.728  17.522 -0.3537  0.8698 -1.6558
 8233SOL     OW36334   4.638   1.623   3.342  0.5640 -0.5795  0.0742
 8233SOL    HW136335   4.552   1.659   3.362  0.2512 -0.9469 -0.6251
 8233SOL    HW236336   4.630   1.535   3.379  0.3184 -0.3164  0.6326
 8234SOL     OW36337   4.363   0.599   0.693 -0.2720  0.6360 -0.2614
 8234SOL    HW136338   4.349   0.690   0.665 -0.4644  0.7659  0.2374
 8234SOL    HW236339   4.449   0.609   0.735 -0.1206  1.6609 -0.8046
 8235SOL     OW36340   1.446   4.449   0.610  0.1370 -0.2810 -0.1732
 8235SOL    HW136341   1.529   4.494   0.627 -0.7568  0.9942  0.8394
 8235SOL    HW236342   1.413   4.434   0.698 -1.0237  1.0210 -0.3805
 8236SOL     OW36343   1.892   4.480   5.673 -0.4358  0.2497  0.0619
 8236SOL    HW136344   1.976   4.443   5.698  0.3012  1.1836 -1.0346
 8236SOL    HW236345   1.834   4.440   5.737 -0.3900 -1.8292 -1.2009
 8237SOL     OW36346   4.289   2.775   7.163 -0.3958  0.4441  0.3643
 8237SOL    HW136347   4.359   2.742   7.219 -2.0041 -0.7027  1.6817
 8237SOL    HW236348   4.311   2.732   7.080 -0.6120  0.9098  0.0646
 8238SOL     OW36349   4.231   4.361   1.723  0.1586 -0.9670  0.4685
 8238SOL    HW136350   4.245   4.423   1.794 -3.1920 -1.1078  1.2849
 8238SOL    HW236351   4.135   4.354   1.721  0.2147 -1.2661 -0.8697
 8239SOL     OW36352   2.305   1.872   2.504 -0.8120 -0.7934 -0.0107
 8239SOL    HW136353   2.234   1.839   2.449 -1.4130  1.4675 -0.5857
 8239SOL    HW236354   2.343   1.785   2.514  2.6027  0.6117 -0.6133
 8240SOL     OW36355   2.665   1.836   3.846 -0.0328 -0.3042  0.4120
 8240SOL    HW136356   2.608   1.912   3.837  0.7985  0.0585 -1.6830
 8240SOL    HW236357   2.662   1.809   3.938  0.2523 -0.6680  0.3150
 8241SOL     OW36358   2.585   1.518   6.423 -0.4459 -0.9658 -0.9026
 8241SOL    HW136359   2.578   1.428   6.390  2.4266 -1.5328 -0.0353
 8241SOL    HW236360   2.503   1.531   6.470 -0.2924 -0.0897 -0.8788
 8242SOL     OW36361   1.156   1.520  11.555  0.2291  0.1941  0.1791
 8242SOL    HW136362   1.067   1.552  11.567  0.4423 -0.3843  3.5247
 8242SOL    HW236363   1.198   1.606  11.554  1.2157 -0.2930 -0.0865
 8243SOL     OW36364   0.745   4.298   7.824  0.0864  0.0028  0.3033
 8243SOL    HW136365   0.703   4.330   7.745 -0.1682 -1.4555 -0.1638
 8243SOL    HW236366   0.746   4.203   7.807  0.1397  0.3793 -1.7347
 8244SOL     OW36367   4.129   3.188   4.614 -0.6883 -0.1525  0.1438
 8244SOL    HW136368   4.046   3.144   4.594 -1.9783  1.1905  2.4695
 8244SOL    HW236369   4.082   3.268   4.640  0.4497  0.8250 -0.8405
 8245SOL     OW36370   1.971   2.462   6.326 -0.2343 -0.5479  0.3556
 8245SOL    HW136371   1.936   2.507   6.404 -1.5537 -0.4303 -0.2933
 8245SOL    HW236372   1.917   2.494   6.253 -0.5099  0.0672  0.8239
 8246SOL     OW36373   2.268   4.116   3.262  0.7679  0.0341 -0.3419
 8246SOL    HW136374   2.247   4.035   3.310 -1.0746  1.1194  0.6942
 8246SOL    HW236375   2.292   4.083   3.175  1.1060  0.0756 -0.2624
 8247SOL     OW36376   2.051   2.509   0.880 -0.0551  0.1462 -0.1504
 8247SOL    HW136377   2.004   2.461   0.812 -1.0729  0.9427 -0.0140
 8247SOL    HW236378   1.978   2.537   0.936 -1.2638  0.0828 -1.6967
 8248SOL     OW36379   0.125   3.762   4.699 -0.1126 -0.3502  0.2055
 8248SOL    HW136380   0.035   3.794   4.709 -0.3342 -0.5616 -1.1408
 8248SOL    HW236381   0.111   3.671   4.673  1.5555 -0.6821  0.4213
 8249SOL     OW36382   3.859   1.464   4.641  0.0723  0.2030 -0.4909
 8249SOL    HW136383   3.819   1.421   4.716  0.7797 -1.1795 -0.8955
 8249SOL    HW236384   3.794   1.472   4.571 -2.6693 -1.2119  1.9091
 8250SOL     OW36385   2.481   2.272   9.086 -0.1015 -0.3803 -0.7203
 8250SOL    HW136386   2.477   2.193   9.141  2.3428 -1.1161 -1.5949
 8250SOL    HW236387   2.575   2.291   9.091  0.0101 -1.5598  1.6781
 8251SOL     OW36388   3.464   2.317   8.966  0.1908 -0.3424  0.0230
 8251SOL    HW136389   3.545   2.283   8.928  0.7397  1.2926 -0.2702
 8251SOL    HW236390   3.491   2.343   9.054  2.7817 -0.3352 -0.7913
 8252SOL     OW36391   3.001   2.983   5.733 -0.0579  0.6495 -0.1142
 8252SOL    HW136392   2.995   3.074   5.701 -0.0948  1.9998  3.7655
 8252SOL    HW236393   3.025   2.997   5.824  0.3637  0.8672 -0.2553
 8253SOL     OW36394   2.133   2.565   2.882  0.1954 -0.3728  0.6660
 8253SOL    HW136395   2.131   2.602   2.793  0.0405  0.4495  1.0041
 8253SOL    HW236396   2.109   2.474   2.867 -0.5106 -0.1725  0.5577
 8254SOL     OW36397   4.462   0.498   8.583 -0.0398 -0.2264  0.1946
 8254SOL    HW136398   4.407   0.541   8.649  0.7644  0.4473  0.4221
 8254SOL    HW236399   4.431   0.411   8.607 -1.7729  0.7439  1.5117
 8255SOL     OW36400   4.403   0.805   3.258 -0.2698  1.1569  0.0562
 8255SOL    HW136401   4.320   0.847   3.281  0.3872  1.9615  0.9081
 8255SOL    HW236402   4.419   0.831   3.167  2.1241 -3.1006 -0.7832
 8256SOL     OW36403   4.297   2.380  10.366  0.3531 -0.2787 -1.1139
 8256SOL    HW136404   4.221   2.362  10.310 -0.4659  0.2640 -0.1773
 8256SOL    HW236405   4.370   2.328  10.332  2.1802  1.0863  0.6584
 8257SOL     OW36406   0.520   2.804  11.658 -0.0953 -0.3717 -0.3911
 8257SOL    HW136407   0.579   2.764  11.594  3.3340  1.7571  1.4165
 8257SOL    HW236408   0.588   2.855  11.702 -0.8979  0.6973 -0.3886
 8258SOL     OW36409   3.687   2.714   4.730 -0.5689 -0.5344  0.5251
 8258SOL    HW136410   3.717   2.788   4.783  0.8396 -0.7366  0.0002
 8258SOL    HW236411   3.762   2.695   4.673  0.2946  0.6346  1.2756
 8259SOL     OW36412   2.970   2.728   8.953  0.2767 -0.5004  0.0881
 8259SOL    HW136413   3.061   2.757   8.954 -0.6337  2.3265  2.0453
 8259SOL    HW236414   2.935   2.735   8.864 -1.1964  1.9644  0.8426
 8260SOL     OW36415   1.441   1.121   7.733  0.2690 -0.2519 -0.0137
 8260SOL    HW136416   1.403   1.171   7.805  1.2536 -0.1349  0.4251
 8260SOL    HW236417   1.437   1.192   7.669  1.3270  1.5853  1.9512
 8261SOL     OW36418   3.674   3.810   4.029  0.2425  0.0003 -0.4914
 8261SOL    HW136419   3.644   3.886   3.979  0.2253 -0.2738 -0.8948
 8261SOL    HW236420   3.655   3.748   3.959 -0.3841 -0.7511  0.3496
 8262SOL     OW36421   0.155   2.470   4.884 -0.8876  0.0077  0.1720
 8262SOL    HW136422   0.240   2.426   4.887 -0.3147  1.1524  0.7526
 8262SOL    HW236423   0.173   2.550   4.934 -0.0461 -1.0083  1.4930
 8263SOL     OW36424   1.922   2.673   0.107 -0.2897  0.1764  0.2580
 8263SOL    HW136425   1.854   2.704   0.166  0.1314  0.1555  0.7540
 8263SOL    HW236426   1.991   2.686   0.172  0.2432  0.7885 -0.4229
 8264SOL     OW36427   2.931   1.498   3.710 -0.3798 -0.3815  0.2607
 8264SOL    HW136428   2.981   1.466   3.786 -0.7432 -0.6502  0.3818
 8264SOL    HW236429   2.995   1.494   3.639  0.3485 -0.7924  0.9373
 8265SOL     OW36430   0.246   3.054  11.094 -0.8825 -0.4339  0.1683
 8265SOL    HW136431   0.216   3.127  11.040 -0.9384  0.7127  1.7355
 8265SOL    HW236432   0.323   3.096  11.133  0.7109 -1.3574 -1.9757
 8266SOL     OW36433   3.000   3.272  13.885  0.1342  0.1751 -0.0821
 8266SOL    HW136434   3.013   3.178  13.894 -1.8914  0.1173  2.3293
 8266SOL    HW236435   2.981   3.275  13.791 -0.2082 -0.7159 -0.0306
 8267SOL     OW36436   3.335   1.808   3.712  0.0002 -0.0488  1.0953
 8267SOL    HW136437   3.287   1.810   3.795  0.5717 -0.1137  1.4334
 8267SOL    HW236438   3.260   1.822   3.655  1.1991 -1.1939 -0.7429
 8268SOL     OW36439   2.605   3.113  13.609  0.4363 -0.1412 -0.3479
 8268SOL    HW136440   2.639   3.133  13.521  3.3196 -1.0871  0.5645
 8268SOL    HW236441   2.591   3.018  13.612 -1.6610  0.1231 -1.1083
 8269SOL     OW36442   0.918   0.628   9.474  0.1231 -0.0515  0.0351
 8269SOL    HW136443   0.938   0.721   9.465 -0.2512  0.3788  3.3542
 8269SOL    HW236444   0.970   0.596   9.401 -1.6611 -0.1405 -1.1916
 8270SOL     OW36445   4.562   0.165  13.183 -0.3749 -0.9180 -0.3277
 8270SOL    HW136446   4.484   0.116  13.209 -2.3228  0.9805 -2.5541
 8270SOL    HW236447   4.527   0.223  13.115  1.0339  1.1092  0.6834
 8271SOL     OW36448   4.533   3.771   6.511 -0.3920 -0.1087 -0.1046
 8271SOL    HW136449   4.455   3.739   6.555 -0.3553 -0.5466 -0.3525
 8271SOL    HW236450   4.610   3.745   6.561 -0.6217 -0.1969  0.1993
 8272SOL     OW36451   0.615   3.941  16.323 -0.8102 -0.9988  0.0983
 8272SOL    HW136452   0.613   3.990  16.406  1.1379  1.5178 -1.3268
 8272SOL    HW236453   0.683   3.978  16.267 -0.6540  0.6426  1.3678
 8273SOL     OW36454   4.160   3.566   1.991 -0.8066  0.2349  0.5910
 8273SOL    HW136455   4.200   3.644   2.028 -0.4138  0.8121 -1.0547
 8273SOL    HW236456   4.135   3.509   2.064 -0.5649 -1.6214 -0.7691
 8274SOL     OW36457   1.116   1.829   5.639  0.4245 -0.5150  0.4688
 8274SOL    HW136458   1.171   1.753   5.656  0.7646  0.0802  1.9866
 8274SOL    HW236459   1.170   1.894   5.593  1.2255 -1.5449 -0.0515
 8275SOL     OW36460   0.006   1.762   6.549 -0.6447 -0.4962 -0.2814
 8275SOL    HW136461   0.023   1.730   6.637  1.5122 -0.6347 -0.7444
 8275SOL    HW236462   0.088   1.793   6.510 -0.3402 -0.8940  0.0534
 8276SOL     OW36463   1.277   0.054   5.050 -0.1491 -0.1314 -0.0528
 8276SOL    HW136464   1.239   0.040   4.964  1.4981 -2.4724 -0.4004
 8276SOL    HW236465   1.229   0.133   5.078  1.1298  0.1479  1.3779
 8277SOL     OW36466   4.461   4.149   2.539 -0.8688 -0.5270  0.2441
 8277SOL    HW136467   4.410   4.081   2.582 -0.6283 -0.5425  0.5120
 8277SOL    HW236468   4.457   4.132   2.445  0.5846 -0.4658  0.1621
 8278SOL     OW36469   3.497   1.213  17.281  0.0314 -0.0442  0.1199
 8278SOL    HW136470   3.558   1.157  17.233  1.9215  1.0720  1.2171
 8278SOL    HW236471   3.556   1.289  17.280  0.5791 -0.4797 -0.5361
 8279SOL     OW36472   1.649   3.940   4.962 -0.2570  0.2867  0.0044
 8279SOL    HW136473   1.700   3.875   5.010  0.5466 -0.9007 -2.4621
 8279SOL    HW236474   1.582   3.882   4.924 -0.8396  1.1273 -0.2539
 8280SOL     OW36475   0.657   1.471   3.019  0.0158  0.4657 -0.3131
 8280SOL    HW136476   0.723   1.540   3.015  0.4559  0.1647  1.6990
 8280SOL    HW236477   0.588   1.505   3.076 -0.9779 -2.0339 -0.0590
 8281SOL     OW36478   0.772   0.190   9.362 -0.3418 -0.0402  0.6085
 8281SOL    HW136479   0.764   0.113   9.418 -0.5832 -2.5071 -2.8122
 8281SOL    HW236480   0.691   0.178   9.314  0.3094  0.6947 -0.6680
 8282SOL     OW36481   0.750   3.179   4.668  0.2876 -0.3317 -0.3972
 8282SOL    HW136482   0.714   3.245   4.727 -1.6247 -3.0155  1.4326
 8282SOL    HW236483   0.810   3.147   4.736  0.5835  1.8006  0.3473
 8283SOL     OW36484   0.826   3.523  13.951 -0.4114 -0.0476  0.0081
 8283SOL    HW136485   0.825   3.618  13.946 -0.4335  0.0283  1.5705
 8283SOL    HW236486   0.790   3.506  14.038  0.1928  0.9915  0.4642
 8284SOL     OW36487   0.751   3.043   0.649 -0.7724 -0.4941 -0.5679
 8284SOL    HW136488   0.659   3.043   0.678 -0.6321 -0.6405 -0.1304
 8284SOL    HW236489   0.764   3.134   0.621 -1.8108 -0.1677  0.0060
 8285SOL     OW36490   0.146   4.035   8.397 -0.7363  0.1142  0.4257
 8285SOL    HW136491   0.052   4.030   8.384 -0.4673  0.8159 -1.9225
 8285SOL    HW236492   0.178   4.006   8.482  1.2082  0.8614 -0.0469
 8286SOL     OW36493   2.944   3.262   2.253 -0.0717  0.3983  0.0064
 8286SOL    HW136494   2.942   3.167   2.265  0.6981  0.4316  0.4074
 8286SOL    HW236495   2.998   3.286   2.328  1.4403 -0.3152 -0.8521
 8287SOL     OW36496   4.133   0.567   2.345 -0.8540  0.3588  0.4403
 8287SOL    HW136497   4.168   0.610   2.267 -1.2124 -0.2128 -0.0321
 8287SOL    HW236498   4.061   0.512   2.313 -0.1468 -1.6900  2.3967
 8288SOL     OW36499   3.597   2.475   5.276  0.4508 -0.5606  0.5495
 8288SOL    HW136500   3.601   2.463   5.371  1.8960  0.8310  0.6708
 8288SOL    HW236501   3.667   2.537   5.252  0.0552  0.2357  1.4862
 8289SOL     OW36502   3.508   1.097  16.121  0.2572  0.3497 -0.6599
 8289SOL    HW136503   3.565   1.070  16.049  1.1941  0.5945 -0.0110
 8289SOL    HW236504   3.441   1.142  16.069  0.6377  0.8150 -0.7537
 8290SOL     OW36505   3.794   0.700   9.976 -0.3206 -0.2872  0.3281
 8290SOL    HW136506   3.862   0.681   9.912 -0.7955 -0.8433 -0.0043
 8290SOL    HW236507   3.785   0.615  10.019  2.1695 -0.0821  1.2393
 8291SOL     OW36508   4.316   1.519   4.576  0.5779  0.0173  0.2021
 8291SOL    HW136509   4.225   1.539   4.598  0.4788 -1.7192  1.3554
 8291SOL    HW236510   4.347   1.493   4.663  0.5928 -0.7555 -0.0334
 8292SOL     OW36511   4.725   3.952   5.753  0.2733 -0.3109 -0.5271
 8292SOL    HW136512   0.071   3.942   5.712  0.4489  0.3820 -0.3315
 8292SOL    HW236513   4.736   3.909   5.838  1.2443  0.3903 -0.2967
 8293SOL     OW36514   4.187   3.181   8.946 -0.7266  0.1127  0.1701
 8293SOL    HW136515   4.189   3.246   8.876 -2.4310  0.0135  0.0215
 8293SOL    HW236516   4.263   3.135   8.910 -0.3219  0.3821  0.6704
 8294SOL     OW36517   2.455   3.243  14.438  0.0110 -0.1101  0.2989
 8294SOL    HW136518   2.477   3.281  14.523  1.7418 -2.2751  0.8249
 8294SOL    HW236519   2.505   3.161  14.440  0.3628  0.1308  1.2338
 8295SOL     OW36520   3.164   2.929   8.587 -0.3025 -0.1694 -0.7384
 8295SOL    HW136521   3.110   2.905   8.511 -1.9203 -1.6496  0.8676
 8295SOL    HW236522   3.138   3.019   8.603  2.2885  0.4973 -0.3762
 8296SOL     OW36523   2.880   0.113   7.172  0.1153 -0.3037 -0.0493
 8296SOL    HW136524   2.924   0.191   7.205 -0.1386  0.2422 -1.0151
 8296SOL    HW236525   2.857   0.079   7.259 -0.7312 -0.0403 -0.1722
 8297SOL     OW36526   4.127   0.583   9.277  0.1907 -0.0963 -0.0744
 8297SOL    HW136527   4.126   0.513   9.343  1.9730 -0.1972 -0.1638
 8297SOL    HW236528   4.147   0.535   9.197  0.5143  0.2971 -0.2298
 8298SOL     OW36529   2.025   1.742   4.581 -0.0574 -0.1673  0.2173
 8298SOL    HW136530   2.033   1.672   4.516  0.7590 -1.1606  1.3896
 8298SOL    HW236531   2.086   1.712   4.648  0.7894 -0.3621 -0.6319
 8299SOL     OW36532   3.995   4.648   4.200 -0.6970  0.0649  0.4244
 8299SOL    HW136533   4.089   4.652   4.181 -0.2219 -0.1742  2.7393
 8299SOL    HW236534   3.993   4.617   4.291 -2.6363 -0.5864  0.1519
 8300SOL     OW36535   3.767   2.162   1.321 -0.7599 -0.0901 -0.0691
 8300SOL    HW136536   3.810   2.096   1.376 -0.6565 -0.2720 -0.3677
 8300SOL    HW236537   3.680   2.128   1.302 -0.5238 -1.4105  1.1727
 8301SOL     OW36538   4.158   3.957   7.666 -0.3014  0.7336 -0.0978
 8301SOL    HW136539   4.150   3.863   7.685  1.9239  0.6744  0.5527
 8301SOL    HW236540   4.115   3.972   7.582  0.0932  1.2111 -0.2120
 8302SOL     OW36541   1.271   2.876   3.273  0.4447  0.2733  0.0125
 8302SOL    HW136542   1.354   2.917   3.247 -0.4012  4.5153  3.9266
 8302SOL    HW236543   1.303   2.787   3.284  2.0111  0.9902  1.3293
 8303SOL     OW36544   0.712   0.970   7.146 -0.0805 -0.6335  0.0133
 8303SOL    HW136545   0.779   0.949   7.081  0.0496  1.7357 -0.6098
 8303SOL    HW236546   0.702   0.880   7.176 -0.6374 -0.1961  1.1514
 8304SOL     OW36547   2.943   0.338   4.896  0.1708 -1.0105  0.4235
 8304SOL    HW136548   3.004   0.408   4.919 -1.0126 -0.1634  0.9727
 8304SOL    HW236549   2.868   0.349   4.955 -1.4463 -2.8081 -1.2883
 8305SOL     OW36550   0.584   1.292  13.636  0.0350 -0.0894 -0.1340
 8305SOL    HW136551   0.489   1.277  13.641  0.2480 -1.0755  0.7396
 8305SOL    HW236552   0.606   1.287  13.544  0.0221 -1.3812 -0.0568
 8306SOL     OW36553   0.030   1.919   1.982 -0.2796 -0.1407 -0.3255
 8306SOL    HW136554   0.011   1.952   2.070  1.2339  0.1218 -0.1097
 8306SOL    HW236555   4.707   1.846   1.980 -0.1533 -0.2507 -0.2132
 8307SOL     OW36556   4.009   0.850   4.451  0.1463 -0.3443  0.0565
 8307SOL    HW136557   3.962   0.832   4.369  2.0189 -0.8088 -0.8959
 8307SOL    HW236558   4.099   0.825   4.433  0.7650  1.6627  0.3673
 8308SOL     OW36559   1.784   1.267   5.936 -0.1396 -0.2064 -0.0958
 8308SOL    HW136560   1.746   1.182   5.957 -0.6546 -0.2626 -1.2640
 8308SOL    HW236561   1.793   1.317   6.017 -1.7071  0.9759 -0.6544
 8309SOL     OW36562   1.544   1.067  10.865 -0.2760  0.0664 -0.4289
 8309SOL    HW136563   1.454   1.038  10.853 -0.1607  0.2639 -1.7505
 8309SOL    HW236564   1.581   1.002  10.806  0.5652 -0.4306  0.6344
 8310SOL     OW36565   4.105   4.576   9.715 -0.4939 -0.6008 -0.3407
 8310SOL    HW136566   4.079   4.661   9.751  0.0262 -1.6292  2.4742
 8310SOL    HW236567   4.131   4.606   9.628 -0.1839  1.9474  0.6291
 8311SOL     OW36568   0.081   2.599  16.086  0.3867 -0.3682 -0.0682
 8311SOL    HW136569   4.733   2.601  16.049  0.3251 -0.7437  0.0504
 8311SOL    HW236570   0.069   2.635  16.174 -1.5394 -2.3278  0.4805
 8312SOL     OW36571   2.413   2.761   2.081  0.1759  0.4436 -0.2381
 8312SOL    HW136572   2.388   2.670   2.098 -0.3614  0.5023 -0.7081
 8312SOL    HW236573   2.492   2.769   2.134  1.0375 -1.8009 -1.1748
 8313SOL     OW36574   3.904   0.287   5.168  0.3757 -0.1099  0.2744
 8313SOL    HW136575   3.876   0.263   5.080 -1.2401 -3.0141  1.5816
 8313SOL    HW236576   3.832   0.344   5.195 -0.8531 -1.2764 -0.5905
 8314SOL     OW36577   1.528   1.992   4.912 -0.7558 -0.5427  0.4618
 8314SOL    HW136578   1.476   1.929   4.963  0.0271 -0.9635  0.7301
 8314SOL    HW236579   1.497   1.968   4.825  3.4068 -1.4620 -0.7531
 8315SOL     OW36580   3.267   3.886  14.338 -0.0217 -0.1562 -0.3940
 8315SOL    HW136581   3.229   3.833  14.268 -0.4125  2.2096 -1.9771
 8315SOL    HW236582   3.211   3.861  14.412  2.5440 -1.9488  0.9306
 8316SOL     OW36583   3.000   3.729  16.660 -0.3992  0.9338  0.6022
 8316SOL    HW136584   2.909   3.753  16.675 -0.9083 -0.3332 -0.4358
 8316SOL    HW236585   3.030   3.710  16.749  1.2344 -0.8961 -0.3536
 8317SOL     OW36586   0.156   2.181   2.753  0.7807 -0.2488  0.0108
 8317SOL    HW136587   0.180   2.110   2.813  1.7382  0.3274  0.3110
 8317SOL    HW236588   0.245   2.208   2.729  1.1885 -0.8059  0.8878
 8318SOL     OW36589   4.231   3.609   5.948  0.1032  0.2180  0.3898
 8318SOL    HW136590   4.302   3.649   5.997 -0.4434  1.6095  0.0275
 8318SOL    HW236591   4.271   3.529   5.913  2.4414  1.6502 -0.1700
 8319SOL     OW36592   3.820   3.082  17.279 -0.5514 -0.6851  0.2510
 8319SOL    HW136593   3.854   3.027  17.208  0.6727  0.7581 -0.2861
 8319SOL    HW236594   3.852   3.049  17.362  1.1746  0.5351  0.0594
 8320SOL     OW36595   1.837   3.545   6.829  0.5831 -0.0738 -0.0268
 8320SOL    HW136596   1.862   3.494   6.906  1.6301  0.8425  0.2432
 8320SOL    HW236597   1.748   3.512   6.822  1.2626 -1.7550 -1.0003
 8321SOL     OW36598   1.043   0.140   8.298 -0.3670 -0.1740 -0.2414
 8321SOL    HW136599   1.120   0.134   8.356 -1.5888 -1.0389  1.3140
 8321SOL    HW236600   0.988   0.202   8.347 -1.2223 -1.0294 -0.1145
 8322SOL     OW36601   1.640   1.645   3.283 -0.1610 -0.2167 -0.7678
 8322SOL    HW136602   1.690   1.719   3.318  0.2938 -1.9151  2.1047
 8322SOL    HW236603   1.589   1.614   3.358  0.5692 -1.1813 -0.6726
 8323SOL     OW36604   2.718   0.720  15.289 -0.0658  0.4356 -0.0211
 8323SOL    HW136605   2.671   0.692  15.210 -1.8662  0.2757  1.1030
 8323SOL    HW236606   2.806   0.701  15.257 -1.0124 -1.0592 -1.7467
 8324SOL     OW36607   2.414   0.106  10.359 -0.1732 -0.1639 -0.4203
 8324SOL    HW136608   2.445   0.154  10.435  1.3385 -3.3500  0.9840
 8324SOL    HW236609   2.469   0.028  10.365 -0.6916 -0.7406 -3.1919
 8325SOL     OW36610   2.287   1.772   6.461 -0.0039  0.1669 -0.2782
 8325SOL    HW136611   2.248   1.693   6.425 -0.2411 -0.7414  1.9776
 8325SOL    HW236612   2.222   1.802   6.525 -0.7024 -3.4926  0.7194
 8326SOL     OW36613   3.905   2.105  13.849 -0.3185 -0.2114  0.1550
 8326SOL    HW136614   3.990   2.104  13.804  0.8478 -1.1924  2.3748
 8326SOL    HW236615   3.938   2.137  13.933 -0.7786  0.8946 -0.0858
 8327SOL     OW36616   2.418   1.405   9.876 -0.6130  0.4502 -0.1588
 8327SOL    HW136617   2.438   1.496   9.899 -1.2564  0.6512 -0.4057
 8327SOL    HW236618   2.324   1.412   9.859 -0.8147 -2.4885 -0.3064
 8328SOL     OW36619   1.360   0.952   2.249 -0.2457  0.1189  0.2457
 8328SOL    HW136620   1.331   0.896   2.321  2.0100 -4.0118 -2.0468
 8328SOL    HW236621   1.311   0.924   2.171  1.2796  1.1860 -1.0770
 8329SOL     OW36622   4.288   2.093  10.313  0.2470  0.2450  0.4075
 8329SOL    HW136623   4.383   2.098  10.314  0.1058  3.3720 -0.1739
 8329SOL    HW236624   4.275   2.133  10.226 -0.6399  0.6615  0.7251
 8330SOL     OW36625   0.274   1.072   2.915  0.2625 -0.2533 -0.8152
 8330SOL    HW136626   0.220   0.993   2.916 -0.0915  0.0266  1.7475
 8330SOL    HW236627   0.357   1.039   2.881 -0.2372 -3.2329  0.8741
 8331SOL     OW36628   2.349   0.969   3.324 -0.2339  0.4697 -0.6100
 8331SOL    HW136629   2.342   1.022   3.244 -0.6223 -0.1953 -1.0194
 8331SOL    HW236630   2.267   0.920   3.313  0.0659 -0.5123  1.5713
 8332SOL     OW36631   2.029   2.175   8.616  0.5469  0.3665 -0.0067
 8332SOL    HW136632   1.956   2.140   8.564  1.1225  0.2176 -0.7189
 8332SOL    HW236633   2.098   2.123   8.574 -0.8554 -0.2697 -1.5660
 8333SOL     OW36634   0.029   3.722   9.794  0.2710 -0.0399  0.4313
 8333SOL    HW136635   0.122   3.702   9.786  0.5422  1.4408 -0.0610
 8333SOL    HW236636   4.736   3.649   9.847  0.8512 -1.4195 -1.1218
 8334SOL     OW36637   3.404   1.687   6.217  0.5738 -0.7718  0.1543
 8334SOL    HW136638   3.459   1.713   6.143  0.7382  1.4794  1.0703
 8334SOL    HW236639   3.450   1.725   6.292 -2.3738  0.3975  1.3783
 8335SOL     OW36640   1.370   2.547   2.941  0.1451  0.1639  0.5631
 8335SOL    HW136641   1.440   2.600   2.903  0.6352  0.1829  1.5042
 8335SOL    HW236642   1.307   2.619   2.938 -0.2753 -0.1977  0.6212
 8336SOL     OW36643   4.516   3.901   5.379  0.4714 -0.0754  0.4407
 8336SOL    HW136644   4.535   3.934   5.467 -0.2895 -0.1678  0.6352
 8336SOL    HW236645   4.423   3.923   5.377  0.3305 -0.6889  0.2284
 8337SOL     OW36646   1.706   2.950   2.722  0.2861 -0.1947 -0.9528
 8337SOL    HW136647   1.779   2.904   2.682  2.1824  2.1239 -0.1850
 8337SOL    HW236648   1.671   2.999   2.648  0.2546  1.0989 -0.0851
 8338SOL     OW36649   1.712   2.007   2.128 -0.3491  0.0264 -0.1995
 8338SOL    HW136650   1.653   2.019   2.054  0.6295 -0.5501 -1.0731
 8338SOL    HW236651   1.669   1.939   2.180 -0.4815 -1.4980 -2.3412
 8339SOL     OW36652   3.565   2.957   7.614  0.4664 -0.1642  0.0541
 8339SOL    HW136653   3.494   2.969   7.677  0.2792 -0.4016 -0.1124
 8339SOL    HW236654   3.598   3.045   7.598  0.3288 -0.2528 -0.7237
 8340SOL     OW36655   1.855   2.631   3.318  0.1688  0.1689 -0.5706
 8340SOL    HW136656   1.784   2.694   3.318  1.2936  1.4458  0.0521
 8340SOL    HW236657   1.851   2.598   3.408  1.9298  1.8769  0.1212
 8341SOL     OW36658   1.202   1.609  12.306 -0.8183  0.2453  0.3049
 8341SOL    HW136659   1.134   1.549  12.335 -1.3221  1.2568  1.2248
 8341SOL    HW236660   1.230   1.570  12.224  1.1663 -2.5116  2.2943
 8342SOL     OW36661   3.801   4.293   4.994 -0.1617 -0.0701 -0.6683
 8342SOL    HW136662   3.830   4.351   5.064  1.0380 -0.9666 -0.4373
 8342SOL    HW236663   3.706   4.307   4.986 -0.3035 -0.5344  0.2681
 8343SOL     OW36664   2.911   3.377   5.787  0.1982 -0.4458  0.1647
 8343SOL    HW136665   2.908   3.465   5.748  2.6221  0.3844  1.8481
 8343SOL    HW236666   2.994   3.382   5.835  1.2649  0.4463 -1.7556
 8344SOL     OW36667   1.337   4.144   6.004  0.0889 -0.1225 -0.2211
 8344SOL    HW136668   1.302   4.134   5.915 -1.4484  1.7492  0.1668
 8344SOL    HW236669   1.367   4.053   6.009  1.0049 -0.0319 -4.4487
 8345SOL     OW36670   2.758   0.183  11.992 -0.4879  0.1093 -0.1413
 8345SOL    HW136671   2.788   0.162  11.904  2.8544 -0.3359  1.1163
 8345SOL    HW236672   2.816   0.255  12.016 -1.0587  0.9598 -1.3095
 8346SOL     OW36673   2.653   2.883   5.255  0.5266 -0.1760  0.0031
 8346SOL    HW136674   2.677   2.803   5.302 -0.8688 -0.5674  0.0580
 8346SOL    HW236675   2.573   2.898   5.307  0.1639  2.1628 -1.1970
 8347SOL     OW36676   3.093   4.607   9.727 -0.1761  0.3733  0.8488
 8347SOL    HW136677   3.123   4.520   9.755  0.8635  0.2521 -0.6344
 8347SOL    HW236678   3.071   4.590   9.635  1.7483  0.1003  0.4322
 8348SOL     OW36679   4.480   4.033  11.581 -0.2145 -0.2373 -0.3865
 8348SOL    HW136680   4.468   4.124  11.610  1.7120  0.3245 -1.3314
 8348SOL    HW236681   4.576   4.031  11.587 -0.2517  1.3682  0.7548
 8349SOL     OW36682   3.168   1.913   5.044 -0.3254  0.1137  0.3520
 8349SOL    HW136683   3.210   1.828   5.059 -1.2493  0.0348  2.5052
 8349SOL    HW236684   3.206   1.947   4.963  0.0140 -1.1211 -0.0017
 8350SOL     OW36685   3.871   1.430   4.338  0.2143  0.4124 -0.7473
 8350SOL    HW136686   3.938   1.418   4.270  0.7836 -0.5344 -0.0106
 8350SOL    HW236687   3.911   1.393   4.417 -0.2407  0.2565 -0.5932
 8351SOL     OW36688   2.235   4.267   2.352 -0.4572 -0.1710  0.3456
 8351SOL    HW136689   2.252   4.172   2.352 -0.2407 -0.1340  0.9331
 8351SOL    HW236690   2.231   4.289   2.259 -1.4390  2.4645  1.0358
 8352SOL     OW36691   3.482   1.007   5.383  0.2424  0.4549  0.6701
 8352SOL    HW136692   3.419   0.983   5.315  1.6311 -0.6232 -0.2425
 8352SOL    HW236693   3.444   1.093   5.404  1.2882  0.9609  0.4796
 8353SOL     OW36694   4.484   0.344   0.775 -0.3173  0.0837 -0.2186
 8353SOL    HW136695   4.441   0.415   0.729  1.2127  1.6773  0.8232
 8353SOL    HW236696   4.560   0.326   0.720 -0.7838  0.6247 -1.0332
 8354SOL     OW36697   0.925   0.528  12.333  0.1354 -0.1362 -0.6635
 8354SOL    HW136698   0.974   0.571  12.403 -2.4168 -0.8122  1.5301
 8354SOL    HW236699   0.857   0.475  12.375 -0.9324  0.6167 -1.4683
 8355SOL     OW36700   3.791   2.402   1.203 -0.0318 -0.2411 -0.9536
 8355SOL    HW136701   3.868   2.396   1.259  0.5224  1.6903 -1.5204
 8355SOL    HW236702   3.755   2.316   1.225  0.0314 -0.5847 -2.1982
 8356SOL     OW36703   3.231   3.012   7.490  0.0789  0.3010 -0.5881
 8356SOL    HW136704   3.166   3.021   7.421  1.2545 -1.2395 -1.8843
 8356SOL    HW236705   3.311   2.994   7.441  0.3926  2.9926 -1.0649
 8357SOL     OW36706   1.695   2.840   5.948  0.0047  0.0531 -0.3746
 8357SOL    HW136707   1.755   2.834   5.874 -0.5353  0.0065 -0.8119
 8357SOL    HW236708   1.613   2.823   5.902  0.1613 -1.4064 -0.0965
 8358SOL     OW36709   0.074   3.867   2.037  0.0691 -0.3682  0.4580
 8358SOL    HW136710   0.092   3.957   2.064 -0.8541  0.1400 -0.6794
 8358SOL    HW236711   0.166   3.840   2.041  0.1698 -0.1807 -0.9080
 8359SOL     OW36712   1.254   2.001   7.121 -0.4843 -0.0501 -0.0687
 8359SOL    HW136713   1.222   1.914   7.145 -3.3339  0.4888 -1.8844
 8359SOL    HW236714   1.253   1.997   7.025  0.2085  1.7363 -0.1593
 8360SOL     OW36715   4.286   4.475   5.105 -0.6448 -0.4270  0.0478
 8360SOL    HW136716   4.349   4.403   5.097 -1.6827 -1.6076  2.3318
 8360SOL    HW236717   4.342   4.546   5.077 -1.6893  0.4743  0.2541
 8361SOL     OW36718   2.669   3.872   5.024  0.0296 -0.5152 -0.4874
 8361SOL    HW136719   2.594   3.833   5.069 -0.9441 -0.0323 -1.6857
 8361SOL    HW236720   2.625   3.886   4.940  0.3864  0.8916 -0.4239
 8362SOL     OW36721   0.193   1.542   5.381 -0.0699 -0.8765  0.4820
 8362SOL    HW136722   0.112   1.498   5.406  0.6030 -1.0499  2.3367
 8362SOL    HW236723   0.211   1.600   5.455 -1.7212  1.1332 -0.6711
 8363SOL     OW36724   2.981   2.212   7.458  0.1498  0.2918 -0.2276
 8363SOL    HW136725   2.966   2.274   7.387  0.7774 -1.5786 -1.9997
 8363SOL    HW236726   2.916   2.225   7.527  2.7053 -0.8681  2.4189
 8364SOL     OW36727   0.447   1.878  10.673  0.2758 -0.0453 -0.2918
 8364SOL    HW136728   0.541   1.870  10.689  0.0678  1.2647  1.6069
 8364SOL    HW236729   0.435   1.973  10.670  1.7227  0.1235 -0.9192
 8365SOL     OW36730   4.087   1.645   6.383 -0.0243 -0.3060  0.6414
 8365SOL    HW136731   4.160   1.705   6.369  1.3231 -2.1014 -0.0172
 8365SOL    HW236732   4.088   1.642   6.478 -0.8635 -2.4096  0.5757
 8366SOL     OW36733   4.038   0.311   8.706 -0.0754 -0.2754 -0.5124
 8366SOL    HW136734   4.024   0.226   8.746 -4.9595  0.6764 -0.2125
 8366SOL    HW236735   3.946   0.337   8.695  0.3227  2.0113  1.6525
 8367SOL     OW36736   0.168   3.166   2.370 -0.3285 -0.1547  0.0887
 8367SOL    HW136737   0.236   3.206   2.315  1.5912 -1.7729  1.2688
 8367SOL    HW236738   0.181   3.210   2.454 -0.1104 -2.3802  1.2203
 8368SOL     OW36739   4.078   1.809   3.034 -0.5350  0.3255 -0.1328
 8368SOL    HW136740   4.124   1.728   3.014 -2.5374 -0.8714  0.1678
 8368SOL    HW236741   3.993   1.774   3.058  0.9907 -1.9539  1.9495
 8369SOL     OW36742   3.041   1.809   8.907 -0.6047  0.0884  0.2357
 8369SOL    HW136743   3.116   1.749   8.901 -2.0226 -1.4064 -2.2493
 8369SOL    HW236744   3.082   1.896   8.913 -0.0316 -0.1336 -0.4800
 8370SOL     OW36745   0.674   0.468  12.655  0.2486 -0.0631  0.1474
 8370SOL    HW136746   0.719   0.408  12.715  1.0348 -0.3646 -0.7435
 8370SOL    HW236747   0.694   0.438  12.566  0.2227 -0.5564  0.3092
 8371SOL     OW36748   1.005   2.464  14.340 -0.0700  0.1319 -0.1735
 8371SOL    HW136749   1.089   2.476  14.297 -0.1461 -2.8977 -1.2101
 8371SOL    HW236750   0.941   2.520  14.296  0.7014  1.7275  0.7502
 8372SOL     OW36751   2.889   2.064   9.161  0.0353  0.0929 -0.8053
 8372SOL    HW136752   2.961   2.042   9.102  0.4103  0.0660 -0.3391
 8372SOL    HW236753   2.889   2.159   9.176  0.6122 -0.5898  3.4475
 8373SOL     OW36754   2.853   4.383   8.474  0.2965  0.0537 -0.3430
 8373SOL    HW136755   2.922   4.423   8.526 -0.1556 -0.2076  0.4631
 8373SOL    HW236756   2.812   4.459   8.433  0.2405 -1.4462 -3.0471
 8374SOL     OW36757   4.285   1.357   8.526  0.4572 -0.2999 -0.2159
 8374SOL    HW136758   4.345   1.301   8.575  1.4139 -0.8977 -2.0963
 8374SOL    HW236759   4.199   1.318   8.544 -0.0942  1.3698  0.7607
 8375SOL     OW36760   3.153   0.976   3.990 -0.4719  0.7188  0.3760
 8375SOL    HW136761   3.163   0.893   3.943  2.5833  0.3447  1.6945
 8375SOL    HW236762   3.082   1.018   3.941  0.1858 -0.9094 -1.9745
 8376SOL     OW36763   2.023   0.390   8.005 -0.2590 -0.2944  0.2391
 8376SOL    HW136764   2.080   0.413   7.932  0.8013  0.5027  1.3331
 8376SOL    HW236765   1.969   0.466   8.025  1.4276  1.1430 -0.6278
 8377SOL     OW36766   1.189   0.647  17.475 -0.5295  0.1866  0.6322
 8377SOL    HW136767   1.223   0.653  17.564 -2.1704 -2.9042  1.4355
 8377SOL    HW236768   1.244   0.717  17.438 -0.0157  0.6144  2.1996
 8378SOL     OW36769   3.929   1.517   0.553  0.2933  0.3071  0.5169
 8378SOL    HW136770   3.996   1.583   0.569 -0.0045  1.0716 -1.4040
 8378SOL    HW236771   3.864   1.577   0.516 -0.9858 -0.8801  0.8405
 8379SOL     OW36772   1.575   3.018   6.509 -0.2350  0.7964 -0.5144
 8379SOL    HW136773   1.600   2.939   6.556 -1.2166  2.1551  2.2413
 8379SOL    HW236774   1.506   2.991   6.447  0.3206 -3.1846  0.6699
 8380SOL     OW36775   3.698   2.702  13.274  0.6433  0.9129  0.0604
 8380SOL    HW136776   3.736   2.726  13.189  2.4974 -2.8135 -0.1637
 8380SOL    HW236777   3.725   2.611  13.283 -3.2754 -0.1170  1.2850
 8381SOL     OW36778   0.766   2.082   8.694  0.2186  0.3307 -0.0736
 8381SOL    HW136779   0.681   2.123   8.679 -0.3188 -0.6798  0.2066
 8381SOL    HW236780   0.822   2.110   8.622 -1.9148  3.8404 -0.3589
 8382SOL     OW36781   0.475   4.623   7.941  0.1550  0.1506  0.7006
 8382SOL    HW136782   0.413   4.556   7.971  0.8370 -0.8446 -0.1152
 8382SOL    HW236783   0.479   4.611   7.846 -1.1857 -1.1039  0.8007
 8383SOL     OW36784   0.219   4.158   6.905 -0.1437 -0.1991 -0.2522
 8383SOL    HW136785   0.157   4.095   6.941  0.6787 -1.2394 -0.6114
 8383SOL    HW236786   0.272   4.194   6.976  1.0715 -0.2269 -1.1290
 8384SOL     OW36787   2.352   0.218   2.683  0.2587  0.0626  0.0788
 8384SOL    HW136788   2.365   0.303   2.725 -0.9920  0.1425  0.3003
 8384SOL    HW236789   2.388   0.233   2.595  0.6282 -0.5785  0.1170
 8385SOL     OW36790   1.614   2.945  11.494 -0.5996 -0.0345  0.2894
 8385SOL    HW136791   1.580   2.943  11.584  0.2956  1.5745  0.6685
 8385SOL    HW236792   1.662   3.025  11.517 -0.1484 -0.1816 -0.1402
 8386SOL     OW36793   4.542   1.241   2.514  0.0416  0.1561 -0.3198
 8386SOL    HW136794   4.601   1.167   2.527 -0.8956 -0.2864  1.5505
 8386SOL    HW236795   4.466   1.218   2.569  0.0275 -0.7475 -0.7196
 8387SOL     OW36796   3.872   3.779   6.988 -0.1100  0.4119 -0.6323
 8387SOL    HW136797   3.892   3.768   7.081 -1.7660  4.2008  0.1603
 8387SOL    HW236798   3.926   3.849   6.952 -0.1268  0.8139  0.1132
 8388SOL     OW36799   2.605   2.013   9.231  0.2374  0.0224 -0.3991
 8388SOL    HW136800   2.605   1.918   9.220  0.9488  0.0049 -0.1734
 8388SOL    HW236801   2.694   2.033   9.202 -0.1658  1.0358 -0.9703
 8389SOL     OW36802   1.222   2.076   9.662  0.3353 -0.6457 -0.0644
 8389SOL    HW136803   1.174   2.148   9.621  2.4805  0.7145 -0.1678
 8389SOL    HW236804   1.158   2.006   9.650 -0.1522 -0.4715  1.4671
 8390SOL     OW36805   3.982   3.502  13.511  0.2701  0.2338  0.4078
 8390SOL    HW136806   4.004   3.565  13.580 -1.3984  1.7361 -0.4401
 8390SOL    HW236807   4.030   3.434  13.558  0.6150  1.1396  1.3797
 8391SOL     OW36808   3.855   1.873  12.728 -0.2249  0.5726  0.0747
 8391SOL    HW136809   3.863   1.864  12.823  0.7957  0.9482  0.0292
 8391SOL    HW236810   3.820   1.961  12.721 -1.7918 -0.0396  0.2821
 8392SOL     OW36811   2.347   1.734   3.161  0.0574 -0.0007  0.2923
 8392SOL    HW136812   2.314   1.781   3.085  2.6259  2.2169  0.5262
 8392SOL    HW236813   2.276   1.678   3.192  0.4945 -0.1825  0.9847
 8393SOL     OW36814   0.370   4.105   4.386 -0.1884  0.0132 -1.0632
 8393SOL    HW136815   0.324   4.059   4.456 -0.7910  0.6709 -1.0291
 8393SOL    HW236816   0.328   4.062   4.312 -1.3931  1.1334 -1.0126
 8394SOL     OW36817   4.168   1.694   7.446  0.4999 -0.4472  0.6926
 8394SOL    HW136818   4.200   1.777   7.411 -2.4563  0.2804 -0.2145
 8394SOL    HW236819   4.231   1.673   7.515 -0.2081 -0.3475  1.3649
 8395SOL     OW36820   1.578   0.260   8.669  0.0500 -0.6215 -0.3496
 8395SOL    HW136821   1.618   0.201   8.733  3.4579  1.8258 -0.2664
 8395SOL    HW236822   1.618   0.346   8.675  1.6661 -1.3178 -1.2512
 8396SOL     OW36823   2.219   0.833  10.462  0.0659 -0.2377 -0.5556
 8396SOL    HW136824   2.153   0.781  10.508  0.5658 -0.6006 -0.2583
 8396SOL    HW236825   2.281   0.846  10.533 -1.3544 -1.6196  0.9370
 8397SOL     OW36826   3.725   1.551   6.753  0.1214 -0.1612 -0.0505
 8397SOL    HW136827   3.794   1.561   6.819  0.6531  1.7687 -0.8945
 8397SOL    HW236828   3.677   1.631   6.770 -1.9806 -1.3784 -0.2637
 8398SOL     OW36829   3.187   1.288  14.600  0.3977 -0.1710  0.6924
 8398SOL    HW136830   3.269   1.242  14.582  1.6774  2.6811 -0.7518
 8398SOL    HW236831   3.231   1.368  14.628  3.1980 -1.1545 -0.9756
 8399SOL     OW36832   0.029   1.632   6.817 -0.3795  0.1980 -0.3184
 8399SOL    HW136833   4.682   1.606   6.787  0.0605 -0.8457 -0.6804
 8399SOL    HW236834   0.061   1.553   6.861 -2.5817 -0.6931 -0.3110
 8400SOL     OW36835   3.106   0.495   6.036  0.1223  0.1533 -0.5254
 8400SOL    HW136836   3.103   0.578   6.085 -1.0712 -0.2467  0.0823
 8400SOL    HW236837   3.199   0.498   6.012  0.8453  0.1900  2.2323
 8401SOL     OW36838   0.700   2.572   6.677  0.3281 -0.1039 -0.2513
 8401SOL    HW136839   0.643   2.641   6.711  2.2520  0.7303  1.2643
 8401SOL    HW236840   0.644   2.533   6.610 -1.1354  0.4392  0.6669
 8402SOL     OW36841   4.523   0.883   1.909 -0.1161  0.9226  0.3538
 8402SOL    HW136842   4.433   0.916   1.906 -0.3579  0.4347  2.2522
 8402SOL    HW236843   4.531   0.854   1.818 -2.2319 -0.2806  0.5386
 8403SOL     OW36844   0.254   1.629   8.981  0.2479  0.3985 -0.0449
 8403SOL    HW136845   0.301   1.709   9.007  1.3745  0.0986 -1.1875
 8403SOL    HW236846   0.184   1.666   8.927 -0.3284 -2.7869 -1.4633
 8404SOL     OW36847   0.840   1.907   2.460  0.4518  0.3025  0.2065
 8404SOL    HW136848   0.812   1.817   2.477 -1.8095  0.5678 -2.0667
 8404SOL    HW236849   0.831   1.962   2.537 -0.7121  1.7750 -0.9812
 8405SOL     OW36850   1.317   4.348  12.617  0.4338 -0.4047  0.1942
 8405SOL    HW136851   1.396   4.394  12.646 -1.1422  2.7010 -0.4892
 8405SOL    HW236852   1.269   4.425  12.588 -1.9965 -1.5603  1.1717
 8406SOL     OW36853   2.163   2.058  14.927  0.5160 -0.3453  0.0181
 8406SOL    HW136854   2.219   1.987  14.895 -2.4172 -2.3437 -0.6948
 8406SOL    HW236855   2.121   2.088  14.847  2.5318  1.0654 -0.5157
 8407SOL     OW36856   1.039   4.567   1.397  0.0576 -0.0701  0.3685
 8407SOL    HW136857   1.074   4.502   1.457  2.1795  0.1131 -0.6770
 8407SOL    HW236858   1.114   4.612   1.359  1.0749 -0.0235  2.4399
 8408SOL     OW36859   0.300   3.383   5.687 -0.2810 -0.5285  0.2103
 8408SOL    HW136860   0.338   3.468   5.665 -0.3118 -0.7275 -0.5988
 8408SOL    HW236861   0.316   3.364   5.779  0.0394  1.3601  0.5478
 8409SOL     OW36862   2.648   1.415   3.211 -0.6715 -0.3751  0.5104
 8409SOL    HW136863   2.633   1.446   3.121  0.9630 -2.9256 -0.6571
 8409SOL    HW236864   2.590   1.469   3.265 -0.2840 -2.3202  2.8342
 8410SOL     OW36865   2.225   4.066   4.560 -0.4130  0.1186  0.3107
 8410SOL    HW136866   2.240   4.147   4.512 -0.5439 -0.6716 -1.0660
 8410SOL    HW236867   2.240   4.001   4.491 -1.2197  1.6383 -1.2786
 8411SOL     OW36868   1.163   1.496   6.201  0.5298  0.1218  0.1747
 8411SOL    HW136869   1.189   1.573   6.150 -0.1293  0.8310  0.8859
 8411SOL    HW236870   1.128   1.428   6.143 -3.2146  2.3671 -0.2330
 8412SOL     OW36871   3.529   3.902   3.771  0.5818  0.5038 -0.1354
 8412SOL    HW136872   3.487   3.987   3.758 -0.8743 -0.6391 -2.7242
 8412SOL    HW236873   3.462   3.839   3.796  1.7978 -1.5906 -2.1811
 8413SOL     OW36874   0.420   4.105   8.739  0.0601  0.6713 -0.1553
 8413SOL    HW136875   0.407   4.156   8.659  0.3268 -1.3097 -1.4470
 8413SOL    HW236876   0.406   4.014   8.713  1.3685  0.2307  0.6989
 8414SOL     OW36877   2.865   1.167   7.591 -0.2545  0.2070  0.0230
 8414SOL    HW136878   2.863   1.204   7.679 -4.4066 -3.5359  1.5341
 8414SOL    HW236879   2.954   1.192   7.566 -0.8689  2.2610 -0.0720
 8415SOL     OW36880   4.525   2.158   2.845  0.2364  0.6671  0.1594
 8415SOL    HW136881   4.480   2.191   2.768  1.0155 -0.8727 -0.9560
 8415SOL    HW236882   4.445   2.142   2.895 -0.7415 -0.5865 -1.8274
 8416SOL     OW36883   0.146   1.301   9.661  0.0006 -0.3990 -0.3395
 8416SOL    HW136884   0.200   1.285   9.583 -0.9439  0.8278 -1.2283
 8416SOL    HW236885   0.118   1.391   9.648  0.6612 -0.2986 -1.0872
 8417SOL     OW36886   2.464   4.308  17.690 -0.5249  0.3494  0.0967
 8417SOL    HW136887   2.436   4.399  17.700  1.8111  1.1571 -0.6948
 8417SOL    HW236888   2.559   4.313  17.697 -0.6633  1.1317  1.4744
 8418SOL     OW36889   3.899   3.730   2.171  0.3728  0.0279 -0.0403
 8418SOL    HW136890   3.883   3.725   2.077 -1.8061 -0.8473  0.3756
 8418SOL    HW236891   3.990   3.758   2.174 -0.1437  1.6151  0.9591
 8419SOL     OW36892   1.160   1.209  16.153  0.1586  0.3590 -0.3173
 8419SOL    HW136893   1.159   1.249  16.066  1.2679  0.6339 -0.2070
 8419SOL    HW236894   1.154   1.291  16.203  0.5344  0.3805 -0.3074
 8420SOL     OW36895   3.472   2.729   1.153 -0.2172 -0.1452  0.3114
 8420SOL    HW136896   3.487   2.702   1.062 -1.3682  2.2313 -0.5854
 8420SOL    HW236897   3.500   2.820   1.149  2.4142 -0.9282  0.7699
 8421SOL     OW36898   4.320   4.373   1.983 -0.0662 -0.3667  0.3349
 8421SOL    HW136899   4.276   4.331   2.057 -0.7572  1.0756  0.7296
 8421SOL    HW236900   4.396   4.318   1.963  2.3357  3.0337 -0.0715
 8422SOL     OW36901   0.235   1.834  14.316 -0.2832  0.4978 -0.1498
 8422SOL    HW136902   0.320   1.792  14.305 -0.4029  0.2528 -0.1478
 8422SOL    HW236903   0.177   1.764  14.284 -0.5484  1.1858 -1.1683
 8423SOL     OW36904   0.957   4.131   3.592 -0.1825  0.2895  0.0149
 8423SOL    HW136905   0.939   4.052   3.643 -0.0581 -0.6424 -1.4016
 8423SOL    HW236906   0.887   4.128   3.527  0.0333 -1.5564 -0.1209
 8424SOL     OW36907   1.649   0.696   1.028 -0.4196  0.1351  0.2203
 8424SOL    HW136908   1.587   0.702   1.101 -0.7104 -3.7755  0.2647
 8424SOL    HW236909   1.729   0.727   1.071  0.0124  2.3238 -2.1523
 8425SOL     OW36910   2.341   3.784   0.188  0.9378  0.3680  0.3658
 8425SOL    HW136911   2.305   3.774   0.277 -1.2696 -0.0981 -0.5688
 8425SOL    HW236912   2.319   3.702   0.145 -2.5399  2.0771 -1.1312
 8426SOL     OW36913   0.850   2.638   0.473 -0.3697  0.1095  0.1880
 8426SOL    HW136914   0.920   2.580   0.504 -0.5861 -0.1195  0.2463
 8426SOL    HW236915   0.780   2.574   0.456  0.8002 -1.2943  0.6495
 8427SOL     OW36916   2.449   2.267   3.223  0.1491  0.1550  0.3470
 8427SOL    HW136917   2.506   2.230   3.157  0.8317  2.1765 -0.2054
 8427SOL    HW236918   2.374   2.208   3.221 -1.6460  2.4704 -0.4931
 8428SOL     OW36919   0.080   3.914   3.933 -0.6374 -0.1685  0.6950
 8428SOL    HW136920   0.050   4.005   3.934  0.5221  0.2342 -1.2230
 8428SOL    HW236921   4.735   3.870   3.924 -1.3806  1.6146 -0.9720
 8429SOL     OW36922   0.030   0.338   7.914  1.0037 -0.3795 -0.0010
 8429SOL    HW136923   4.731   0.253   7.892 -1.0280  0.1764  1.4674
 8429SOL    HW236924   0.045   0.360   7.822  0.0333  1.4690  0.2961
 8430SOL     OW36925   0.742   3.409   3.839  0.7827  0.5597  0.3529
 8430SOL    HW136926   0.780   3.329   3.874 -1.8844  0.2375  2.5441
 8430SOL    HW236927   0.672   3.418   3.904  0.4538 -0.4252  0.1385
 8431SOL     OW36928   2.991   0.074   3.047 -0.1488  0.3821 -0.1381
 8431SOL    HW136929   3.072   0.104   3.005 -0.9783 -0.2857 -2.2103
 8431SOL    HW236930   2.939   0.050   2.971  2.2041 -1.5363 -1.1353
 8432SOL     OW36931   1.423   3.651   5.885  0.2732 -0.7994  0.0201
 8432SOL    HW136932   1.328   3.635   5.881  0.0273  0.1690  1.9703
 8432SOL    HW236933   1.450   3.624   5.798  1.8927  2.2260 -0.4290
 8433SOL     OW36934   4.592   4.552   7.626  0.6360  0.0062 -0.2642
 8433SOL    HW136935   4.511   4.602   7.635 -0.1763 -1.5471  1.2432
 8433SOL    HW236936   4.652   4.611   7.670  0.2383 -0.3594  0.7794
 8434SOL     OW36937   0.884   0.716   3.897  1.0102 -0.8595 -0.3280
 8434SOL    HW136938   0.904   0.785   3.833  2.9984  0.0922  1.2799
 8434SOL    HW236939   0.967   0.668   3.901  0.7480 -1.2395  0.5309
 8435SOL     OW36940   1.387   3.068  12.282  0.1796  0.3235 -0.0072
 8435SOL    HW136941   1.306   3.020  12.301  0.5458  0.2352  1.3204
 8435SOL    HW236942   1.384   3.144  12.340  0.0131  1.2135 -1.1746
 8436SOL     OW36943   1.085   0.324   7.986  0.0536 -0.4634  0.2356
 8436SOL    HW136944   1.125   0.240   7.962  2.3186  1.1385 -1.5241
 8436SOL    HW236945   1.015   0.319   7.921  0.4619  0.9782 -0.3160
 8437SOL     OW36946   0.778   0.043   1.530  0.5713  0.4077 -0.0055
 8437SOL    HW136947   0.801   0.108   1.597 -0.1415 -0.1660  0.8026
 8437SOL    HW236948   0.777   4.703   1.584 -2.2350  1.4304  1.4311
 8438SOL     OW36949   3.696   0.701   8.958  0.7316 -0.2178  0.0917
 8438SOL    HW136950   3.782   0.743   8.953  0.8158 -0.2647  1.3221
 8438SOL    HW236951   3.683   0.712   9.052 -1.2234  1.0658 -0.3336
 8439SOL     OW36952   3.569   3.153  14.819 -0.0675 -0.4485  0.0581
 8439SOL    HW136953   3.637   3.216  14.794  2.1600 -2.8655 -0.0069
 8439SOL    HW236954   3.566   3.169  14.913  0.7893 -0.2982  0.0681
 8440SOL     OW36955   2.535   0.548   2.384 -0.3871 -0.8009  0.0960
 8440SOL    HW136956   2.622   0.534   2.347 -0.0929 -0.6222  0.7242
 8440SOL    HW236957   2.521   0.463   2.426 -1.5560 -0.7219 -0.1521
 8441SOL     OW36958   2.744   0.055   7.419 -0.2008 -0.5028 -0.7657
 8441SOL    HW136959   2.702   4.733   7.359  0.4967 -1.6873 -0.0287
 8441SOL    HW236960   2.733   0.021   7.508 -0.7307 -0.6709 -0.8962
 8442SOL     OW36961   0.489   0.419   4.601 -0.1024  0.5043  0.3305
 8442SOL    HW136962   0.560   0.416   4.538 -0.4347  0.3006 -0.0367
 8442SOL    HW236963   0.522   0.499   4.642 -1.1388  1.6510 -1.0521
 8443SOL     OW36964   4.702   2.160   0.275 -0.7690 -0.4077  0.3672
 8443SOL    HW136965   0.045   2.115   0.259 -0.2331  0.6940  0.0580
 8443SOL    HW236966   4.652   2.097   0.326  1.0416 -2.9338 -0.9797
 8444SOL     OW36967   2.647   0.592  10.994  0.0581 -0.4327 -0.0500
 8444SOL    HW136968   2.622   0.599  10.902 -0.8218 -2.7090  0.0023
 8444SOL    HW236969   2.596   0.660  11.036  0.0363  0.9368 -2.2991
 8445SOL     OW36970   0.916   1.641  17.050 -0.2365 -0.1261  0.0897
 8445SOL    HW136971   0.854   1.704  17.013 -0.7955 -0.8074 -0.1359
 8445SOL    HW236972   0.864   1.631  17.130  0.7472 -0.3798  0.6994
 8446SOL     OW36973   0.651   1.103   4.653 -0.0928 -0.0133 -0.2534
 8446SOL    HW136974   0.656   1.181   4.708 -1.6704 -0.6210  0.7531
 8446SOL    HW236975   0.744   1.084   4.638  0.2548  1.7739 -0.3378
 8447SOL     OW36976   0.682   1.849   2.925  0.3666  0.1626 -0.1623
 8447SOL    HW136977   0.619   1.795   2.877 -0.1965 -0.8592  1.7403
 8447SOL    HW236978   0.718   1.797   2.996 -2.9445 -0.8002  0.8067
 8448SOL     OW36979   2.669   3.533   1.650  0.1736  0.1002  0.1142
 8448SOL    HW136980   2.653   3.531   1.744  0.1007 -1.3445  0.0630
 8448SOL    HW236981   2.600   3.595   1.625  1.2980  0.6715 -1.5333
 8449SOL     OW36982   3.854   1.137   2.946  0.3119 -0.1491 -0.2031
 8449SOL    HW136983   3.796   1.130   3.021 -0.6135  2.2666 -0.6948
 8449SOL    HW236984   3.792   1.132   2.873  1.9725 -0.8428 -1.5783
 8450SOL     OW36985   1.767   3.721   2.491 -0.8422 -0.2716 -0.2629
 8450SOL    HW136986   1.719   3.706   2.409 -1.0802  0.9402 -0.3405
 8450SOL    HW236987   1.727   3.653   2.544 -1.3983  1.3275  1.3309
 8451SOL     OW36988   4.163   1.742   4.098 -0.8547 -0.6289 -0.6047
 8451SOL    HW136989   4.083   1.771   4.140 -0.2982 -1.5382  1.1057
 8451SOL    HW236990   4.205   1.691   4.168  0.4066  1.7992  0.3848
 8452SOL     OW36991   4.060   2.769  10.963  0.0129  0.0462  0.2692
 8452SOL    HW136992   4.092   2.760  10.873 -0.3421  1.6671 -0.0053
 8452SOL    HW236993   4.139   2.745  11.012  0.0472  1.2555  0.7865
 8453SOL     OW36994   1.756   2.822   7.280 -0.1542 -0.5325  0.3092
 8453SOL    HW136995   1.698   2.747   7.268 -1.9088  0.9488 -0.3577
 8453SOL    HW236996   1.840   2.795   7.240 -0.1771 -0.7854  0.4308
 8454SOL     OW36997   4.261   1.942   7.340 -0.2094  0.3158  0.0521
 8454SOL    HW136998   4.216   1.975   7.262 -0.4403 -1.1384 -0.4342
 8454SOL    HW236999   4.283   2.018   7.393  0.8830  0.7210 -0.9779
 8455SOL     OW37000   2.791   0.856   0.108  0.0831  0.3267  0.3444
 8455SOL    HW137001   2.764   0.818   0.024  0.9028  0.7018 -0.0908
 8455SOL    HW237002   2.852   0.923   0.076 -0.7496  1.1931  0.5630
 8456SOL     OW37003   3.710   0.669  16.284 -0.2442  0.3108  0.0290
 8456SOL    HW137004   3.616   0.686  16.293 -0.3851  0.5524 -1.7274
 8456SOL    HW237005   3.725   0.605  16.353  1.2563  2.0425  1.3007
 8457SOL     OW37006   4.144   1.533   3.063 -0.2275  0.0514  0.3978
 8457SOL    HW137007   4.150   1.448   3.020  0.7711 -1.4893  3.5512
 8457SOL    HW237008   4.225   1.542   3.113  0.5779 -0.2628 -0.8609
 8458SOL     OW37009   3.196   0.055   7.050  0.3933 -0.0701  0.1027
 8458SOL    HW137010   3.159   0.018   6.970  2.8169  1.6218 -1.8036
 8458SOL    HW237011   3.165   0.145   7.054 -0.4095 -0.3341 -0.0080
 8459SOL     OW37012   4.584   0.709   5.659 -0.1956 -0.0306 -0.4428
 8459SOL    HW137013   4.614   0.621   5.682 -0.6321 -0.4261 -1.4128
 8459SOL    HW237014   4.598   0.745   5.747  1.1919 -1.9559  0.1169
 8460SOL     OW37015   3.632   3.484   7.148 -0.1670 -0.6885 -0.0329
 8460SOL    HW137016   3.714   3.444   7.178  0.8751 -1.1234 -3.4109
 8460SOL    HW237017   3.628   3.539   7.226 -0.5311 -0.8368  0.0536
 8461SOL     OW37018   3.151   0.279   9.361 -0.2642 -0.2927  0.0314
 8461SOL    HW137019   3.059   0.284   9.338  0.0893  0.9555 -1.1472
 8461SOL    HW237020   3.170   0.371   9.342  0.9299 -0.6731 -0.6452
 8462SOL     OW37021   2.382   2.982   8.437  0.0801  0.2825 -0.2707
 8462SOL    HW137022   2.443   2.934   8.381  0.1627  0.7954 -0.6238
 8462SOL    HW237023   2.388   2.945   8.524 -0.9307  1.1850  0.1842
 8463SOL     OW37024   0.409   1.724   6.708  0.2309  0.3632  0.4503
 8463SOL    HW137025   0.406   1.802   6.764 -3.0776 -0.7900  1.8636
 8463SOL    HW237026   0.383   1.662   6.776  0.5193 -0.3762 -0.1254
 8464SOL     OW37027   0.519   2.348   1.835  0.1596 -0.6523 -0.2755
 8464SOL    HW137028   0.436   2.329   1.880 -0.3177  1.6928 -0.1862
 8464SOL    HW237029   0.581   2.370   1.904  1.8784 -1.4939 -1.5357
 8465SOL     OW37030   0.178   2.503  16.721  0.1926  0.1814 -0.1470
 8465SOL    HW137031   0.153   2.595  16.718  0.0685  0.1244 -0.8993
 8465SOL    HW237032   0.098   2.456  16.741 -0.2106  0.8592 -0.1580
 8466SOL     OW37033   3.924   0.077   8.794 -0.7221 -0.4416 -0.6121
 8466SOL    HW137034   3.871   4.737   8.791 -1.2394 -0.1754  1.2587
 8466SOL    HW237035   3.942   0.072   8.888 -0.1460  1.1143 -0.6329
 8467SOL     OW37036   4.284   2.651   4.686  0.7777 -0.0974 -0.1457
 8467SOL    HW137037   4.279   2.739   4.649  0.6412  0.4639  1.2222
 8467SOL    HW237038   4.364   2.613   4.648 -0.1667 -2.0077 -0.2415
 8468SOL     OW37039   2.952   0.415  11.944 -0.3349 -0.0368 -0.0653
 8468SOL    HW137040   3.027   0.393  12.001 -0.8216 -2.4888 -0.3834
 8468SOL    HW237041   2.991   0.430  11.858  0.2751 -2.5340 -0.2207
 8469SOL     OW37042   0.345   1.615   8.586 -0.0784  0.5673  0.5387
 8469SOL    HW137043   0.381   1.635   8.500  1.6758  1.0952  1.4072
 8469SOL    HW237044   0.341   1.703   8.622  0.5817  0.5931  0.5428
 8470SOL     OW37045   0.049   4.355  16.486  0.4435 -0.1770  0.1544
 8470SOL    HW137046   0.006   4.331  16.403  0.9730  1.7311 -0.6608
 8470SOL    HW237047   0.109   4.280  16.489  0.7788 -0.0547 -2.9532
 8471SOL     OW37048   3.488   4.598   3.834  0.0145 -0.5655  0.4046
 8471SOL    HW137049   3.400   4.599   3.871  1.1460 -1.2934  3.1216
 8471SOL    HW237050   3.513   4.508   3.856  1.6734 -0.1000  0.4619
 8472SOL     OW37051   1.583   1.619   6.129 -0.3824  0.4501 -0.2563
 8472SOL    HW137052   1.497   1.622   6.088 -0.8656 -4.2282  0.3663
 8472SOL    HW237053   1.593   1.525   6.148  0.4756  0.8957  1.5761
 8473SOL     OW37054   1.688   4.636  11.115 -0.4574 -0.1430  0.0079
 8473SOL    HW137055   1.694   4.720  11.159  0.4171 -1.3590  2.2140
 8473SOL    HW237056   1.659   4.573  11.181  0.1287 -0.0805  0.3292
 8474SOL     OW37057   4.518   1.877   3.621  0.0049 -0.5179  0.3026
 8474SOL    HW137058   4.603   1.876   3.665  0.9013  1.1904 -1.4105
 8474SOL    HW237059   4.545   1.910   3.536  2.4996 -1.6097  0.6711
 8475SOL     OW37060   1.263   2.040   8.362 -0.2056  0.4536  0.2937
 8475SOL    HW137061   1.221   1.968   8.410 -0.3447  0.4283  0.1314
 8475SOL    HW237062   1.353   2.017   8.387 -1.1987 -2.3113  1.3490
 8476SOL     OW37063   0.757   0.985   1.674 -0.3008  0.3212  0.3900
 8476SOL    HW137064   0.743   1.069   1.631  0.8301  0.7902  0.9288
 8476SOL    HW237065   0.704   1.010   1.750  1.6503  0.7461  1.6196
 8477SOL     OW37066   3.979   1.829   5.200  0.3425 -0.4004 -0.3003
 8477SOL    HW137067   3.915   1.760   5.220 -1.1900  1.3017  0.7020
 8477SOL    HW237068   4.063   1.785   5.215  0.6193 -0.2485 -1.4203
 8478SOL     OW37069   2.346   4.558   2.176  0.3123 -0.0392  0.1775
 8478SOL    HW137070   2.292   4.574   2.253  2.3427  1.9745  1.1822
 8478SOL    HW237071   2.426   4.601   2.207  0.3527  0.4137 -0.5343
 8479SOL     OW37072   2.849   1.621   8.741  0.1833  0.4046 -0.4018
 8479SOL    HW137073   2.913   1.675   8.787  0.6546  1.1915 -2.0197
 8479SOL    HW237074   2.785   1.688   8.715 -1.0139 -0.8726 -0.7697
 8480SOL     OW37075   4.703   2.978   5.502  0.7869  0.4508 -0.4613
 8480SOL    HW137076   0.008   2.930   5.433 -0.0709 -0.9482 -0.0542
 8480SOL    HW237077   0.032   3.039   5.526  1.2333 -0.2993  0.1719
 8481SOL     OW37078   3.737   1.120   6.033  0.0607 -0.2715  0.1313
 8481SOL    HW137079   3.765   1.126   6.124  0.0330  2.1412 -0.0289
 8481SOL    HW237080   3.810   1.076   5.990 -0.4744 -2.3778  1.3497
 8482SOL     OW37081   0.847   0.778  11.967 -0.4160  0.2103  0.3106
 8482SOL    HW137082   0.815   0.701  12.013  0.9488 -0.1313  0.6914
 8482SOL    HW237083   0.935   0.741  11.963 -0.5314 -0.0513  0.2181
 8483SOL     OW37084   0.859   3.884   5.047 -0.2781  0.2379 -0.6129
 8483SOL    HW137085   0.789   3.945   5.069  0.5627  1.0803 -0.3012
 8483SOL    HW237086   0.862   3.820   5.119 -1.2314  2.2115  1.1726
 8484SOL     OW37087   2.185   3.292   4.358  0.6199 -0.2575 -0.0222
 8484SOL    HW137088   2.167   3.370   4.305 -0.8189 -1.4590 -1.3402
 8484SOL    HW237089   2.125   3.232   4.314  0.4535  1.3847 -2.0811
 8485SOL     OW37090   1.308   0.483  12.259  0.2160 -0.9415 -0.0829
 8485SOL    HW137091   1.267   0.416  12.203  0.4896 -0.0129 -1.3968
 8485SOL    HW237092   1.403   0.479  12.248  0.2073 -2.2008  0.3345
 8486SOL     OW37093   1.960   0.608  13.586  0.6031 -0.1879  0.0017
 8486SOL    HW137094   2.011   0.607  13.505 -1.0619  0.4333 -1.0537
 8486SOL    HW237095   1.871   0.583  13.564  0.6061  0.3846 -0.6708
 8487SOL     OW37096   0.460   0.010   8.448  0.0467  0.1874  0.5370
 8487SOL    HW137097   0.548   0.003   8.410  1.0642  0.0327  2.8881
 8487SOL    HW237098   0.473   0.085   8.506 -1.9211  1.5328 -0.7968
 8488SOL     OW37099   0.689   3.932   2.923 -0.3786  0.3815  0.3503
 8488SOL    HW137100   0.641   3.898   2.847  0.7804  0.5318 -0.4447
 8488SOL    HW237101   0.759   3.982   2.881 -1.2548 -0.7958 -2.5122
 8489SOL     OW37102   3.032   0.769   7.088  0.0368 -0.2082 -0.0501
 8489SOL    HW137103   3.118   0.798   7.119  1.2134  0.6884 -4.1401
 8489SOL    HW237104   2.968   0.810   7.147  2.2353  0.1660  2.0623
 8490SOL     OW37105   1.823   0.522   4.631  0.0935  0.0693 -0.1557
 8490SOL    HW137106   1.867   0.570   4.561  1.6384  0.6133  1.1802
 8490SOL    HW237107   1.799   0.437   4.594 -1.5007  0.1388  0.7036
 8491SOL     OW37108   3.925   4.264   8.258 -0.1998 -0.6766 -0.1262
 8491SOL    HW137109   3.989   4.271   8.329  0.0898 -1.5191 -0.3106
 8491SOL    HW237110   3.850   4.308   8.298 -0.3821 -0.4117 -0.7502
 8492SOL     OW37111   4.657   0.382   3.642 -0.1839  0.1754  0.1577
 8492SOL    HW137112   4.667   0.292   3.674  0.4882 -0.5905 -2.1877
 8492SOL    HW237113   4.629   0.375   3.551 -0.5741  1.0019  0.2143
 8493SOL     OW37114   1.674   0.984  15.263  0.2920  0.3548 -0.2899
 8493SOL    HW137115   1.661   1.076  15.239  2.0547  0.6548 -0.1234
 8493SOL    HW237116   1.689   0.956  15.172  0.0570 -0.0570 -0.1992
 8494SOL     OW37117   1.405   4.091   2.974  0.0636 -0.6932  0.1352
 8494SOL    HW137118   1.445   4.175   2.993 -1.2568 -0.1216  0.3985
 8494SOL    HW237119   1.478   4.033   2.994 -1.9817 -1.8453  4.2898
 8495SOL     OW37120   0.916   0.210   6.446 -0.6133 -0.0864  0.0071
 8495SOL    HW137121   0.937   0.127   6.489 -1.0518  0.0002  0.4011
 8495SOL    HW237122   0.983   0.207   6.379  2.5180  0.8603  3.0834
 8496SOL     OW37123   0.322   3.683   1.747 -0.1331  0.7592 -0.4302
 8496SOL    HW137124   0.344   3.668   1.839  1.2551  0.6702 -0.7667
 8496SOL    HW237125   0.228   3.696   1.748 -0.3585 -0.9051  0.9486
 8497SOL     OW37126   2.386   1.948   8.318  0.2444  0.0916 -0.0905
 8497SOL    HW137127   2.432   1.962   8.235  2.4445  2.3006  1.5035
 8497SOL    HW237128   2.422   1.863   8.341 -0.2555 -0.0159  0.2966
 8498SOL     OW37129   2.411   1.808  16.835  0.6766  0.4119  0.2135
 8498SOL    HW137130   2.370   1.744  16.893  0.8982  0.0836  0.0108
 8498SOL    HW237131   2.446   1.860  16.907 -0.8023 -0.0714  1.2805
 8499SOL     OW37132   0.585   3.090  14.685  0.3542 -0.2996 -0.2378
 8499SOL    HW137133   0.631   3.097  14.768  1.4572 -2.0123 -0.7029
 8499SOL    HW237134   0.503   3.134  14.708  0.2399 -1.0913  0.8488
 8500SOL     OW37135   3.829   0.695   3.433  0.2319  0.1308 -0.8363
 8500SOL    HW137136   3.832   0.673   3.527 -0.0586 -0.1522 -0.8915
 8500SOL    HW237137   3.782   0.777   3.442 -0.8058 -0.8887  3.0269
 8501SOL     OW37138   3.206   4.523   1.955 -0.0237  0.0884 -0.3717
 8501SOL    HW137139   3.226   4.497   1.865  0.7613  0.0670 -0.1897
 8501SOL    HW237140   3.112   4.541   1.952  0.0013  0.3478  0.2985
 8502SOL     OW37141   1.407   1.281   6.981 -0.3913 -0.2527 -0.0726
 8502SOL    HW137142   1.355   1.360   6.994  0.1318  0.1440 -0.3954
 8502SOL    HW237143   1.401   1.273   6.886  0.7840  0.1114 -0.1826
 8503SOL     OW37144   3.150   3.961   8.031  0.0787  0.0783  0.0188
 8503SOL    HW137145   3.203   4.009   7.968  0.4886 -0.6195 -0.1673
 8503SOL    HW237146   3.213   3.903   8.074  1.3977  0.5155 -1.3181
 8504SOL     OW37147   0.071   4.172   4.475 -0.3188 -0.1199 -0.4316
 8504SOL    HW137148   0.136   4.122   4.524 -0.4048 -1.4116 -1.6095
 8504SOL    HW237149   0.015   4.200   4.548 -1.2324 -0.4602 -0.9981
 8505SOL     OW37150   3.447   2.330  11.768 -0.2580  0.2530 -0.7266
 8505SOL    HW137151   3.379   2.397  11.777  1.7239  2.2548 -0.8148
 8505SOL    HW237152   3.507   2.372  11.707  0.5644  0.5622  0.3001
 8506SOL     OW37153   2.838   3.172   7.810  0.1026  0.2929 -0.4591
 8506SOL    HW137154   2.920   3.219   7.826  0.3257 -0.7265  1.4230
 8506SOL    HW237155   2.776   3.244   7.823  1.4545  0.6527  3.9224
 8507SOL     OW37156   0.948   0.500   6.858 -0.2490 -0.1087  0.1470
 8507SOL    HW137157   1.026   0.448   6.840 -1.0318 -1.1812 -0.1329
 8507SOL    HW237158   0.882   0.438   6.826 -0.1350  0.5642 -1.3924
 8508SOL     OW37159   3.723   3.120   4.254  0.0419  0.6926 -0.0058
 8508SOL    HW137160   3.812   3.112   4.219 -0.3915  0.5907 -1.0732
 8508SOL    HW237161   3.733   3.176   4.332  1.6883  1.1854 -0.5571
 8509SOL     OW37162   2.159   3.494  17.228  0.2785  0.3184  0.0261
 8509SOL    HW137163   2.177   3.519  17.319  2.4638 -0.0352 -0.2918
 8509SOL    HW237164   2.197   3.407  17.237  1.3731  0.8646  0.8291
 8510SOL     OW37165   1.078   1.553   9.345 -0.2748 -0.3037  0.1837
 8510SOL    HW137166   1.171   1.573   9.335 -0.6305  1.8197  1.0850
 8510SOL    HW237167   1.029   1.624   9.304 -1.7787 -1.1994  0.4023
 8511SOL     OW37168   4.371   4.304   1.214 -0.3428 -0.2471  0.2011
 8511SOL    HW137169   4.306   4.339   1.154 -1.6693 -1.7754  0.7410
 8511SOL    HW237170   4.325   4.317   1.297 -1.3573  0.8891 -0.5593
 8512SOL     OW37171   1.902   3.983  13.748  0.3145  0.3406 -0.1717
 8512SOL    HW137172   1.835   3.919  13.725  1.5777 -0.6796 -1.0237
 8512SOL    HW237173   1.977   3.928  13.770 -1.4101 -2.1407 -0.4922
 8513SOL     OW37174   2.991   0.210   5.644  0.2710 -0.0020  0.5568
 8513SOL    HW137175   2.980   0.177   5.734 -0.3602  0.1529  0.5354
 8513SOL    HW237176   2.996   0.303   5.668  2.0585 -1.1859  4.7771
 8514SOL     OW37177   1.395   0.570   6.641 -0.1599 -0.4418  0.0634
 8514SOL    HW137178   1.305   0.590   6.616 -0.1963 -0.2965  0.3179
 8514SOL    HW237179   1.443   0.636   6.590 -0.0164  0.4418  1.3587
 8515SOL     OW37180   1.536   3.090  15.628  0.0208 -0.0611 -0.5696
 8515SOL    HW137181   1.524   3.021  15.562 -1.4413 -0.1550 -0.2016
 8515SOL    HW237182   1.613   3.141  15.601  0.6598 -0.5251  0.3968
 8516SOL     OW37183   2.637   3.976  10.043 -1.3888 -1.1656 -0.0561
 8516SOL    HW137184   2.636   3.897  10.097  1.5755  0.4620  2.3536
 8516SOL    HW237185   2.661   3.942   9.956  0.7101  1.0515 -0.3483
 8517SOL     OW37186   4.682   0.621   8.443  0.5464 -0.0395  0.3454
 8517SOL    HW137187   4.628   0.574   8.506  1.2204  0.1537  1.0694
 8517SOL    HW237188   4.638   0.591   8.364  1.1023  0.9460 -0.3381
 8518SOL     OW37189   4.294   3.640   3.899  0.4341 -0.4984 -0.0125
 8518SOL    HW137190   4.245   3.579   3.843  0.6066 -0.2202 -0.4682
 8518SOL    HW237191   4.327   3.582   3.968  0.8073  0.0988  0.3144
 8519SOL     OW37192   0.139   2.926   8.568  0.7460 -0.0083 -0.6382
 8519SOL    HW137193   0.221   2.879   8.582  2.3836  2.8248 -0.7546
 8519SOL    HW237194   0.128   2.920   8.473 -2.1054  2.6026 -0.4908
 8520SOL     OW37195   1.929   3.201   5.825 -0.0663  0.4088 -0.5875
 8520SOL    HW137196   1.979   3.281   5.841  3.8243 -1.9431 -1.1231
 8520SOL    HW237197   1.989   3.132   5.851 -1.5486 -0.6096  0.1297
 8521SOL     OW37198   0.703   4.258   0.619 -0.1140  0.0480 -0.5641
 8521SOL    HW137199   0.733   4.238   0.530  0.0801 -1.4219 -0.1658
 8521SOL    HW237200   0.667   4.173   0.641  2.1268 -0.5818  0.6937
 8522SOL     OW37201   2.695   1.561   5.917 -0.0269 -0.1026 -0.0263
 8522SOL    HW137202   2.649   1.519   5.989 -0.4368  0.0588 -0.1923
 8522SOL    HW237203   2.643   1.642   5.916  0.0039 -0.1092 -2.1853
 8523SOL     OW37204   4.155   0.645  10.436 -0.0694 -0.2200 -0.0181
 8523SOL    HW137205   4.133   0.673  10.525  2.4560 -0.2022  0.5994
 8523SOL    HW237206   4.235   0.691  10.409 -0.3558  0.0906 -0.3349
 8524SOL     OW37207   0.625   3.651  11.569 -0.5224  0.0617 -0.1696
 8524SOL    HW137208   0.550   3.591  11.562  0.2022 -0.7055 -1.3974
 8524SOL    HW237209   0.695   3.586  11.570 -0.9927 -0.4135  2.1532
 8525SOL     OW37210   2.380   4.330   9.832  0.0786 -0.0714 -0.0947
 8525SOL    HW137211   2.324   4.335   9.754 -1.0490 -1.4362  0.6227
 8525SOL    HW237212   2.363   4.414   9.873 -3.1077 -1.5428  1.6032
 8526SOL     OW37213   3.435   3.000   7.313 -0.7587  0.1624  0.1682
 8526SOL    HW137214   3.456   2.907   7.303 -2.2051 -0.4497  2.7111
 8526SOL    HW237215   3.524   3.032   7.328 -0.2355 -0.6336 -1.2121
 8527SOL     OW37216   2.218   0.533  12.420 -0.0456  0.2309 -0.4905
 8527SOL    HW137217   2.239   0.624  12.437 -1.3610  0.1774  1.4179
 8527SOL    HW237218   2.208   0.528  12.325  0.5917 -2.5746 -0.4098
 8528SOL     OW37219   1.365   2.760   3.550  0.3304 -0.2596  0.5247
 8528SOL    HW137220   1.320   2.732   3.470 -1.2555 -0.5947  1.5364
 8528SOL    HW237221   1.325   2.696   3.610 -0.7561  0.7523  0.8815
 8529SOL     OW37222   2.965   3.373   8.446  0.2892  0.1442 -0.3707
 8529SOL    HW137223   2.914   3.432   8.502  0.8035  0.9709 -0.7703
 8529SOL    HW237224   2.977   3.429   8.369 -0.6651  1.6823  0.5786
 8530SOL     OW37225   1.145   2.908  11.997  0.2291 -0.0388  0.1051
 8530SOL    HW137226   1.071   2.852  11.973 -0.5975  1.6286 -1.2092
 8530SOL    HW237227   1.100   2.948  12.072 -0.7109  0.1348 -0.5565
 8531SOL     OW37228   1.081   0.931  16.099 -0.1754 -0.1467 -0.2193
 8531SOL    HW137229   1.121   1.016  16.115 -0.6070  0.2195 -1.0574
 8531SOL    HW237230   1.013   0.955  16.036  0.1914  0.0295 -0.5504
 8532SOL     OW37231   3.691   1.240   5.262 -0.1020  0.2069  0.7384
 8532SOL    HW137232   3.685   1.178   5.190  1.2647  0.6757  0.2212
 8532SOL    HW237233   3.736   1.188   5.329  1.2326 -0.3596 -0.5864
 8533SOL     OW37234   4.067   1.323   3.961  0.0103 -0.6363 -0.7814
 8533SOL    HW137235   4.158   1.351   3.947 -0.2412  0.3032 -0.5359
 8533SOL    HW237236   4.074   1.249   4.021 -0.2183  0.3167  0.4132
 8534SOL     OW37237   2.271   0.623   9.890  0.0120  0.5521  0.2378
 8534SOL    HW137238   2.319   0.612   9.972 -0.3836 -0.5736  0.3166
 8534SOL    HW237239   2.179   0.619   9.917 -0.5102  1.5604 -1.3814
 8535SOL     OW37240   0.431   3.228   2.183 -0.1289 -0.6145  0.2251
 8535SOL    HW137241   0.454   3.312   2.223  0.1790 -1.1825  1.2472
 8535SOL    HW237242   0.338   3.241   2.167  0.6384  0.2120 -3.5033
 8536SOL     OW37243   3.673   3.131   7.315  0.5371  0.1725 -0.3116
 8536SOL    HW137244   3.759   3.110   7.351  1.3775 -1.3293 -3.1087
 8536SOL    HW237245   3.673   3.113   7.220  2.0382 -2.4582  0.1696
 8537SOL     OW37246   0.202   2.452   3.771  0.4894  0.1217  0.0287
 8537SOL    HW137247   0.146   2.526   3.751  1.2846  0.5393 -0.6578
 8537SOL    HW237248   0.175   2.381   3.712 -1.2385 -0.9516  2.1150
 8538SOL     OW37249   2.522   4.718   6.256 -0.6741 -0.2242 -0.0274
 8538SOL    HW137250   2.469   0.051   6.286  0.9273  2.0462 -2.6883
 8538SOL    HW237251   2.597   0.021   6.215  0.6642 -1.7881  0.7988
 8539SOL     OW37252   0.669   2.320   3.683 -0.1411 -0.3702 -0.2654
 8539SOL    HW137253   0.612   2.245   3.666 -0.6530 -0.5055  1.9403
 8539SOL    HW237254   0.614   2.359   3.752 -1.3053 -0.4076 -1.1820
 8540SOL     OW37255   2.210   4.277   9.057  0.0337 -0.0811  0.0711
 8540SOL    HW137256   2.207   4.257   9.151 -0.0293  0.7971  0.2579
 8540SOL    HW237257   2.136   4.226   9.024  1.4974 -1.7175 -0.6269
 8541SOL     OW37258   1.895   3.765   3.185  0.0304 -0.2635 -0.4406
 8541SOL    HW137259   1.821   3.814   3.221  0.4808  1.9278 -2.4970
 8541SOL    HW237260   1.916   3.704   3.255  0.0319 -0.0560 -0.2618
 8542SOL     OW37261   4.673   2.302  14.382  0.1614 -0.6329  0.4474
 8542SOL    HW137262   4.608   2.251  14.335 -2.0608  1.5940  1.0918
 8542SOL    HW237263   4.608   2.344  14.438  0.4868  0.4057  0.0421
 8543SOL     OW37264   3.641   3.181   5.495  0.4801 -0.3685  0.0369
 8543SOL    HW137265   3.575   3.177   5.426 -1.8510 -2.1358  2.3654
 8543SOL    HW237266   3.603   3.259   5.535 -0.5947 -0.7126 -0.3186
 8544SOL     OW37267   0.970   2.360   4.022 -0.1070  0.5258 -0.1485
 8544SOL    HW137268   0.951   2.413   3.945  1.5139 -0.4297 -1.2247
 8544SOL    HW237269   0.978   2.273   3.983 -3.9412  0.1847 -0.1749
 8545SOL     OW37270   2.061   1.363   7.756 -0.1467 -0.1218  0.0134
 8545SOL    HW137271   2.034   1.292   7.814  0.5085 -0.8048 -0.5072
 8545SOL    HW237272   2.065   1.303   7.681  1.6379  0.6232 -0.4995
 8546SOL     OW37273   3.118   1.599   4.664  0.2379  0.0754 -0.2728
 8546SOL    HW137274   3.176   1.523   4.669 -1.3792 -1.2862 -2.0756
 8546SOL    HW237275   3.170   1.665   4.709  1.0762  0.3019 -1.5727
 8547SOL     OW37276   1.077   2.256   3.608 -0.4472  0.5825  0.6186
 8547SOL    HW137277   1.017   2.306   3.552  0.2021  2.0789  1.2600
 8547SOL    HW237278   1.039   2.277   3.693 -1.1268  0.7327  0.2841
 8548SOL     OW37279   1.680   0.551   2.315 -0.1910  0.5772  0.1487
 8548SOL    HW137280   1.631   0.474   2.286 -0.0570  1.5579 -2.6618
 8548SOL    HW237281   1.732   0.512   2.385  0.5611  1.5020  0.1020
 8549SOL     OW37282   3.991   3.626   7.237  0.7608  0.6798  0.4621
 8549SOL    HW137283   3.951   3.539   7.245 -0.2181  1.2638  1.9463
 8549SOL    HW237284   3.917   3.684   7.259  0.1478 -0.6504  1.9831
 8550SOL     OW37285   2.808   2.745   0.794 -0.0603  0.1285  0.6071
 8550SOL    HW137286   2.745   2.809   0.827  1.2411  2.3970 -1.2802
 8550SOL    HW237287   2.877   2.805   0.765  0.7923 -1.2373 -0.2492
 8551SOL     OW37288   4.205   1.672   6.091  0.1219 -0.1472 -0.3465
 8551SOL    HW137289   4.114   1.690   6.068 -0.1975 -1.6462 -0.2445
 8551SOL    HW237290   4.188   1.578   6.094  1.8179 -0.4640 -0.9201
 8552SOL     OW37291   0.318   1.322   9.952 -0.5229  0.0300  0.2253
 8552SOL    HW137292   0.245   1.383   9.940 -2.7332 -2.1458  2.4202
 8552SOL    HW237293   0.304   1.267   9.875 -0.4871 -0.6902  0.7292
 8553SOL     OW37294   1.380   3.404   8.378  0.2196  0.7554  0.0524
 8553SOL    HW137295   1.302   3.459   8.369 -0.0000  0.7788  2.1840
 8553SOL    HW237296   1.436   3.466   8.424 -0.4604  1.4724 -0.0896
 8554SOL     OW37297   4.006   4.209   2.788 -0.7989  0.0101  1.0676
 8554SOL    HW137298   4.073   4.261   2.744  1.4770 -2.6570  1.3803
 8554SOL    HW237299   3.928   4.263   2.802 -1.4066 -0.3928 -0.7458
 8555SOL     OW37300   1.140   2.805   4.989 -0.0333  0.0456 -0.4282
 8555SOL    HW137301   1.235   2.819   4.996 -0.2616  0.6741  1.3408
 8555SOL    HW237302   1.142   2.770   4.900  4.4925 -0.8720  0.0035
 8556SOL     OW37303   3.283   4.627  12.563 -0.2211 -0.0908 -0.1698
 8556SOL    HW137304   3.256   4.552  12.616 -3.0910  0.1743 -1.2186
 8556SOL    HW237305   3.316   4.571  12.493 -1.6036  0.5653 -1.3582
 8557SOL     OW37306   2.528   2.174   7.754 -0.1710  0.5725 -0.4405
 8557SOL    HW137307   2.600   2.121   7.788  0.2919  0.5206 -1.5025
 8557SOL    HW237308   2.574   2.237   7.699  2.8792 -0.9551  0.3515
 8558SOL     OW37309   3.749   1.600  11.595 -0.3897 -0.3135  0.4378
 8558SOL    HW137310   3.746   1.576  11.688 -1.2395 -2.0443 -0.0248
 8558SOL    HW237311   3.795   1.523  11.561  1.7039  0.2337  1.9651
 8559SOL     OW37312   2.131   3.015   3.435  0.3405 -0.2520 -0.0942
 8559SOL    HW137313   2.218   3.026   3.397 -1.2504  3.9423 -2.4637
 8559SOL    HW237314   2.133   2.920   3.453 -2.5723 -0.0183  1.5330
 8560SOL     OW37315   1.079   1.416  13.914  0.3331 -0.4557  0.2099
 8560SOL    HW137316   1.073   1.507  13.885 -3.3060 -0.5712  0.6293
 8560SOL    HW237317   1.001   1.374  13.879 -0.2236  0.0122  0.8782
 8561SOL     OW37318   1.258   2.832   0.241  0.1651 -0.3199  0.5357
 8561SOL    HW137319   1.193   2.866   0.180 -1.6654 -1.8800  1.6493
 8561SOL    HW237320   1.235   2.739   0.241 -0.1190 -0.2586  1.9973
 8562SOL     OW37321   1.528   3.600   8.515  0.3184 -0.4004  0.6463
 8562SOL    HW137322   1.589   3.637   8.451 -1.2614  1.8286  0.4329
 8562SOL    HW237323   1.561   3.637   8.597  0.8163 -2.4988  1.3968
 8563SOL     OW37324   3.087   1.876   3.062  0.3403  0.4195 -0.4613
 8563SOL    HW137325   3.109   1.843   2.975  1.9854 -0.8512  0.4107
 8563SOL    HW237326   3.156   1.844   3.121 -0.5435 -0.6532 -0.0061
 8564SOL     OW37327   1.383   4.215   6.754 -0.4326  0.4289  0.0051
 8564SOL    HW137328   1.310   4.274   6.733 -0.7335  0.4936  1.2230
 8564SOL    HW237329   1.361   4.156   6.683  0.2541  0.1637  0.0093
 8565SOL     OW37330   0.347   1.877   8.996  0.3836 -0.3530  0.7210
 8565SOL    HW137331   0.334   1.962   9.038 -0.1152 -0.3081  0.4707
 8565SOL    HW237332   0.437   1.880   8.962  0.1894  1.3087  0.3624
 8566SOL     OW37333   3.700   1.309   9.474  0.6283 -0.2314  0.1115
 8566SOL    HW137334   3.768   1.249   9.505  0.3405  0.4092  1.9475
 8566SOL    HW237335   3.623   1.253   9.463  0.9201 -0.4692 -0.7577
 8567SOL     OW37336   1.376   3.399   2.398 -0.3548 -0.4260  0.0670
 8567SOL    HW137337   1.319   3.448   2.339  0.7680  0.6723 -0.1247
 8567SOL    HW237338   1.342   3.310   2.398 -0.2183 -0.4794 -0.1445
 8568SOL     OW37339   0.653   2.935  13.976 -0.4468 -0.0585 -0.0996
 8568SOL    HW137340   0.640   2.842  13.996 -0.0743  0.0014  0.4188
 8568SOL    HW237341   0.570   2.957  13.934 -0.8662 -0.6718  0.4003
 8569SOL     OW37342   3.222   1.849  15.801 -0.7893 -0.0863 -0.2698
 8569SOL    HW137343   3.224   1.762  15.760 -1.7476  0.3862 -1.2926
 8569SOL    HW237344   3.171   1.837  15.881  3.4868  0.3365  2.5445
 8570SOL     OW37345   3.109   1.247   4.124  0.2280 -0.5155  0.9425
 8570SOL    HW137346   3.110   1.185   4.052 -4.0447 -0.5876  0.9704
 8570SOL    HW237347   3.200   1.247   4.152  1.4453  2.0458 -3.0028
 8571SOL     OW37348   4.079   0.861  10.159  0.6217  0.2349 -0.0351
 8571SOL    HW137349   4.128   0.846  10.239  1.9483  0.3311 -0.8333
 8571SOL    HW237350   4.142   0.834  10.093  1.9884  1.7672  0.6536
 8572SOL     OW37351   0.155   1.726   7.542 -0.5777  0.5420  0.5528
 8572SOL    HW137352   0.234   1.698   7.495 -1.9472 -0.6069 -1.0952
 8572SOL    HW237353   0.171   1.820   7.541  0.4384  0.3560  0.0540
 8573SOL     OW37354   3.578   3.617   6.380 -0.3755 -0.0493 -0.0511
 8573SOL    HW137355   3.555   3.549   6.443  1.0454 -0.2624  0.2371
 8573SOL    HW237356   3.661   3.583   6.346 -0.4480  0.2391 -0.5176
 8574SOL     OW37357   3.669   2.473   3.060 -0.1305  0.1467  0.2252
 8574SOL    HW137358   3.710   2.394   3.093 -0.2624 -0.3930 -0.9299
 8574SOL    HW237359   3.616   2.444   2.987  0.8087  2.1191 -1.2372
 8575SOL     OW37360   4.352   0.976   3.541 -0.2630 -0.0102  0.2250
 8575SOL    HW137361   4.307   1.043   3.490 -1.4564 -1.3795 -0.5145
 8575SOL    HW237362   4.443   0.997   3.519 -0.5848  0.5828 -0.5316
 8576SOL     OW37363   2.434   0.617   7.426 -0.1614  0.6334 -0.2550
 8576SOL    HW137364   2.435   0.591   7.333 -1.5052 -1.1485  0.2260
 8576SOL    HW237365   2.398   0.705   7.417  1.1490  1.2763  0.8607
 8577SOL     OW37366   1.708   1.300   7.874  0.1677 -0.4560 -0.4252
 8577SOL    HW137367   1.763   1.378   7.871  0.2950 -0.4976  0.8933
 8577SOL    HW237368   1.626   1.344   7.852  0.2097 -0.7013 -1.0746
 8578SOL     OW37369   3.773   2.198   5.556 -0.1440 -0.9446 -0.3946
 8578SOL    HW137370   3.800   2.115   5.518 -0.7083 -0.8735 -0.9456
 8578SOL    HW237371   3.816   2.181   5.640 -1.0615  0.7654  0.4252
 8579SOL     OW37372   3.710   0.256   6.596 -0.0454 -0.1568 -0.1693
 8579SOL    HW137373   3.732   0.229   6.685  1.3298  2.0274  0.1598
 8579SOL    HW237374   3.715   0.351   6.604 -1.4120  0.0765 -2.0192
 8580SOL     OW37375   1.977   0.798   2.867  0.3201 -0.3106  0.0931
 8580SOL    HW137376   1.979   0.749   2.785  1.4993  0.2581 -0.2172
 8580SOL    HW237377   1.989   0.723   2.926 -2.4848 -1.8593 -1.3496
 8581SOL     OW37378   1.773   4.435   5.920 -0.4190  0.0803  0.0097
 8581SOL    HW137379   1.790   4.344   5.946 -1.2479 -0.7923 -2.4376
 8581SOL    HW237380   1.719   4.464   5.993 -1.7332 -1.0723 -0.5132
 8582SOL     OW37381   3.760   1.365   7.891  0.5788  0.1256  0.3243
 8582SOL    HW137382   3.812   1.292   7.860  1.2782  0.3579  0.9416
 8582SOL    HW237383   3.741   1.418   7.814 -1.9095 -2.1659 -0.6321
 8583SOL     OW37384   0.403   2.625   9.410  0.3572  0.2733 -0.0094
 8583SOL    HW137385   0.487   2.669   9.427 -0.7756  2.4039  0.0626
 8583SOL    HW237386   0.392   2.641   9.316  0.6372  0.6573  0.0227
 8584SOL     OW37387   3.489   0.856   6.047 -0.0693 -0.4573 -0.2915
 8584SOL    HW137388   3.554   0.883   5.982 -0.7288  1.3514 -0.2006
 8584SOL    HW237389   3.477   0.764   6.026 -0.7173  0.3240 -3.3523
 8585SOL     OW37390   2.204   2.866   9.142  0.1223  0.0865  0.0664
 8585SOL    HW137391   2.279   2.809   9.164 -0.1828  0.2681  1.5990
 8585SOL    HW237392   2.261   2.936   9.111  1.1387  0.1128  1.9501
 8586SOL     OW37393   2.956   0.568  10.993  0.3597 -0.3172  0.0085
 8586SOL    HW137394   3.037   0.617  11.007 -0.3794  0.9475 -0.0744
 8586SOL    HW237395   2.889   0.635  10.975  0.2620 -0.5928 -0.6539
 8587SOL     OW37396   1.375   1.388   5.856 -0.6082 -0.3349 -0.0469
 8587SOL    HW137397   1.433   1.463   5.852 -0.5074 -0.5302 -2.4544
 8587SOL    HW237398   1.393   1.350   5.942 -2.9352 -0.6414  0.3026
 8588SOL     OW37399   0.330   3.735   1.381 -0.5878 -0.2795  0.2611
 8588SOL    HW137400   0.317   3.662   1.321  0.8699 -0.5355  0.2549
 8588SOL    HW237401   0.252   3.718   1.434 -1.4831 -1.3319 -1.3925
 8589SOL     OW37402   3.418   0.802   9.233 -0.2908 -0.7434 -0.8936
 8589SOL    HW137403   3.397   0.892   9.208 -2.3712 -0.7025  1.0338
 8589SOL    HW237404   3.379   0.755   9.160  0.0825 -1.5221 -0.5907
 8590SOL     OW37405   0.375   3.124   0.440  0.5079  0.4862  0.6403
 8590SOL    HW137406   0.284   3.110   0.417 -0.1550  2.6989  1.8664
 8590SOL    HW237407   0.410   3.035   0.444  1.7050  1.0179  2.3547
 8591SOL     OW37408   2.197   3.560   3.986 -0.3361 -0.2420  0.0904
 8591SOL    HW137409   2.158   3.620   3.922 -0.6989  0.5909  1.0985
 8591SOL    HW237410   2.291   3.568   3.967 -0.2557  2.1427  1.4211
 8592SOL     OW37411   0.988   1.576   9.063  0.0147  0.3754 -0.0757
 8592SOL    HW137412   1.071   1.554   9.106 -0.3420  1.3761  1.1349
 8592SOL    HW237413   0.933   1.500   9.076 -1.2066  1.2212 -0.3216
 8593SOL     OW37414   4.591   2.378   7.867  0.4569 -0.9660  0.0800
 8593SOL    HW137415   4.662   2.320   7.898  0.8442 -1.9339 -2.6095
 8593SOL    HW237416   4.566   2.315   7.799  0.9518  1.1795 -2.0964
 8594SOL     OW37417   0.182   1.676   1.836  0.0381 -0.0419 -0.0574
 8594SOL    HW137418   0.128   1.699   1.912 -0.3223  2.7450 -1.1604
 8594SOL    HW237419   0.218   1.758   1.802  0.2945 -1.3450 -2.8967
 8595SOL     OW37420   0.215   0.724   7.715  0.3251 -0.1935 -0.0144
 8595SOL    HW137421   0.301   0.690   7.690 -0.0861 -2.5760  1.8678
 8595SOL    HW237422   0.253   0.775   7.787 -1.6346 -0.9020  1.5038
 8596SOL     OW37423   0.054   0.598  11.117 -0.1829  0.3724 -0.1857
 8596SOL    HW137424   4.706   0.581  11.151  0.6560  1.0888  2.3392
 8596SOL    HW237425   0.036   0.588  11.024 -0.7886 -2.0895  0.2152
 8597SOL     OW37426   2.700   0.586   3.272  0.1258  0.4747 -0.1198
 8597SOL    HW137427   2.717   0.532   3.194 -2.5516 -1.8561  0.9339
 8597SOL    HW237428   2.645   0.656   3.236  0.5780  1.9529  2.0781
 8598SOL     OW37429   3.374   2.338   5.676  0.8763  0.0480 -0.6203
 8598SOL    HW137430   3.298   2.348   5.618 -0.2508 -3.3935  0.2773
 8598SOL    HW237431   3.450   2.376   5.633 -0.9130  2.1416 -1.9583
 8599SOL     OW37432   3.593   2.026   0.573  0.2244  0.3739 -0.1720
 8599SOL    HW137433   3.511   2.039   0.524 -0.4081  2.7714  1.5011
 8599SOL    HW237434   3.649   1.982   0.509 -0.0781 -1.0299  0.5461
 8600SOL     OW37435   0.581   1.866   1.122 -0.0700  0.5355 -0.6873
 8600SOL    HW137436   0.530   1.816   1.186  0.9185 -0.9758 -1.0844
 8600SOL    HW237437   0.515   1.934   1.110  0.2590  1.3881  2.4105
 8601SOL     OW37438   3.819   4.607   1.708  0.0789  0.3364 -0.3222
 8601SOL    HW137439   3.865   4.627   1.627 -0.5663 -1.0407 -1.0345
 8601SOL    HW237440   3.894   4.639   1.758  0.3478 -0.6447 -0.0947
 8602SOL     OW37441   2.794   4.538   4.031  0.0510 -0.0359 -0.0828
 8602SOL    HW137442   2.737   4.520   4.106  0.2213 -0.0825  0.0345
 8602SOL    HW237443   2.748   4.483   3.968  1.2616 -0.6144 -0.4566
 8603SOL     OW37444   0.030   3.668   1.150 -0.1243 -0.1929  0.3886
 8603SOL    HW137445   4.693   3.710   1.111  0.5421  2.8847  2.4386
 8603SOL    HW237446   4.724   3.605   1.206 -1.3613 -0.9256 -1.4085
 8604SOL     OW37447   3.285   4.104   1.834  0.3322 -0.1730 -0.4717
 8604SOL    HW137448   3.199   4.074   1.863 -0.6157  0.5883 -2.4961
 8604SOL    HW237449   3.274   4.166   1.761 -0.2926  1.1353  0.7387
 8605SOL     OW37450   3.571   2.928   4.120 -0.0667  0.3256  0.2030
 8605SOL    HW137451   3.484   2.956   4.149 -1.5170 -1.2860 -2.5277
 8605SOL    HW237452   3.631   2.991   4.160  1.3212  0.0292 -1.4276
 8606SOL     OW37453   3.907   0.971   9.802  0.0373  0.5352  0.4482
 8606SOL    HW137454   3.951   0.923   9.873  0.0296 -0.6590 -0.3464
 8606SOL    HW237455   3.917   0.903   9.736 -3.4146  0.3659  0.1104
 8607SOL     OW37456   3.457   4.434   1.379  0.4325 -0.7404 -0.2808
 8607SOL    HW137457   3.488   4.412   1.467  2.2494  4.0440  0.2597
 8607SOL    HW237458   3.362   4.426   1.394  0.1466  0.8979 -1.2443
 8608SOL     OW37459   4.005   2.874   1.317  0.1496  0.1936  0.4272
 8608SOL    HW137460   3.936   2.924   1.274  0.5961  0.7523  0.3486
 8608SOL    HW237461   3.959   2.798   1.352 -2.6653  0.5250 -2.5882
 8609SOL     OW37462   3.691   2.713   7.062 -0.0695  0.3852  0.0012
 8609SOL    HW137463   3.609   2.671   7.036  0.4435  0.6673 -2.0766
 8609SOL    HW237464   3.692   2.699   7.156 -1.6107  0.2388 -0.0063
 8610SOL     OW37465   2.051   4.674   4.490  0.0471  0.0421  0.1029
 8610SOL    HW137466   2.131   4.689   4.540  0.3912 -1.6349  0.0614
 8610SOL    HW237467   2.033   0.022   4.455 -2.1670 -0.4616 -0.0049
 8611SOL     OW37468   2.355   1.411   3.611 -0.0134  0.0820 -0.6979
 8611SOL    HW137469   2.268   1.378   3.635 -0.2854  1.3799  0.1228
 8611SOL    HW237470   2.403   1.329   3.606 -3.9803 -2.1590 -1.6627
 8612SOL     OW37471   4.536   3.337   7.709  0.1385  0.3381  0.0165
 8612SOL    HW137472   4.446   3.306   7.709  0.2511  0.0029 -0.5162
 8612SOL    HW237473   4.534   3.400   7.637 -3.7885  0.0975 -0.0518
 8613SOL     OW37474   4.018   4.644   9.272 -0.3306  0.0385 -0.1634
 8613SOL    HW137475   3.940   4.624   9.324  1.0953  0.4092  2.1358
 8613SOL    HW237476   4.022   4.567   9.216  0.3393  1.6826 -2.3643
 8614SOL     OW37477   4.334   0.845  15.799 -0.3859  0.3252 -0.5934
 8614SOL    HW137478   4.364   0.755  15.811 -0.3856  0.2311 -1.3007
 8614SOL    HW237479   4.239   0.837  15.805 -0.1539 -1.2312  1.1256
 8615SOL     OW37480   4.670   1.076   5.691 -0.5220  0.3287  0.1696
 8615SOL    HW137481   4.608   1.038   5.753 -0.3840  1.3201  0.9159
 8615SOL    HW237482   4.725   1.000   5.670 -0.3082 -0.0283  2.0285
 8616SOL     OW37483   2.559   0.967   2.605 -0.0750 -0.0392  0.5361
 8616SOL    HW137484   2.523   0.924   2.528  0.3763  1.5523 -0.5605
 8616SOL    HW237485   2.583   1.049   2.562  0.6824 -1.1756 -1.1997
 8617SOL     OW37486   2.551   2.156  16.493 -0.0090 -0.1325  0.2859
 8617SOL    HW137487   2.513   2.077  16.532  2.1647 -1.3665 -0.0432
 8617SOL    HW237488   2.643   2.128  16.493 -0.2909 -1.0265 -0.8484
 8618SOL     OW37489   1.281   1.093   4.282  0.2682 -0.8124  0.3403
 8618SOL    HW137490   1.306   1.017   4.336  0.0745  0.3874  2.1202
 8618SOL    HW237491   1.242   1.155   4.344 -3.5725 -2.3272 -0.5166
 8619SOL     OW37492   2.481   3.370   6.740  0.2221  0.2476  0.4918
 8619SOL    HW137493   2.410   3.433   6.750 -1.3379 -1.3281 -0.6540
 8619SOL    HW237494   2.429   3.296   6.707  2.8108 -1.6164  0.5752
 8620SOL     OW37495   4.531   3.509   9.212 -0.2020 -0.0831  0.1368
 8620SOL    HW137496   4.477   3.431   9.195  0.2527 -0.2415 -0.5834
 8620SOL    HW237497   4.602   3.475   9.267 -0.4084  0.3668  0.6681
 8621SOL     OW37498   0.594   4.028   2.350  0.0237  0.2580 -0.0424
 8621SOL    HW137499   0.603   4.124   2.347 -3.8590  0.5807 -0.9913
 8621SOL    HW237500   0.600   4.027   2.445 -1.6463 -1.1262  0.0313
 8622SOL     OW37501   2.817   1.787   4.887  0.6810  0.0989  0.3260
 8622SOL    HW137502   2.859   1.703   4.868  1.8322  0.7761 -0.1007
 8622SOL    HW237503   2.845   1.791   4.979 -2.5412  0.2231  1.3292
 8623SOL     OW37504   3.940   0.189   6.462  0.2498  0.6861 -0.5087
 8623SOL    HW137505   3.857   0.206   6.507  0.3434  1.7318 -0.7363
 8623SOL    HW237506   3.991   0.182   6.542  0.5545  0.1175 -0.7594
 8624SOL     OW37507   2.398   4.740   5.121  0.0797  0.0589  0.2253
 8624SOL    HW137508   2.405   4.646   5.102 -0.4515  0.2110 -0.6994
 8624SOL    HW237509   2.333   0.001   5.192  1.1662  0.2971  1.2201
 8625SOL     OW37510   3.481   0.431   6.144 -0.0372  0.5050  0.5793
 8625SOL    HW137511   3.510   0.354   6.193  0.5224  0.3235 -0.0488
 8625SOL    HW237512   3.401   0.462   6.188 -2.4031  0.9778 -4.1018
 8626SOL     OW37513   1.001   3.909   7.047 -0.9118  0.1509  0.0871
 8626SOL    HW137514   1.063   3.954   7.104 -0.2190  0.5340 -0.9729
 8626SOL    HW237515   0.940   3.981   7.035  2.7159  2.8071 -2.5284
 8627SOL     OW37516   0.730   2.903   4.953 -0.6279 -0.1846  0.3169
 8627SOL    HW137517   0.678   2.970   4.998  0.6160  0.6083  0.5953
 8627SOL    HW237518   0.789   2.963   4.906 -0.2197  0.2522  1.3987
 8628SOL     OW37519   0.310   3.212   5.297  0.7497 -0.3040 -0.3725
 8628SOL    HW137520   0.235   3.254   5.340  0.4230 -1.2115 -0.0514
 8628SOL    HW237521   0.351   3.291   5.262 -1.9118  0.5914 -1.5361
 8629SOL     OW37522   1.694   2.784   6.217 -0.2270 -0.0829 -0.3497
 8629SOL    HW137523   1.636   2.859   6.234  2.8099  1.8091  1.6325
 8629SOL    HW237524   1.713   2.797   6.124 -1.0352  3.4451 -0.0419
 8630SOL     OW37525   0.294   0.630   5.535 -0.3255 -0.0190  0.1575
 8630SOL    HW137526   0.327   0.685   5.465  1.1917  0.3090  1.1186
 8630SOL    HW237527   0.233   0.687   5.582  0.6515  3.0009 -2.2915
 8631SOL     OW37528   4.571   1.686   4.219  0.4277 -0.3304 -0.4678
 8631SOL    HW137529   4.637   1.623   4.249  0.7471  0.6188  0.8216
 8631SOL    HW237530   4.619   1.768   4.222  1.1619 -0.7378 -1.0916
 8632SOL     OW37531   1.853   2.631   9.582 -0.1412  0.2172 -0.4068
 8632SOL    HW137532   1.920   2.602   9.520 -0.6613  1.0450 -1.3645
 8632SOL    HW237533   1.792   2.558   9.583  0.5113 -0.3151  1.7232
 8633SOL     OW37534   4.719   2.838   2.193 -0.6485  0.2923 -0.4767
 8633SOL    HW137535   4.707   2.837   2.288  0.7317  1.9026 -0.2940
 8633SOL    HW237536   0.010   2.751   2.170 -1.0161 -0.1577  0.6863
 8634SOL     OW37537   2.385   0.231   4.682 -0.0529  0.0666 -0.5133
 8634SOL    HW137538   2.450   0.247   4.750  1.4273 -0.7554 -1.7519
 8634SOL    HW237539   2.444   0.211   4.610 -1.1030 -0.8921 -1.1025
 8635SOL     OW37540   2.021   2.689   7.139 -0.0252  0.3493  0.1415
 8635SOL    HW137541   2.076   2.761   7.107  0.1968  0.3933  0.6294
 8635SOL    HW237542   1.942   2.711   7.089 -0.4828 -1.5749  0.0206
 8636SOL     OW37543   1.517   3.694   3.421  0.2691  0.0441 -0.5280
 8636SOL    HW137544   1.549   3.607   3.397 -0.6022 -0.7903  1.3638
 8636SOL    HW237545   1.548   3.696   3.511 -0.0735 -2.0541 -0.3541
 8637SOL     OW37546   3.205   0.419   9.791  0.2420 -0.1911  0.3936
 8637SOL    HW137547   3.257   0.344   9.762  0.7304  0.8409 -1.3305
 8637SOL    HW237548   3.164   0.451   9.711  1.8358 -2.6179 -1.3825
 8638SOL     OW37549   1.331   2.088   8.709  0.3031 -0.2070  0.6765
 8638SOL    HW137550   1.420   2.059   8.690 -0.0737 -0.6827 -0.3821
 8638SOL    HW237551   1.340   2.150   8.781 -0.8702 -0.2327  0.8510
 8639SOL     OW37552   1.153   1.019  16.374 -0.0634 -0.2939 -0.1440
 8639SOL    HW137553   1.064   0.992  16.353 -1.3712  1.8970  2.7538
 8639SOL    HW237554   1.173   1.099  16.326  2.6462 -0.3911  0.7881
 8640SOL     OW37555   2.925   2.674   3.986 -0.0593  0.4432 -0.5015
 8640SOL    HW137556   2.903   2.704   3.898 -1.5030  1.3240  0.1593
 8640SOL    HW237557   2.924   2.579   3.994  0.0761  0.3660 -1.3471
 8641SOL     OW37558   2.327   4.618   3.323  0.6262 -0.3686  0.6313
 8641SOL    HW137559   2.242   4.595   3.360 -0.0496  1.3897  0.1505
 8641SOL    HW237560   2.381   4.542   3.343 -0.3621 -1.2992 -0.2842
 8642SOL     OW37561   3.323   0.823   2.874 -0.7349 -0.5056 -0.0386
 8642SOL    HW137562   3.257   0.851   2.810 -2.4085 -1.3110  1.3099
 8642SOL    HW237563   3.271   0.779   2.942  1.8344  0.1317  2.3136
 8643SOL     OW37564   0.852   0.756   7.624  0.3021  0.3415  0.5880
 8643SOL    HW137565   0.866   0.714   7.708  0.7822 -0.6274  0.0242
 8643SOL    HW237566   0.940   0.776   7.592  0.7948 -1.4439  0.8183
 8644SOL     OW37567   4.102   1.666   5.760  0.5663 -0.4805 -0.2412
 8644SOL    HW137568   4.181   1.674   5.813  1.0193  2.7070 -1.3858
 8644SOL    HW237569   4.146   1.657   5.676  1.0819 -0.3702  0.0210
 8645SOL     OW37570   2.599   4.396   4.296 -0.1016 -0.1893  0.1320
 8645SOL    HW137571   2.641   4.322   4.339  1.3956  0.6244  0.0706
 8645SOL    HW237572   2.581   4.354   4.212 -0.2437  0.9410 -0.4088
 8646SOL     OW37573   2.660   1.963  15.912 -0.3326 -0.4024  0.6282
 8646SOL    HW137574   2.618   2.026  15.970 -1.4178 -0.2074 -0.3699
 8646SOL    HW237575   2.578   1.938  15.870  1.1507 -2.3286 -1.1796
 8647SOL     OW37576   4.652   3.997   4.317 -0.2036 -0.4501 -0.2906
 8647SOL    HW137577   4.700   3.914   4.321  1.3493  0.4730  0.2506
 8647SOL    HW237578   4.717   4.047   4.368 -0.9095  0.0675  0.1035
 8648SOL     OW37579   2.750   4.094   6.012 -0.5009  0.0755  0.1179
 8648SOL    HW137580   2.810   4.139   5.952  0.1450  1.6734  1.9855
 8648SOL    HW237581   2.815   4.076   6.079  2.0293 -1.6324 -2.7716
 8649SOL     OW37582   3.890   3.130   7.104 -0.4464  0.3539  0.3769
 8649SOL    HW137583   3.940   3.067   7.155 -0.4908  0.2314  0.2656
 8649SOL    HW237584   3.832   3.077   7.050  0.2184  1.1468 -1.1080
 8650SOL     OW37585   1.481   4.036   5.196  0.1782  0.7279 -0.0968
 8650SOL    HW137586   1.534   4.109   5.228  0.2442  0.4348  0.4566
 8650SOL    HW237587   1.542   3.983   5.144 -1.3948  0.2158 -1.4134
 8651SOL     OW37588   3.139   1.593   5.801  0.0869  0.2122  0.2914
 8651SOL    HW137589   3.122   1.560   5.889 -0.9197 -0.5429 -0.1864
 8651SOL    HW237590   3.177   1.679   5.820  0.7834  0.0667 -0.4311
 8652SOL     OW37591   1.877   1.582  14.475 -0.6593 -0.1300  0.1340
 8652SOL    HW137592   1.868   1.493  14.509  0.2702 -0.1173  0.4122
 8652SOL    HW237593   1.962   1.604  14.512 -0.8743  0.2255  0.4257
 8653SOL     OW37594   3.428   4.334  11.241 -0.3361 -0.0062  0.0959
 8653SOL    HW137595   3.433   4.256  11.297 -0.1071  0.9721  1.4300
 8653SOL    HW237596   3.410   4.389  11.318  0.3224 -0.6216  0.6947
 8654SOL     OW37597   4.461   3.660   0.681  0.3796  0.2186 -0.2750
 8654SOL    HW137598   4.404   3.693   0.750 -1.3756  0.0478 -1.6365
 8654SOL    HW237599   4.425   3.572   0.668 -1.6340  1.3776 -2.5750
 8655SOL     OW37600   1.774   3.508  10.139  0.0159  0.4102  0.2127
 8655SOL    HW137601   1.851   3.510  10.081 -0.3195 -1.1391 -0.2809
 8655SOL    HW237602   1.712   3.544  10.075  1.8518  1.5820 -0.9108
 8656SOL     OW37603   2.283   4.286  13.139  0.3340 -0.3514  0.2374
 8656SOL    HW137604   2.340   4.215  13.108  0.6219  0.2315 -0.5846
 8656SOL    HW237605   2.265   4.259  13.229  0.9416  0.2903  0.5474
 8657SOL     OW37606   1.862   4.364   8.022  1.0370 -0.0260 -0.0221
 8657SOL    HW137607   1.856   4.310   7.943  1.8692  1.4465 -1.0897
 8657SOL    HW237608   1.898   4.444   7.984 -0.7995  0.6571 -0.3268
 8658SOL     OW37609   4.364   1.435   4.840  0.4884 -0.1858  0.3406
 8658SOL    HW137610   4.382   1.343   4.819  1.1962 -0.1277  0.7005
 8658SOL    HW237611   4.315   1.419   4.921  0.5880 -0.4296  0.3523
 8659SOL     OW37612   3.353   2.586   5.425  0.1132  0.7595 -0.4940
 8659SOL    HW137613   3.420   2.518   5.433  0.1941  0.4290 -3.9056
 8659SOL    HW237614   3.304   2.579   5.507  0.2107 -0.1483 -0.5084
 8660SOL     OW37615   0.893   2.554   2.573  0.4655 -0.3478  0.7430
 8660SOL    HW137616   0.948   2.573   2.649  1.2492  0.4043 -0.0204
 8660SOL    HW237617   0.817   2.526   2.623  0.4587 -1.0609  0.3378
 8661SOL     OW37618   2.206   0.900   5.693 -0.0954  0.1529  0.0037
 8661SOL    HW137619   2.118   0.936   5.705  0.5670  1.1410  1.9774
 8661SOL    HW237620   2.242   0.962   5.630  0.2236  0.9318  0.9427
 8662SOL     OW37621   1.441   2.686   8.446 -0.4431 -0.2083  0.0256
 8662SOL    HW137622   1.478   2.774   8.435 -2.4718  0.6967  0.4649
 8662SOL    HW237623   1.466   2.640   8.366 -3.5778  0.6025 -1.3776
 8663SOL     OW37624   2.404   3.865   5.136  0.3528  0.0330  0.9746
 8663SOL    HW137625   2.354   3.944   5.157  2.3386  0.6483  3.4328
 8663SOL    HW237626   2.344   3.804   5.093  0.4349  2.2750 -2.3030
 8664SOL     OW37627   1.745   2.901   4.763  0.1506 -0.2918 -0.0198
 8664SOL    HW137628   1.681   2.894   4.834  0.5119 -2.4634  0.1261
 8664SOL    HW237629   1.810   2.957   4.806 -0.2806  0.6621 -0.6377
 8665SOL     OW37630   4.038   0.587   7.571  0.1150 -1.1276 -0.8175
 8665SOL    HW137631   4.131   0.597   7.591 -0.7452  2.8730  1.1650
 8665SOL    HW237632   4.034   0.626   7.484  2.2960  2.5936  0.7575
 8666SOL     OW37633   4.480   1.059   4.068 -0.0218 -0.4137 -0.4938
 8666SOL    HW137634   4.408   1.067   4.006  0.5558 -1.3160 -1.2799
 8666SOL    HW237635   4.550   1.034   4.008  1.7155  3.0042  0.0471
 8667SOL     OW37636   2.953   0.225  17.232  0.5141  0.3166 -0.1459
 8667SOL    HW137637   3.024   0.163  17.217 -0.5911 -0.8828 -0.3207
 8667SOL    HW237638   3.005   0.300  17.264  2.3592 -1.2492  0.5286
 8668SOL     OW37639   1.673   3.609  11.587  0.3787  0.0558 -0.4700
 8668SOL    HW137640   1.712   3.694  11.607 -0.6991  0.2858  0.6716
 8668SOL    HW237641   1.711   3.553  11.655  2.1069  1.9767  0.1445
 8669SOL     OW37642   0.956   4.513   6.599 -0.3494 -0.1816  0.9271
 8669SOL    HW137643   0.861   4.514   6.600 -0.3913 -2.2196 -1.9226
 8669SOL    HW237644   0.975   4.605   6.620 -0.7926  0.2989 -0.7658
 8670SOL     OW37645   2.315   0.969   7.064  0.0704  0.1740 -0.0904
 8670SOL    HW137646   2.287   1.060   7.073 -1.4321 -0.4024  1.0296
 8670SOL    HW237647   2.325   0.959   6.969  0.6840  0.0755 -0.0113
 8671SOL     OW37648   4.152   4.579   8.540 -0.5391 -0.2993 -0.3229
 8671SOL    HW137649   4.115   4.494   8.565 -0.3810  0.4681  2.5551
 8671SOL    HW237650   4.246   4.564   8.534 -0.2756  1.2326  0.0393
 8672SOL     OW37651   1.976   4.258   3.212  0.6952 -0.0490  0.1267
 8672SOL    HW137652   2.004   4.229   3.124 -2.0517 -0.3051 -0.6639
 8672SOL    HW237653   2.005   4.181   3.261  1.4712  0.5611  0.6277
 8673SOL     OW37654   3.686   2.222   6.572 -0.1326  0.7877 -0.1973
 8673SOL    HW137655   3.635   2.150   6.609  0.4693  1.1916  1.4064
 8673SOL    HW237656   3.749   2.166   6.525 -0.6429 -0.5850  0.7534
 8674SOL     OW37657   2.335   1.049   9.837  0.2221  1.0646  0.2663
 8674SOL    HW137658   2.301   0.974   9.885  0.7028  1.2049  0.8306
 8674SOL    HW237659   2.349   1.102   9.915 -1.2168 -1.6588  2.3356
 8675SOL     OW37660   2.493   4.679  12.618  0.1854 -0.3188 -0.2017
 8675SOL    HW137661   2.417   4.654  12.670  0.9200 -2.1388 -0.0085
 8675SOL    HW237662   2.565   4.691  12.680 -0.2283  0.8281  0.0641
 8676SOL     OW37663   3.413   2.010   0.332 -0.4177  0.9046 -0.0374
 8676SOL    HW137664   3.367   2.085   0.294  1.0959  2.0203  0.3174
 8676SOL    HW237665   3.415   1.956   0.252  1.3162  0.9673 -0.0348
 8677SOL     OW37666   0.392   2.725   7.646 -0.0108 -0.1177  0.1301
 8677SOL    HW137667   0.403   2.801   7.702 -1.6971  0.5796 -0.4699
 8677SOL    HW237668   0.449   2.661   7.689 -0.3232 -1.0480 -0.8294
 8678SOL     OW37669   1.714   2.174   5.415 -0.0134  0.3821 -0.3493
 8678SOL    HW137670   1.738   2.240   5.480 -0.8812 -0.2115  0.5599
 8678SOL    HW237671   1.804   2.151   5.388  0.2809  1.2422 -0.1112
 8679SOL     OW37672   1.153   0.473   9.158 -0.0624 -0.3327  0.1603
 8679SOL    HW137673   1.155   0.486   9.253  0.2693  0.9753 -0.0208
 8679SOL    HW237674   1.202   0.395   9.131  0.5711  0.3830 -0.7625
 8680SOL     OW37675   2.658   3.138   3.348 -0.9769 -0.0310  0.0196
 8680SOL    HW137676   2.717   3.120   3.421  2.6209 -0.5606 -3.0327
 8680SOL    HW237677   2.687   3.224   3.317 -0.1412  0.0836  1.0925
 8681SOL     OW37678   0.626   1.015  15.830  0.3050  0.0546  0.1188
 8681SOL    HW137679   0.630   0.962  15.751 -0.7820 -0.9129  0.7051
 8681SOL    HW237680   0.640   1.101  15.791  1.1333 -0.3406 -0.4555
 8682SOL     OW37681   2.233   3.305   3.889 -0.3769  0.0384  0.3671
 8682SOL    HW137682   2.236   3.383   3.944  1.8685 -0.3916  0.8450
 8682SOL    HW237683   2.255   3.238   3.954 -0.6041 -2.3230 -1.9837
 8683SOL     OW37684   2.520   0.100  14.360 -0.2779  0.2849 -0.2412
 8683SOL    HW137685   2.481   0.061  14.438 -0.1219 -1.1818 -0.8876
 8683SOL    HW237686   2.452   0.164  14.340  0.3106  1.4500  1.5421
 8684SOL     OW37687   0.911   3.384   8.213 -0.1395  0.0216 -0.2986
 8684SOL    HW137688   0.857   3.342   8.146  0.2483 -0.5999 -0.2209
 8684SOL    HW237689   0.945   3.307   8.259  1.5206  0.5040 -0.7450
 8685SOL     OW37690   0.658   4.205  16.873 -0.2663  0.3909 -0.0161
 8685SOL    HW137691   0.689   4.240  16.790  1.4829  0.0445  0.4937
 8685SOL    HW237692   0.742   4.184  16.915 -0.0252  0.2533 -0.5695
 8686SOL     OW37693   1.144   0.236   7.390  0.0184 -0.1555 -0.0211
 8686SOL    HW137694   1.120   0.315   7.439 -2.4243 -1.2448  0.5009
 8686SOL    HW237695   1.061   0.213   7.350 -0.3549  2.3148 -0.6981
 8687SOL     OW37696   1.369   2.595   2.031  0.2959  0.0334 -0.3009
 8687SOL    HW137697   1.444   2.639   2.069  1.1509  0.2168 -2.1683
 8687SOL    HW237698   1.297   2.652   2.056  1.3297  0.7699  0.9478
 8688SOL     OW37699   4.507   4.554   5.304  0.0039 -0.0504 -0.4391
 8688SOL    HW137700   4.435   4.613   5.283  1.3122  0.7425 -2.6144
 8688SOL    HW237701   4.559   4.569   5.225 -0.6559  0.8056 -0.7126
 8689SOL     OW37702   3.231   3.283   1.359  0.5860  0.0904  0.1590
 8689SOL    HW137703   3.163   3.223   1.389 -1.2783  1.3295 -1.5389
 8689SOL    HW237704   3.205   3.365   1.400  0.5710  0.4046 -0.4737
 8690SOL     OW37705   3.496   0.976   3.935 -0.1100  0.4189  0.1916
 8690SOL    HW137706   3.466   0.958   3.846 -1.5834  0.1745  0.7352
 8690SOL    HW237707   3.427   1.030   3.973 -0.4878  1.7979 -2.4244
 8691SOL     OW37708   4.651   4.025   1.744 -0.1646 -0.3794 -0.3022
 8691SOL    HW137709   4.662   3.998   1.653  0.2794 -0.5327 -0.2071
 8691SOL    HW237710   0.002   4.026   1.777 -0.4770 -1.0468  0.5700
 8692SOL     OW37711   1.114   1.992   4.641 -0.0268  0.1197 -0.3742
 8692SOL    HW137712   1.095   1.901   4.665 -0.0480  0.1781 -0.1715
 8692SOL    HW237713   1.045   2.047   4.677 -0.6629 -0.8300 -0.1274
 8693SOL     OW37714   1.727   2.476  13.775  0.4714  0.2978 -0.0133
 8693SOL    HW137715   1.777   2.556  13.758 -0.6709  0.6742 -1.5885
 8693SOL    HW237716   1.640   2.497  13.742 -0.3303  1.3726  2.7785
 8694SOL     OW37717   1.982   2.258  11.318 -0.1409  0.0196  0.5308
 8694SOL    HW137718   1.997   2.341  11.273 -1.1277  0.4358  0.9759
 8694SOL    HW237719   1.909   2.223  11.266  0.7211  0.8107 -1.1852
 8695SOL     OW37720   1.296   4.216   5.106 -0.3553  0.5377 -0.5595
 8695SOL    HW137721   1.239   4.154   5.061  1.0260 -2.7270  2.1843
 8695SOL    HW237722   1.353   4.149   5.145  1.9824  2.2262 -1.1072
 8696SOL     OW37723   4.418   2.214   8.825  0.1615 -0.0819  0.3662
 8696SOL    HW137724   4.332   2.251   8.845 -0.6148 -0.9157 -1.4653
 8696SOL    HW237725   4.411   2.128   8.784  2.6225 -0.7255  1.2796
 8697SOL     OW37726   4.481   0.495  13.948 -0.0682 -0.0184 -0.1814
 8697SOL    HW137727   4.523   0.415  13.916 -0.7960 -1.0307  1.4124
 8697SOL    HW237728   4.551   0.554  13.976 -1.3607  0.3571  2.2395
 8698SOL     OW37729   1.325   0.275  14.693 -0.1924  0.2105 -0.7954
 8698SOL    HW137730   1.370   0.315  14.618 -0.1913  1.6001 -0.0568
 8698SOL    HW237731   1.279   0.210  14.640 -2.8695 -0.6217  2.5956
 8699SOL     OW37732   0.178   4.334   8.552  0.2102 -0.1467 -0.0528
 8699SOL    HW137733   0.270   4.312   8.537  0.4185  2.0046 -2.0143
 8699SOL    HW237734   0.144   4.342   8.463 -3.3517 -0.8931  1.2585
 8700SOL     OW37735   3.777   0.124   8.306  0.2872  0.7254 -0.5327
 8700SOL    HW137736   3.845   0.104   8.369  0.6017 -3.2281 -2.1197
 8700SOL    HW237737   3.828   0.185   8.253  0.1362 -0.1106 -1.6542
 8701SOL     OW37738   4.103   0.955   2.510  0.4856 -0.5104  0.3307
 8701SOL    HW137739   4.035   0.906   2.463 -1.1100  1.3542  0.7022
 8701SOL    HW237740   4.130   0.885   2.569  2.6780  0.8634  0.9580
 8702SOL     OW37741   3.635   3.627   7.363  0.1253 -0.0810 -0.3307
 8702SOL    HW137742   3.641   3.721   7.376 -1.5724  0.0011 -0.2123
 8702SOL    HW237743   3.585   3.607   7.442  0.3684  0.0389 -0.1466
 8703SOL     OW37744   1.790   2.080   3.845 -0.2371  0.2629  0.3135
 8703SOL    HW137745   1.816   2.145   3.911  0.9269 -1.1305  1.2503
 8703SOL    HW237746   1.705   2.053   3.880  0.4521 -4.0454 -1.3604
 8704SOL     OW37747   0.972   1.528   6.430 -0.3242  0.5158  0.4327
 8704SOL    HW137748   1.023   1.579   6.493  0.1536 -0.0609  0.5151
 8704SOL    HW237749   1.036   1.512   6.361 -1.9764 -2.6600 -0.3318
 8705SOL     OW37750   4.604   2.167   2.046  0.4747 -0.0407  0.1831
 8705SOL    HW137751   4.525   2.139   1.999  1.9017  1.8853 -3.4309
 8705SOL    HW237752   4.590   2.262   2.054  1.8068  0.3888 -2.5227
 8706SOL     OW37753   3.642   4.031   3.111 -0.0399  0.3221 -0.1954
 8706SOL    HW137754   3.643   3.935   3.103 -2.0029  0.2678  0.0644
 8706SOL    HW237755   3.565   4.040   3.168  3.0715  0.4648  3.9663
 8707SOL     OW37756   1.031   3.743   8.447  0.2725  0.1126 -0.1052
 8707SOL    HW137757   1.082   3.816   8.415  0.7195  0.1998  0.8211
 8707SOL    HW237758   0.967   3.792   8.498 -1.2084 -0.2205 -1.6232
 8708SOL     OW37759   1.087   3.688  15.590 -0.3090 -0.4991 -0.1492
 8708SOL    HW137760   1.161   3.642  15.550 -0.9538 -1.5984 -0.0617
 8708SOL    HW237761   1.114   3.686  15.682 -0.5141 -0.2958 -0.0858
 8709SOL     OW37762   2.128   3.735  12.056  0.0219  0.2210 -0.2814
 8709SOL    HW137763   2.223   3.742  12.052  0.0369  1.1313  1.4420
 8709SOL    HW237764   2.122   3.660  12.115 -0.5280  1.4556  1.2484
 8710SOL     OW37765   4.460   1.722   1.567  0.6015  0.0096  0.2691
 8710SOL    HW137766   4.463   1.813   1.538  0.1525 -0.2111 -0.4720
 8710SOL    HW237767   4.518   1.681   1.504 -0.2380  0.7789 -0.9920
 8711SOL     OW37768   1.528   0.508   4.567  0.4693  0.2557 -0.7120
 8711SOL    HW137769   1.540   0.433   4.626  0.9898  0.2367 -0.8401
 8711SOL    HW237770   1.612   0.554   4.573  0.9402 -0.7437  0.4551
 8712SOL     OW37771   0.776   4.162  10.624 -0.2413  0.0467  0.2070
 8712SOL    HW137772   0.733   4.077  10.615 -0.9056  0.4293 -0.2538
 8712SOL    HW237773   0.840   4.139  10.691  0.3616  0.5991 -0.1763
 8713SOL     OW37774   1.974   3.069   6.389  0.2075 -0.1804 -0.3374
 8713SOL    HW137775   1.897   3.120   6.362 -0.8830 -1.4263  0.4125
 8713SOL    HW237776   1.980   3.106   6.477  0.4134 -2.0049  0.4134
 8714SOL     OW37777   4.117   0.138   2.633 -0.2795 -0.4413  0.4763
 8714SOL    HW137778   4.033   0.111   2.597 -1.3243 -0.3027  2.7871
 8714SOL    HW237779   4.150   0.204   2.573  0.4440 -0.9405  0.3286
 8715SOL     OW37780   0.645   0.835   4.992  0.3687  0.6432 -0.2559
 8715SOL    HW137781   0.625   0.856   4.901 -1.5014  3.2913  0.7506
 8715SOL    HW237782   0.638   0.917   5.041  1.7660  0.1804  0.7216
 8716SOL     OW37783   1.710   0.979   2.830  0.3633 -0.2584 -0.0421
 8716SOL    HW137784   1.723   0.899   2.779 -3.6098 -1.7977  1.3071
 8716SOL    HW237785   1.781   0.979   2.895  1.1897 -1.0575 -0.9407
 8717SOL     OW37786   3.452   0.867   6.321 -0.1033 -0.3620  0.6340
 8717SOL    HW137787   3.514   0.936   6.346 -0.4530 -0.0814  0.7228
 8717SOL    HW237788   3.455   0.874   6.226 -0.0817 -1.4986  0.5616
 8718SOL     OW37789   3.915   2.879  14.401  0.5267  0.0342 -0.2075
 8718SOL    HW137790   3.886   2.907  14.314 -0.3230 -1.0239 -0.2637
 8718SOL    HW237791   3.833   2.840  14.430  2.0502 -2.8131  0.2359
 8719SOL     OW37792   1.348   1.541   7.092  0.0916 -0.2238  0.0349
 8719SOL    HW137793   1.389   1.614   7.045  0.9779  0.2277  1.5070
 8719SOL    HW237794   1.270   1.589   7.118 -0.2567 -0.7756  0.0295
 8720SOL     OW37795   1.034   2.306  14.764 -0.4363  0.3348 -0.5060
 8720SOL    HW137796   0.962   2.343  14.712 -0.3274  1.5734  0.2242
 8720SOL    HW237797   1.074   2.385  14.801  2.1236 -0.6635 -1.1543
 8721SOL     OW37798   2.768   2.158   9.539  0.3385 -0.0084 -0.3568
 8721SOL    HW137799   2.781   2.065   9.518  1.1786 -0.1550  0.8724
 8721SOL    HW237800   2.789   2.201   9.456 -1.0233  0.3265 -0.5359
 8722SOL     OW37801   0.798   4.255   3.853 -0.6887 -0.4675 -0.3232
 8722SOL    HW137802   0.710   4.249   3.816 -0.0780  0.8659 -2.0370
 8722SOL    HW237803   0.831   4.166   3.844 -0.4172 -0.2501 -1.5778
 8723SOL     OW37804   4.520   4.305   2.818  0.5939 -0.2434 -0.4949
 8723SOL    HW137805   4.576   4.303   2.896  0.7541 -0.3076 -0.6103
 8723SOL    HW237806   4.590   4.280   2.757  2.8425  0.9740  1.5717
 8724SOL     OW37807   1.815   0.457   7.024  0.0762  0.3802 -0.2852
 8724SOL    HW137808   1.815   0.547   7.056 -2.9840  0.1005  0.5370
 8724SOL    HW237809   1.905   0.433   7.004 -0.0211  0.5512 -0.9109
 8725SOL     OW37810   4.130   3.642   6.920  0.1962 -0.1900  0.0023
 8725SOL    HW137811   4.099   3.729   6.897 -0.6799 -0.6229 -0.4557
 8725SOL    HW237812   4.044   3.610   6.947 -1.0605  3.9485  0.7869
 8726SOL     OW37813   2.964   2.059   8.718 -0.3659 -0.4218  0.0215
 8726SOL    HW137814   2.935   2.148   8.740  1.6478  0.1623  0.3871
 8726SOL    HW237815   3.045   2.038   8.765  1.5850 -1.4415 -3.8232
 8727SOL     OW37816   3.123   3.281   0.247 -0.1979  0.4088 -0.4107
 8727SOL    HW137817   3.202   3.228   0.237 -1.4583 -1.3583 -1.0602
 8727SOL    HW237818   3.143   3.368   0.212  0.0043  0.9522  1.0912
 8728SOL     OW37819   3.168   3.339   6.695 -0.0745 -0.6372 -0.0977
 8728SOL    HW137820   3.246   3.290   6.719  2.0643  1.8675 -1.9558
 8728SOL    HW237821   3.101   3.274   6.716 -0.0781 -0.7634 -0.4959
 8729SOL     OW37822   4.628   1.408  10.823 -0.3269 -0.1292  0.2622
 8729SOL    HW137823   4.539   1.415  10.858 -0.8431  0.0344 -1.1132
 8729SOL    HW237824   4.602   1.398  10.732 -2.8788  2.9882  0.6567
 8730SOL     OW37825   0.451   2.012   1.342  0.5460  0.5854 -0.2597
 8730SOL    HW137826   0.545   2.000   1.326  0.9706  1.9322  1.2237
 8730SOL    HW237827   0.464   2.087   1.400 -1.2587  0.6827  0.0247
 8731SOL     OW37828   3.806   0.451  16.119 -0.1818 -0.2846  0.3027
 8731SOL    HW137829   3.879   0.420  16.173 -0.1650  1.6514  1.3866
 8731SOL    HW237830   3.779   0.528  16.169 -1.2155 -0.5256  0.1095
 8732SOL     OW37831   0.159   3.617   5.441 -0.2289  0.2273 -0.1229
 8732SOL    HW137832   0.088   3.620   5.505 -1.2117  1.4712 -1.2616
 8732SOL    HW237833   0.238   3.640   5.489  0.5333  0.4985 -1.4941
 8733SOL     OW37834   1.937   1.814  15.309 -0.4170 -0.4320 -0.0520
 8733SOL    HW137835   1.843   1.795  15.302 -0.8530  0.9567  2.1487
 8733SOL    HW237836   1.944   1.799  15.403  0.3357  0.4864  0.0366
 8734SOL     OW37837   4.537   2.287   6.290  0.6450 -0.4607  0.6776
 8734SOL    HW137838   4.614   2.316   6.241 -0.6993  0.3022 -0.9797
 8734SOL    HW237839   4.504   2.364   6.336  1.2683  1.6365 -2.4184
 8735SOL     OW37840   2.497   2.683   7.152  0.0804  0.4399 -0.2540
 8735SOL    HW137841   2.419   2.635   7.180  1.4969 -0.7811  1.5626
 8735SOL    HW237842   2.468   2.713   7.066 -0.7647  3.0245  0.9379
 8736SOL     OW37843   3.992   2.196   6.945  0.6973 -0.1752  0.2282
 8736SOL    HW137844   3.899   2.174   6.938  0.4703  0.4916  1.1420
 8736SOL    HW237845   3.984   2.288   6.969  0.0948 -0.1624 -0.0234
 8737SOL     OW37846   3.177   2.161   3.230 -0.7689 -0.0635 -0.4668
 8737SOL    HW137847   3.253   2.131   3.280 -0.7184  0.6143 -0.1395
 8737SOL    HW237848   3.176   2.257   3.234 -0.5355 -0.1403  1.1307
 8738SOL     OW37849   3.729   2.133   6.899 -0.0650  0.8112 -0.1593
 8738SOL    HW137850   3.647   2.112   6.944  0.9960 -3.0656 -0.0096
 8738SOL    HW237851   3.702   2.108   6.810 -1.8741  1.4145  0.2072
 8739SOL     OW37852   2.054   1.488   4.959  0.3415  0.0600 -0.0354
 8739SOL    HW137853   2.110   1.485   4.881 -0.4718 -0.1952 -0.6096
 8739SOL    HW237854   2.041   1.583   4.958  0.2241  0.0234 -1.3787
 8740SOL     OW37855   1.551   4.705   9.284  0.2918  0.2259  0.1980
 8740SOL    HW137856   1.566   4.653   9.362  0.8377  0.3437  0.1730
 8740SOL    HW237857   1.493   0.028   9.328 -0.4815 -1.1569  1.1400
 8741SOL     OW37858   3.685   2.649   8.457  0.1012 -0.5118  0.0588
 8741SOL    HW137859   3.713   2.730   8.413  0.9441 -0.3564  0.8780
 8741SOL    HW237860   3.747   2.638   8.529 -0.2404 -0.8719  0.2947
 8742SOL     OW37861   1.216   0.830   6.413 -0.3961  0.0100  0.1189
 8742SOL    HW137862   1.278   0.893   6.449  0.3847 -1.8981  2.0972
 8742SOL    HW237863   1.183   0.778   6.486  0.5701 -0.5672  0.1373
 8743SOL     OW37864   2.093   3.145   8.641 -0.0877  0.3267  0.1940
 8743SOL    HW137865   2.043   3.169   8.719  1.1533 -2.6341  1.9080
 8743SOL    HW237866   2.156   3.083   8.679 -0.4521 -0.0514  0.1853
 8744SOL     OW37867   3.963   4.329   9.679  0.0234  0.0714  0.3229
 8744SOL    HW137868   4.035   4.388   9.700  1.7738 -1.6837 -0.7429
 8744SOL    HW237869   3.901   4.385   9.726 -0.6532  0.7589 -1.3754
 8745SOL     OW37870   1.857   3.598   2.951  0.4067  0.2961  0.1666
 8745SOL    HW137871   1.873   3.644   3.034 -1.5168  1.2488  0.0118
 8745SOL    HW237872   1.766   3.623   2.937  0.5686  1.4018  1.0422
 8746SOL     OW37873   0.673   4.154   4.093 -0.3404  0.3128 -0.2069
 8746SOL    HW137874   0.711   4.209   4.024 -0.0140 -0.7660 -0.8874
 8746SOL    HW237875   0.630   4.208   4.159 -0.7314  0.4712 -0.5888
 8747SOL     OW37876   1.110   0.926   9.696 -0.0157  0.7909  0.2750
 8747SOL    HW137877   1.117   1.020   9.705 -1.5412  0.8992  0.4401
 8747SOL    HW237878   1.108   0.896   9.787 -1.7857  2.4188  0.7791
 8748SOL     OW37879   0.228   2.366  11.696  0.0007  0.2408 -0.1650
 8748SOL    HW137880   0.293   2.370  11.766  2.2543  0.5612 -2.2651
 8748SOL    HW237881   0.249   2.446  11.647  0.1098  1.3431  1.6877
 8749SOL     OW37882   2.723   3.316   6.894 -0.5036 -0.3483 -0.6828
 8749SOL    HW137883   2.811   3.350   6.911  0.5399 -2.4620 -1.8808
 8749SOL    HW237884   2.672   3.346   6.970 -0.0928  0.8610 -0.8909
 8750SOL     OW37885   0.043   3.786   5.254  0.4583  0.3362 -0.1756
 8750SOL    HW137886   0.116   3.757   5.310  0.1196  1.8364  1.0482
 8750SOL    HW237887   0.015   3.859   5.309  1.1858  0.7983 -0.4132
 8751SOL     OW37888   0.533   2.975   2.071  0.1155 -0.4351  0.7017
 8751SOL    HW137889   0.481   3.041   2.115  1.2897  1.4121 -0.6420
 8751SOL    HW237890   0.523   2.898   2.127  0.0956 -0.9606 -0.0104
 8752SOL     OW37891   3.259   3.440   1.843  0.6799 -0.5467 -0.5877
 8752SOL    HW137892   3.339   3.393   1.821  1.4097 -0.2479  1.3645
 8752SOL    HW237893   3.299   3.523   1.869 -0.8231  0.3589 -1.1605
 8753SOL     OW37894   3.147   2.460  11.662 -0.1670 -0.0416 -0.2695
 8753SOL    HW137895   3.200   2.452  11.583  1.0827  1.6734  0.3923
 8753SOL    HW237896   3.191   2.530  11.712  1.3088 -1.0591 -0.1429
 8754SOL     OW37897   1.506   2.148  10.926  0.1152  0.2366 -0.1131
 8754SOL    HW137898   1.526   2.214  10.993 -0.0871  1.3141 -1.0980
 8754SOL    HW237899   1.413   2.170  10.918  0.3299  0.2063 -2.9482
 8755SOL     OW37900   0.740   4.112   5.134 -0.4160 -0.3935  0.2494
 8755SOL    HW137901   0.754   4.185   5.195 -2.1727 -0.3689  0.6240
 8755SOL    HW237902   0.707   4.145   5.050 -1.2524 -3.5227 -0.6574
 8756SOL     OW37903   4.409   3.067  10.744  0.1589 -0.1968 -0.0608
 8756SOL    HW137904   4.446   3.003  10.682  1.1204 -1.0239  1.3637
 8756SOL    HW237905   4.408   3.020  10.827  0.1532 -0.1537 -0.0365
 8757SOL     OW37906   4.226   2.943   4.677  0.7070  0.1304  0.0759
 8757SOL    HW137907   4.166   2.923   4.748  0.9497  1.6023  0.6808
 8757SOL    HW237908   4.240   3.038   4.680  2.0044 -0.0185 -1.1260
 8758SOL     OW37909   0.564   2.565  14.395 -0.1218  0.4819  0.0308
 8758SOL    HW137910   0.521   2.493  14.443 -0.9402  1.2726  0.4777
 8758SOL    HW237911   0.517   2.576  14.313  0.8017  1.3797 -0.3732
 8759SOL     OW37912   0.723   0.069   5.029  0.0390  0.2237 -0.0917
 8759SOL    HW137913   0.701   0.080   4.936 -2.3297 -1.6734  0.2675
 8759SOL    HW237914   0.642   0.023   5.048 -0.2733  0.6297 -0.4467
 8760SOL     OW37915   3.710   1.797   6.859 -0.5771  0.6700  0.1978
 8760SOL    HW137916   3.758   1.839   6.930 -1.6129  1.6139  0.3403
 8760SOL    HW237917   3.738   1.840   6.779  0.1991 -0.7434 -0.2933
 8761SOL     OW37918   0.443   4.493   1.132  0.3266 -0.2983 -0.3861
 8761SOL    HW137919   0.426   4.458   1.219 -1.4819  1.4794 -0.0215
 8761SOL    HW237920   0.354   4.520   1.109  0.0444 -0.5887  0.4007
 8762SOL     OW37921   0.080   1.787   0.044  0.6476 -0.6029  0.2757
 8762SOL    HW137922   4.726   1.792   0.061  0.4037 -0.6347 -1.0976
 8762SOL    HW237923   0.098   1.781  17.707 -0.2914 -4.6174  0.3746
 8763SOL     OW37924   3.056   2.183   4.501  0.2957 -0.0093  0.2453
 8763SOL    HW137925   2.974   2.137   4.517 -0.1921  0.4520 -0.9750
 8763SOL    HW237926   3.120   2.132   4.550 -1.1403 -1.1924  0.8878
 8764SOL     OW37927   2.950   3.290  13.614  0.4231 -0.2521  0.2648
 8764SOL    HW137928   2.984   3.379  13.616 -2.8532  1.0073 -0.9534
 8764SOL    HW237929   2.962   3.276  13.520  1.4867 -1.2535  0.5391
 8765SOL     OW37930   1.386   3.008   2.896  0.2427 -0.0651  0.5004
 8765SOL    HW137931   1.467   3.059   2.898 -0.0158  0.3477  0.3709
 8765SOL    HW237932   1.366   2.988   2.804  0.0686 -1.6978  0.9094
 8766SOL     OW37933   3.819   2.019   8.901 -0.8939  0.6026  0.0299
 8766SOL    HW137934   3.914   2.025   8.895 -0.9397  0.5199 -0.7555
 8766SOL    HW237935   3.794   1.929   8.923  1.2979 -0.7618 -3.0583
 8767SOL     OW37936   4.116   1.818  16.595  0.2953 -0.5781 -0.2936
 8767SOL    HW137937   4.028   1.782  16.599  0.0612  0.1325  1.0466
 8767SOL    HW237938   4.096   1.911  16.607 -2.4370 -1.3300  1.0806
 8768SOL     OW37939   0.879   0.779  15.481  0.0006  0.1315 -0.3587
 8768SOL    HW137940   0.863   0.695  15.524  0.6699 -0.1234 -0.6090
 8768SOL    HW237941   0.967   0.769  15.444  0.0430 -0.3844 -0.1236
 8769SOL     OW37942   3.913   4.269   9.423 -0.0095 -0.2031  0.1557
 8769SOL    HW137943   3.948   4.284   9.511  0.2614 -1.8531  0.3297
 8769SOL    HW237944   3.993   4.243   9.377 -1.3628 -0.5059 -2.0231
 8770SOL     OW37945   1.564   2.765   2.231  0.3243  0.2751  0.1861
 8770SOL    HW137946   1.620   2.838   2.203  1.8610 -1.7011 -1.9844
 8770SOL    HW237947   1.626   2.695   2.209 -1.5744 -1.9194  1.8224
 8771SOL     OW37948   3.987   1.892   4.952 -0.3673  0.1217  0.4897
 8771SOL    HW137949   3.978   1.900   5.047 -0.5110 -1.2709  0.5904
 8771SOL    HW237950   4.025   1.807   4.932  0.8298  0.6602  0.4761
 8772SOL     OW37951   3.133   1.570  17.686  0.2554  0.3451  0.1227
 8772SOL    HW137952   3.049   1.574  17.732 -1.1101 -0.8679 -2.2201
 8772SOL    HW237953   3.147   1.476  17.681 -1.3052  0.0146  2.2280
 8773SOL     OW37954   1.971   1.658  15.571  0.0188 -0.0131  0.8440
 8773SOL    HW137955   1.889   1.631  15.612 -0.3744 -1.5729 -0.9976
 8773SOL    HW237956   1.985   1.589  15.506 -3.0753 -0.6810  0.9204
 8774SOL     OW37957   1.015   2.424   2.037 -0.4804  0.2470  0.6773
 8774SOL    HW137958   1.011   2.440   2.131 -1.4513 -0.3246  0.7348
 8774SOL    HW237959   1.108   2.437   2.021  0.1449 -3.6778  1.1962
 8775SOL     OW37960   2.227   0.472   4.767  0.3518 -0.1630 -0.0938
 8775SOL    HW137961   2.140   0.480   4.806  0.1811 -1.7358 -0.1336
 8775SOL    HW237962   2.233   0.378   4.751  0.9567 -0.2175  0.4438
 8776SOL     OW37963   3.285   2.626   8.061 -0.5340 -0.6379 -0.0689
 8776SOL    HW137964   3.343   2.633   8.136 -0.7830 -0.3359  0.0950
 8776SOL    HW237965   3.343   2.677   8.004 -1.7472  0.5886 -0.2104
 8777SOL     OW37966   2.110   2.741   7.418 -0.1039 -0.6570  0.3755
 8777SOL    HW137967   2.141   2.662   7.464 -1.6288 -1.4653  0.0031
 8777SOL    HW237968   2.083   2.696   7.338  1.9949  0.6713 -1.0747
 8778SOL     OW37969   3.015   4.300  17.578 -0.1854 -0.0904 -0.0185
 8778SOL    HW137970   2.983   4.234  17.517 -1.6336 -0.8230  1.5546
 8778SOL    HW237971   2.950   4.284  17.646 -0.4327  1.1191  0.0323
 8779SOL     OW37972   3.583   0.125   3.362  0.3787  0.2236 -0.1292
 8779SOL    HW137973   3.644   0.189   3.401  1.5275 -1.9354  1.6202
 8779SOL    HW237974   3.649   0.076   3.313  2.3581  0.5754  2.1587
 8780SOL     OW37975   2.370   0.845   7.760 -0.4493 -0.0015 -0.0211
 8780SOL    HW137976   2.375   0.939   7.778  3.9170 -0.5128  1.2368
 8780SOL    HW237977   2.342   0.807   7.843  2.3139 -0.3276  0.7397
 8781SOL     OW37978   1.299   1.445   9.794 -0.1590 -0.1040 -0.2856
 8781SOL    HW137979   1.213   1.404   9.803 -0.7296  1.0203 -0.6300
 8781SOL    HW237980   1.364   1.377   9.777 -0.0715 -0.5416  1.7873
 8782SOL     OW37981   0.241   0.919   8.673 -0.0132  0.0896 -0.0119
 8782SOL    HW137982   0.214   0.866   8.599 -1.8473 -0.8780  1.3665
 8782SOL    HW237983   0.286   0.993   8.631  0.9885 -0.7301 -0.3685
 8783SOL     OW37984   3.741   2.455   0.930 -0.6439 -0.6594 -0.0985
 8783SOL    HW137985   3.649   2.468   0.952 -0.7131 -0.7674 -0.3285
 8783SOL    HW237986   3.771   2.455   1.021 -1.1309  2.7370  0.0431
 8784SOL     OW37987   2.461   1.862  15.762 -0.2911  0.1502 -0.4984
 8784SOL    HW137988   2.452   1.768  15.777  1.4321  0.4271  2.5072
 8784SOL    HW237989   2.377   1.895  15.793  1.1925  3.4503  0.0406
 8785SOL     OW37990   0.502   1.989  16.258  0.7302  0.8295 -0.0955
 8785SOL    HW137991   0.421   1.942  16.243  0.1083  1.5609  0.9427
 8785SOL    HW237992   0.477   2.081  16.252  1.6532  1.1214  0.4446
 8786SOL     OW37993   2.044   3.234   1.563  0.1845  0.5245  0.2528
 8786SOL    HW137994   1.953   3.214   1.584  0.0542 -1.7680 -2.5142
 8786SOL    HW237995   2.060   3.178   1.487 -0.9924  0.0394  0.3557
 8787SOL     OW37996   3.800   0.090   1.025  0.0769 -0.0707  0.2641
 8787SOL    HW137997   3.740   0.073   0.952  2.4142 -3.0147 -0.9371
 8787SOL    HW237998   3.763   0.174   1.052 -0.3596  0.1144 -0.8911
 8788SOL     OW37999   1.223   0.116   6.765 -0.0367  0.3041 -0.3207
 8788SOL    HW138000   1.254   0.039   6.811 -1.5734  1.0206  1.8845
 8788SOL    HW238001   1.303   0.133   6.714 -0.7499  0.2804 -1.4627
 8789SOL     OW38002   1.274   1.331  14.870 -0.2750 -0.1818 -0.1347
 8789SOL    HW138003   1.310   1.405  14.820  0.5370 -0.5028 -0.0118
 8789SOL    HW238004   1.180   1.335  14.851 -0.2412  0.6641 -0.1412
 8790SOL     OW38005   3.527   4.055   2.161  0.3775  0.5037 -0.0192
 8790SOL    HW138006   3.432   4.062   2.167  0.2555  0.1229 -1.5256
 8790SOL    HW238007   3.547   4.119   2.228  0.1847  1.3500 -0.7688
 8791SOL     OW38008   1.849   2.225   9.314 -0.1050 -0.1040 -0.1447
 8791SOL    HW138009   1.827   2.132   9.307 -0.0345 -0.0479 -1.2063
 8791SOL    HW238010   1.923   2.222   9.253 -0.1929  1.7864 -0.3542
 8792SOL     OW38011   3.519   0.670   6.574  0.2655  0.0263 -0.1730
 8792SOL    HW138012   3.594   0.719   6.609  1.8039 -1.0457 -1.9147
 8792SOL    HW238013   3.492   0.724   6.499 -2.1958  0.3156  0.9379
 8793SOL     OW38014   4.089   1.345   1.917 -0.1273  0.0476  0.0854
 8793SOL    HW138015   4.018   1.383   1.969 -0.9279 -1.1388 -0.1232
 8793SOL    HW238016   4.164   1.328   1.973 -0.0648  0.1909  0.0432
 8794SOL     OW38017   2.778   1.773  16.919  0.5660  0.3339 -0.5478
 8794SOL    HW138018   2.698   1.727  16.942  1.2477 -0.4679  0.2178
 8794SOL    HW238019   2.738   1.852  16.882  0.3365 -0.1587 -1.3598
 8795SOL     OW38020   1.530   1.255   5.611 -0.1352  0.0305  0.1838
 8795SOL    HW138021   1.525   1.162   5.634 -3.5595  0.0025 -0.7328
 8795SOL    HW238022   1.440   1.275   5.637  0.1918  1.0831  0.4996
 8796SOL     OW38023   4.063   3.881   9.390  0.1919  0.2664 -0.2405
 8796SOL    HW138024   4.126   3.941   9.428  2.0412 -1.7434 -0.1354
 8796SOL    HW238025   4.120   3.808   9.366 -1.0817 -0.2048 -1.8350
 8797SOL     OW38026   3.609   0.591   5.566  0.2221 -0.2494  0.2818
 8797SOL    HW138027   3.644   0.511   5.525  3.4416  1.5388 -0.4367
 8797SOL    HW238028   3.678   0.613   5.628  1.4755 -2.1714 -0.4121
 8798SOL     OW38029   3.855   1.969   1.478 -0.2595  0.2220 -0.4160
 8798SOL    HW138030   3.939   1.951   1.521 -1.0851 -2.5440  0.0213
 8798SOL    HW238031   3.821   1.886   1.445 -0.1303 -0.6022  1.5518
 8799SOL     OW38032   2.189   0.634   1.594  0.0968  0.4601  0.5052
 8799SOL    HW138033   2.238   0.716   1.606  0.5014  0.1311  1.1029
 8799SOL    HW238034   2.236   0.576   1.654  0.4635  2.2721  1.9881
 8800SOL     OW38035   3.166   2.535  13.114  0.2889 -0.0340 -0.0357
 8800SOL    HW138036   3.086   2.586  13.103 -0.1234 -0.4661  0.9450
 8800SOL    HW238037   3.226   2.605  13.140  0.6788 -0.7175  0.9315
 8801SOL     OW38038   1.822   4.163   9.200 -0.3465 -0.2384 -0.0948
 8801SOL    HW138039   1.903   4.211   9.183 -1.0481  0.1730 -2.3659
 8801SOL    HW238040   1.807   4.113   9.119 -0.3474 -0.7830  0.2464
 8802SOL     OW38041   0.755   1.320  10.705 -0.6151  0.0580 -0.2252
 8802SOL    HW138042   0.680   1.273  10.670 -1.3515  0.9469  0.1541
 8802SOL    HW238043   0.728   1.410  10.685 -1.6599  0.2543  2.0725
 8803SOL     OW38044   0.743   2.845   3.434  0.1316 -0.1837  0.1022
 8803SOL    HW138045   0.829   2.804   3.430  1.5254  2.6351  1.4519
 8803SOL    HW238046   0.752   2.922   3.491  0.8543  1.2520 -1.9607
 8804SOL     OW38047   4.185   1.015   3.252  0.3311 -0.0465  0.3956
 8804SOL    HW138048   4.185   1.089   3.312  2.4557 -1.0161  1.5647
 8804SOL    HW238049   4.191   1.064   3.170  0.5889 -1.0178 -0.1606
 8805SOL     OW38050   0.589   1.058   5.148 -0.2338  0.5901 -0.1128
 8805SOL    HW138051   0.607   1.021   5.235  0.4858  0.6230 -0.2515
 8805SOL    HW238052   0.654   1.127   5.143  1.9622 -1.5028 -0.3053
 8806SOL     OW38053   3.136   0.972   9.035 -0.6164 -0.3786  0.0944
 8806SOL    HW138054   3.089   1.037   9.087  0.9773 -1.5428  3.0036
 8806SOL    HW238055   3.086   0.890   9.039 -0.1950 -0.6547 -0.2645
 8807SOL     OW38056   2.397   0.702   9.647  0.1021 -0.2912  0.1228
 8807SOL    HW138057   2.444   0.629   9.606  1.5109  1.9581 -2.2546
 8807SOL    HW238058   2.364   0.670   9.731 -1.7359 -0.5417 -0.7105
 8808SOL     OW38059   1.542   4.100   6.981 -0.0221  0.5577  0.3058
 8808SOL    HW138060   1.533   4.150   6.899  0.1189  2.7185  1.6107
 8808SOL    HW238061   1.457   4.055   6.974  0.1887  0.3526 -1.0411
 8809SOL     OW38062   3.220   1.351   0.232 -0.1359  1.0243  0.3882
 8809SOL    HW138063   3.190   1.425   0.285  1.4065  1.3206  0.8696
 8809SOL    HW238064   3.155   1.334   0.165  0.0427  0.1871  0.4350
 8810SOL     OW38065   0.628   3.342   5.639 -0.2968  0.2134  0.4682
 8810SOL    HW138066   0.692   3.272   5.645 -0.3955 -0.0871 -1.8969
 8810SOL    HW238067   0.589   3.314   5.556  0.5196  1.0144 -0.1988
 8811SOL     OW38068   2.440   4.291   1.564 -0.1639  0.2926 -0.2379
 8811SOL    HW138069   2.470   4.329   1.482  0.2790 -2.8915 -1.5573
 8811SOL    HW238070   2.456   4.201   1.535  1.6263  0.1520  1.1427
 8812SOL     OW38071   2.348   0.253   9.011 -0.2432 -0.0795 -0.0163
 8812SOL    HW138072   2.264   0.297   9.001  1.2546  2.6158 -0.8987
 8812SOL    HW238073   2.345   0.184   8.944 -0.8609  1.4830 -1.5972
 8813SOL     OW38074   0.890   0.165  10.055  0.3332 -0.2630 -0.8327
 8813SOL    HW138075   0.957   0.098  10.044 -0.6133 -1.4557  0.7254
 8813SOL    HW238076   0.812   0.111  10.039 -1.9495  2.2665  1.8545
 8814SOL     OW38077   2.789   3.422  15.262 -0.1262 -0.6717  0.1747
 8814SOL    HW138078   2.715   3.402  15.205 -1.6421  0.0608  1.8972
 8814SOL    HW238079   2.835   3.480  15.202  0.5612 -2.9873 -1.5387
 8815SOL     OW38080   4.571   1.013   7.695 -0.2580 -0.3815  0.0378
 8815SOL    HW138081   4.611   1.100   7.692 -0.7421 -0.1287  1.3725
 8815SOL    HW238082   4.482   1.047   7.688 -0.0493  0.0488 -0.5016
 8816SOL     OW38083   3.616   1.513   3.247  0.0020  0.2795  0.6174
 8816SOL    HW138084   3.566   1.563   3.311  0.5372  1.4219  0.1332
 8816SOL    HW238085   3.685   1.492   3.310 -0.8395 -1.3761  0.9997
 8817SOL     OW38086   2.385   1.439   8.540  0.4127  0.1418  0.8164
 8817SOL    HW138087   2.323   1.404   8.605 -0.4774 -0.3544 -0.2921
 8817SOL    HW238088   2.463   1.453   8.594  0.8055 -0.4500  0.3925
 8818SOL     OW38089   0.953   3.147   2.024 -0.2707  0.0030  0.5930
 8818SOL    HW138090   0.927   3.088   2.094  0.6444 -1.6407 -0.4632
 8818SOL    HW238091   0.878   3.130   1.967  1.4851  0.1890 -1.7812
 8819SOL     OW38092   1.000   2.613   5.590  0.1441  0.5732  0.9702
 8819SOL    HW138093   1.061   2.539   5.589  1.8793  1.9926  2.1759
 8819SOL    HW238094   0.949   2.589   5.513  0.0156 -1.7128  1.7482
 8820SOL     OW38095   3.631   3.850   6.479  0.3024 -0.0278  0.1939
 8820SOL    HW138096   3.718   3.851   6.440  0.5122  0.2381  0.6664
 8820SOL    HW238097   3.590   3.769   6.448 -0.1022 -0.5170  1.9848
 8821SOL     OW38098   2.299   3.702  10.621  0.2139 -0.0172  0.8638
 8821SOL    HW138099   2.345   3.757  10.557  2.8451 -0.9101  1.9942
 8821SOL    HW238100   2.247   3.657  10.554 -2.0610 -1.4820  3.6542
 8822SOL     OW38101   2.714   3.968  14.092  0.3353 -0.0935 -0.1180
 8822SOL    HW138102   2.743   4.004  14.008 -0.0431  2.7414  0.9706
 8822SOL    HW238103   2.796   3.977  14.140 -0.8275 -0.8030  2.0100
 8823SOL     OW38104   1.929   1.264  10.307 -0.8196 -0.2045 -0.0987
 8823SOL    HW138105   2.009   1.313  10.286 -1.9144  1.2794 -0.8282
 8823SOL    HW238106   1.885   1.330  10.361  0.0391 -0.6470  1.1448
 8824SOL     OW38107   4.255   3.115   8.181  0.0527  0.2298  0.2599
 8824SOL    HW138108   4.343   3.143   8.209  0.1440  2.5884 -2.2845
 8824SOL    HW238109   4.213   3.200   8.170  2.2063  1.3568  0.6756
 8825SOL     OW38110   4.074   0.167   7.365 -0.2679 -0.3048 -0.3078
 8825SOL    HW138111   4.093   0.166   7.459  1.1355  0.8725 -0.5711
 8825SOL    HW238112   3.999   0.227   7.373  0.2811  0.5157 -1.3854
 8826SOL     OW38113   2.003   0.723   2.501 -0.1277  0.2090  0.4234
 8826SOL    HW138114   2.037   0.811   2.516 -1.1424  0.7334 -0.3976
 8826SOL    HW238115   2.053   0.666   2.560 -0.1645 -0.2376  0.0227
 8827SOL     OW38116   0.461   2.062   4.002 -0.0512  0.0857  0.7649
 8827SOL    HW138117   0.482   2.110   4.082  2.0511  0.6414 -0.1333
 8827SOL    HW238118   0.372   2.097   3.992 -0.4843 -1.3015 -0.2988
 8828SOL     OW38119   2.154   4.368  15.216 -0.1656  0.2603  0.8217
 8828SOL    HW138120   2.214   4.361  15.291 -0.0696 -0.7599  0.6456
 8828SOL    HW238121   2.150   4.463  15.204  1.3258  0.3215  0.7278
 8829SOL     OW38122   2.668   3.890   9.776  0.5376  0.1701 -0.0687
 8829SOL    HW138123   2.604   3.961   9.769  2.4453  1.4319 -4.8453
 8829SOL    HW238124   2.692   3.891   9.683 -1.2008  0.3431 -0.4997
 8830SOL     OW38125   0.855   1.683   4.999 -0.9242 -0.1304 -1.0659
 8830SOL    HW138126   0.879   1.692   4.906  0.1318  2.2347 -0.5627
 8830SOL    HW238127   0.765   1.652   4.999 -0.8870 -0.2135  1.1672
 8831SOL     OW38128   4.712   0.142   8.893 -0.0379 -0.3706 -0.1381
 8831SOL    HW138129   4.632   0.194   8.878 -1.1592 -1.3310  2.4587
 8831SOL    HW238130   0.029   0.195   8.838  1.8989 -1.1104  1.1701
 8832SOL     OW38131   3.240   3.762   8.914  0.3701  0.2844 -0.0809
 8832SOL    HW138132   3.216   3.695   8.849  2.9612 -0.2095 -0.5065
 8832SOL    HW238133   3.154   3.801   8.932  1.8013  3.4827 -0.3161
 8833SOL     OW38134   2.020   1.197   0.083  0.2603  0.4280 -0.2344
 8833SOL    HW138135   1.970   1.115   0.089  1.4524 -0.1402  2.1614
 8833SOL    HW238136   1.983   1.252   0.152  2.4917  0.6828  0.7614
 8834SOL     OW38137   1.720   3.501   0.833  0.5114  0.3536  0.1333
 8834SOL    HW138138   1.717   3.413   0.796 -1.5710 -0.1247  1.3977
 8834SOL    HW238139   1.628   3.513   0.808  1.5310 -2.1648 -4.7780
 8835SOL     OW38140   1.572   3.614   2.948 -0.0635  0.2711 -0.0970
 8835SOL    HW138141   1.521   3.618   2.867  1.2064  1.2117 -0.8434
 8835SOL    HW238142   1.506   3.627   3.016 -0.1830 -0.4571 -0.0674
 8836SOL     OW38143   2.585   4.725   2.194 -0.2455 -0.6935  0.0578
 8836SOL    HW138144   2.672   4.703   2.228 -0.8096 -1.1326  1.2242
 8836SOL    HW238145   2.583   4.688   2.106  1.1098  1.1115 -0.7106
 8837SOL     OW38146   1.299   1.802   6.814  0.6372  0.0934  0.0052
 8837SOL    HW138147   1.337   1.782   6.729  2.0952 -1.0068  0.9008
 8837SOL    HW238148   1.222   1.853   6.791 -1.0430 -2.5225 -0.1669
 8838SOL     OW38149   3.521   1.391   2.564 -0.2112  0.3231 -0.6936
 8838SOL    HW138150   3.518   1.486   2.570 -1.0410  0.3616 -1.8670
 8838SOL    HW238151   3.553   1.377   2.475  1.6776 -1.2593  0.2461
 8839SOL     OW38152   0.538   4.581   2.485 -0.4560 -0.4288  0.2776
 8839SOL    HW138153   0.581   4.645   2.428  1.1753 -0.8127  1.0603
 8839SOL    HW238154   0.598   4.505   2.482  0.8806  0.5974  1.1954
 8840SOL     OW38155   3.438   4.413   6.406  0.0309 -0.1999  0.1706
 8840SOL    HW138156   3.427   4.456   6.491  1.1628 -2.5644  1.5022
 8840SOL    HW238157   3.459   4.324   6.432 -1.7554 -0.9888 -1.0643
 8841SOL     OW38158   1.537   3.462   6.067 -0.4295  0.9399  0.6609
 8841SOL    HW138159   1.502   3.533   6.013  1.2183  1.2686  0.0193
 8841SOL    HW238160   1.520   3.501   6.152  1.3647  0.3893  1.2675
 8842SOL     OW38161   0.631   3.802   2.195 -0.8219  0.0233  0.1489
 8842SOL    HW138162   0.655   3.821   2.104  0.1148  0.2922  0.4570
 8842SOL    HW238163   0.620   3.889   2.233  3.3962  0.6647 -0.1333
 8843SOL     OW38164   4.731   1.727  13.740 -0.2636 -0.0988 -0.0933
 8843SOL    HW138165   4.724   1.637  13.706 -1.2950 -0.5956  1.4550
 8843SOL    HW238166   0.042   1.711  13.820  0.4642  0.2952 -0.4725
 8844SOL     OW38167   1.459   2.098   4.144  0.0361  0.2196 -0.4846
 8844SOL    HW138168   1.484   2.030   4.081  1.7541  1.2490 -0.9123
 8844SOL    HW238169   1.413   2.162   4.090 -0.2064  2.0524  1.9001
 8845SOL     OW38170   1.486   4.201   7.294  0.6437 -0.0085  0.0983
 8845SOL    HW138171   1.524   4.150   7.223 -0.7851 -1.3697  0.2953
 8845SOL    HW238172   1.443   4.134   7.348  0.2184  1.2388  1.3218
 8846SOL     OW38173   2.604   1.634  10.271  0.1596 -0.5005  0.2404
 8846SOL    HW138174   2.593   1.556  10.216  0.2301  0.5198 -1.2302
 8846SOL    HW238175   2.659   1.692  10.217 -0.8057  0.2438  0.0490
 8847SOL     OW38176   1.472   3.537   6.311 -0.1789  0.2916  0.2815
 8847SOL    HW138177   1.397   3.573   6.359 -0.2578  1.7918 -0.9429
 8847SOL    HW238178   1.550   3.559   6.363 -0.0675  2.4074 -0.7574
 8848SOL     OW38179   0.985   2.865  16.399  0.2937 -0.6311  1.0918
 8848SOL    HW138180   0.978   2.782  16.447 -1.7710 -0.5324  0.9805
 8848SOL    HW238181   0.914   2.864  16.334 -0.2384 -0.9651  1.6741
 8849SOL     OW38182   3.264   1.395   2.284 -0.1093  0.2320 -0.2375
 8849SOL    HW138183   3.357   1.392   2.262  0.7683 -1.9933  3.7584
 8849SOL    HW238184   3.243   1.486   2.303  0.8022  0.0531  1.6859
 8850SOL     OW38185   3.565   0.034   0.250 -0.0662  0.5801 -0.1381
 8850SOL    HW138186   3.550   4.699   0.192  4.1525  0.2139 -0.7437
 8850SOL    HW238187   3.516   0.104   0.207 -1.2467 -0.8564 -1.1178
 8851SOL     OW38188   3.258   0.846   7.185 -0.0393  0.2375  0.3063
 8851SOL    HW138189   3.221   0.899   7.256 -0.7134  1.7127 -1.1387
 8851SOL    HW238190   3.346   0.881   7.170 -0.4918  0.2910 -2.3024
 8852SOL     OW38191   1.756   3.696   5.062  0.1150  0.0405 -0.4289
 8852SOL    HW138192   1.777   3.712   5.154 -0.9344  1.3081 -0.4148
 8852SOL    HW238193   1.716   3.609   5.060 -1.0902  0.5889 -0.2537
 8853SOL     OW38194   4.692   3.675   0.867 -0.3526  1.2482 -0.3200
 8853SOL    HW138195   4.644   3.688   0.949 -1.4253 -2.1939 -0.4081
 8853SOL    HW238196   4.622   3.670   0.803  0.1082  1.2584 -0.8308
 8854SOL     OW38197   1.574   2.239   8.373  0.3021 -0.5411 -0.5110
 8854SOL    HW138198   1.632   2.192   8.313  3.1959  2.1270  0.2769
 8854SOL    HW238199   1.537   2.165   8.422 -1.0284  0.0805 -0.5667
 8855SOL     OW38200   3.643   2.570  10.664 -0.1818 -0.1257 -0.1979
 8855SOL    HW138201   3.571   2.550  10.604  0.7259 -0.8059 -1.0626
 8855SOL    HW238202   3.619   2.662  10.671 -4.8783 -1.3368 -0.2328
 8856SOL     OW38203   1.686   3.012  17.496  0.3965  0.2085 -0.4802
 8856SOL    HW138204   1.619   2.944  17.498  0.9833 -0.3268  0.7047
 8856SOL    HW238205   1.728   3.006  17.582  1.9832 -0.8002 -1.3430
 8857SOL     OW38206   0.979   0.248   3.477  0.0655 -0.1269  0.5324
 8857SOL    HW138207   0.921   0.282   3.545 -1.1216 -0.7708 -0.1585
 8857SOL    HW238208   0.929   0.184   3.427 -2.1792  0.8329  1.5730
 8858SOL     OW38209   4.271   2.855   1.359 -0.1535  0.3347  0.2709
 8858SOL    HW138210   4.261   2.852   1.454  1.8045 -0.3745  0.4501
 8858SOL    HW238211   4.184   2.825   1.331  0.7719 -0.7001 -1.5015
 8859SOL     OW38212   1.129   4.073   9.357  0.2614 -0.2399  0.2655
 8859SOL    HW138213   1.062   4.020   9.400  1.4596 -1.2221  0.9424
 8859SOL    HW238214   1.196   4.010   9.330  3.1457  2.3126  1.3529
 8860SOL     OW38215   4.388   1.632   7.588 -1.0157  0.0705 -0.1050
 8860SOL    HW138216   4.406   1.661   7.677  1.3199 -2.9528  0.4148
 8860SOL    HW238217   4.469   1.652   7.541 -0.6107  0.0896  0.5950
 8861SOL     OW38218   2.250   3.250   5.663  0.2970 -0.1269  0.5766
 8861SOL    HW138219   2.298   3.294   5.593 -0.6171  0.3505  0.2462
 8861SOL    HW238220   2.166   3.295   5.664 -0.6011 -1.7510 -1.4233
 8862SOL     OW38221   2.292   4.007   8.472 -0.0470  0.6537 -0.4120
 8862SOL    HW138222   2.334   4.078   8.521 -0.6181  0.1204  0.8414
 8862SOL    HW238223   2.205   4.047   8.465  0.0235  0.7030 -1.0336
 8863SOL     OW38224   3.167   0.514   6.629 -0.3587  0.1042  0.6909
 8863SOL    HW138225   3.158   0.609   6.636  2.5581  0.1627  3.8126
 8863SOL    HW238226   3.156   0.490   6.721 -1.2655 -1.0170  0.2955
 8864SOL     OW38227   1.620   1.696   1.361 -0.4330  0.0952 -0.3131
 8864SOL    HW138228   1.706   1.690   1.320  0.1647 -1.4504  1.1806
 8864SOL    HW238229   1.641   1.695   1.454  0.0779  0.4922 -0.4214
 8865SOL     OW38230   1.631   2.847   1.923  0.3968 -0.8950 -0.4071
 8865SOL    HW138231   1.726   2.837   1.925  0.6714  1.8254  0.3504
 8865SOL    HW238232   1.606   2.775   1.865  1.4667 -2.0172  0.5281
 8866SOL     OW38233   1.835   0.302   5.221 -0.1694  0.3219  0.0165
 8866SOL    HW138234   1.740   0.288   5.226  0.1094 -1.4322  0.3527
 8866SOL    HW238235   1.864   0.259   5.301 -1.0938  0.0377  0.2010
 8867SOL     OW38236   3.561   1.570   1.926 -0.1302 -0.7903  0.3180
 8867SOL    HW138237   3.644   1.601   1.961 -1.8219  1.9408  1.8878
 8867SOL    HW238238   3.526   1.654   1.897  0.5320 -0.1079  1.4849
 8868SOL     OW38239   3.496   1.926   4.902 -0.2047  0.4342 -0.0751
 8868SOL    HW138240   3.516   1.899   4.992  3.0400 -0.4587 -1.0487
 8868SOL    HW238241   3.580   1.934   4.856 -0.0343  0.3415  0.2159
 8869SOL     OW38242   1.296   2.721   1.682  0.0164 -0.3206  0.0971
 8869SOL    HW138243   1.256   2.662   1.745 -1.0595  1.9426  1.5502
 8869SOL    HW238244   1.239   2.707   1.607  1.4394  0.6808 -1.1661
 8870SOL     OW38245   0.565   0.276   3.629  0.5252 -0.1894  0.4026
 8870SOL    HW138246   0.557   0.356   3.681  1.5798 -0.9464  1.7167
 8870SOL    HW238247   0.489   0.224   3.656 -0.2053  0.8820  0.4352
 8871SOL     OW38248   2.922   1.861   5.139  0.0074  0.1561  0.1931
 8871SOL    HW138249   2.864   1.938   5.142 -0.8999 -0.5760  1.2698
 8871SOL    HW238250   2.999   1.909   5.109 -0.8285  1.0903 -0.4562
 8872SOL     OW38251   1.559   2.364   6.744 -0.8026 -0.2908  0.6300
 8872SOL    HW138252   1.618   2.351   6.671  0.4285  0.2969  1.5250
 8872SOL    HW238253   1.534   2.274   6.765  1.4796 -1.0676 -0.0764
 8873SOL     OW38254   4.188   1.703  15.064  0.0235 -0.2063  0.3073
 8873SOL    HW138255   4.222   1.792  15.077 -0.0575  0.3732 -3.4515
 8873SOL    HW238256   4.252   1.656  15.010 -0.4589  0.3322 -0.7372
 8874SOL     OW38257   2.459   2.201   4.037 -0.0441  0.0634  0.5617
 8874SOL    HW138258   2.514   2.126   4.062  2.4672  0.9755 -2.1198
 8874SOL    HW238259   2.406   2.199   4.116  2.2633  0.5779  2.1087
 8875SOL     OW38260   0.547   2.838   3.043 -0.2249 -0.7134 -0.4741
 8875SOL    HW138261   0.506   2.901   3.102  0.9067 -1.7230  1.3709
 8875SOL    HW238262   0.523   2.753   3.080  0.7420 -0.3158  1.0615
 8876SOL     OW38263   0.976   2.997   4.572  0.6823 -0.0496 -0.4602
 8876SOL    HW138264   0.950   2.988   4.480 -0.5627  0.6931 -0.1930
 8876SOL    HW238265   1.057   2.947   4.569 -0.0346 -1.3810  2.3806
 8877SOL     OW38266   3.318   2.602   6.421 -0.3728 -0.3203  0.0595
 8877SOL    HW138267   3.368   2.520   6.424  1.6604  0.9064  0.1314
 8877SOL    HW238268   3.226   2.574   6.420 -0.4158 -0.1774  0.0941
 8878SOL     OW38269   2.331   4.545   1.864 -0.5185  0.5280 -0.1121
 8878SOL    HW138270   2.293   4.537   1.951  1.2265  0.7408  0.6768
 8878SOL    HW238271   2.423   4.551   1.892 -0.6587  2.6425 -0.0703
 8879SOL     OW38272   2.376   0.735   4.721 -0.3751 -0.0053  0.2454
 8879SOL    HW138273   2.310   0.791   4.680  0.3145  0.4576 -0.2286
 8879SOL    HW238274   2.400   0.785   4.799  1.2549  0.7320 -0.7183
 8880SOL     OW38275   2.866   3.410   3.651  0.4447 -0.6582  0.0885
 8880SOL    HW138276   2.875   3.497   3.688  2.3440 -0.9066  0.2086
 8880SOL    HW238277   2.794   3.378   3.706  0.7668  1.5595  1.7870
 8881SOL     OW38278   3.824   1.271  16.922 -0.1878  0.4137  0.3198
 8881SOL    HW138279   3.889   1.338  16.900  0.9434 -0.2483  1.6655
 8881SOL    HW238280   3.850   1.190  16.880 -1.3943  0.6460 -0.8498
 8882SOL     OW38281   1.057   1.810   7.693 -0.1921  0.1887 -0.1363
 8882SOL    HW138282   0.969   1.777   7.707 -0.2053  0.1741 -0.2537
 8882SOL    HW238283   1.089   1.831   7.780 -0.8949  1.2290 -0.1378
 8883SOL     OW38284   4.005   1.618   6.869 -0.2666 -0.4321 -0.1969
 8883SOL    HW138285   3.960   1.636   6.952 -0.6305 -0.9635 -0.2821
 8883SOL    HW238286   4.021   1.710   6.846 -1.2138 -0.2653 -0.2125
 8884SOL     OW38287   2.894   3.354   8.783 -0.5666  0.0789 -0.0128
 8884SOL    HW138288   2.893   3.433   8.837  0.7757 -0.3220  0.5978
 8884SOL    HW238289   2.900   3.284   8.848 -0.2806 -2.1115 -2.3733
 8885SOL     OW38290   3.519   0.101   2.165 -0.3108 -0.0971  0.1886
 8885SOL    HW138291   3.455   0.163   2.198  1.2750  1.8665 -0.4228
 8885SOL    HW238292   3.465   0.048   2.106  1.0415 -1.4044  0.1257
 8886SOL     OW38293   0.142   1.603  11.037  0.4478 -0.0413  0.4931
 8886SOL    HW138294   0.063   1.623  11.087 -0.8851 -3.1489 -0.4183
 8886SOL    HW238295   0.113   1.555  10.960 -2.2503  0.0143  1.4717
 8887SOL     OW38296   0.436   3.893   1.599 -0.2054  0.1657 -0.3894
 8887SOL    HW138297   0.428   3.836   1.523  2.1043 -1.9400  0.9860
 8887SOL    HW238298   0.401   3.839   1.670  0.5627  0.1137 -0.0567
 8888SOL     OW38299   2.773   4.034   4.626  0.0998 -1.0277 -0.5183
 8888SOL    HW138300   2.846   4.010   4.570  0.5477  1.1205 -0.8184
 8888SOL    HW238301   2.760   3.949   4.668  1.5129 -2.0575 -2.1784
 8889SOL     OW38302   2.619   0.345   4.115 -0.5060 -0.5165 -0.2686
 8889SOL    HW138303   2.575   0.364   4.198  0.9336 -1.4591  0.7249
 8889SOL    HW238304   2.675   0.276   4.153 -0.2780  0.6623  1.5173
 8890SOL     OW38305   0.296   4.544   8.288 -0.2336 -0.3372 -0.4850
 8890SOL    HW138306   0.228   4.591   8.240 -0.2138  0.0868 -0.1040
 8890SOL    HW238307   0.323   4.610   8.352 -1.6702 -1.1543  0.9444
 8891SOL     OW38308   2.994   2.511  17.481 -0.4496  0.1897 -0.3419
 8891SOL    HW138309   3.080   2.529  17.444  0.0662  2.1808  1.8194
 8891SOL    HW238310   2.967   2.591  17.525  0.4125  1.0237 -1.3565
 8892SOL     OW38311   3.866   2.599  16.694 -0.5738 -0.2814  0.2035
 8892SOL    HW138312   3.900   2.604  16.605 -2.6696  0.5950 -0.5618
 8892SOL    HW238313   3.776   2.575  16.670 -0.9295  0.2331  0.9752
 8893SOL     OW38314   2.040   1.534   1.775  0.1308 -0.1587  0.0937
 8893SOL    HW138315   1.988   1.553   1.853 -2.2644 -2.3478 -0.9494
 8893SOL    HW238316   2.055   1.440   1.786  1.4166  0.1765  1.1910
 8894SOL     OW38317   1.730   0.170   6.526 -0.5971  0.0853 -0.1272
 8894SOL    HW138318   1.766   0.250   6.564  1.2610 -0.8580  0.0894
 8894SOL    HW238319   1.781   0.152   6.447  1.5955 -2.5615  1.8580
 8895SOL     OW38320   1.464   4.079   4.224 -0.1674 -0.0688  0.1580
 8895SOL    HW138321   1.518   4.157   4.213 -0.3963  0.2523  1.3621
 8895SOL    HW238322   1.377   4.108   4.253  0.5271  0.2180  1.8825
 8896SOL     OW38323   2.677   2.427  16.575 -0.5673  0.2864 -0.5236
 8896SOL    HW138324   2.613   2.356  16.572 -0.9450  0.5438  1.1208
 8896SOL    HW238325   2.632   2.511  16.586  1.3072  1.2779 -0.3579
 8897SOL     OW38326   2.295   0.446   1.748 -0.4217 -0.1365 -0.1356
 8897SOL    HW138327   2.304   0.392   1.827  2.9720 -0.8194 -0.9867
 8897SOL    HW238328   2.237   0.381   1.708 -0.3807  0.4773 -1.1997
 8898SOL     OW38329   1.130   2.550  17.307 -0.1850 -0.2477  0.4602
 8898SOL    HW138330   1.120   2.585  17.218 -0.4396  0.8802  0.9406
 8898SOL    HW238331   1.215   2.590  17.322  1.2259 -2.2518 -2.0906
 8899SOL     OW38332   1.140   3.150   6.798 -0.3434  0.0519  0.0632
 8899SOL    HW138333   1.185   3.116   6.875  0.0974  0.5227  0.0091
 8899SOL    HW238334   1.199   3.216   6.761 -0.8447  0.1963 -0.4857
 8900SOL     OW38335   1.641   1.906  12.049  0.0268 -0.5905  0.1258
 8900SOL    HW138336   1.598   1.821  12.037 -0.7165 -0.0428 -0.9935
 8900SOL    HW238337   1.657   1.931  11.958 -3.6809  1.1662  0.0056
 8901SOL     OW38338   0.477   4.123   5.155 -0.1206  0.6881  0.0081
 8901SOL    HW138339   0.522   4.208   5.158  0.4153  0.3291  2.2023
 8901SOL    HW238340   0.554   4.067   5.152 -0.3214  0.3952  0.3860
 8902SOL     OW38341   0.948   1.496  12.378  0.1680  0.6313 -0.1012
 8902SOL    HW138342   0.897   1.465  12.453 -0.7221  0.4943 -0.7646
 8902SOL    HW238343   0.931   1.423  12.319  0.8012 -0.6398  1.2822
 8903SOL     OW38344   4.726   1.134  17.231  0.6375 -0.1770 -0.3801
 8903SOL    HW138345   4.649   1.191  17.225  0.6093 -0.1375  0.4259
 8903SOL    HW238346   4.706   1.069  17.163  0.4685 -0.5219  0.0037
 8904SOL     OW38347   4.664   1.751  15.145 -0.4494  0.3796  0.9946
 8904SOL    HW138348   4.691   1.840  15.169 -3.4609  1.1409  1.4958
 8904SOL    HW238349   4.688   1.707  15.227 -0.4412  0.1473  0.8655
 8905SOL     OW38350   2.894   3.948   7.841 -0.2473  0.2249 -0.0909
 8905SOL    HW138351   2.946   4.022   7.871 -0.6842  0.6035 -0.2482
 8905SOL    HW238352   2.953   3.939   7.766 -0.6828 -0.4811 -0.3467
 8906SOL     OW38353   2.372   2.842   6.547 -0.0366  0.2652  0.4822
 8906SOL    HW138354   2.313   2.784   6.497  0.1058  0.5128  0.0243
 8906SOL    HW238355   2.442   2.778   6.554  1.0711  1.2539 -1.5859
 8907SOL     OW38356   0.558   1.942   5.661 -0.0614  0.4402 -0.2699
 8907SOL    HW138357   0.518   1.954   5.575 -1.3688  2.2908  0.6001
 8907SOL    HW238358   0.495   1.987   5.717 -0.7201 -0.0528 -0.6186
 8908SOL     OW38359   0.555   4.220   6.217  0.3628  0.1058  0.3466
 8908SOL    HW138360   0.585   4.153   6.278 -1.0061  1.5111  2.5197
 8908SOL    HW238361   0.473   4.250   6.256  0.9303  0.1658  1.4902
 8909SOL     OW38362   1.499   2.280   0.078 -0.1315 -0.0662  0.4501
 8909SOL    HW138363   1.461   2.229   0.150  1.1498 -0.7151  0.6766
 8909SOL    HW238364   1.543   2.208   0.033  0.6054  0.4032  0.4069
 8910SOL     OW38365   0.366   2.126   9.144 -0.0666 -0.6969  0.3097
 8910SOL    HW138366   0.273   2.116   9.161 -0.8925  1.6057 -2.9513
 8910SOL    HW238367   0.401   2.061   9.205  0.7056 -0.7408 -0.1800
 8911SOL     OW38368   1.504   2.472   2.574  0.0714 -0.1181 -0.0928
 8911SOL    HW138369   1.430   2.518   2.534 -0.5477  0.6260  1.9030
 8911SOL    HW238370   1.497   2.502   2.664 -2.1335 -0.7581 -0.0536
 8912SOL     OW38371   2.873   3.666   0.675  0.3674 -0.0662 -0.6709
 8912SOL    HW138372   2.882   3.750   0.720 -0.3700  0.1764 -0.9821
 8912SOL    HW238373   2.780   3.676   0.654  0.4328  1.2240 -0.3389
 8913SOL     OW38374   3.684   3.154   6.493 -0.7761 -0.3751  0.5113
 8913SOL    HW138375   3.721   3.238   6.520 -4.2199  0.8618  1.4011
 8913SOL    HW238376   3.754   3.121   6.436 -1.3076 -0.5093 -0.0626
 8914SOL     OW38377   0.740   3.794  12.999  0.5294 -0.1463  0.6063
 8914SOL    HW138378   0.795   3.761  12.927  0.1225  0.3859  0.0502
 8914SOL    HW238379   0.670   3.730  13.008 -0.6147  0.8434 -1.2341
 8915SOL     OW38380   3.249   2.353   8.000 -0.1780 -0.1199 -0.1960
 8915SOL    HW138381   3.343   2.334   8.008 -0.0649  1.6299  2.6768
 8915SOL    HW238382   3.244   2.428   8.060  0.4024 -0.2323 -0.0073
 8916SOL     OW38383   4.698   3.023   7.336  0.3332  0.4278  0.3013
 8916SOL    HW138384   4.672   2.932   7.319  0.0130  0.4050  0.9144
 8916SOL    HW238385   4.685   3.033   7.430  0.4486  1.3026  0.2213
 8917SOL     OW38386   0.659   3.631  12.171  0.0763 -0.1256 -0.0170
 8917SOL    HW138387   0.647   3.574  12.247 -0.6820  0.2313  0.1333
 8917SOL    HW238388   0.750   3.661  12.181  0.5913 -2.3531  1.9929
 8918SOL     OW38389   1.984   3.542   0.109  0.3034  0.2410  0.0312
 8918SOL    HW138390   2.079   3.543   0.109  0.3149 -0.2129 -1.0257
 8918SOL    HW238391   1.977   3.461   0.059  0.3439  0.0529  0.3310
 8919SOL     OW38392   0.060   2.568  14.509 -0.2193  0.1290 -0.3833
 8919SOL    HW138393   0.133   2.588  14.568  0.6706 -1.0375 -1.0930
 8919SOL    HW238394   0.016   2.502  14.562  0.7640 -0.9538 -0.9209
 8920SOL     OW38395   0.895   3.738  15.403  0.3012 -0.2116  0.0608
 8920SOL    HW138396   0.861   3.810  15.456  1.7222  0.7326 -0.3024
 8920SOL    HW238397   0.949   3.694  15.469 -0.6130 -0.5408  0.5839
 8921SOL     OW38398   1.965   2.229   4.593  0.2537 -0.0676  0.3476
 8921SOL    HW138399   1.906   2.198   4.661  2.5651 -0.9348  1.9674
 8921SOL    HW238400   1.937   2.190   4.510  0.6672  0.8391 -0.2096
 8922SOL     OW38401   2.905   3.948   5.118 -0.1420  0.3993  0.5082
 8922SOL    HW138402   2.976   3.886   5.101 -0.4458  0.3529 -0.5771
 8922SOL    HW238403   2.836   3.904   5.069  0.2633  0.5634 -0.2144
 8923SOL     OW38404   3.079   0.055   8.555 -0.0298  0.1121  0.2703
 8923SOL    HW138405   3.099   4.702   8.562 -0.7456 -0.0146  0.6303
 8923SOL    HW238406   3.135   0.079   8.482  0.5508 -0.7792  0.4309
 8924SOL     OW38407   2.703   3.505   5.038 -0.4353 -0.1160  0.2480
 8924SOL    HW138408   2.744   3.489   4.952  3.1255 -0.0913  1.9325
 8924SOL    HW238409   2.624   3.551   5.011  0.0604  0.4385 -0.2638
 8925SOL     OW38410   3.632   1.799   4.159 -0.4423  0.1889  0.0829
 8925SOL    HW138411   3.654   1.789   4.251 -0.4408 -0.9387 -0.0393
 8925SOL    HW238412   3.567   1.869   4.160 -0.0906  0.5063  0.9424
 8926SOL     OW38413   3.306   2.453   7.628  0.0700  0.4869  0.7088
 8926SOL    HW138414   3.321   2.481   7.538  2.4601 -1.0828  0.6114
 8926SOL    HW238415   3.389   2.459   7.676  1.3321  2.5077 -1.7898
 8927SOL     OW38416   0.907   2.078   4.821  0.4061  0.1908 -0.0241
 8927SOL    HW138417   0.915   2.068   4.916  1.6695  2.0752  0.0581
 8927SOL    HW238418   0.812   2.075   4.809  0.5132  0.4553 -0.9291
 8928SOL     OW38419   1.958   1.810  15.036  0.3659 -0.0733  0.4585
 8928SOL    HW138420   1.869   1.779  15.018 -0.7422  3.2585  0.0935
 8928SOL    HW238421   1.977   1.784  15.127  1.5606 -3.3914 -0.7349
 8929SOL     OW38422   2.572   0.236   5.460  0.3319  0.3136 -0.4195
 8929SOL    HW138423   2.584   0.229   5.554 -1.4099  0.9678 -0.1674
 8929SOL    HW238424   2.659   0.204   5.436  0.3132 -1.6044  2.1202
 8930SOL     OW38425   1.316   2.991   3.698 -0.0576 -0.1464  0.0354
 8930SOL    HW138426   1.360   2.938   3.632  1.5342 -0.7839  1.5866
 8930SOL    HW238427   1.240   2.935   3.711  0.8936 -1.6142 -0.7886
 8931SOL     OW38428   2.473   3.525   3.946 -0.6213 -0.1867  0.4916
 8931SOL    HW138429   2.558   3.552   3.982 -1.5957 -0.9588  3.3151
 8931SOL    HW238430   2.476   3.432   3.927 -0.5595 -0.4290  1.6750
 8932SOL     OW38431   3.653   2.685   2.836 -0.2100  0.8354  0.3398
 8932SOL    HW138432   3.711   2.632   2.782 -0.8835  1.4891 -1.0208
 8932SOL    HW238433   3.608   2.611   2.877  1.1150 -1.0652 -1.5811
 8933SOL     OW38434   3.120   3.610  16.868 -0.2080  0.3355  0.0826
 8933SOL    HW138435   3.085   3.551  16.934  0.7638 -0.4001 -0.0618
 8933SOL    HW238436   3.101   3.557  16.791  0.2843 -1.1106  0.9490
 8934SOL     OW38437   1.479   2.105   6.815 -0.2419 -0.1992  0.1285
 8934SOL    HW138438   1.388   2.096   6.843  0.4904 -2.2532  1.8811
 8934SOL    HW238439   1.537   2.064   6.878 -0.6450  0.6975  1.0834
 8935SOL     OW38440   3.871   2.944  12.731  0.0234  0.2978  0.2638
 8935SOL    HW138441   3.868   2.849  12.737 -1.8901  0.4499  1.5013
 8935SOL    HW238442   3.901   2.980  12.814 -1.2168 -0.3089  0.9801
 8936SOL     OW38443   2.831   1.669   7.852 -0.0227  0.5469 -0.2062
 8936SOL    HW138444   2.817   1.680   7.946  0.3533  1.2693 -0.2346
 8936SOL    HW238445   2.926   1.660   7.855  0.0400  1.2353  0.0053
 8937SOL     OW38446   3.097   0.258   8.797  0.2375 -0.3070 -0.5608
 8937SOL    HW138447   3.112   0.174   8.754 -0.0482 -0.7336  0.1886
 8937SOL    HW238448   3.185   0.290   8.821 -0.5635  1.4230  0.0938
 8938SOL     OW38449   2.547   1.016  14.333  0.0031 -0.5943  0.3113
 8938SOL    HW138450   2.476   1.013  14.397 -1.4823 -0.2734 -1.3253
 8938SOL    HW238451   2.492   0.985  14.261  2.3705  0.5409 -2.0243
 8939SOL     OW38452   1.347   2.773  17.647  0.0387 -0.1574  0.0765
 8939SOL    HW138453   1.300   2.822  17.715  2.5753  1.6958  0.4705
 8939SOL    HW238454   1.348   2.685  17.683  2.7812  0.0856  0.5621
 8940SOL     OW38455   1.959   3.014   0.103  0.2116  0.3774  0.2530
 8940SOL    HW138456   1.877   3.055   0.076 -0.1557 -0.5489 -0.0115
 8940SOL    HW238457   1.930   2.942   0.159  1.8180  1.1789  2.0940
 8941SOL     OW38458   1.364   1.041  16.074  0.7009  0.0082  0.1176
 8941SOL    HW138459   1.304   1.100  16.119  1.3113  1.1722 -0.5991
 8941SOL    HW238460   1.434   1.033  16.139  1.1502  0.2512 -0.3400
 8942SOL     OW38461   0.353   1.457   8.817 -0.0009 -0.2090  0.3569
 8942SOL    HW138462   0.299   1.507   8.879 -0.6053 -0.4527  0.0277
 8942SOL    HW238463   0.345   1.516   8.743 -0.8336  0.4249  0.9471
 8943SOL     OW38464   1.931   4.318  16.386  0.3104  0.2753  0.3451
 8943SOL    HW138465   1.918   4.238  16.438  1.6241 -0.7099 -0.8375
 8943SOL    HW238466   1.980   4.370  16.449  0.1369  0.0399  0.6733
 8944SOL     OW38467   0.542   3.284   8.724 -0.2312  0.3049  0.3393
 8944SOL    HW138468   0.628   3.309   8.690 -1.4727  3.1352 -0.7628
 8944SOL    HW238469   0.551   3.190   8.736 -0.0789  0.6506  3.0955
 8945SOL     OW38470   4.481   1.001  16.261 -0.1865  0.1162 -0.0526
 8945SOL    HW138471   4.425   0.985  16.185  1.2578  0.1390 -1.1209
 8945SOL    HW238472   4.513   1.085  16.225  3.3466 -1.5553 -0.8340
 8946SOL     OW38473   0.080   3.297   8.053 -0.7429  0.0388 -0.3454
 8946SOL    HW138474   0.175   3.292   8.045 -0.7084 -0.7783  0.6642
 8946SOL    HW238475   0.067   3.246   8.133 -1.1937  2.0692  0.8940
 8947SOL     OW38476   0.574   4.736   9.751  0.1733  0.4406  0.1895
 8947SOL    HW138477   0.572   0.092   9.748 -0.3157  0.4281 -0.0056
 8947SOL    HW238478   0.547   4.729   9.842  2.3188  2.2456  0.9381
 8948SOL     OW38479   3.641   3.586   2.633  0.0871 -0.0867  0.3698
 8948SOL    HW138480   3.568   3.648   2.637 -0.7515 -1.1694  1.4825
 8948SOL    HW238481   3.595   3.514   2.677  0.5535 -0.8811 -0.4509
 8949SOL     OW38482   3.485   0.555  10.733  0.6338  0.0991 -0.0463
 8949SOL    HW138483   3.484   0.468  10.774  1.9479 -0.4048 -1.0517
 8949SOL    HW238484   3.537   0.607  10.794 -2.2465  2.3219  0.4979
 8950SOL     OW38485   2.791   3.462   3.358 -0.4379 -0.1007  0.1997
 8950SOL    HW138486   2.703   3.500   3.349 -0.1997 -0.0726 -2.0441
 8950SOL    HW238487   2.799   3.467   3.453  0.8759 -1.4012  0.1432
 8951SOL     OW38488   2.997   3.110   1.896 -0.5572  0.4978  0.4413
 8951SOL    HW138489   3.082   3.068   1.883 -0.8567 -0.9566  3.2075
 8951SOL    HW238490   2.932   3.040   1.889  1.9909 -1.8501  0.2141
 8952SOL     OW38491   0.302   4.679   1.672  0.1357  0.1783 -0.1967
 8952SOL    HW138492   0.349   4.699   1.591  0.6244 -0.8769 -0.1838
 8952SOL    HW238493   0.321   0.015   1.728 -0.0343  1.8941 -2.4947
 8953SOL     OW38494   1.912   3.159   7.280 -0.2345 -0.1546  0.2796
 8953SOL    HW138495   1.941   3.103   7.207  0.5239  0.8170 -0.1713
 8953SOL    HW238496   1.988   3.207   7.313  0.1609  0.6037 -1.7390
 8954SOL     OW38497   3.731   3.912   1.399  0.2200  0.1655  0.0436
 8954SOL    HW138498   3.701   3.929   1.310  0.5570 -0.4929 -0.1924
 8954SOL    HW238499   3.818   3.874   1.384  0.6617  0.7650  1.0798
 8955SOL     OW38500   2.930   4.437   4.424 -0.7714  0.0839  0.3020
 8955SOL    HW138501   2.892   4.393   4.348  0.5484 -0.4342 -0.0669
 8955SOL    HW238502   2.858   4.426   4.487 -2.2670  0.6936 -1.3239
 8956SOL     OW38503   1.561   2.566   5.730  0.1700  0.4673  0.0928
 8956SOL    HW138504   1.514   2.601   5.806 -0.0503 -1.4493  0.8299
 8956SOL    HW238505   1.527   2.617   5.656 -1.2651  0.8670  1.0245
 8957SOL     OW38506   0.735   0.603   5.853  0.0753  0.2316  0.4191
 8957SOL    HW138507   0.737   0.658   5.775  0.5595  0.8978  0.9104
 8957SOL    HW238508   0.766   0.517   5.825  0.5191  1.0571 -1.6370
 8958SOL     OW38509   2.397   3.682   7.537 -0.5246  0.1936  0.3123
 8958SOL    HW138510   2.475   3.650   7.583 -0.9179  1.2237  1.7040
 8958SOL    HW238511   2.339   3.617   7.578  2.1025 -0.6536  2.6899
 8959SOL     OW38512   4.695   0.866   4.301  0.2471  0.4029 -0.4231
 8959SOL    HW138513   4.726   0.795   4.357 -0.8549  1.2863  1.2985
 8959SOL    HW238514   0.012   0.851   4.226  2.6342 -0.1279  1.4914
 8960SOL     OW38515   1.686   3.788  16.079  0.4131 -0.5746  0.0163
 8960SOL    HW138516   1.640   3.785  15.996  0.1114  4.7636  0.0246
 8960SOL    HW238517   1.770   3.744  16.063  0.3800  0.0687 -1.8519
 8961SOL     OW38518   3.619   0.490   3.013  0.2329 -0.5046 -0.4954
 8961SOL    HW138519   3.532   0.470   2.977 -0.6757  1.1229  0.7643
 8961SOL    HW238520   3.592   0.500   3.104 -0.2266  1.2638 -0.8178
 8962SOL     OW38521   3.062   0.298  16.659  0.0740 -0.3539 -0.4427
 8962SOL    HW138522   3.046   0.220  16.606 -1.0927 -0.6014  0.2618
 8962SOL    HW238523   2.973   0.325  16.681  0.7494  0.8329  0.7955
 8963SOL     OW38524   3.587   4.075  11.588 -0.0864  0.0389 -0.0557
 8963SOL    HW138525   3.567   4.092  11.496 -0.6137  2.6450  0.5518
 8963SOL    HW238526   3.576   3.981  11.576 -2.1072  0.0899  1.4958
 8964SOL     OW38527   0.050   0.244  13.079  0.1879 -0.5988 -0.8740
 8964SOL    HW138528   4.707   0.210  13.112  0.0012 -1.4872 -2.2605
 8964SOL    HW238529   0.006   0.303  13.018 -1.4301  0.7612  1.6401
 8965SOL     OW38530   2.999   0.672   8.441  0.0705  0.2743  0.0342
 8965SOL    HW138531   2.983   0.618   8.518  0.2129  0.1622 -0.0159
 8965SOL    HW238532   2.992   0.602   8.376  2.4737 -0.5823  0.6983
 8966SOL     OW38533   1.223   2.248   4.651  0.7892  0.3397 -0.0023
 8966SOL    HW138534   1.206   2.159   4.682 -0.0569  0.0121 -1.4257
 8966SOL    HW238535   1.146   2.289   4.690 -0.3554 -0.6821 -1.1844
 8967SOL     OW38536   3.219   4.211   5.928  0.5842  0.3585 -0.0581
 8967SOL    HW138537   3.277   4.287   5.934 -1.4330  1.9694 -0.8664
 8967SOL    HW238538   3.260   4.155   5.994 -0.9045  0.1545  0.7053
 8968SOL     OW38539   1.699   3.295   7.953  0.5210 -0.5696 -0.5974
 8968SOL    HW138540   1.740   3.290   7.867 -2.9704  1.9945 -2.3639
 8968SOL    HW238541   1.695   3.201   7.972 -2.2127  0.4845  4.0982
 8969SOL     OW38542   1.185   0.290  13.677  0.2638 -0.9904 -0.5787
 8969SOL    HW138543   1.190   0.237  13.598  3.1402 -1.8017  0.1320
 8969SOL    HW238544   1.124   0.232  13.722 -0.4856 -0.1688 -0.5308
 8970SOL     OW38545   2.585   2.105  15.116  0.3618 -0.3769 -0.3047
 8970SOL    HW138546   2.520   2.046  15.152 -1.1982  0.9286 -0.9956
 8970SOL    HW238547   2.663   2.075  15.163  0.9565  0.7904 -0.5312
 8971SOL     OW38548   4.642   3.607   2.979  0.3740  0.0137  0.8767
 8971SOL    HW138549   4.593   3.680   3.016  0.1430  1.3348 -2.0722
 8971SOL    HW238550   4.675   3.647   2.899  1.0379 -1.3234  0.4935
 8972SOL     OW38551   1.294   0.786   5.601  0.1696 -0.3446  0.2921
 8972SOL    HW138552   1.214   0.828   5.572  1.7084  2.2891 -0.0981
 8972SOL    HW238553   1.318   0.748   5.516  0.2699 -0.3618  0.3279
 8973SOL     OW38554   0.897   0.552   9.108 -0.4137  0.1457  0.3566
 8973SOL    HW138555   0.988   0.524   9.119  0.3914  2.1772 -1.3100
 8973SOL    HW238556   0.853   0.467   9.114  0.8937 -0.4266  1.8380
 8974SOL     OW38557   4.547   4.721   6.639 -0.2350  0.5853  0.0310
 8974SOL    HW138558   4.454   0.004   6.630 -0.7998 -1.2471  1.2491
 8974SOL    HW238559   4.550   4.677   6.724 -2.8213 -0.9440 -0.6570
 8975SOL     OW38560   0.234   0.185   8.752  0.0267 -0.2148  0.4572
 8975SOL    HW138561   0.230   0.127   8.676 -0.6249 -2.3060  2.0735
 8975SOL    HW238562   0.289   0.128   8.806  2.3083 -0.1767 -1.8304
 8976SOL     OW38563   1.726   4.013   6.579 -0.1189 -0.3028 -0.2688
 8976SOL    HW138564   1.816   3.982   6.590  1.0889  3.5435  0.5958
 8976SOL    HW238565   1.708   3.954   6.506 -0.1225 -0.4650 -0.1359
 8977SOL     OW38566   1.816   4.122   0.797  0.0549  0.6272 -0.1457
 8977SOL    HW138567   1.779   4.033   0.794 -0.8440  0.9487  1.7830
 8977SOL    HW238568   1.758   4.154   0.728 -2.2882 -4.3126 -0.4848
 8978SOL     OW38569   3.808   0.024  10.337 -0.4740 -0.0068 -0.4322
 8978SOL    HW138570   3.779   4.699  10.401  1.6776 -1.3219 -0.7727
 8978SOL    HW238571   3.902   0.017  10.355 -0.3048 -0.8726 -1.6742
 8979SOL     OW38572   3.129   2.153   7.168 -0.1383 -0.3230  0.1645
 8979SOL    HW138573   3.153   2.063   7.189 -1.6730 -1.2676 -2.1864
 8979SOL    HW238574   3.044   2.132   7.130 -0.6141  0.9813  0.5339
 8980SOL     OW38575   1.413   0.142   4.154  0.1327 -0.3741 -0.6652
 8980SOL    HW138576   1.419   0.238   4.162  0.0537 -0.4767  0.6508
 8980SOL    HW238577   1.336   0.130   4.098  0.6896  2.1333 -1.9850
 8981SOL     OW38578   3.213   2.488   4.886 -0.3474  0.3487 -0.4501
 8981SOL    HW138579   3.182   2.489   4.977  0.1284 -0.5652 -0.2736
 8981SOL    HW238580   3.305   2.502   4.911 -0.3837  0.3138 -0.2951
 8982SOL     OW38581   0.467   1.821   3.241  0.4537 -0.2594  0.3110
 8982SOL    HW138582   0.397   1.817   3.175  1.6523  1.0338 -1.0391
 8982SOL    HW238583   0.468   1.733   3.279  2.6141  0.1743  1.2265
 8983SOL     OW38584   0.352   2.388   5.695  0.2098  0.0730 -0.2137
 8983SOL    HW138585   0.291   2.314   5.682  0.8713 -0.4107 -0.5525
 8983SOL    HW238586   0.357   2.413   5.603 -0.9463 -0.4291 -0.4265
 8984SOL     OW38587   0.875   2.387  13.211 -0.1202  0.0286  0.1013
 8984SOL    HW138588   0.837   2.452  13.152  0.7303  1.0586  0.6940
 8984SOL    HW238589   0.796   2.376  13.264  0.1556  0.0647  0.5269
 8985SOL     OW38590   2.560   3.218  11.415  0.2031 -0.2735  0.5446
 8985SOL    HW138591   2.499   3.147  11.432  0.4254 -0.7763 -0.7334
 8985SOL    HW238592   2.611   3.172  11.348 -1.3087  2.5597 -2.5571
 8986SOL     OW38593   3.680   4.193   8.959  0.2790  0.7669 -0.1881
 8986SOL    HW138594   3.687   4.098   8.969 -0.7307  0.7307  0.0804
 8986SOL    HW238595   3.730   4.214   8.879  2.0740  1.1695  1.0408
 8987SOL     OW38596   4.700   2.845  14.097 -0.0877 -0.0943  0.0372
 8987SOL    HW138597   4.684   2.939  14.099  2.0232  0.2766 -0.4841
 8987SOL    HW238598   4.706   2.822  14.190 -3.1789  0.6218  0.4336
 8988SOL     OW38599   0.632   3.033   4.251 -0.7495  0.2059 -0.0767
 8988SOL    HW138600   0.540   3.037   4.225 -0.6835 -2.1686 -0.6546
 8988SOL    HW238601   0.631   3.113   4.303 -0.1274 -1.6543  2.7777
 8989SOL     OW38602   0.168   3.898   8.919  0.0117  0.9965 -0.2750
 8989SOL    HW138603   0.208   3.812   8.926  0.9166  1.5413  1.4284
 8989SOL    HW238604   0.237   3.959   8.946  0.8152  0.8692 -2.0951
 8990SOL     OW38605   0.103   3.301   3.540  0.2181  0.3860  0.1059
 8990SOL    HW138606   0.024   3.339   3.578  0.1687  1.7353 -1.3245
 8990SOL    HW238607   0.177   3.337   3.590  0.9694  0.6236 -1.1594
 8991SOL     OW38608   1.430   0.164  14.923 -0.0030  0.3048 -0.0982
 8991SOL    HW138609   1.382   0.205  14.994  0.3241 -1.4262  1.1431
 8991SOL    HW238610   1.406   0.212  14.844  2.2011  1.1961 -0.2342
 8992SOL     OW38611   1.084   2.924   6.231  0.2484  0.9009 -0.0948
 8992SOL    HW138612   1.122   2.884   6.153 -1.5268 -1.9140  0.4800
 8992SOL    HW238613   1.145   2.996   6.242  2.6550 -1.1918  0.3915
 8993SOL     OW38614   3.661   0.660   8.678 -0.6230  0.6684 -0.1147
 8993SOL    HW138615   3.583   0.703   8.644 -0.6709 -1.1001 -2.2163
 8993SOL    HW238616   3.656   0.678   8.772  2.9044 -0.1533  0.2356
 8994SOL     OW38617   0.476   3.314   5.016 -0.5223  0.3974 -0.0494
 8994SOL    HW138618   0.425   3.348   5.090 -0.1775 -2.5086  1.4915
 8994SOL    HW238619   0.405   3.297   4.954  0.0310  0.1007 -0.5934
 8995SOL     OW38620   2.197   1.379   5.154  0.2757 -0.1089  0.0092
 8995SOL    HW138621   2.149   1.419   5.081  0.4896  1.5362  0.7589
 8995SOL    HW238622   2.129   1.316   5.177 -2.0824  2.3966 -0.0214
 8996SOL     OW38623   2.649   3.359   4.575 -0.2197 -0.2400 -0.0286
 8996SOL    HW138624   2.580   3.350   4.509 -1.5252 -1.6659  1.5255
 8996SOL    HW238625   2.687   3.273   4.563 -1.1523 -0.4765 -1.3046
 8997SOL     OW38626   0.374   3.607   0.435  1.2706 -0.5396  0.5034
 8997SOL    HW138627   0.465   3.578   0.430  1.6141  0.4119  1.4541
 8997SOL    HW238628   0.341   3.533   0.487 -1.3297  0.4316  0.2003
 8998SOL     OW38629   4.100   1.058   0.349  0.0461 -0.2586  0.3480
 8998SOL    HW138630   4.142   1.130   0.301 -0.3784 -0.4245 -0.2726
 8998SOL    HW238631   4.176   1.017   0.389  1.5918  2.1881 -0.0868
 8999SOL     OW38632   2.311   1.522   7.954  0.5667  0.1114  0.1040
 8999SOL    HW138633   2.309   1.442   8.006 -0.5969  0.4010  0.5008
 8999SOL    HW238634   2.288   1.478   7.872  1.5834 -1.1299  0.4878
 9000SOL     OW38635   4.380   1.449   7.302  1.0877 -0.2581 -0.1801
 9000SOL    HW138636   4.468   1.412   7.311  2.1082  1.9801 -0.7706
 9000SOL    HW238637   4.388   1.514   7.372  2.1560 -0.0217 -0.5174
 9001SOL     OW38638   3.448   2.753   4.574  0.3753  0.0019  0.1077
 9001SOL    HW138639   3.430   2.660   4.560 -3.4229  0.5164  1.7260
 9001SOL    HW238640   3.537   2.739   4.607  0.1084  1.5150  1.4978
 9002SOL     OW38641   2.167   0.525  17.674 -0.2906  0.3905 -0.4755
 9002SOL    HW138642   2.238   0.484  17.722 -1.6353 -0.2052  1.0001
 9002SOL    HW238643   2.113   0.462  17.626 -0.7742  0.6241 -0.2362
 9003SOL     OW38644   0.036   4.143   7.455  0.0051 -0.3775  0.3764
 9003SOL    HW138645   4.685   4.121   7.476 -0.1531  0.9887  1.1116
 9003SOL    HW238646   0.034   4.142   7.359 -1.1278 -1.2160  0.4136
 9004SOL     OW38647   4.194   3.751   3.124  0.1840  0.4162 -0.3855
 9004SOL    HW138648   4.182   3.731   3.216  1.7437  0.4286 -0.1732
 9004SOL    HW238649   4.117   3.802   3.100 -0.7044 -0.7192  0.0484
 9005SOL     OW38650   2.956   0.398  13.225 -0.0589 -0.6122 -0.6010
 9005SOL    HW138651   2.988   0.308  13.234  0.1095 -0.4043  0.8928
 9005SOL    HW238652   3.040   0.444  13.225 -0.4403  0.0794  0.4618
 9006SOL     OW38653   0.568   4.344  10.786  0.1126 -0.2558 -0.0278
 9006SOL    HW138654   0.551   4.263  10.833  0.9102 -1.0625 -1.1527
 9006SOL    HW238655   0.599   4.307  10.703  0.2602  2.1181 -1.0568
 9007SOL     OW38656   4.456   1.292   9.526 -0.3212  0.0540 -0.3489
 9007SOL    HW138657   4.439   1.275   9.619  1.3548  2.1376  0.3403
 9007SOL    HW238658   4.431   1.205   9.496  0.7647  0.4396 -2.3813
 9008SOL     OW38659   4.171   1.454  11.686  0.0281  0.6972  0.0767
 9008SOL    HW138660   4.210   1.372  11.716 -1.7298 -0.5458 -1.0132
 9008SOL    HW238661   4.246   1.484  11.633 -1.2158  0.2580 -1.9436
 9009SOL     OW38662   3.256   1.768   9.092  0.2220  0.5173 -0.0768
 9009SOL    HW138663   3.233   1.860   9.108 -1.4862 -0.1380  1.1354
 9009SOL    HW238664   3.327   1.750   9.154  0.2869 -0.4406 -0.4320
 9010SOL     OW38665   0.735   0.587  12.117  1.2376  0.1679 -0.1196
 9010SOL    HW138666   0.758   0.510  12.169  2.2858  0.3253 -0.3537
 9010SOL    HW238667   0.647   0.611  12.148  1.4018  0.1525  0.3543
 9011SOL     OW38668   4.174   2.820   7.656  0.7722  0.2804 -0.5266
 9011SOL    HW138669   4.200   2.739   7.613  0.5753  0.8546 -1.7307
 9011SOL    HW238670   4.107   2.795   7.719  0.2657 -0.3996 -1.3477
 9012SOL     OW38671   2.497   3.390   3.240 -0.2237  0.2637  0.0948
 9012SOL    HW138672   2.461   3.471   3.276 -0.6089  0.1422 -0.0167
 9012SOL    HW238673   2.418   3.342   3.217  2.0828 -1.6401 -3.7519
 9013SOL     OW38674   2.006   2.518  17.625 -0.3208 -0.2522 -0.0960
 9013SOL    HW138675   1.954   2.560  17.693 -1.4988 -4.2473  1.5054
 9013SOL    HW238676   1.997   2.427  17.653  2.6687 -0.4214  0.2900
 9014SOL     OW38677   1.339   1.597   4.063  0.0841  0.4995 -0.0556
 9014SOL    HW138678   1.266   1.651   4.032 -1.6214 -1.1989  0.9980
 9014SOL    HW238679   1.306   1.508   4.052  0.0714  0.1766  2.5924
 9015SOL     OW38680   4.046   0.115   9.797  0.1891 -0.0616  0.4271
 9015SOL    HW138681   4.018   0.121   9.888 -1.7300 -1.0248 -0.1051
 9015SOL    HW238682   4.139   0.135   9.805  0.4953 -1.3834  0.1134
 9016SOL     OW38683   3.417   4.712   3.504  0.1938  0.6078  0.9031
 9016SOL    HW138684   3.483   0.028   3.464 -1.2991  1.4834 -0.3363
 9016SOL    HW238685   3.431   4.624   3.470  0.5618  0.9189  0.2546
 9017SOL     OW38686   0.066   3.281   8.526 -0.1574  0.5755  0.6544
 9017SOL    HW138687   0.143   3.267   8.582 -0.6000 -1.4448  0.7625
 9017SOL    HW238688   4.733   3.255   8.582 -0.3305 -1.0952 -0.3408
 9018SOL     OW38689   0.362   3.401   1.445 -0.4922 -0.2307 -0.2669
 9018SOL    HW138690   0.309   3.420   1.522 -2.1000 -0.0176 -1.4198
 9018SOL    HW238691   0.434   3.348   1.480  0.0055 -0.5693 -1.7954
 9019SOL     OW38692   4.354   4.318   8.632  0.2818  0.7389 -0.2282
 9019SOL    HW138693   4.406   4.296   8.709 -0.9619 -1.1903  0.0754
 9019SOL    HW238694   4.409   4.383   8.589  0.2768  0.1553 -1.1225
 9020SOL     OW38695   3.450   2.282   1.724 -0.4411 -0.1070 -0.0966
 9020SOL    HW138696   3.377   2.260   1.782 -0.1274  0.6417  0.5839
 9020SOL    HW238697   3.522   2.284   1.787 -1.0209 -0.1086  0.5648
 9021SOL     OW38698   0.841   0.628   8.020  0.0358  0.3931  0.2787
 9021SOL    HW138699   0.874   0.575   8.093 -1.3325 -0.0069  0.6040
 9021SOL    HW238700   0.844   0.717   8.053 -0.4893 -0.7626  3.4361
 9022SOL     OW38701   3.347   3.663  16.678  0.2993 -0.2835 -0.4360
 9022SOL    HW138702   3.264   3.698  16.712  0.9781  0.2458  0.6577
 9022SOL    HW238703   3.401   3.740  16.698  0.9259 -0.5577 -1.0576
 9023SOL     OW38704   3.877   0.268   8.092 -0.2456 -0.2885  0.4339
 9023SOL    HW138705   3.821   0.255   8.016  0.2379  0.8853 -0.1144
 9023SOL    HW238706   3.950   0.316   8.054  1.0329 -1.6197  1.1829
 9024SOL     OW38707   4.545   4.188  10.316 -0.4526 -0.2492  0.1303
 9024SOL    HW138708   4.467   4.241  10.301 -1.5447 -1.7600  0.4949
 9024SOL    HW238709   4.595   4.246  10.374  1.0496 -0.2233 -1.1618
 9025SOL     OW38710   3.027   2.184   2.716 -0.1306 -0.2847 -1.0153
 9025SOL    HW138711   2.977   2.215   2.792  0.8993  2.4053 -1.4570
 9025SOL    HW238712   2.980   2.229   2.646 -1.7972  1.9629  1.5404
 9026SOL     OW38713   0.268   1.855   1.485 -0.6664  0.2011 -0.2423
 9026SOL    HW138714   0.302   1.843   1.574 -1.0354 -0.3400 -0.1755
 9026SOL    HW238715   0.335   1.907   1.441 -1.1457  1.3114  0.3191
 9027SOL     OW38716   1.320   4.083  12.483  0.3358 -0.2476 -0.6424
 9027SOL    HW138717   1.309   4.098  12.389 -0.3493  0.5200 -0.4429
 9027SOL    HW238718   1.316   4.174  12.513  0.9953  0.4603 -2.6747
 9028SOL     OW38719   0.044   3.491   7.095 -0.4082 -0.0524  0.2083
 9028SOL    HW138720   0.011   3.404   7.076  0.4841 -0.1052 -1.0497
 9028SOL    HW238721   0.065   3.519   7.006 -0.0892  2.7843  1.1773
 9029SOL     OW38722   2.665   3.214   1.840 -0.1299 -0.6561  0.4418
 9029SOL    HW138723   2.651   3.128   1.880  0.1646 -1.5286 -1.3314
 9029SOL    HW238724   2.728   3.240   1.907 -0.2038  1.1862 -0.2151
 9030SOL     OW38725   3.355   1.443   8.229  0.1523 -0.3294  0.2432
 9030SOL    HW138726   3.261   1.457   8.228  0.2738  0.4688  0.0817
 9030SOL    HW238727   3.380   1.534   8.245  1.2857 -0.8999  1.7451
 9031SOL     OW38728   2.544   2.850   8.664  0.2454  0.4415 -0.3411
 9031SOL    HW138729   2.494   2.795   8.725  1.5613  0.3145  0.6255
 9031SOL    HW238730   2.576   2.781   8.607 -0.9380  0.7541 -1.3906
 9032SOL     OW38731   1.723   1.011   8.961  0.0076  0.1252 -0.1040
 9032SOL    HW138732   1.818   0.995   8.964 -0.3977 -2.1270  0.2053
 9032SOL    HW238733   1.724   1.102   8.930 -0.1087  1.4988  3.8351
 9033SOL     OW38734   1.938   3.464  16.460 -0.3351  0.2874  0.0736
 9033SOL    HW138735   1.957   3.486  16.551  2.8966 -1.2906 -0.2298
 9033SOL    HW238736   1.857   3.511  16.440 -1.5363 -1.7427  0.1565
 9034SOL     OW38737   2.674   3.637  17.097  0.6292 -0.2044 -0.3090
 9034SOL    HW138738   2.720   3.701  17.152  0.1201  1.0762 -1.3812
 9034SOL    HW238739   2.613   3.595  17.158  0.6364  1.7153  1.0047
 9035SOL     OW38740   2.394   2.770   6.855 -0.0500 -0.1090 -0.0920
 9035SOL    HW138741   2.406   2.790   6.762  3.0525 -0.2196  0.2819
 9035SOL    HW238742   2.339   2.693   6.840 -0.8366 -0.0519  2.4342
 9036SOL     OW38743   1.343   2.270   8.950  0.1118 -0.1297 -0.3373
 9036SOL    HW138744   1.301   2.320   8.881 -0.8177 -1.0037 -0.4128
 9036SOL    HW238745   1.265   2.235   8.995 -0.8643  0.6439 -1.4380
 9037SOL     OW38746   3.973   3.088   4.171  0.2006 -0.0918 -0.0133
 9037SOL    HW138747   4.005   3.034   4.243 -0.5199  1.7557  1.6912
 9037SOL    HW238748   4.060   3.112   4.140  0.1611 -0.0642 -0.1022
 9038SOL     OW38749   0.820   3.163  16.197 -0.3752 -0.1979  0.1361
 9038SOL    HW138750   0.771   3.230  16.245  0.8886  0.9507 -0.1774
 9038SOL    HW238751   0.905   3.207  16.195 -0.6595  0.4636  2.1832
 9039SOL     OW38752   2.939   3.557  14.613 -0.4248 -0.1634 -0.1433
 9039SOL    HW138753   3.034   3.555  14.625 -0.5299 -2.1051  0.3329
 9039SOL    HW238754   2.912   3.621  14.679  3.2034 -1.6480  2.7825
 9040SOL     OW38755   3.285   1.240   9.339 -0.2337 -0.1850  0.1263
 9040SOL    HW138756   3.319   1.266   9.425 -0.0917  0.8137 -0.2280
 9040SOL    HW238757   3.194   1.219   9.358  0.0223 -0.8938  0.5747
 9041SOL     OW38758   2.694   2.639   8.952  0.7048 -0.3535  0.4782
 9041SOL    HW138759   2.781   2.674   8.937 -0.1722  0.6549 -2.2302
 9041SOL    HW238760   2.684   2.630   9.047 -0.0899 -1.7491  0.2713
 9042SOL     OW38761   2.131   1.860  15.750 -0.3587  0.7247 -0.3713
 9042SOL    HW138762   2.066   1.812  15.698  1.2949 -0.1537 -1.6056
 9042SOL    HW238763   2.090   1.946  15.758 -0.5329  0.3446  2.8823
 9043SOL     OW38764   3.113   0.776   1.864 -0.0761 -0.0843 -0.0222
 9043SOL    HW138765   3.081   0.864   1.881 -3.3924 -1.2094 -0.4939
 9043SOL    HW238766   3.051   0.725   1.915 -1.8614  3.1712  1.0345
 9044SOL     OW38767   1.868   1.859   8.459  0.6460  0.2483 -0.4118
 9044SOL    HW138768   1.908   1.775   8.436 -1.7185 -1.1284  0.5485
 9044SOL    HW238769   1.823   1.876   8.376  0.7814 -3.8181 -1.3074
 9045SOL     OW38770   0.920   0.463   5.198 -0.2530 -0.0376  0.6700
 9045SOL    HW138771   0.848   0.494   5.143 -1.8725 -2.5400  1.3599
 9045SOL    HW238772   0.944   0.542   5.246  1.6530 -1.0086  1.2989
 9046SOL     OW38773   4.664   4.188  11.298 -0.1810  0.6404  0.5148
 9046SOL    HW138774   4.614   4.149  11.226 -0.8690  1.9935  0.2605
 9046SOL    HW238775   4.722   4.242  11.244  0.4204 -0.2587  0.2592
 9047SOL     OW38776   1.548   2.604   4.739 -0.6955  0.7292 -0.1211
 9047SOL    HW138777   1.503   2.526   4.773 -0.3877 -0.1756 -1.7759
 9047SOL    HW238778   1.479   2.670   4.736 -1.1713  0.3511  2.7689
 9048SOL     OW38779   2.187   0.545   9.406 -0.2687 -0.0027 -0.2540
 9048SOL    HW138780   2.181   0.628   9.453 -1.6365  0.3214 -1.0194
 9048SOL    HW238781   2.132   0.485   9.458 -2.2935  1.8255 -0.2614
 9049SOL     OW38782   3.253   2.024   9.194 -0.0809 -0.0526 -0.0743
 9049SOL    HW138783   3.173   2.048   9.241 -1.0210  0.1563 -1.7591
 9049SOL    HW238784   3.310   2.094   9.226 -0.1441  0.4201 -0.9858
 9050SOL     OW38785   1.996   3.576  17.539 -0.2294  0.2207 -0.3472
 9050SOL    HW138786   2.088   3.600  17.528 -0.4584  1.1153 -0.3163
 9050SOL    HW238787   1.985   3.481  17.539  1.2883  0.0369 -1.1576
 9051SOL     OW38788   3.211   1.594   8.865 -0.6957 -0.4860  0.3357
 9051SOL    HW138789   3.178   1.505   8.868 -0.8920 -0.4857 -1.4589
 9051SOL    HW238790   3.239   1.610   8.955 -1.3908 -0.0752  0.4864
 9052SOL     OW38791   2.599   1.691   9.544 -0.0325  0.0867 -0.1453
 9052SOL    HW138792   2.606   1.742   9.463  2.2740 -1.2265 -0.7823
 9052SOL    HW238793   2.561   1.612   9.507 -0.0012  0.2487 -0.5241
 9053SOL     OW38794   4.713   1.990   1.728  0.3129 -0.1119  0.1348
 9053SOL    HW138795   4.726   1.951   1.815  2.2184 -2.0379 -1.0350
 9053SOL    HW238796   4.720   1.925   1.658  1.1037  1.5807 -1.3646
 9054SOL     OW38797   0.476   4.305   6.515  0.6070 -0.2466  0.4197
 9054SOL    HW138798   0.565   4.273   6.502  0.7961  1.4754 -2.4461
 9054SOL    HW238799   0.446   4.235   6.573 -0.5447 -0.4935 -0.4915
 9055SOL     OW38800   1.817   0.104  15.118 -0.0657  0.0458  0.1226
 9055SOL    HW138801   1.885   0.085  15.182 -0.1481  0.5772  0.3654
 9055SOL    HW238802   1.784   0.181  15.164  1.8524 -0.0075  1.5744
 9056SOL     OW38803   0.220   0.409   3.334 -0.1827  0.0045 -0.1300
 9056SOL    HW138804   0.164   0.486   3.331 -0.7355 -0.4202 -0.9018
 9056SOL    HW238805   0.304   0.450   3.313  0.6288 -1.0754  0.9652
 9057SOL     OW38806   2.043   3.479   2.802 -0.2456  0.0571  0.1348
 9057SOL    HW138807   1.978   3.412   2.822 -0.0467  0.2254  1.3235
 9057SOL    HW238808   2.001   3.554   2.845  0.4204  1.2427 -1.2793
 9058SOL     OW38809   2.886   1.216   4.273 -0.4958 -0.1679 -0.0524
 9058SOL    HW138810   2.961   1.250   4.225 -0.2736 -2.4989 -1.3482
 9058SOL    HW238811   2.875   1.127   4.240  2.2305  0.1046 -1.6789
 9059SOL     OW38812   2.856   0.024   8.756 -0.6446  0.4888 -0.0770
 9059SOL    HW138813   2.912   0.014   8.680  0.3474 -2.2044  1.0076
 9059SOL    HW238814   2.915   0.068   8.817  0.1012  0.0550 -0.4941
 9060SOL     OW38815   0.332   3.876   3.460  0.4847  0.8176  0.1095
 9060SOL    HW138816   0.409   3.836   3.501 -0.1189 -1.7295 -1.2244
 9060SOL    HW238817   0.279   3.796   3.461  0.9798  0.4747 -1.1384
 9061SOL     OW38818   2.292   4.483   6.147 -0.8987 -0.4889  0.4364
 9061SOL    HW138819   2.260   4.454   6.232 -0.3515  0.2298  0.8810
 9061SOL    HW238820   2.384   4.502   6.165 -0.8783  0.3401 -0.5395
 9062SOL     OW38821   3.088   0.667  17.310 -0.0655  0.4223  0.5470
 9062SOL    HW138822   3.067   0.649  17.218  0.1684 -1.4286  0.8610
 9062SOL    HW238823   3.063   0.758  17.295  2.0236  0.6100 -1.8611
 9063SOL     OW38824   0.959   3.177   0.001  0.0248 -0.5984 -0.2431
 9063SOL    HW138825   0.865   3.197   0.003 -0.2796 -2.0007 -0.8958
 9063SOL    HW238826   0.970   3.146   0.091 -3.0988  0.3676  0.4677
 9064SOL     OW38827   3.190   2.051   8.908 -0.2528  0.2116  0.8837
 9064SOL    HW138828   3.284   2.031   8.912 -0.0867  1.0861  1.4708
 9064SOL    HW238829   3.197   2.146   8.920  0.3399  0.1474  1.0635
 9065SOL     OW38830   1.460   1.759   1.989  0.2633  0.2881  0.0782
 9065SOL    HW138831   1.389   1.806   2.033 -2.0044 -2.0840 -1.0284
 9065SOL    HW238832   1.520   1.733   2.058  1.1793  1.1070 -0.4197
 9066SOL     OW38833   4.628   2.680  16.958  0.0478 -0.4376  0.1907
 9066SOL    HW138834   4.680   2.600  16.955 -2.0570 -1.7313 -1.5122
 9066SOL    HW238835   4.570   2.667  16.883  0.1572  0.1176  0.0107
 9067SOL     OW38836   3.466   3.384   9.262  0.5743  0.1574 -0.2554
 9067SOL    HW138837   3.421   3.326   9.202 -1.8324  1.1207  0.6307
 9067SOL    HW238838   3.442   3.471   9.230  1.5668  0.6822  0.4065
 9068SOL     OW38839   1.368   0.555   4.806  0.2198 -0.1107  0.1359
 9068SOL    HW138840   1.454   0.596   4.796 -1.6307  2.8025 -3.8223
 9068SOL    HW238841   1.360   0.502   4.727  0.2492  2.4304 -1.5690
 9069SOL     OW38842   2.696   2.455   5.214  0.1787 -0.4160 -0.4712
 9069SOL    HW138843   2.636   2.469   5.287 -1.3389 -1.2614 -1.5651
 9069SOL    HW238844   2.628   2.468   5.148  0.8487 -0.0318 -1.0837
 9070SOL     OW38845   2.714   3.557   2.754  0.2301 -0.0972  0.1032
 9070SOL    HW138846   2.796   3.523   2.717  1.4882  0.9992  1.8828
 9070SOL    HW238847   2.748   3.597   2.834 -0.7838  0.9618 -0.0043
 9071SOL     OW38848   3.300   3.728   6.975  0.1973 -0.1335 -0.1480
 9071SOL    HW138849   3.290   3.653   6.916  1.9907  0.5051 -1.2334
 9071SOL    HW238850   3.304   3.686   7.061 -1.4381  0.1392  0.0717
 9072SOL     OW38851   2.873   2.773   7.220 -0.1472  0.2079  0.3259
 9072SOL    HW138852   2.825   2.835   7.276  0.2776  1.5891 -0.8464
 9072SOL    HW238853   2.959   2.816   7.212 -0.6474  0.8617 -1.5501
 9073SOL     OW38854   4.357   3.660   2.649 -0.2820 -0.2200 -0.4628
 9073SOL    HW138855   4.390   3.572   2.670  1.9321  0.4839 -1.0316
 9073SOL    HW238856   4.425   3.698   2.594  0.1370 -0.6636 -0.2520
 9074SOL     OW38857   4.503   1.270   8.224  0.4837 -0.2454 -0.4624
 9074SOL    HW138858   4.458   1.198   8.267 -1.1562  0.5133 -0.8997
 9074SOL    HW238859   4.449   1.293   8.149  1.1856  0.3363 -0.7917
 9075SOL     OW38860   3.369   1.061   9.130 -0.3439 -0.4143 -0.2356
 9075SOL    HW138861   3.341   1.120   9.200  1.8142 -1.6767  1.7043
 9075SOL    HW238862   3.288   1.046   9.081 -0.8465  1.0721  0.1408
 9076SOL     OW38863   0.651   4.356   8.754  0.2528  0.2177 -0.6496
 9076SOL    HW138864   0.729   4.375   8.702 -0.2840  1.3498 -1.0327
 9076SOL    HW238865   0.588   4.407   8.703 -1.0789 -1.7053 -0.9292
 9077SOL     OW38866   0.144   3.482   8.356 -1.0576 -0.0247  0.0566
 9077SOL    HW138867   0.109   3.417   8.417 -1.3630  2.0089  2.0314
 9077SOL    HW238868   0.072   3.544   8.349 -2.3975 -1.7329 -1.4621
 9078SOL     OW38869   2.691   0.080   6.532  0.7221 -0.8390  0.2066
 9078SOL    HW138870   2.653   0.161   6.497 -0.9426 -1.8274 -0.2651
 9078SOL    HW238871   2.713   0.024   6.458  0.2080  0.9012 -1.2527
 9079SOL     OW38872   4.176   1.324  12.697  0.6216 -0.2928 -0.4167
 9079SOL    HW138873   4.160   1.411  12.658 -1.3963 -0.0274  0.9968
 9079SOL    HW238874   4.098   1.277  12.666  2.3377 -2.0561 -2.0482
 9080SOL     OW38875   2.158   1.647  15.260  0.8063 -0.0838  0.1526
 9080SOL    HW138876   2.091   1.587  15.226  0.3264  1.4699 -1.6378
 9080SOL    HW238877   2.095   1.690  15.317  0.2861  1.1096 -1.3249
 9081SOL     OW38878   2.574   2.596  13.270 -0.3046 -0.1646 -0.2949
 9081SOL    HW138879   2.615   2.602  13.357 -1.2655  0.8348  0.0801
 9081SOL    HW238880   2.614   2.674  13.230  0.6840 -0.4399  0.1373
 9082SOL     OW38881   3.669   4.016  16.510  0.1726  0.1354  0.0914
 9082SOL    HW138882   3.735   4.059  16.564  1.4001 -0.4372 -0.9520
 9082SOL    HW238883   3.730   3.963  16.459 -1.0103 -0.8274 -0.3208
 9083SOL     OW38884   0.381   3.209   3.431 -0.0988  0.6175 -0.0925
 9083SOL    HW138885   0.418   3.218   3.519 -2.4237  2.0398  0.7652
 9083SOL    HW238886   0.294   3.240   3.456 -0.3150 -0.1990  0.1720
 9084SOL     OW38887   2.401   3.137   5.094 -0.1298  0.5602  0.3965
 9084SOL    HW138888   2.456   3.181   5.160  0.9801 -0.9714  0.5045
 9084SOL    HW238889   2.392   3.219   5.045 -1.6483 -0.4419 -0.9784
 9085SOL     OW38890   3.627   4.243   0.113 -0.1225  0.4955  0.7823
 9085SOL    HW138891   3.700   4.277   0.062  0.5879  2.4263  3.0685
 9085SOL    HW238892   3.572   4.321   0.117 -2.1688 -1.0339  2.0357
 9086SOL     OW38893   0.962   3.053   5.222 -0.3741  0.2797 -0.3154
 9086SOL    HW138894   0.931   2.964   5.208  1.5371 -0.5208  0.6191
 9086SOL    HW238895   0.898   3.098   5.277  0.3741  1.3011 -0.2885
 9087SOL     OW38896   2.255   3.596  16.364 -0.3326 -0.4501 -0.4535
 9087SOL    HW138897   2.306   3.636  16.434  0.2669 -1.7196 -0.1651
 9087SOL    HW238898   2.210   3.527  16.412  1.5375 -0.3738  1.4172
 9088SOL     OW38899   0.261   4.667   4.283  0.3139 -0.5778 -0.4963
 9088SOL    HW138900   0.211   0.008   4.286  3.1285  1.0766  1.4666
 9088SOL    HW238901   0.300   4.670   4.195  1.2914  0.6074 -0.0231
 9089SOL     OW38902   4.287   1.947   3.118  0.2509  0.1662  0.1756
 9089SOL    HW138903   4.295   1.913   3.207 -0.5267  0.5969  0.4075
 9089SOL    HW238904   4.206   1.909   3.086 -0.5799  2.0934 -0.0239
 9090SOL     OW38905   3.501   1.997   5.876  0.0379 -0.8703  0.2055
 9090SOL    HW138906   3.472   2.088   5.876  0.6727 -0.6651 -1.6026
 9090SOL    HW238907   3.552   1.999   5.795 -1.9528  0.6190 -1.0090
 9091SOL     OW38908   0.983   4.057  13.054 -0.0201  0.4902  0.4779
 9091SOL    HW138909   0.917   4.047  12.985  0.4826  2.1373 -0.2551
 9091SOL    HW238910   1.057   4.019  13.007  0.3009 -1.0665  2.2623
 9092SOL     OW38911   4.183   4.236   8.918  0.4185  0.2590 -0.4093
 9092SOL    HW138912   4.273   4.250   8.945  0.4869  1.4819 -1.2508
 9092SOL    HW238913   4.147   4.192   8.994  1.4571  2.1711  1.1932
 9093SOL     OW38914   2.239   0.514  12.105 -0.3996 -0.0320  0.2704
 9093SOL    HW138915   2.170   0.548  12.048 -0.3897 -0.2671  0.1184
 9093SOL    HW238916   2.314   0.555  12.062 -0.1895  1.4281  2.0584
 9094SOL     OW38917   4.278   4.037   8.238 -0.5019 -0.6105 -0.5633
 9094SOL    HW138918   4.255   4.120   8.279  0.2863 -1.0869  0.8593
 9094SOL    HW238919   4.328   4.005   8.313  1.5837 -0.2498 -1.7927
 9095SOL     OW38920   3.185   3.520   0.078  0.1549  0.1271  0.0547
 9095SOL    HW138921   3.218   3.492  17.749 -0.5793  2.1637 -0.9028
 9095SOL    HW238922   3.231   3.603   0.094 -1.7365  1.5717 -2.0083
 9096SOL     OW38923   2.664   0.275  10.222  0.0866 -0.0170 -0.1352
 9096SOL    HW138924   2.657   0.188  10.182 -0.7722 -0.9052  1.9649
 9096SOL    HW238925   2.703   0.262  10.308 -0.0083  1.0527  0.0691
 9097SOL     OW38926   0.480   4.098   1.949  0.0527  0.1279 -0.0480
 9097SOL    HW138927   0.429   4.138   1.879  0.4662  1.7872  0.5977
 9097SOL    HW238928   0.510   4.018   1.905 -0.9815 -0.2950  0.0141
 9098SOL     OW38929   3.902   0.004  12.261  0.3550  0.6990  0.0784
 9098SOL    HW138930   3.939   0.065  12.325  2.8819 -1.8646  1.0818
 9098SOL    HW238931   3.852   0.056  12.198  0.7641  0.5335 -0.3891
 9099SOL     OW38932   1.869   3.915   9.825 -0.3771  0.1919  0.1788
 9099SOL    HW138933   1.920   3.984   9.783  0.5568 -0.7426 -0.2470
 9099SOL    HW238934   1.936   3.856   9.861  0.7604  1.0968 -0.4667
 9100SOL     OW38935   1.383   3.043   5.972 -0.0603 -0.2747 -0.8646
 9100SOL    HW138936   1.342   3.048   5.885 -2.1503 -1.1741  0.0686
 9100SOL    HW238937   1.331   2.968   6.000 -1.2618  0.9615  0.2308
 9101SOL     OW38938   1.879   4.523   4.971  0.2057 -0.1073 -0.1371
 9101SOL    HW138939   1.788   4.516   4.945  0.1752 -1.5151  0.3142
 9101SOL    HW238940   1.869   4.535   5.066 -0.3963 -2.8213  0.1385
 9102SOL     OW38941   3.559   4.324   3.905  0.1221  0.4733  0.4728
 9102SOL    HW138942   3.627   4.258   3.918  0.5887  0.7963 -0.3441
 9102SOL    HW238943   3.482   4.278   3.939  1.6626 -2.9086 -0.6632
 9103SOL     OW38944   3.070   3.240   3.375 -0.2721 -0.2986  0.2571
 9103SOL    HW138945   3.084   3.324   3.331  0.1394 -1.3828 -1.6843
 9103SOL    HW238946   3.148   3.191   3.349  0.1764  0.1464  0.7697
 9104SOL     OW38947   1.160   3.771   2.385  0.2107  0.3424  0.0516
 9104SOL    HW138948   1.085   3.809   2.430  2.5438  2.9578  1.7119
 9104SOL    HW238949   1.149   3.683   2.420  0.0901  0.6535  0.7948
 9105SOL     OW38950   4.139   2.741  16.245  0.0827  0.1441 -0.0487
 9105SOL    HW138951   4.187   2.818  16.211  0.0110 -1.1732 -3.1311
 9105SOL    HW238952   4.096   2.719  16.163 -0.8848 -0.3912  0.6110
 9106SOL     OW38953   2.833   0.438   9.511  0.1083  0.3866 -0.1034
 9106SOL    HW138954   2.800   0.435   9.601  0.7848  1.2794  0.1733
 9106SOL    HW238955   2.905   0.494   9.540  0.0683 -0.8066  2.3166
 9107SOL     OW38956   3.018   2.412   7.277 -0.5318  0.0642  0.7925
 9107SOL    HW138957   3.110   2.406   7.249 -0.5538 -2.9866  1.3189
 9107SOL    HW238958   2.980   2.434   7.192 -1.9406  0.7835  1.6149
 9108SOL     OW38959   2.769   3.276   0.457  0.8317  0.2506  0.1011
 9108SOL    HW138960   2.797   3.307   0.370 -1.7330  2.1004 -0.0800
 9108SOL    HW238961   2.833   3.317   0.515  2.7746 -0.7198 -1.3191
 9109SOL     OW38962   0.865   3.184   6.866  0.2909 -0.2531 -0.2677
 9109SOL    HW138963   0.946   3.170   6.816  0.6198  0.5350  0.0523
 9109SOL    HW238964   0.884   3.272   6.898 -0.3258 -0.3879  0.4792
 9110SOL     OW38965   4.469   0.089   4.813  1.1646  0.5669  0.1657
 9110SOL    HW138966   4.514   0.069   4.731  2.0330 -0.5073  0.8964
 9110SOL    HW238967   4.381   0.061   4.785  2.0766 -1.2226 -0.9375
 9111SOL     OW38968   1.367   0.666  11.036  0.2194  0.6508  0.6103
 9111SOL    HW138969   1.402   0.730  11.098  1.6353  1.3520 -0.9220
 9111SOL    HW238970   1.306   0.617  11.092 -0.3318  0.4497 -0.1684
 9112SOL     OW38971   4.704   2.023   2.265  0.0067  0.1823  0.2149
 9112SOL    HW138972   4.637   1.961   2.295  0.2446 -1.1777 -2.1108
 9112SOL    HW238973   4.657   2.075   2.200 -4.3740 -2.4245  1.2760
 9113SOL     OW38974   3.753   0.262   3.540  0.1120  0.5110  0.4096
 9113SOL    HW138975   3.686   0.325   3.565 -0.5287  0.0085 -0.0530
 9113SOL    HW238976   3.831   0.317   3.535  0.4772 -0.0713 -0.3123
 9114SOL     OW38977   4.672   1.417   5.931 -0.7374 -0.1872  0.5478
 9114SOL    HW138978   4.725   1.490   5.963  2.3885 -2.8373  1.3241
 9114SOL    HW238979   4.721   1.391   5.854 -2.5227 -1.3219 -0.1951
 9115SOL     OW38980   0.565   1.702   9.355  0.0611 -0.1491 -0.4260
 9115SOL    HW138981   0.612   1.713   9.273  0.7635 -3.3861 -0.4418
 9115SOL    HW238982   0.528   1.615   9.347 -1.9241  0.8529 -2.1386
 9116SOL     OW38983   3.162   0.439   2.170 -0.0822  0.4213 -0.2564
 9116SOL    HW138984   3.208   0.516   2.137  0.0727  1.0949  1.4754
 9116SOL    HW238985   3.073   0.468   2.153  0.5076  1.6377 -1.2583
 9117SOL     OW38986   1.764   3.210   2.084 -0.1665 -0.2719 -0.4227
 9117SOL    HW138987   1.811   3.293   2.094 -0.2129  0.1484 -3.7485
 9117SOL    HW238988   1.692   3.229   2.023 -0.8173 -0.7653  0.1911
 9118SOL     OW38989   1.929   4.018   7.112 -0.0523  0.2175 -0.4097
 9118SOL    HW138990   1.844   3.975   7.128  0.5983 -0.1965  2.0059
 9118SOL    HW238991   1.920   4.095   7.167 -2.3860  0.7173 -1.4613
 9119SOL     OW38992   0.711   4.126   0.379 -0.0101 -0.7940  0.3066
 9119SOL    HW138993   0.656   4.063   0.333 -1.3102 -0.9023  1.9919
 9119SOL    HW238994   0.688   4.205   0.329  2.2207 -0.6345 -0.4658
 9120SOL     OW38995   2.082   0.953   7.378 -0.3292 -0.2272  0.3175
 9120SOL    HW138996   2.080   0.858   7.366 -2.6678 -0.0589 -0.6281
 9120SOL    HW238997   2.013   0.976   7.316  1.5323  1.4247 -1.1357
 9121SOL     OW38998   3.877   2.873   3.596  0.2838  0.0263  0.6044
 9121SOL    HW138999   3.863   2.858   3.689  2.0293 -0.6068  0.7697
 9121SOL    HW239000   3.887   2.778   3.583 -0.8570 -0.1218  0.7799
 9122SOL     OW39001   2.265   2.559   3.370  0.1609  0.2123  0.2294
 9122SOL    HW139002   2.201   2.544   3.301  1.5213 -1.8206 -0.5671
 9122SOL    HW239003   2.332   2.608   3.321  0.6180 -0.3267  0.3108
 9123SOL     OW39004   2.209   1.267   2.433  0.4229 -0.0038 -0.2602
 9123SOL    HW139005   2.176   1.338   2.487 -4.4638 -2.9511  0.6383
 9123SOL    HW239006   2.179   1.296   2.347  2.1732 -0.5420 -1.0505
 9124SOL     OW39007   1.729   0.700   7.134 -0.5713  0.5242 -0.2177
 9124SOL    HW139008   1.747   0.781   7.183 -1.3540  1.3690 -1.3199
 9124SOL    HW239009   1.638   0.691   7.162 -0.5241 -0.4394 -0.3735
 9125SOL     OW39010   1.118   3.487  13.751 -0.2792  0.3312 -0.0271
 9125SOL    HW139011   1.075   3.573  13.747 -1.1779 -0.0259  2.3372
 9125SOL    HW239012   1.045   3.444  13.796  0.4215  0.6044  1.3686
 9126SOL     OW39013   4.090   2.168   6.285 -0.0525 -0.1232 -0.0031
 9126SOL    HW139014   4.016   2.213   6.245 -0.9845 -0.5279  1.2613
 9126SOL    HW239015   4.120   2.225   6.355  1.2525 -0.5060 -0.2561
 9127SOL     OW39016   2.948   4.183  14.026  0.2346  0.1739  0.9776
 9127SOL    HW139017   2.915   4.182  13.936 -0.0685 -1.6214  1.1073
 9127SOL    HW239018   3.043   4.173  14.020  0.4718  3.0556  0.0444
 9128SOL     OW39019   0.990   2.359   9.119  0.0186 -0.1306  0.2816
 9128SOL    HW139020   1.033   2.321   9.196 -0.6454 -1.5091 -0.0296
 9128SOL    HW239021   0.986   2.275   9.074 -3.2632  0.9293 -1.3546
 9129SOL     OW39022   4.166   3.864   1.897  0.6191 -0.4521  0.1367
 9129SOL    HW139023   4.242   3.879   1.953  0.7919  0.0847 -0.2497
 9129SOL    HW239024   4.180   3.928   1.828 -0.3310  0.1071  0.4561
 9130SOL     OW39025   2.645   3.458  13.345 -0.3313 -0.0110  0.0932
 9130SOL    HW139026   2.556   3.491  13.360 -1.0154 -0.3622 -3.2652
 9130SOL    HW239027   2.626   3.420  13.259  2.9243  2.3805 -1.6626
 9131SOL     OW39028   3.321   4.410   3.004 -0.0714  0.1031 -0.1582
 9131SOL    HW139029   3.255   4.431   3.070  2.6666 -0.6938  2.8607
 9131SOL    HW239030   3.296   4.478   2.941  0.0731  0.0753 -0.2460
 9132SOL     OW39031   2.856   4.502   5.357  0.0570  0.4068 -0.0956
 9132SOL    HW139032   2.791   4.438   5.328 -0.6831  1.7869 -1.4522
 9132SOL    HW239033   2.833   4.570   5.294 -1.7205  2.3700  2.6698
 9133SOL     OW39034   0.331   0.903  10.242  0.1216 -0.0052  0.4434
 9133SOL    HW139035   0.366   0.814  10.231 -0.9332 -0.5208  1.2156
 9133SOL    HW239036   0.411   0.951  10.261  0.2286 -0.5925  1.5186
 9134SOL     OW39037   0.670   3.691   7.502  0.4304  0.9307  0.2890
 9134SOL    HW139038   0.586   3.724   7.534  0.1221  0.3182  0.1040
 9134SOL    HW239039   0.711   3.758   7.447 -0.4250  2.5434  1.6112
 9135SOL     OW39040   2.799   4.601   2.312 -0.0650 -0.3055 -0.4384
 9135SOL    HW139041   2.840   4.517   2.330  0.1364  0.0189  0.6103
 9135SOL    HW239042   2.749   4.607   2.394 -2.1552 -1.5565 -1.5962
 9136SOL     OW39043   0.138   4.378   2.142  0.1878 -0.0387  0.2880
 9136SOL    HW139044   0.232   4.377   2.158  0.6749  3.5572 -2.5282
 9136SOL    HW239045   0.138   4.429   2.061  0.0678 -0.4759  0.0139
 9137SOL     OW39046   0.122   3.646  10.450  0.1446  0.1539 -0.2279
 9137SOL    HW139047   0.095   3.559  10.479 -0.8316  0.2252 -0.9390
 9137SOL    HW239048   0.038   3.676  10.416 -0.6805 -3.5016 -1.4957
 9138SOL     OW39049   2.304   4.335   7.342 -0.2131  0.2888  0.4717
 9138SOL    HW139050   2.399   4.324   7.346 -0.0794  0.3517 -2.6116
 9138SOL    HW239051   2.285   4.286   7.422 -2.2440 -0.0047 -0.1928
 9139SOL     OW39052   1.980   0.623   4.408  0.1628 -0.1462  0.2080
 9139SOL    HW139053   2.040   0.697   4.413 -2.2007  1.8838 -1.6737
 9139SOL    HW239054   2.042   0.555   4.382  1.0500  0.1326  1.6024
 9140SOL     OW39055   3.344   3.121   2.908 -0.1094 -0.7904  0.9382
 9140SOL    HW139056   3.429   3.147   2.944  0.8162 -1.2665 -0.8866
 9140SOL    HW239057   3.280   3.145   2.975 -0.3533  0.7467  0.1559
 9141SOL     OW39058   0.102   2.102   9.178 -0.0037 -0.4395  0.8019
 9141SOL    HW139059   0.033   2.035   9.175  0.3312 -0.5306 -4.9422
 9141SOL    HW239060   0.048   2.174   9.147  0.9248  0.3254  0.9672
 9142SOL     OW39061   2.242   2.680  10.501 -0.1634 -0.1872 -0.2323
 9142SOL    HW139062   2.172   2.729  10.545  2.0109  4.0239 -1.5124
 9142SOL    HW239063   2.292   2.642  10.573  0.1871 -0.6844 -0.7422
 9143SOL     OW39064   2.725   1.081   8.836  0.1562  0.0869  0.3869
 9143SOL    HW139065   2.758   1.161   8.875 -0.1788 -0.0765  1.0007
 9143SOL    HW239066   2.749   1.018   8.904 -1.3833 -0.7083  0.1970
 9144SOL     OW39067   3.886   3.138   2.779 -0.5588  0.7240 -0.2677
 9144SOL    HW139068   3.863   3.125   2.687  0.4877  1.6556 -0.6715
 9144SOL    HW239069   3.902   3.049   2.812  3.1369  0.7345 -2.0115
 9145SOL     OW39070   1.734   1.048   6.927  0.4382  0.3168  0.1402
 9145SOL    HW139071   1.789   1.051   7.005  0.1196  0.4517  0.3613
 9145SOL    HW239072   1.758   1.127   6.879  1.2597  0.9941  1.6493
 9146SOL     OW39073   0.431   2.608  14.140 -0.3901 -0.1142  0.4602
 9146SOL    HW139074   0.370   2.539  14.166  0.6109  0.4931  4.4392
 9146SOL    HW239075   0.366   2.678  14.132 -2.5335 -2.3142 -1.3503
 9147SOL     OW39076   4.577   1.848  12.388  0.0120  0.2462 -0.3448
 9147SOL    HW139077   4.507   1.820  12.447 -0.8130  0.1572 -1.3692
 9147SOL    HW239078   4.534   1.918  12.340  1.4545  1.1968 -0.2526
 9148SOL     OW39079   1.408   0.476   6.885 -0.6828  0.5428  0.1260
 9148SOL    HW139080   1.481   0.414   6.891 -1.4336 -0.1233  2.3805
 9148SOL    HW239081   1.417   0.523   6.802 -4.3401  0.5618 -0.2657
 9149SOL     OW39082   3.907   0.423   2.986 -0.0182  0.2943 -0.1423
 9149SOL    HW139083   3.814   0.440   2.977 -0.3221 -2.1258 -1.4632
 9149SOL    HW239084   3.925   0.462   3.071 -2.6056 -1.8935  1.4184
 9150SOL     OW39085   4.090   1.717   3.469 -0.1582  0.3058 -0.0338
 9150SOL    HW139086   4.006   1.752   3.439  0.3762  1.7512  0.1807
 9150SOL    HW239087   4.058   1.654   3.534 -0.9829 -0.7135 -1.4216
 9151SOL     OW39088   2.954   1.558   0.155  0.3417  0.4207  0.6288
 9151SOL    HW139089   2.966   1.640   0.202  1.3336  0.2757  0.6451
 9151SOL    HW239090   2.893   1.515   0.214  0.8472  0.3648  1.1082
 9152SOL     OW39091   1.625   0.745   7.683 -0.4294  0.1430 -0.0522
 9152SOL    HW139092   1.605   0.783   7.597  0.3865  0.5574 -0.0590
 9152SOL    HW239093   1.558   0.677   7.683  1.1556 -1.4288  0.0296
 9153SOL     OW39094   0.788   1.274   7.069 -0.4843 -0.6339  0.0525
 9153SOL    HW139095   0.754   1.185   7.057 -0.2077 -0.7268 -0.0257
 9153SOL    HW239096   0.710   1.326   7.051  0.1178 -1.0257 -3.5954
 9154SOL     OW39097   3.894   1.085   5.392  0.1551  0.0095  0.0398
 9154SOL    HW139098   3.961   1.046   5.449  0.2138  1.7462  1.1707
 9154SOL    HW239099   3.816   1.065   5.443 -0.3365 -2.6029 -1.7175
 9155SOL     OW39100   1.251   1.934   7.916 -0.3575 -0.0583  0.0717
 9155SOL    HW139101   1.313   1.980   7.972  0.3323  1.0856 -1.6614
 9155SOL    HW239102   1.173   1.989   7.922  1.0666  2.0872 -1.3944
 9156SOL     OW39103   2.949   4.442  14.665  0.3971  0.0131  0.2877
 9156SOL    HW139104   2.880   4.468  14.604  0.2333 -1.1729 -0.0195
 9156SOL    HW239105   2.995   4.527  14.669  0.8714 -0.2305  0.1108
 9157SOL     OW39106   4.637   0.135   7.082  0.4246  0.1356 -0.2891
 9157SOL    HW139107   4.542   0.152   7.084  0.4272  0.0382  0.9976
 9157SOL    HW239108   4.646   0.109   7.174 -3.1343  0.5071  0.1935
 9158SOL     OW39109   2.194   3.533  13.758  0.1542 -0.5851  0.3092
 9158SOL    HW139110   2.195   3.501  13.848 -0.0853 -1.8226 -0.1286
 9158SOL    HW239111   2.281   3.512  13.722 -0.2070 -0.6121 -0.5527
 9159SOL     OW39112   4.378   4.560  15.173  0.2340  0.3060 -0.0090
 9159SOL    HW139113   4.459   4.562  15.122 -0.4147 -1.2795 -1.1209
 9159SOL    HW239114   4.377   4.472  15.211  1.7109  0.7061  0.9464
 9160SOL     OW39115   3.689   4.150   6.384 -0.6561 -0.1465 -0.0202
 9160SOL    HW139116   3.665   4.141   6.476  1.9457  0.1161  0.6739
 9160SOL    HW239117   3.621   4.098   6.341 -1.9248  0.3441  1.3871
 9161SOL     OW39118   1.258   0.041   9.414  0.5480 -0.2922 -0.5677
 9161SOL    HW139119   1.271   4.693   9.449 -1.4864 -1.0412 -1.6893
 9161SOL    HW239120   1.204   0.016   9.339  1.8857 -1.4337 -1.1672
 9162SOL     OW39121   3.022   1.957   3.550  0.6116  0.1825  0.2495
 9162SOL    HW139122   2.997   1.935   3.460  1.4995  0.2192 -0.0088
 9162SOL    HW239123   2.967   1.892   3.594 -1.6302  1.2521 -0.9180
 9163SOL     OW39124   4.369   3.396   0.711 -0.2725 -0.2473  0.3560
 9163SOL    HW139125   4.342   3.377   0.621 -2.0142 -1.0639  1.0536
 9163SOL    HW239126   4.380   3.311   0.753  3.4199 -0.9540 -2.0356
 9164SOL     OW39127   4.485   1.104  11.381 -0.3818 -0.3838  0.0043
 9164SOL    HW139128   4.490   1.160  11.304  2.4737  1.6363  1.6205
 9164SOL    HW239129   4.556   1.044  11.359  0.5543  1.1444 -1.1777
 9165SOL     OW39130   3.788   3.084   8.150 -0.1652 -0.3181 -0.1096
 9165SOL    HW139131   3.752   3.160   8.196  1.6514 -0.5009  1.6077
 9165SOL    HW239132   3.871   3.108   8.109 -0.5579 -0.2650 -0.8714
 9166SOL     OW39133   0.041   3.774   4.231  0.6094 -0.3467  0.3639
 9166SOL    HW139134   0.074   3.689   4.259 -0.3502 -1.0457 -0.6334
 9166SOL    HW239135   4.699   3.747   4.191  1.1979  0.5950 -1.4519
 9167SOL     OW39136   2.705   0.308   7.041  0.0890  0.3992  0.2084
 9167SOL    HW139137   2.645   0.248   7.084  1.9019 -1.0439  0.7353
 9167SOL    HW239138   2.787   0.264   7.065  0.7830  1.0531 -0.9265
 9168SOL     OW39139   2.185   0.156   2.199  0.7362  0.6073 -0.8711
 9168SOL    HW139140   2.117   0.208   2.242 -0.5982 -1.8218 -0.0650
 9168SOL    HW239141   2.162   0.070   2.235  2.1955  0.3980 -0.4192
 9169SOL     OW39142   1.413   3.020  12.016  0.6236 -0.3497  0.4543
 9169SOL    HW139143   1.416   3.067  12.099  0.5949  0.7922 -0.2007
 9169SOL    HW239144   1.326   2.979  12.017 -0.4042  1.8968  1.2350
 9170SOL     OW39145   4.424   2.091  13.479  0.8609  0.7747 -0.7229
 9170SOL    HW139146   4.365   2.048  13.417  0.1669  0.4510  0.1737
 9170SOL    HW239147   4.363   2.151  13.520  0.4704  0.0306 -0.2184
 9171SOL     OW39148   0.240   2.444  14.308 -0.2714 -0.1308 -0.1603
 9171SOL    HW139149   0.285   2.406  14.383 -0.0753 -0.5831 -0.5077
 9171SOL    HW239150   0.160   2.472  14.352 -0.2715 -2.1344  1.1081
 9172SOL     OW39151   1.513   0.148  10.476 -0.1385  0.2923 -0.2105
 9172SOL    HW139152   1.460   0.226  10.463 -0.4523  0.0071 -0.6669
 9172SOL    HW239153   1.497   0.122  10.566 -0.4152  0.4263 -0.2224
 9173SOL     OW39154   1.858   1.989   4.289  0.2259  0.1901 -0.0346
 9173SOL    HW139155   1.780   2.036   4.258 -1.2555 -1.8010  0.6855
 9173SOL    HW239156   1.849   1.909   4.238 -0.8370  0.0654  0.3425
 9174SOL     OW39157   3.739   3.154   5.114 -0.1910 -0.3938  0.0277
 9174SOL    HW139158   3.795   3.121   5.184 -0.4461 -1.7674 -0.4091
 9174SOL    HW239159   3.659   3.173   5.163 -0.9311 -0.9096 -0.9928
 9175SOL     OW39160   2.283   2.382   6.528 -0.2641 -0.2254  0.3733
 9175SOL    HW139161   2.353   2.354   6.469  0.9947  1.2074  1.1836
 9175SOL    HW239162   2.272   2.299   6.575  1.2346 -0.6868 -0.1028
 9176SOL     OW39163   0.328   0.881   1.962  0.0151 -0.3236  0.1609
 9176SOL    HW139164   0.240   0.916   1.951  0.3265  0.3316 -0.2640
 9176SOL    HW239165   0.319   0.840   2.048 -0.2291 -2.9739 -1.1260
 9177SOL     OW39166   0.481   2.443   5.341 -0.1990 -0.1614 -0.2613
 9177SOL    HW139167   0.390   2.445   5.310 -0.5847 -2.1931  0.7633
 9177SOL    HW239168   0.510   2.520   5.292  0.1180 -0.0704  0.0736
 9178SOL     OW39169   0.651   3.908   0.653  0.0453 -0.3642 -0.5673
 9178SOL    HW139170   0.621   3.973   0.717  0.3422 -1.5250  0.7490
 9178SOL    HW239171   0.616   3.829   0.694 -0.8274 -1.4427 -3.3857
 9179SOL     OW39172   0.132   1.016  15.696  0.7749  0.6640  0.6377
 9179SOL    HW139173   0.187   0.955  15.646 -0.4298  0.5311 -0.5303
 9179SOL    HW239174   0.168   0.994  15.782  0.7509 -0.2675  0.4008
 9180SOL     OW39175   4.338   2.600   2.044  0.1311 -0.3618 -0.8722
 9180SOL    HW139176   4.258   2.647   2.023  0.6944  1.8849  2.0012
 9180SOL    HW239177   4.400   2.669   2.070 -1.2041  0.5783 -0.1973
 9181SOL     OW39178   3.733   4.717   4.213 -0.3124  0.3201  0.3662
 9181SOL    HW139179   3.822   4.689   4.195 -0.3038 -0.5548  1.7437
 9181SOL    HW239180   3.681   4.642   4.183 -0.7775  1.1280 -0.8285
 9182SOL     OW39181   4.426   2.153   4.884  0.1261  0.5717  0.0708
 9182SOL    HW139182   4.333   2.173   4.893 -0.1565 -1.1128  0.9719
 9182SOL    HW239183   4.466   2.226   4.930 -0.3879  0.4240  0.7552
 9183SOL     OW39184   4.346   4.477   4.587 -0.4666 -0.2184  0.3316
 9183SOL    HW139185   4.298   4.550   4.626  0.4607 -0.9398  2.8205
 9183SOL    HW239186   4.367   4.521   4.505  0.1003  0.3225  0.7614
 9184SOL     OW39187   2.750   4.486   2.887  0.0877  0.2984  0.5449
 9184SOL    HW139188   2.683   4.466   2.953 -0.5072 -0.3713 -0.2606
 9184SOL    HW239189   2.695   4.523   2.818 -1.4188 -1.2846  0.8912
 9185SOL     OW39190   0.766   1.089   9.066  0.1155  0.5329  0.3363
 9185SOL    HW139191   0.757   0.995   9.055  1.9116  0.2484  1.2343
 9185SOL    HW239192   0.674   1.109   9.082 -0.2278 -1.5875  0.9527
 9186SOL     OW39193   2.916   3.587   5.198 -0.4489  0.4211 -0.2536
 9186SOL    HW139194   2.829   3.581   5.158 -0.6704 -2.3639  0.6576
 9186SOL    HW239195   2.968   3.602   5.119 -0.0267 -0.2893 -0.1064
 9187SOL     OW39196   4.342   4.001   3.226 -0.1681  0.4324  0.1562
 9187SOL    HW139197   4.254   4.027   3.253 -0.7696 -0.9523 -0.4514
 9187SOL    HW239198   4.368   4.085   3.189  1.5693  0.0541  0.5385
 9188SOL     OW39199   3.925   3.053   7.389 -0.3473 -0.6698  0.3268
 9188SOL    HW139200   3.949   3.040   7.481 -0.1156  1.7172  0.6180
 9188SOL    HW239201   3.976   2.988   7.341  0.8738 -0.5808  1.4921
 9189SOL     OW39202   0.619   3.459   7.918  0.0145 -0.3433  0.2204
 9189SOL    HW139203   0.683   3.396   7.952  1.3311 -0.5177 -2.6072
 9189SOL    HW239204   0.630   3.470   7.824  1.6587  1.5976  0.6428
 9190SOL     OW39205   2.785   0.173  10.481 -0.0121  0.0241  0.0124
 9190SOL    HW139206   2.784   0.079  10.499 -0.8719 -0.0655 -0.5235
 9190SOL    HW239207   2.747   0.200  10.565  0.5431  1.2516 -0.1419
 9191SOL     OW39208   0.699   3.064   2.980 -0.5771 -0.2118  0.5327
 9191SOL    HW139209   0.700   3.083   3.073  0.1145 -0.2542  0.5370
 9191SOL    HW239210   0.660   2.976   2.980  1.5277 -1.1536 -0.3187
 9192SOL     OW39211   4.043   1.068   7.587 -0.6032 -0.2831 -0.1188
 9192SOL    HW139212   4.090   1.031   7.663  2.3937  2.8894 -0.4049
 9192SOL    HW239213   3.970   1.105   7.635 -0.0138 -1.0900  1.4187
 9193SOL     OW39214   1.856   2.610   3.587  0.0758  0.4241  0.7747
 9193SOL    HW139215   1.821   2.699   3.593 -0.2850  0.3946 -1.0833
 9193SOL    HW239216   1.937   2.618   3.638  1.5751 -0.4038 -1.4624
 9194SOL     OW39217   2.351   1.715   4.475 -0.0204  0.6086  0.3314
 9194SOL    HW139218   2.340   1.775   4.401 -1.1941 -0.4573 -0.3717
 9194SOL    HW239219   2.403   1.765   4.537 -1.5867 -0.0290  2.1753
 9195SOL     OW39220   0.597   3.460   5.902 -0.2403 -0.0609  0.5824
 9195SOL    HW139221   0.509   3.442   5.935 -1.0625 -2.0898 -2.6182
 9195SOL    HW239222   0.583   3.426   5.813  1.1665 -0.7510  0.6166
 9196SOL     OW39223   1.079   3.773  16.958  0.2727 -0.9845 -0.4681
 9196SOL    HW139224   1.163   3.761  16.913 -0.4859 -0.2717 -2.0641
 9196SOL    HW239225   1.091   3.738  17.046 -1.7561  0.9595  0.5688
 9197SOL     OW39226   2.251   4.327   4.755 -0.0267 -0.5738 -0.5121
 9197SOL    HW139227   2.203   4.245   4.745 -0.7468 -0.2282  0.0994
 9197SOL    HW239228   2.340   4.291   4.759  0.1138 -0.4204 -2.3728
 9198SOL     OW39229   2.385   2.052   2.810 -0.2892 -0.2989  0.2548
 9198SOL    HW139230   2.417   1.966   2.836 -2.0419 -2.0572 -3.3277
 9198SOL    HW239231   2.341   2.035   2.726  0.4700  0.9966 -0.4072
 9199SOL     OW39232   2.148   4.528  12.470  0.2557 -0.2706  0.4203
 9199SOL    HW139233   2.183   4.573  12.392  2.9599 -0.1515  1.6823
 9199SOL    HW239234   2.058   4.509  12.444  0.6492 -0.8735 -0.5344
 9200SOL     OW39235   2.397   3.371   1.886  0.0490  0.0311  0.5902
 9200SOL    HW139236   2.488   3.354   1.865 -0.2082 -0.1965 -0.3397
 9200SOL    HW239237   2.408   3.434   1.957  0.6423 -0.4753  0.9352
 9201SOL     OW39238   2.758   2.597   7.057 -0.3109 -0.4376  0.1184
 9201SOL    HW139239   2.817   2.663   7.093  2.2634 -2.5961 -0.1803
 9201SOL    HW239240   2.673   2.625   7.092 -0.7702  0.0111 -1.3125
 9202SOL     OW39241   1.534   1.738   8.616  0.0607  0.0758 -0.3079
 9202SOL    HW139242   1.609   1.691   8.580  1.6151  1.6036  0.9104
 9202SOL    HW239243   1.545   1.738   8.711  0.6727 -2.2799 -0.3836
 9203SOL     OW39244   2.297   1.115   7.799 -0.0671 -0.0594 -0.2437
 9203SOL    HW139245   2.331   1.204   7.805 -0.0779 -0.0775  0.0879
 9203SOL    HW239246   2.213   1.107   7.843  0.1516  0.9316  0.3530
 9204SOL     OW39247   0.932   3.519   3.654 -0.3272 -0.0764  0.0404
 9204SOL    HW139248   0.855   3.487   3.700 -0.0117  0.5333  0.9976
 9204SOL    HW239249   1.004   3.478   3.703  0.5632  0.8654 -0.4806
 9205SOL     OW39250   3.852   0.228  11.724 -0.2032  0.3124 -0.5971
 9205SOL    HW139251   3.810   0.285  11.788  0.5715  0.4639 -0.2341
 9205SOL    HW239252   3.834   0.138  11.752  4.1635 -0.1130  0.7884
 9206SOL     OW39253   3.389   2.058   5.311 -0.2961 -0.2145 -0.4980
 9206SOL    HW139254   3.345   2.120   5.254 -0.0772  0.8347  0.4861
 9206SOL    HW239255   3.324   2.038   5.378  0.6035 -1.1343  0.1106
 9207SOL     OW39256   0.342   2.539   6.232  0.1000 -0.6022  0.4881
 9207SOL    HW139257   0.337   2.603   6.161 -0.8516 -1.2507 -0.0195
 9207SOL    HW239258   0.284   2.584   6.294 -0.8218 -1.4727  0.2545
 9208SOL     OW39259   0.015   3.427   9.650 -0.0140  0.4759  0.7080
 9208SOL    HW139260   0.020   3.458   9.559  0.9315 -1.2123  0.1853
 9208SOL    HW239261   4.670   3.462   9.677 -1.2964 -1.8668 -0.3111
 9209SOL     OW39262   1.534   3.150   3.686 -0.2954  0.7285 -0.7546
 9209SOL    HW139263   1.480   3.177   3.612 -0.3737  3.3828  0.2600
 9209SOL    HW239264   1.480   3.082   3.726 -0.0235  0.6617 -0.4967
 9210SOL     OW39265   4.098   0.364   4.860 -0.9836  0.7530  0.1309
 9210SOL    HW139266   4.115   0.271   4.846  0.4258  0.9531  0.5790
 9210SOL    HW239267   4.182   0.399   4.833 -1.6115  1.5338 -0.7895
 9211SOL     OW39268   3.706   0.691   4.975 -0.1570  0.2225 -0.0302
 9211SOL    HW139269   3.628   0.717   5.023  0.3094 -2.0909  1.9568
 9211SOL    HW239270   3.723   0.602   5.007  2.3752 -0.0190 -1.9898
 9212SOL     OW39271   1.703   0.476   8.356 -0.4329  0.1204 -0.0622
 9212SOL    HW139272   1.665   0.393   8.327 -0.3918 -0.3437  1.1843
 9212SOL    HW239273   1.627   0.534   8.353 -0.2944  0.2646 -0.8338
 9213SOL     OW39274   1.994   2.571  14.523  0.0464  0.2004 -0.3382
 9213SOL    HW139275   2.049   2.563  14.601 -1.6106  0.9953  0.9229
 9213SOL    HW239276   2.004   2.484  14.487 -1.3005 -0.1529  0.1227
 9214SOL     OW39277   2.769   3.047   3.106 -0.3786 -0.1218  0.2992
 9214SOL    HW139278   2.713   2.989   3.054  0.6196  1.4049 -2.4822
 9214SOL    HW239279   2.727   3.057   3.191 -0.7486 -2.3102  0.3689
 9215SOL     OW39280   4.065   0.070  16.335 -0.2682 -0.2439  0.1008
 9215SOL    HW139281   4.096   0.161  16.330  1.6073 -0.8024  1.6503
 9215SOL    HW239282   4.132   0.039  16.396  0.8856 -2.3043 -2.1910
 9216SOL     OW39283   3.599   2.977   1.979  0.4697 -0.5982  0.0637
 9216SOL    HW139284   3.692   2.974   2.000  0.3094 -1.3484  0.6852
 9216SOL    HW239285   3.577   2.884   1.991  0.1822 -0.5100  0.2064
 9217SOL     OW39286   4.078   1.308  14.814  0.1358  0.4774  0.2298
 9217SOL    HW139287   4.038   1.249  14.751  1.0028  0.2104 -0.0748
 9217SOL    HW239288   4.088   1.248  14.889  3.4922  0.6142 -0.0908
 9218SOL     OW39289   0.133   1.815  15.938  0.3845  0.3547 -0.5264
 9218SOL    HW139290   0.149   1.864  15.858  3.2130  1.8891  0.9729
 9218SOL    HW239291   0.051   1.858  15.966  0.1223 -1.2940  1.2723
 9219SOL     OW39292   3.130   0.925   5.531  0.7042 -0.3751 -0.3247
 9219SOL    HW139293   3.114   0.917   5.437 -1.1593  0.8375 -0.1256
 9219SOL    HW239294   3.040   0.940   5.561  0.6608  2.6286 -1.9402
 9220SOL     OW39295   2.561   1.372   5.190 -0.9745 -0.1396 -0.6432
 9220SOL    HW139296   2.519   1.457   5.203 -1.7941 -0.7300  0.5285
 9220SOL    HW239297   2.644   1.387   5.236 -2.4655 -0.5823  2.1254
 9221SOL     OW39298   3.555   2.028   6.696  0.5892 -0.6995  0.5632
 9221SOL    HW139299   3.461   2.030   6.717  0.9556 -2.0927  2.2901
 9221SOL    HW239300   3.564   1.939   6.663 -1.2061 -0.9159  0.6211
 9222SOL     OW39301   0.180   0.334  10.797 -0.4088 -0.1052  0.1566
 9222SOL    HW139302   0.193   0.427  10.782  1.4051 -0.2826  0.6757
 9222SOL    HW239303   0.174   0.329  10.893  1.8873  0.1474  0.3084
 9223SOL     OW39304   4.469   0.278   9.489  0.2166 -0.3961  0.0596
 9223SOL    HW139305   4.554   0.235   9.498  0.6133  0.1825 -0.9552
 9223SOL    HW239306   4.471   0.333   9.567 -0.4282 -0.6413  0.2490
 9224SOL     OW39307   0.243   1.031   3.308  0.4111  0.0145  0.7049
 9224SOL    HW139308   0.218   1.095   3.242 -0.8866  0.7297  1.8861
 9224SOL    HW239309   0.265   0.952   3.259 -0.2508 -0.5664  1.3366
 9225SOL     OW39310   4.009   3.598  10.871 -0.4256  0.6304 -0.0065
 9225SOL    HW139311   4.062   3.654  10.927  0.9421 -0.9344  0.2697
 9225SOL    HW239312   3.974   3.664  10.811 -1.1378 -1.2204 -1.6181
 9226SOL     OW39313   1.875   4.474   4.445  0.2969 -0.8430  0.3258
 9226SOL    HW139314   1.814   4.543   4.423  3.0215  1.3423 -0.3624
 9226SOL    HW239315   1.940   4.533   4.483 -0.2823  0.2937 -0.4967
 9227SOL     OW39316   4.028   0.258   6.031 -0.0841 -0.1011  0.5577
 9227SOL    HW139317   4.077   0.235   5.952  0.6866 -2.2385  1.6600
 9227SOL    HW239318   3.972   0.181   6.044  0.1669 -0.1060  1.6064
 9228SOL     OW39319   4.106   1.730   2.348  0.7433 -0.3941 -0.0817
 9228SOL    HW139320   4.143   1.750   2.263  2.1815  0.8425  0.8406
 9228SOL    HW239321   4.118   1.635   2.345 -0.6190 -0.6123  1.2901
 9229SOL     OW39322   1.530   2.936   0.256  0.2152  0.3714  0.0483
 9229SOL    HW139323   1.452   2.892   0.290 -0.5644  0.7479 -1.2588
 9229SOL    HW239324   1.512   2.942   0.162 -1.5695  3.8249  0.6206
 9230SOL     OW39325   0.856   2.249   7.379  0.4351 -0.2475 -0.4903
 9230SOL    HW139326   0.858   2.154   7.383 -1.1008 -0.1941  1.0862
 9230SOL    HW239327   0.898   2.268   7.295  1.1912 -1.4346 -0.3787
 9231SOL     OW39328   0.516   0.414   2.757  0.4382  0.2794 -0.0826
 9231SOL    HW139329   0.504   0.389   2.665  1.1478 -2.3195  0.5166
 9231SOL    HW239330   0.435   0.378   2.792 -0.9327  0.5812 -2.9850
 9232SOL     OW39331   1.213   4.122   3.948 -0.3084  0.1632 -0.7407
 9232SOL    HW139332   1.259   4.079   3.876  1.2811  1.9256 -0.7939
 9232SOL    HW239333   1.135   4.069   3.959  0.8398 -1.4591 -0.3501
 9233SOL     OW39334   1.994   2.444   8.435  0.3389  0.2129  0.0513
 9233SOL    HW139335   2.062   2.379   8.454  0.1132 -0.5302 -1.6651
 9233SOL    HW239336   2.010   2.473   8.345  0.0779  2.1460  0.6404
 9234SOL     OW39337   0.131   1.495  16.128 -0.3440 -0.6114 -0.1869
 9234SOL    HW139338   0.173   1.581  16.130  1.0205 -1.2495 -1.6874
 9234SOL    HW239339   0.207   1.440  16.112 -0.4424 -0.4759 -1.0740
 9235SOL     OW39340   2.082   1.883   5.297 -0.3530  0.0030  0.0337
 9235SOL    HW139341   2.035   1.829   5.234  0.3524 -1.7008  0.9767
 9235SOL    HW239342   2.174   1.869   5.272 -0.8477 -0.4975 -1.5213
 9236SOL     OW39343   2.384   2.257   5.209 -0.1161 -1.0551 -0.2048
 9236SOL    HW139344   2.292   2.270   5.233 -0.3849 -1.1882 -1.1414
 9236SOL    HW239345   2.387   2.162   5.203  0.8625 -0.8572 -2.8558
 9237SOL     OW39346   1.431   1.976   7.695 -0.3542  0.6701 -0.1420
 9237SOL    HW139347   1.365   1.918   7.732  2.8607 -2.3206  0.9635
 9237SOL    HW239348   1.498   1.920   7.657 -0.9659 -0.1100 -0.0506
 9238SOL     OW39349   1.833   0.084   3.987  0.1500  0.3717 -0.2342
 9238SOL    HW139350   1.796   0.094   3.899 -1.1222  0.6007  0.3224
 9238SOL    HW239351   1.801   4.737   4.014 -0.4945  0.8147  0.4100
 9239SOL     OW39352   1.216   4.036   7.246  0.7952  0.4838  0.6744
 9239SOL    HW139353   1.173   4.086   7.315  0.9991 -0.7696  1.7048
 9239SOL    HW239354   1.259   4.101   7.190 -1.0613  0.2799 -1.0010
 9240SOL     OW39355   1.850   0.166   5.455  0.3374  0.7655  0.4401
 9240SOL    HW139356   1.830   0.076   5.430  1.3647  0.7446 -0.3443
 9240SOL    HW239357   1.896   0.143   5.536  0.8017 -0.8146 -0.2677
 9241SOL     OW39358   4.068   2.794   6.951  0.1042 -0.5318  0.3370
 9241SOL    HW139359   4.137   2.728   6.964 -0.0020 -0.7018  0.0280
 9241SOL    HW239360   4.009   2.752   6.889 -0.6063 -1.1951  1.4514
 9242SOL     OW39361   3.193   1.940   2.561 -0.1968 -0.2404  0.2208
 9242SOL    HW139362   3.273   1.988   2.581 -0.8894  0.8038  0.4712
 9242SOL    HW239363   3.133   2.003   2.522 -1.6505 -0.3597  2.2679
 9243SOL     OW39364   2.342   0.057   8.791 -0.4059  0.0770  0.4587
 9243SOL    HW139365   2.393   0.042   8.712 -0.1327 -2.6992  1.1386
 9243SOL    HW239366   2.255   0.069   8.752  0.5077  0.1668 -1.5140
 9244SOL     OW39367   3.457   3.202  12.402 -0.0518 -0.2452  0.4161
 9244SOL    HW139368   3.530   3.242  12.449  0.2549  0.0860 -0.3489
 9244SOL    HW239369   3.494   3.115  12.385  0.2331 -0.4411  1.9511
 9245SOL     OW39370   2.844   2.311   7.022  0.3565 -0.3323 -0.4153
 9245SOL    HW139371   2.785   2.386   7.014 -1.0694 -1.5024 -0.8885
 9245SOL    HW239372   2.918   2.343   6.970  0.0851  1.2692  0.1996
 9246SOL     OW39373   2.363   2.872   9.966 -0.0842  0.6390 -0.3176
 9246SOL    HW139374   2.307   2.817  10.022  2.3754 -3.0299 -1.4435
 9246SOL    HW239375   2.309   2.877   9.888 -0.7584  1.2867  0.1977
 9247SOL     OW39376   2.887   0.443   6.618 -0.1361  0.2292  0.4763
 9247SOL    HW139377   2.982   0.443   6.606 -0.2748 -0.3180 -0.5797
 9247SOL    HW239378   2.845   0.459   6.534 -1.7533  0.7863  1.3930
 9248SOL     OW39379   1.879   4.001   9.450  0.4787  0.4603  0.1134
 9248SOL    HW139380   1.963   4.041   9.471  0.3943  0.1689  1.0101
 9248SOL    HW239381   1.873   4.020   9.357  0.1015  2.0054  0.4471
 9249SOL     OW39382   0.005   3.014  15.607 -0.4293 -0.3157  0.2471
 9249SOL    HW139383   0.069   3.073  15.648  0.3395 -0.7326 -0.3571
 9249SOL    HW239384   4.696   3.079  15.555  1.7147  0.7329 -0.4517
 9250SOL     OW39385   2.047   0.585   9.143  0.5945  0.2131  0.2055
 9250SOL    HW139386   2.102   0.574   9.221 -0.3538 -0.6866  0.7491
 9250SOL    HW239387   1.961   0.559   9.177  0.3941  2.6863  1.5553
 9251SOL     OW39388   4.096   0.760   3.407 -0.2639 -0.0002 -0.1854
 9251SOL    HW139389   4.002   0.751   3.421  0.0755 -3.7074 -0.1681
 9251SOL    HW239390   4.111   0.854   3.412  0.8215 -0.0504 -2.5719
 9252SOL     OW39391   0.219   0.071   0.942  0.5884  0.1256 -0.3121
 9252SOL    HW139392   0.192   0.100   1.029  0.2807 -0.9069 -0.0651
 9252SOL    HW239393   0.212   4.716   0.953  0.0675  0.3595  1.3581
 9253SOL     OW39394   0.707   0.395   2.079 -0.1933  0.2349  0.2912
 9253SOL    HW139395   0.798   0.417   2.061 -0.3806 -0.2205 -1.1919
 9253SOL    HW239396   0.657   0.467   2.041 -0.8628  0.3675  1.4349
 9254SOL     OW39397   2.413   3.623   1.698 -0.4167 -0.0299  0.3896
 9254SOL    HW139398   2.364   3.540   1.697 -1.2353  0.4538 -0.1168
 9254SOL    HW239399   2.392   3.664   1.614 -2.6921 -0.3818  0.7743
 9255SOL     OW39400   1.712   3.442   7.274 -0.3237  0.3421  0.6839
 9255SOL    HW139401   1.660   3.490   7.339 -0.9073  2.1199 -1.1200
 9255SOL    HW239402   1.721   3.360   7.322 -2.0517  0.5128  1.2986
 9256SOL     OW39403   2.939   0.761   5.770  0.0555  0.1068 -0.1114
 9256SOL    HW139404   2.918   0.844   5.728 -3.3648  0.7253  2.7822
 9256SOL    HW239405   3.014   0.737   5.716 -0.9478  0.9487 -1.8552
 9257SOL     OW39406   4.339   3.014   7.781 -0.3432 -0.0285 -0.2295
 9257SOL    HW139407   4.299   2.952   7.721  1.5820 -2.0029  0.5430
 9257SOL    HW239408   4.311   3.096   7.739  1.4462  2.1147  2.7278
 9258SOL     OW39409   1.630   1.000   2.225 -0.1609  0.6829  0.5004
 9258SOL    HW139410   1.613   1.009   2.319 -1.7817  0.1971  0.2612
 9258SOL    HW239411   1.547   0.954   2.210  1.4730 -2.3808  0.8176
 9259SOL     OW39412   3.022   2.581   2.259 -0.7874 -0.2188  0.0957
 9259SOL    HW139413   3.069   2.608   2.338  1.3185 -1.1747 -0.8531
 9259SOL    HW239414   2.942   2.551   2.303 -0.7298  0.5197  0.7199
 9260SOL     OW39415   1.788   1.657   9.266 -0.5832 -0.6226  1.1714
 9260SOL    HW139416   1.832   1.738   9.292 -0.3513 -0.6438  0.8417
 9260SOL    HW239417   1.857   1.591   9.263  0.3626  0.5084 -1.6711
 9261SOL     OW39418   1.556   0.998   1.740 -0.5933 -0.1187  0.2832
 9261SOL    HW139419   1.488   0.996   1.673 -1.2872 -2.3156  1.0636
 9261SOL    HW239420   1.589   0.908   1.742 -0.7287 -0.2098 -2.4051
 9262SOL     OW39421   1.126   1.149   9.309  0.2903 -0.5004 -0.1971
 9262SOL    HW139422   1.109   1.207   9.235  0.2078 -1.3436 -0.8388
 9262SOL    HW239423   1.207   1.189   9.340 -0.9856  0.3405  2.1052
 9263SOL     OW39424   0.160   3.405   1.616  0.1181 -0.3962  0.7384
 9263SOL    HW139425   0.178   3.311   1.618 -2.1169 -0.8844 -1.6030
 9263SOL    HW239426   0.111   3.413   1.697 -2.7473 -1.1821 -0.9078
 9264SOL     OW39427   0.909   3.683   9.239  0.2367 -0.3280 -0.2388
 9264SOL    HW139428   0.953   3.756   9.195 -0.9041  0.8951  0.6445
 9264SOL    HW239429   0.972   3.611   9.230 -0.5489 -1.2857  1.8921
 9265SOL     OW39430   0.404   2.490   2.069  0.0497 -0.1376 -0.6883
 9265SOL    HW139431   0.329   2.545   2.093  0.3613 -0.7592  1.6625
 9265SOL    HW239432   0.381   2.403   2.101  1.2951 -0.2689 -0.1348
 9266SOL     OW39433   4.416   4.282   0.820 -0.5688  0.1644 -0.4285
 9266SOL    HW139434   4.389   4.242   0.737  0.3967 -2.3939  0.4979
 9266SOL    HW239435   4.496   4.233   0.840 -0.3255 -0.0642 -1.9575
 9267SOL     OW39436   2.955   2.341   8.785  0.3476 -0.2107 -0.4802
 9267SOL    HW139437   3.044   2.375   8.800  0.0769  0.1511  0.3068
 9267SOL    HW239438   2.922   2.399   8.716  0.4868 -0.5446 -0.8265
 9268SOL     OW39439   0.509   1.394   7.054  0.3876  0.3231  0.9250
 9268SOL    HW139440   0.434   1.443   7.087 -1.3479 -2.0164  0.4940
 9268SOL    HW239441   0.466   1.309   7.044 -0.6066  1.0310 -0.6731
 9269SOL     OW39442   1.302   3.227   6.277 -0.0326  0.1661 -0.3167
 9269SOL    HW139443   1.339   3.259   6.359 -1.9578  0.0526  0.5853
 9269SOL    HW239444   1.241   3.297   6.253 -0.2323  1.0557  2.8190
 9270SOL     OW39445   0.590   3.493  10.037 -0.7533 -0.0611 -0.1039
 9270SOL    HW139446   0.519   3.496   9.974 -0.1314  2.4140 -0.6782
 9270SOL    HW239447   0.569   3.557  10.105 -1.2843  0.3836 -0.7001
 9271SOL     OW39448   4.677   1.092  12.558 -0.2793 -0.1049 -0.1238
 9271SOL    HW139449   4.645   1.165  12.506 -0.9027  0.7744  1.4923
 9271SOL    HW239450   4.608   1.083  12.624  0.8565  1.0489  1.1993
 9272SOL     OW39451   1.822   4.269   3.883  0.3328 -0.1123  0.0435
 9272SOL    HW139452   1.889   4.245   3.948  1.9991  2.3773 -0.7558
 9272SOL    HW239453   1.875   4.325   3.826  1.1944 -1.7412 -0.7686
 9273SOL     OW39454   4.293   3.032   6.918  0.6553  0.1511  0.1742
 9273SOL    HW139455   4.369   2.983   6.885  0.9228  0.9044 -0.3305
 9273SOL    HW239456   4.219   3.020   6.859  0.6282 -2.1551  0.6612
 9274SOL     OW39457   2.514   3.160   0.372 -0.0655  0.0227 -0.0362
 9274SOL    HW139458   2.596   3.187   0.413 -0.8915  0.7767  1.0982
 9274SOL    HW239459   2.545   3.173   0.282  1.5021  0.6656  0.5919
 9275SOL     OW39460   4.191   3.757  14.079  0.4837  0.2295  0.2241
 9275SOL    HW139461   4.156   3.845  14.092 -0.1372  0.2746 -1.8665
 9275SOL    HW239462   4.126   3.699  14.118  2.4253  0.2690  3.5236
 9276SOL     OW39463   0.839   1.675   3.088  0.1529 -0.8191 -0.1432
 9276SOL    HW139464   0.838   1.635   3.174 -1.0870  2.7836  1.5227
 9276SOL    HW239465   0.931   1.699   3.080 -0.0469  0.6146  1.7280
 9277SOL     OW39466   1.756   2.342   2.811  0.0630  0.1954 -0.1339
 9277SOL    HW139467   1.681   2.287   2.833 -1.1202  0.9367 -2.3700
 9277SOL    HW239468   1.796   2.357   2.897  0.2709  3.7721 -0.8741
 9278SOL     OW39469   4.711   2.233   7.374  0.2620 -0.5936 -0.1570
 9278SOL    HW139470   0.018   2.287   7.311  0.2352 -0.3478  0.0335
 9278SOL    HW239471   4.717   2.276   7.459 -0.6839 -0.7079 -0.0257
 9279SOL     OW39472   4.537   4.569  13.071 -0.2118  0.1907 -0.2837
 9279SOL    HW139473   4.462   4.599  13.123  0.9923 -0.5769  1.8831
 9279SOL    HW239474   4.607   4.549  13.133 -1.2357 -1.9258  0.1737
 9280SOL     OW39475   1.289   1.870   2.173  0.1703  0.1789  0.6047
 9280SOL    HW139476   1.195   1.858   2.162  0.4823 -1.4521 -0.3023
 9280SOL    HW239477   1.282   1.960   2.203  0.7358  0.6710 -0.7372
 9281SOL     OW39478   2.866   0.406  10.143 -0.3698  0.5962 -0.3887
 9281SOL    HW139479   2.926   0.400  10.218 -1.0068 -0.8499  0.0029
 9281SOL    HW239480   2.796   0.347  10.169  0.6292 -0.4018  0.0387
 9282SOL     OW39481   0.001   1.840   1.521  0.2177  0.5555 -0.3116
 9282SOL    HW139482   4.725   1.881   1.436 -0.1529 -0.1446 -0.5863
 9282SOL    HW239483   0.093   1.820   1.509  0.5856  1.5797  0.8657
 9283SOL     OW39484   2.610   0.372   9.368  0.0804 -0.0329 -0.5089
 9283SOL    HW139485   2.542   0.361   9.434 -2.6573  0.9914 -3.1640
 9283SOL    HW239486   2.687   0.390   9.422 -1.4388  1.0044  1.2717
 9284SOL     OW39487   3.608   4.180  16.266 -0.0371 -0.1821  0.0234
 9284SOL    HW139488   3.665   4.249  16.298  2.1495 -1.8937 -0.1822
 9284SOL    HW239489   3.594   4.132  16.349  0.5946  0.2365  0.3671
 9285SOL     OW39490   2.589   0.273   7.455 -0.3253  0.4264 -0.0528
 9285SOL    HW139491   2.659   0.210   7.438  1.7533  3.1027 -1.4261
 9285SOL    HW239492   2.521   0.229   7.404 -1.7685  0.7889  1.5593
 9286SOL     OW39493   4.612   4.367   8.856 -0.1124  0.3331 -0.0542
 9286SOL    HW139494   4.703   4.359   8.887  0.4336  0.5892 -1.5872
 9286SOL    HW239495   4.603   4.451   8.811 -1.0476  0.5448  0.5311
 9287SOL     OW39496   4.599   1.246   5.101  0.2487 -0.1958 -0.3350
 9287SOL    HW139497   4.655   1.198   5.161 -0.2127 -2.8152 -2.0088
 9287SOL    HW239498   4.546   1.178   5.059  1.6347  0.0754 -2.5308
 9288SOL     OW39499   3.854   1.188   6.286  0.2429 -0.1000 -0.3516
 9288SOL    HW139500   3.935   1.140   6.301  0.8281  1.1991  0.7623
 9288SOL    HW239501   3.879   1.279   6.268 -1.2183  0.1730 -1.0247
 9289SOL     OW39502   1.634   1.152   4.816  0.4642 -0.4584  0.1306
 9289SOL    HW139503   1.615   1.199   4.735  0.2228  0.1640  0.5465
 9289SOL    HW239504   1.727   1.130   4.807  0.7593  0.2446  1.3407
 9290SOL     OW39505   4.656   0.091   2.923 -0.1186 -0.0429 -0.9296
 9290SOL    HW139506   4.580   0.076   2.980  0.4410  0.3140 -0.0894
 9290SOL    HW239507   4.632   0.149   2.850 -1.2057  0.4239 -0.2097
 9291SOL     OW39508   3.482   3.359   0.407 -0.6314 -0.5831  0.4469
 9291SOL    HW139509   3.429   3.438   0.410  0.1804 -0.0358  0.4619
 9291SOL    HW239510   3.437   3.296   0.350 -0.4679 -1.4884  1.3219
 9292SOL     OW39511   1.866   3.109  14.697 -0.3804 -0.2193 -0.0961
 9292SOL    HW139512   1.804   3.044  14.665  0.2460 -0.0046 -1.7334
 9292SOL    HW239513   1.847   3.181  14.636  0.9809  0.8270  0.7064
 9293SOL     OW39514   0.820   0.735   8.368 -0.2402  0.7578  0.0463
 9293SOL    HW139515   0.882   0.767   8.433 -1.4169 -1.7732  2.4149
 9293SOL    HW239516   0.804   0.815   8.317 -1.6195 -0.5275 -1.5433
 9294SOL     OW39517   2.453   0.560   6.339 -0.6232  0.4266 -0.3074
 9294SOL    HW139518   2.404   0.641   6.322  0.0864  0.9516  0.1732
 9294SOL    HW239519   2.412   0.503   6.274 -1.6748  0.9322 -0.0771
 9295SOL     OW39520   2.668   3.792  16.288  0.6872 -0.2841  0.0328
 9295SOL    HW139521   2.671   3.709  16.335  1.4186  0.0749  0.6161
 9295SOL    HW239522   2.614   3.780  16.210  0.7751  1.2343 -0.2758
 9296SOL     OW39523   2.091   4.589  11.470 -0.2772  0.3026 -0.6183
 9296SOL    HW139524   2.150   4.521  11.437  0.7702  0.3974  1.0272
 9296SOL    HW239525   2.083   4.551  11.558 -0.7041 -1.4572 -1.4177
 9297SOL     OW39526   1.740   2.635  14.625 -0.1834 -0.2666 -0.0842
 9297SOL    HW139527   1.809   2.615  14.562 -0.8484  2.3337 -1.6132
 9297SOL    HW239528   1.673   2.581  14.582 -0.0448 -0.5511  0.0544
 9298SOL     OW39529   4.660   0.372   9.060 -0.8032 -0.3869  0.5816
 9298SOL    HW139530   4.733   0.351   9.118 -2.0174 -0.2445  2.1604
 9298SOL    HW239531   4.707   0.387   8.978  1.6090 -1.1873  1.8216
 9299SOL     OW39532   1.605   2.894   9.486  0.5910 -0.2805  0.4539
 9299SOL    HW139533   1.575   2.804   9.490  0.3580 -0.1384  1.8313
 9299SOL    HW239534   1.529   2.941   9.519 -1.0212 -2.8754  0.3977
 9300SOL     OW39535   2.077   3.098   1.811  0.1386 -0.0200  0.6286
 9300SOL    HW139536   2.167   3.085   1.782  0.6423 -0.5027  2.4242
 9300SOL    HW239537   2.068   3.173   1.752 -2.8521  0.8111  2.1366
 9301SOL     OW39538   0.369   2.478   3.978 -0.1611  0.3359  0.2544
 9301SOL    HW139539   0.310   2.475   3.903  0.1925  2.7036 -0.1113
 9301SOL    HW239540   0.327   2.422   4.043 -1.5997  2.8410  1.4946
 9302SOL     OW39541   0.397   1.047   3.660  0.2372 -0.4169 -0.3958
 9302SOL    HW139542   0.399   1.090   3.746 -0.8855 -0.9921 -0.0859
 9302SOL    HW239543   0.358   0.962   3.681  1.6451 -0.9485  0.0564
 9303SOL     OW39544   1.018   2.582  16.044 -0.2362 -0.0278  0.4455
 9303SOL    HW139545   1.067   2.586  15.961 -2.4620  0.4489 -0.8347
 9303SOL    HW239546   0.973   2.666  16.039 -0.7512 -0.2243  2.0790
 9304SOL     OW39547   0.457   2.563  16.662  0.0861 -0.8469 -0.1206
 9304SOL    HW139548   0.377   2.513  16.679 -0.7587  0.1268 -1.1907
 9304SOL    HW239549   0.419   2.642  16.700 -0.2150 -0.3379 -1.4837
 9305SOL     OW39550   3.361   4.710   3.196 -0.4730  0.3626 -0.3333
 9305SOL    HW139551   3.361   4.699   3.291 -1.2179 -1.2685 -0.5327
 9305SOL    HW239552   3.441   4.659   3.190 -1.4992 -1.3512  0.5280
 9306SOL     OW39553   0.242   2.382  12.921 -0.5659  0.0495  0.1604
 9306SOL    HW139554   0.288   2.368  12.838 -1.2324  0.5459 -0.2944
 9306SOL    HW239555   0.154   2.371  12.885 -0.5174 -0.0041  0.0586
 9307SOL     OW39556   2.146   1.578   3.229  0.2541 -0.1032  0.3379
 9307SOL    HW139557   2.060   1.591   3.270  0.1512 -1.4671  0.5681
 9307SOL    HW239558   2.113   1.587   3.140  1.5303  1.8807  0.0916
 9308SOL     OW39559   4.428   1.413   5.805 -0.6272 -0.4365 -0.2240
 9308SOL    HW139560   4.500   1.433   5.865 -0.7835 -0.5317 -0.0059
 9308SOL    HW239561   4.386   1.499   5.803 -1.2925 -0.7198  1.6091
 9309SOL     OW39562   1.150   0.583  10.578 -0.4260  0.0897 -0.3793
 9309SOL    HW139563   1.104   0.647  10.524  0.8034 -0.9076 -2.6584
 9309SOL    HW239564   1.224   0.633  10.612  0.1547 -0.5535 -0.6800
 9310SOL     OW39565   3.435   4.248   6.139 -0.5895 -0.1747  0.0384
 9310SOL    HW139566   3.419   4.212   6.226 -1.1464 -0.4112 -0.1633
 9310SOL    HW239567   3.487   4.326   6.159 -2.0112  0.2541  2.0696
 9311SOL     OW39568   2.290   3.882   9.720 -0.1743  0.3535  0.4902
 9311SOL    HW139569   2.290   3.873   9.815  1.6021 -0.5899  0.3847
 9311SOL    HW239570   2.336   3.801   9.700 -1.6063 -0.7293  1.6063
 9312SOL     OW39571   4.236   3.485   7.932  0.2145 -0.0899 -0.0164
 9312SOL    HW139572   4.215   3.467   8.024  1.0602  0.5996  0.3068
 9312SOL    HW239573   4.169   3.553   7.919 -0.6289 -0.6672  1.2739
 9313SOL     OW39574   0.119   1.539   9.979 -0.4888 -0.0282 -0.3702
 9313SOL    HW139575   0.138   1.582   9.896 -1.6551  1.9478  0.3900
 9313SOL    HW239576   0.036   1.582  10.001  0.5525  1.4300  0.6282
 9314SOL     OW39577   2.088   0.570   2.706  0.0454  0.4941 -0.1234
 9314SOL    HW139578   2.113   0.483   2.676  0.9623 -0.1217  2.4439
 9314SOL    HW239579   2.167   0.597   2.753  0.1848 -1.0134  0.4878
 9315SOL     OW39580   2.887   3.812   9.287 -0.0324  0.1663 -0.0182
 9315SOL    HW139581   2.868   3.853   9.202 -1.4687 -1.2944 -0.3929
 9315SOL    HW239582   2.974   3.851   9.293  0.9401 -2.0367 -0.0464
 9316SOL     OW39583   2.062   2.652   5.027 -0.2076  0.3172 -0.0299
 9316SOL    HW139584   2.150   2.642   5.063  0.1996  0.4806 -0.9791
 9316SOL    HW239585   2.064   2.605   4.944  1.4213 -0.5994  0.5159
 9317SOL     OW39586   2.647   3.095   8.613  0.2504 -0.1367 -0.2203
 9317SOL    HW139587   2.603   3.029   8.667  1.1246 -0.9880 -0.5432
 9317SOL    HW239588   2.679   3.042   8.540  0.9356 -0.1902  0.1126
 9318SOL     OW39589   1.331   3.269   1.157 -0.2996 -0.5346 -0.0773
 9318SOL    HW139590   1.425   3.289   1.160 -0.5465  0.7206 -0.5427
 9318SOL    HW239591   1.284   3.353   1.158 -0.5553 -0.6863  0.9990
 9319SOL     OW39592   4.650   3.491   6.302  0.3084 -0.3132  0.1241
 9319SOL    HW139593   4.644   3.566   6.361 -0.1609 -0.8497  0.7598
 9319SOL    HW239594   4.574   3.512   6.247  1.4406 -0.8045 -1.6483
 9320SOL     OW39595   4.065   0.850   4.879 -0.2154  0.3547 -0.1583
 9320SOL    HW139596   4.149   0.823   4.917 -1.1880 -0.3959  1.4267
 9320SOL    HW239597   4.012   0.804   4.943 -1.2821  0.7052 -0.7970
 9321SOL     OW39598   4.560   3.040  16.099 -0.1927  0.3729 -0.0365
 9321SOL    HW139599   4.569   3.023  16.005  0.5040 -1.5671  0.3974
 9321SOL    HW239600   4.633   3.100  16.115 -0.2405 -0.2939  2.5961
 9322SOL     OW39601   0.995   4.713  17.122  0.2990 -0.4936  0.2295
 9322SOL    HW139602   1.062   4.662  17.168 -0.3983 -1.5860  0.0297
 9322SOL    HW239603   1.014   0.055  17.168  2.5566 -0.7721 -0.1916
 9323SOL     OW39604   3.325   4.544   6.166 -0.3761  0.2869  0.0518
 9323SOL    HW139605   3.342   4.623   6.218 -1.7629  1.6617 -1.5551
 9323SOL    HW239606   3.371   4.478   6.217 -0.7849  1.5937  2.1153
 9324SOL     OW39607   4.244   0.605   8.782 -0.6369 -0.2623  0.3148
 9324SOL    HW139608   4.160   0.628   8.743 -1.1432  0.6139  1.9195
 9324SOL    HW239609   4.212   0.556   8.858 -2.5122  0.0686 -0.2633
 9325SOL     OW39610   0.362   0.615  17.170 -0.0292 -0.8553 -0.2702
 9325SOL    HW139611   0.363   0.520  17.176 -0.0678 -0.7912  0.7215
 9325SOL    HW239612   0.274   0.641  17.196  1.2952  2.4075  0.9385
 9326SOL     OW39613   1.252   3.707   2.812  0.1738 -0.7353 -0.1164
 9326SOL    HW139614   1.283   3.668   2.730  0.5124 -2.5069  0.8765
 9326SOL    HW239615   1.166   3.745   2.792  0.9851  1.6715  0.9111
 9327SOL     OW39616   0.994   1.693  15.204  0.1918 -0.0248 -0.6358
 9327SOL    HW139617   1.027   1.696  15.294  2.2970  2.0768 -1.4579
 9327SOL    HW239618   1.079   1.677  15.162  0.1687  0.8856 -1.0235
 9328SOL     OW39619   1.161   3.896   4.313  0.3662  0.2732 -0.1988
 9328SOL    HW139620   1.176   3.846   4.393 -0.7361  0.3594  0.0622
 9328SOL    HW239621   1.185   3.985   4.339  1.4846 -0.3354  0.8276
 9329SOL     OW39622   2.711   4.476  11.759  0.1796 -0.4820 -0.4563
 9329SOL    HW139623   2.673   4.476  11.847  0.1560 -3.1689 -0.4524
 9329SOL    HW239624   2.669   4.395  11.730 -0.7358  0.0958 -0.7489
 9330SOL     OW39625   3.142   1.560   3.883 -0.2575  0.4405  0.2339
 9330SOL    HW139626   3.185   1.643   3.865 -1.0337  0.5632 -1.0522
 9330SOL    HW239627   3.213   1.496   3.889 -0.9989 -0.6690 -3.0994
 9331SOL     OW39628   4.588   2.799   4.404  0.1838  0.6461 -0.2803
 9331SOL    HW139629   4.546   2.824   4.321 -2.3888  2.1374  1.4720
 9331SOL    HW239630   4.681   2.812   4.382  0.4757 -0.5546  0.2680
 9332SOL     OW39631   0.668   1.919   9.581  0.3785  0.5223 -0.2230
 9332SOL    HW139632   0.701   1.832   9.605 -2.6751 -0.6748 -0.2763
 9332SOL    HW239633   0.574   1.907   9.594  0.6231  0.6575  1.6534
 9333SOL     OW39634   3.904   1.459   9.748  0.5965 -0.7604  0.2235
 9333SOL    HW139635   3.986   1.457   9.797  0.6827 -2.1193  0.0214
 9333SOL    HW239636   3.869   1.370   9.754 -0.5527 -0.1885  1.8171
 9334SOL     OW39637   4.152   0.755  14.848  0.4040  0.1062 -0.2347
 9334SOL    HW139638   4.160   0.784  14.939  1.6307 -1.7664  0.2587
 9334SOL    HW239639   4.073   0.701  14.840  0.3268  0.0961  0.5380
 9335SOL     OW39640   2.082   2.188   4.093  0.5935 -0.0121 -0.2520
 9335SOL    HW139641   2.130   2.122   4.043 -1.0574  0.0619 -1.9218
 9335SOL    HW239642   2.101   2.157   4.181  2.4120  1.6490 -0.0675
 9336SOL     OW39643   2.991   4.315   1.789  0.2157 -0.2437 -0.4568
 9336SOL    HW139644   3.023   4.313   1.699  0.4663 -2.2943 -0.3293
 9336SOL    HW239645   2.997   4.226   1.822 -1.7767  0.4723  1.8826
 9337SOL     OW39646   3.714   4.663   9.992  0.0300  0.5293  0.2204
 9337SOL    HW139647   3.666   4.666  10.075  0.6773 -0.1769  0.6250
 9337SOL    HW239648   3.675   4.589   9.946  0.7546  0.8812 -0.9677
 9338SOL     OW39649   1.756   3.457   4.002  0.2833  0.1031 -0.0796
 9338SOL    HW139650   1.841   3.491   3.974  0.6122  0.9577  1.9503
 9338SOL    HW239651   1.741   3.420   3.915  1.3963  0.4533 -0.4192
 9339SOL     OW39652   2.569   2.655   6.559  0.2251  0.1200 -0.1474
 9339SOL    HW139653   2.639   2.627   6.618 -0.2216 -0.0759  0.2843
 9339SOL    HW239654   2.599   2.628   6.472  0.6139  0.9801 -0.2778
 9340SOL     OW39655   3.887   4.625  13.523 -0.1133 -0.4199  0.0524
 9340SOL    HW139656   3.806   4.665  13.490  0.0475  0.7211  1.0308
 9340SOL    HW239657   3.895   4.675  13.605  0.1522 -1.8173  0.8874
 9341SOL     OW39658   3.126   2.679   8.701 -0.0703 -0.4117  0.0267
 9341SOL    HW139659   3.141   2.770   8.673 -2.1213  0.5522  2.0683
 9341SOL    HW239660   3.194   2.662   8.765  2.6545 -1.6558 -3.1978
 9342SOL     OW39661   0.396   3.240   3.918  0.0663  0.1259 -0.6247
 9342SOL    HW139662   0.348   3.296   3.979  1.0715 -0.8353  1.0547
 9342SOL    HW239663   0.377   3.154   3.956  0.5966  0.6773  0.9045
 9343SOL     OW39664   1.929   3.034   5.320 -0.0482  0.5304 -0.0339
 9343SOL    HW139665   1.920   3.008   5.411 -1.1515 -0.9770 -0.5647
 9343SOL    HW239666   2.024   3.031   5.312 -0.1058  1.8557 -1.2485
 9344SOL     OW39667   2.878   1.693   9.102  0.5293 -0.0705 -0.4569
 9344SOL    HW139668   2.944   1.659   9.163 -1.4038 -1.4414  0.8727
 9344SOL    HW239669   2.928   1.738   9.034  2.1645 -0.8532  0.1985
 9345SOL     OW39670   2.608   3.952   8.749  0.6132 -0.1415  0.2165
 9345SOL    HW139671   2.514   3.961   8.765  0.7396 -1.1420  1.4821
 9345SOL    HW239672   2.646   4.006   8.818  0.8616 -1.0905  0.8263
 9346SOL     OW39673   1.529   0.596   9.002  0.0992  0.0449 -0.1606
 9346SOL    HW139674   1.555   0.653   8.929 -2.7000 -0.4253 -1.5100
 9346SOL    HW239675   1.550   0.636   9.087 -2.0541  2.2012 -0.6509
 9347SOL     OW39676   1.145   2.684   8.704 -0.5287  0.3628 -1.0548
 9347SOL    HW139677   1.212   2.750   8.688  0.8481 -1.0226 -0.9808
 9347SOL    HW239678   1.117   2.701   8.794 -0.0287 -1.3576 -0.5799
 9348SOL     OW39679   2.591   1.890   2.649 -0.0542 -0.0801  0.2797
 9348SOL    HW139680   2.627   1.869   2.563  0.4223  0.2108  0.4108
 9348SOL    HW239681   2.538   1.810   2.657 -0.8391  0.5291  1.1573
 9349SOL     OW39682   1.258   2.045   6.443  0.3386  0.0196  0.5264
 9349SOL    HW139683   1.304   1.961   6.441  1.7511  0.9158 -4.4251
 9349SOL    HW239684   1.180   2.025   6.496  0.0239  1.0550  0.4425
 9350SOL     OW39685   3.758   1.310  11.683 -0.4861 -0.2892  0.6838
 9350SOL    HW139686   3.784   1.243  11.746  1.8770 -0.0371 -0.0520
 9350SOL    HW239687   3.731   1.381  11.741  3.4927  1.5606  0.2396
 9351SOL     OW39688   3.924   3.809   2.959 -0.7568  0.1557 -0.2730
 9351SOL    HW139689   3.953   3.722   2.932  0.2960  0.4260 -0.0291
 9351SOL    HW239690   3.995   3.867   2.931 -1.4738 -0.1472 -2.6754
 9352SOL     OW39691   4.007   3.376   2.145 -0.3177 -0.1350  0.3203
 9352SOL    HW139692   4.021   3.392   2.238 -1.0855 -1.6946  0.6971
 9352SOL    HW239693   3.917   3.398   2.124  0.7338  3.0868 -0.8949
 9353SOL     OW39694   1.178   4.462   2.783  0.0514  0.0181 -1.0323
 9353SOL    HW139695   1.147   4.524   2.850  0.8623  0.0518 -0.6915
 9353SOL    HW239696   1.150   4.376   2.812 -0.4157  0.0807 -1.2998
 9354SOL     OW39697   0.771   2.991   9.007 -0.1057 -0.0258 -0.3759
 9354SOL    HW139698   0.774   2.911   8.955 -1.1771 -0.7457  0.6647
 9354SOL    HW239699   0.799   2.957   9.093  0.8830  0.4263 -0.5149
 9355SOL     OW39700   3.623   2.717   1.986  0.1196 -0.2885  0.1444
 9355SOL    HW139701   3.692   2.663   1.948  0.1336 -0.2537  0.1199
 9355SOL    HW239702   3.657   2.737   2.073 -1.5335  0.2930  0.6505
 9356SOL     OW39703   3.029   3.275   4.625  0.6256 -0.2557 -0.3438
 9356SOL    HW139704   3.071   3.359   4.643  1.2764 -0.3171 -1.5709
 9356SOL    HW239705   3.000   3.284   4.534  2.7217  0.6635 -0.9270
 9357SOL     OW39706   2.319   1.874   9.750  0.3234  0.1787  0.2321
 9357SOL    HW139707   2.369   1.811   9.801 -0.2452 -1.9984 -1.9069
 9357SOL    HW239708   2.263   1.910   9.818 -0.5238 -0.0926 -0.3239
 9358SOL     OW39709   0.641   0.059   3.358  0.4932  0.1768  0.3057
 9358SOL    HW139710   0.683   0.110   3.289 -0.1113  1.4705  0.8883
 9358SOL    HW239711   0.593   4.734   3.307 -0.2322 -0.3510  1.6512
 9359SOL     OW39712   2.141   2.130  10.039  0.0135  0.3763  0.3376
 9359SOL    HW139713   2.108   2.188  10.108 -0.1034  0.3541  0.2998
 9359SOL    HW239714   2.104   2.164   9.958  0.9845  1.4163  0.3317
 9360SOL     OW39715   1.457   0.333  11.514 -0.5673 -0.1097 -0.3440
 9360SOL    HW139716   1.467   0.399  11.446  1.5533  0.2464  0.3272
 9360SOL    HW239717   1.512   0.377  11.579 -0.7189  0.3481 -0.5302
 9361SOL     OW39718   3.741   4.316   7.588  0.5691 -0.3078 -0.0562
 9361SOL    HW139719   3.730   4.365   7.669 -0.2757  0.5034 -0.6644
 9361SOL    HW239720   3.748   4.388   7.526 -1.6565 -0.2231 -0.2031
 9362SOL     OW39721   3.188   3.500   3.332  0.1640  0.1800  0.6167
 9362SOL    HW139722   3.241   3.500   3.411 -0.1253 -2.3931  0.8381
 9362SOL    HW239723   3.250   3.513   3.260 -2.1932 -0.5680 -1.5830
 9363SOL     OW39724   1.196   1.739   8.494 -0.2176 -0.3488  0.1210
 9363SOL    HW139725   1.258   1.712   8.426 -1.3014 -0.1619 -0.9643
 9363SOL    HW239726   1.231   1.692   8.569  0.3511 -0.2109 -0.0624
 9364SOL     OW39727   0.809   1.294  13.788 -0.2319 -0.2820  0.3218
 9364SOL    HW139728   0.836   1.215  13.741 -0.7427 -0.1735 -0.1535
 9364SOL    HW239729   0.714   1.289  13.776 -0.4485 -2.1571  2.8671
 9365SOL     OW39730   3.895   0.681   3.708 -0.0267 -0.9445 -0.1029
 9365SOL    HW139731   3.986   0.656   3.717  0.4587  1.2618  1.0149
 9365SOL    HW239732   3.895   0.759   3.763  0.7067 -1.1173  0.1303
 9366SOL     OW39733   0.439   1.365   2.536  0.0325 -0.5426  0.0530
 9366SOL    HW139734   0.390   1.446   2.522 -0.8411 -0.5408  3.2177
 9366SOL    HW239735   0.470   1.346   2.447 -2.2606 -0.1109 -0.8207
 9367SOL     OW39736   1.846   4.328   9.413  0.5964 -0.1076 -0.5929
 9367SOL    HW139737   1.821   4.247   9.368 -1.3377  0.2937 -0.2310
 9367SOL    HW239738   1.857   4.296   9.502  2.3866 -1.1016 -1.1623
 9368SOL     OW39739   1.955   2.778   6.370  0.2386  0.2578  0.2323
 9368SOL    HW139740   1.983   2.869   6.374 -0.7618  0.5218  1.2973
 9368SOL    HW239741   1.874   2.774   6.318  1.3294  1.5113 -1.5288
 9369SOL     OW39742   2.064   1.122  12.227 -0.1973 -1.1905 -0.4330
 9369SOL    HW139743   2.019   1.182  12.287  0.6875 -1.1375  0.1767
 9369SOL    HW239744   2.152   1.135  12.263  0.2979 -0.4697 -1.8961
 9370SOL     OW39745   3.442   0.704   0.478 -0.0473 -0.4662 -0.2795
 9370SOL    HW139746   3.444   0.642   0.551  0.4270 -1.3636 -1.0578
 9370SOL    HW239747   3.402   0.780   0.521  1.5522  0.4340 -0.3900
 9371SOL     OW39748   2.708   0.443   8.467  0.0942 -0.4583  0.6243
 9371SOL    HW139749   2.769   0.372   8.488 -0.7795 -1.7592 -1.1547
 9371SOL    HW239750   2.638   0.439   8.533  0.5066 -0.6298  1.0498
 9372SOL     OW39751   4.588   3.343  17.246 -0.0202 -0.0289  0.6940
 9372SOL    HW139752   4.613   3.253  17.266  0.2127  0.3854  2.2284
 9372SOL    HW239753   4.673   3.379  17.219 -0.8312  2.8526  2.0103
 9373SOL     OW39754   0.624   4.187   4.817 -0.0044  0.0872 -0.2707
 9373SOL    HW139755   0.621   4.282   4.829 -1.5157  0.3125 -2.5229
 9373SOL    HW239756   0.534   4.158   4.800 -0.5398  1.5524  0.0410
 9374SOL     OW39757   2.358   0.038   6.920  0.2774  0.1647  0.2282
 9374SOL    HW139758   2.416   0.002   6.854  2.5076  3.0300  0.5861
 9374SOL    HW239759   2.344   0.122   6.876 -1.9189 -0.1856  0.2386
 9375SOL     OW39760   0.317   2.639  11.618  0.7907  0.5964  0.0196
 9375SOL    HW139761   0.251   2.685  11.670  2.9713  3.5036  0.2162
 9375SOL    HW239762   0.389   2.699  11.635 -0.3241  1.5575  1.2681
 9376SOL     OW39763   0.295   0.571   5.139 -0.1786 -0.4471 -0.0483
 9376SOL    HW139764   0.335   0.626   5.206  0.6392  0.0106 -0.9150
 9376SOL    HW239765   0.375   0.561   5.088 -1.3791  0.8006 -2.1704
 9377SOL     OW39766   1.554   2.352   5.220  0.8309 -0.3718 -0.2798
 9377SOL    HW139767   1.540   2.304   5.139  0.1707  0.6128 -0.7399
 9377SOL    HW239768   1.647   2.329   5.232  0.4869 -0.4640  2.2196
 9378SOL     OW39769   2.957   2.695  13.033 -0.3466  0.7750  0.0509
 9378SOL    HW139770   2.863   2.689  13.014  0.1154  0.3759 -2.0826
 9378SOL    HW239771   2.973   2.784  13.002  1.4474  1.5322  3.1891
 9379SOL     OW39772   3.923   0.876   4.126  0.2654 -0.2485 -0.3048
 9379SOL    HW139773   3.830   0.883   4.149  0.3708 -0.7939  0.2990
 9379SOL    HW239774   3.916   0.784   4.099  1.2182 -0.9339  1.7906
 9380SOL     OW39775   4.429   1.532   6.438 -0.1102  0.4205 -0.3053
 9380SOL    HW139776   4.386   1.593   6.378 -1.1036  0.3406  0.3240
 9380SOL    HW239777   4.517   1.529   6.400 -1.6838 -0.9297 -3.8096
 9381SOL     OW39778   1.649   3.296   5.731 -0.2982  0.4953  0.1853
 9381SOL    HW139779   1.732   3.249   5.729 -1.0919 -0.9399  0.5007
 9381SOL    HW239780   1.601   3.220   5.697  3.0171 -0.6848 -1.8143
 9382SOL     OW39781   2.938   3.166   6.782 -0.3100 -0.0190 -0.6122
 9382SOL    HW139782   2.852   3.204   6.803 -0.3262  0.1573 -1.0027
 9382SOL    HW239783   2.922   3.075   6.806 -1.1235  0.5366  1.0319
 9383SOL     OW39784   4.585   3.220   6.424  0.4063 -0.2162 -0.6835
 9383SOL    HW139785   4.627   3.304   6.406  1.4030 -0.2834  1.3221
 9383SOL    HW239786   4.503   3.220   6.375  0.2378  1.0711 -0.3812
 9384SOL     OW39787   1.961   4.256  10.781 -0.3382 -0.6043  0.7276
 9384SOL    HW139788   1.945   4.275  10.873  0.0737 -2.5424  1.2081
 9384SOL    HW239789   1.907   4.178  10.765 -2.3396  0.1961  3.5665
 9385SOL     OW39790   3.010   0.992   2.019 -0.5630  0.5483  0.0239
 9385SOL    HW139791   3.035   1.048   1.946  0.3895 -0.1928 -0.2180
 9385SOL    HW239792   3.030   1.047   2.095  0.7561 -0.6855  0.5685
 9386SOL     OW39793   3.797   0.106   6.813  0.0780  0.6905  0.2993
 9386SOL    HW139794   3.802   0.014   6.839  0.9924  0.8986  0.8530
 9386SOL    HW239795   3.783   0.147   6.899 -0.8913  0.5484  0.2159
 9387SOL     OW39796   2.468   3.619   9.734 -0.0454 -0.3769  0.2074
 9387SOL    HW139797   2.426   3.643   9.816 -1.0014 -0.5524 -0.2344
 9387SOL    HW239798   2.563   3.627   9.740 -0.6520  3.0160  4.6675
 9388SOL     OW39799   0.036   1.936   3.737 -0.3069  0.1194 -0.5377
 9388SOL    HW139800   0.084   1.898   3.663 -0.2626  1.2712 -1.1178
 9388SOL    HW239801   0.103   1.991   3.777 -1.3389  0.8020  0.2443
 9389SOL     OW39802   1.724   0.861   3.874 -0.1526 -0.6493 -0.0987
 9389SOL    HW139803   1.673   0.822   3.945 -0.5494 -0.0885 -0.0666
 9389SOL    HW239804   1.685   0.948   3.864  0.1344 -0.3119  1.6088
 9390SOL     OW39805   4.560   1.651   9.729  0.1028  0.1564 -0.3702
 9390SOL    HW139806   4.627   1.678   9.665 -1.1946  0.5112 -1.5693
 9390SOL    HW239807   4.492   1.621   9.668  0.2073 -0.5988 -0.1066
 9391SOL     OW39808   1.922   0.685   1.714 -0.2224 -0.0419  0.0267
 9391SOL    HW139809   1.947   0.675   1.806  0.3770 -0.2476 -0.1607
 9391SOL    HW239810   1.992   0.649   1.660 -0.5873 -0.6221 -0.0562
 9392SOL     OW39811   3.828   3.895   7.816  0.4515  0.7640 -0.2511
 9392SOL    HW139812   3.866   3.962   7.872 -1.0798  0.5067  1.0873
 9392SOL    HW239813   3.796   3.949   7.744  1.7079 -2.0684 -2.9436
 9393SOL     OW39814   2.118   2.428   8.992  0.1390  0.5868 -0.5360
 9393SOL    HW139815   2.072   2.507   8.965  0.9391  0.4276 -2.4308
 9393SOL    HW239816   2.184   2.471   9.046  1.2901 -1.7767 -0.0460
 9394SOL     OW39817   0.263   0.442  11.411 -0.2162  0.9280 -0.2904
 9394SOL    HW139818   0.245   0.386  11.486  0.8336  0.4537 -0.3865
 9394SOL    HW239819   0.221   0.524  11.437  0.0844  0.5826  1.2652
 9395SOL     OW39820   3.077   0.775  15.941  0.3050  0.1522  0.0166
 9395SOL    HW139821   3.113   0.721  15.871 -0.7587  0.8885 -1.0838
 9395SOL    HW239822   3.113   0.730  16.017  1.5472  0.9003 -0.1150
 9396SOL     OW39823   4.105   3.905  15.448 -0.2598 -0.2710  0.5787
 9396SOL    HW139824   4.119   3.983  15.394  2.3092 -1.6336 -0.6967
 9396SOL    HW239825   4.196   3.892  15.476  0.2321  1.3224 -0.2959
 9397SOL     OW39826   3.661   0.902   1.568  0.8326 -0.0662  0.0786
 9397SOL    HW139827   3.712   0.979   1.542 -2.2249  2.0386  0.3739
 9397SOL    HW239828   3.594   0.939   1.625 -1.0839  0.5794 -2.6309
 9398SOL     OW39829   1.252   4.596   5.909 -0.0256 -0.0341  0.0357
 9398SOL    HW139830   1.289   4.528   5.965 -1.4476 -1.1146 -0.3454
 9398SOL    HW239831   1.167   4.556   5.889 -0.6946  1.0801  0.6566
 9399SOL     OW39832   1.323   0.089   7.110 -0.0008  0.4197 -0.0306
 9399SOL    HW139833   1.407   0.113   7.071  1.0230 -2.1936  0.5718
 9399SOL    HW239834   1.346   0.087   7.203 -2.0542 -1.8642  0.4126
 9400SOL     OW39835   0.448   4.531   5.404  0.2373 -0.5367  0.5708
 9400SOL    HW139836   0.534   4.571   5.414  1.0292 -1.8058 -0.9838
 9400SOL    HW239837   0.427   4.575   5.322  2.3490  0.6076  0.6475
 9401SOL     OW39838   4.157   2.895   7.419 -0.0484  0.5643  0.1755
 9401SOL    HW139839   4.238   2.944   7.407  0.7374 -0.8772 -0.3741
 9401SOL    HW239840   4.162   2.867   7.510  1.5707  2.9804  0.8337
 9402SOL     OW39841   2.277   1.124  10.102  0.2539 -0.0483  0.4186
 9402SOL    HW139842   2.240   1.193  10.158 -1.4039 -1.5420  1.1736
 9402SOL    HW239843   2.295   1.053  10.163  1.6226  0.2940  0.4194
 9403SOL     OW39844   4.459   1.774   5.234  0.3029  0.0807 -0.4754
 9403SOL    HW139845   4.490   1.688   5.205 -4.4034 -1.1376 -1.9095
 9403SOL    HW239846   4.516   1.826   5.177  1.6669 -0.7504  0.1185
 9404SOL     OW39847   0.185   1.240   8.968 -0.0877  0.2243  0.2338
 9404SOL    HW139848   0.235   1.235   8.886  0.1008  0.2316  0.3494
 9404SOL    HW239849   0.169   1.146   8.982 -0.1185  0.1601 -0.2186
 9405SOL     OW39850   4.247   4.569   8.143 -0.1698  0.2532  0.0797
 9405SOL    HW139851   4.167   4.613   8.172 -0.5704 -0.5689  0.2133
 9405SOL    HW239852   4.244   4.571   8.048  0.2102  1.4618  0.0883
 9406SOL     OW39853   0.405   2.209  16.178  0.7000 -0.1861  0.3472
 9406SOL    HW139854   0.415   2.190  16.085  1.0892 -0.2229  0.3952
 9406SOL    HW239855   0.358   2.293  16.176  0.4001 -0.2996  2.3251
 9407SOL     OW39856   0.129   4.300   8.925 -0.0277  0.2474  0.3788
 9407SOL    HW139857   0.216   4.322   8.892 -1.1288 -1.0609 -3.4401
 9407SOL    HW239858   0.158   4.233   8.986  0.2068 -1.6080 -1.7674
 9408SOL     OW39859   3.611   4.488   4.125  0.1591 -0.2240  0.6667
 9408SOL    HW139860   3.520   4.506   4.148 -0.4005 -1.0878 -0.8536
 9408SOL    HW239861   3.598   4.431   4.049  3.1363  2.4442 -1.8758
 9409SOL     OW39862   2.306   2.111   6.935 -0.0563  0.2959  0.7518
 9409SOL    HW139863   2.304   2.151   7.022 -0.3446  3.4130 -0.6947
 9409SOL    HW239864   2.262   2.029   6.956 -0.2463  0.6247  1.6545
 9410SOL     OW39865   4.398   2.472   8.580 -0.1790  0.0294 -0.2066
 9410SOL    HW139866   4.437   2.495   8.496 -0.5891 -0.4526 -0.5205
 9410SOL    HW239867   4.361   2.387   8.557  0.4593 -0.6887  1.3630
 9411SOL     OW39868   0.180   0.084   0.407  0.3507  0.1617 -0.4888
 9411SOL    HW139869   0.207   0.120   0.323 -0.1470 -0.0354 -0.7331
 9411SOL    HW239870   0.235   0.149   0.452  0.3754 -1.1052  1.3161
 9412SOL     OW39871   4.694   2.704   6.199 -0.4490  0.1159  0.0786
 9412SOL    HW139872   4.731   2.777   6.149  1.0773 -0.8848 -0.2329
 9412SOL    HW239873   0.022   2.692   6.265  2.0354  1.2121 -2.2795
 9413SOL     OW39874   0.964   3.323   5.446 -0.3653  0.3343 -0.1966
 9413SOL    HW139875   0.885   3.281   5.481  0.1034  0.9839  1.5928
 9413SOL    HW239876   0.992   3.250   5.391  0.4363  0.0617  0.5814
 9414SOL     OW39877   4.283   2.655   2.866 -0.0628 -0.4846  0.1199
 9414SOL    HW139878   4.215   2.634   2.802  0.8068 -0.2598 -0.8943
 9414SOL    HW239879   4.355   2.601   2.831 -0.7179 -1.2431 -0.0570
 9415SOL     OW39880   0.615   2.771   7.124 -0.3141  0.2495  0.7095
 9415SOL    HW139881   0.573   2.826   7.191  0.9606  0.7332  1.1000
 9415SOL    HW239882   0.685   2.820   7.081 -2.9706  1.9500 -1.7136
 9416SOL     OW39883   3.052   1.799   4.201 -0.1513  0.1169 -0.6620
 9416SOL    HW139884   3.043   1.703   4.207  0.7664  0.1688  1.8428
 9416SOL    HW239885   2.965   1.819   4.167 -1.2175  0.8337  2.4507
 9417SOL     OW39886   0.655   0.303   6.336  0.6805 -0.1775  0.1493
 9417SOL    HW139887   0.575   0.262   6.303  1.8051 -1.8130 -0.5441
 9417SOL    HW239888   0.727   0.240   6.328  0.4216 -0.4836  0.2292
 9418SOL     OW39889   2.792   0.355  17.525  0.4273 -0.2626 -0.2150
 9418SOL    HW139890   2.870   0.345  17.470 -0.7303 -0.7348 -1.7660
 9418SOL    HW239891   2.829   0.401  17.601 -2.2169  0.4769  0.6297
 9419SOL     OW39892   0.528   0.528   5.621  0.3433 -0.6212 -0.4834
 9419SOL    HW139893   0.450   0.551   5.570  0.8869  2.0325 -0.1126
 9419SOL    HW239894   0.525   0.433   5.619 -0.5360 -0.6645  2.8089
 9420SOL     OW39895   1.243   0.728   6.875  0.3534  0.5919 -0.1119
 9420SOL    HW139896   1.333   0.697   6.864 -0.1016 -0.8431  0.2318
 9420SOL    HW239897   1.211   0.653   6.925 -0.2072  0.1806 -1.0898
 9421SOL     OW39898   2.486   4.518  15.489  0.2645 -0.4072 -0.0276
 9421SOL    HW139899   2.560   4.459  15.477 -0.1178 -1.2281  1.5361
 9421SOL    HW239900   2.485   4.555  15.401 -0.6937  0.7727  0.4715
 9422SOL     OW39901   2.295   2.086  17.495 -0.0165  0.3716 -0.3048
 9422SOL    HW139902   2.252   2.102  17.578  0.2801 -0.0095 -0.0767
 9422SOL    HW239903   2.295   1.990  17.494 -0.6946  0.3699  0.0635
 9423SOL     OW39904   3.381   1.211   8.394 -0.3916  0.6195 -0.4574
 9423SOL    HW139905   3.360   1.294   8.352  2.5419  2.2348  1.2722
 9423SOL    HW239906   3.391   1.155   8.317  0.5805 -0.1415  0.2320
 9424SOL     OW39907   2.765   1.817  14.135  0.3257 -0.0037  0.1120
 9424SOL    HW139908   2.841   1.762  14.156  1.2503  0.8588 -0.9502
 9424SOL    HW239909   2.728   1.767  14.062  0.2794  3.4236 -2.2152
 9425SOL     OW39910   3.177   4.728  13.939  0.4897 -0.3002  0.3398
 9425SOL    HW139911   3.243   0.057  13.928 -0.7204  0.7159 -0.4520
 9425SOL    HW239912   3.126   0.019  14.014 -0.4635 -0.6095 -0.1882
 9426SOL     OW39913   4.097   2.650   2.625 -0.6267 -0.0990 -0.8212
 9426SOL    HW139914   4.131   2.642   2.536 -0.3191 -0.6483 -0.6517
 9426SOL    HW239915   4.014   2.602   2.628 -0.5563 -0.1720 -0.0388
 9427SOL     OW39916   3.183   1.454  12.076  0.4035 -0.2012 -0.1518
 9427SOL    HW139917   3.136   1.376  12.047 -0.7785  0.8111 -0.9734
 9427SOL    HW239918   3.133   1.485  12.151  1.4413 -1.4925  1.0767
 9428SOL     OW39919   2.618   3.685   3.698 -0.1023 -0.1458  0.7392
 9428SOL    HW139920   2.550   3.714   3.636  1.7270 -0.6564 -1.5039
 9428SOL    HW239921   2.557   3.648   3.761  0.2901 -1.7788  0.1578
 9429SOL     OW39922   2.947   1.603   2.836 -0.0148 -0.0592 -0.3391
 9429SOL    HW139923   2.867   1.651   2.856 -0.4963 -0.7098 -0.7008
 9429SOL    HW239924   3.010   1.673   2.816 -1.5206  1.2153 -0.5990
 9430SOL     OW39925   0.060   4.031   6.445 -0.3453  0.3507  0.2295
 9430SOL    HW139926   0.038   3.944   6.478  0.2675  1.0045  2.3570
 9430SOL    HW239927   0.016   4.098   6.497 -1.2139 -0.4419  0.5009
 9431SOL     OW39928   1.788   0.309  17.380 -0.0931 -0.0255 -0.5201
 9431SOL    HW139929   1.697   0.282  17.370  0.5112 -1.3228 -2.4911
 9431SOL    HW239930   1.820   0.253  17.309  1.6094 -0.6245  0.6875
 9432SOL     OW39931   3.622   0.510   3.528 -0.1544  0.2981 -0.0438
 9432SOL    HW139932   3.552   0.570   3.551  0.2381  0.6609  0.2205
 9432SOL    HW239933   3.690   0.558   3.482  1.9101 -2.0633  0.4926
 9433SOL     OW39934   4.633   0.517   2.791 -0.5032 -0.2968  0.0790
 9433SOL    HW139935   4.610   0.447   2.730 -1.2100 -1.2029  1.3919
 9433SOL    HW239936   4.553   0.514   2.843 -0.1134 -1.1577  0.6141
 9434SOL     OW39937   3.113   0.963   7.388 -0.2949 -0.6768  0.3476
 9434SOL    HW139938   3.137   1.012   7.467  0.5698  0.5834 -0.7034
 9434SOL    HW239939   3.020   0.947   7.408 -0.7365  1.4789 -0.0810
 9435SOL     OW39940   2.867   3.073   2.854 -0.1543 -0.3334  0.1806
 9435SOL    HW139941   2.799   3.135   2.828  0.4256 -0.7580 -2.3531
 9435SOL    HW239942   2.856   3.086   2.948  1.8844  3.2054 -0.0881
 9436SOL     OW39943   0.546   2.771   2.506  0.2978 -0.4001  0.0153
 9436SOL    HW139944   0.521   2.791   2.596 -1.7478 -0.8046 -0.4644
 9436SOL    HW239945   0.476   2.807   2.452 -2.7129 -1.3558  3.3087
 9437SOL     OW39946   4.020   0.574  10.214  0.0496  0.2791 -0.5958
 9437SOL    HW139947   4.083   0.586  10.285 -0.9255 -2.6976  0.7614
 9437SOL    HW239948   4.026   0.653  10.160 -0.1239 -0.1449 -1.2365
 9438SOL     OW39949   0.784   3.271   0.263 -0.2708  0.1841 -0.2011
 9438SOL    HW139950   0.847   3.205   0.235  2.2639  1.9748  1.2962
 9438SOL    HW239951   0.794   3.339   0.197  0.8262 -1.9154 -2.1912
 9439SOL     OW39952   4.363   0.224   4.271  0.5102  0.1811 -0.2694
 9439SOL    HW139953   4.451   0.252   4.297  0.2973  0.8872 -0.2821
 9439SOL    HW239954   4.376   0.164   4.199 -1.7767  1.1280 -1.4902
 9440SOL     OW39955   0.042   1.301   1.142  0.5458  0.6924 -0.3345
 9440SOL    HW139956   4.708   1.243   1.127 -0.9194  3.3756 -3.5712
 9440SOL    HW239957   0.085   1.240   1.201 -0.0079  1.6621  1.0819
 9441SOL     OW39958   0.083   2.859   4.127  0.6876 -0.0441 -0.1521
 9441SOL    HW139959   0.028   2.873   4.050 -0.9100 -0.7887  0.8457
 9441SOL    HW239960   0.037   2.924   4.180  1.8156 -0.6014  1.4819
 9442SOL     OW39961   2.175   0.435   5.313  0.2406 -0.1714 -0.0234
 9442SOL    HW139962   2.254   0.423   5.261 -1.0753 -0.7543 -1.9108
 9442SOL    HW239963   2.137   0.513   5.272 -1.0893 -1.0617 -0.5037
 9443SOL     OW39964   0.103   2.389  11.020  0.0221  0.3056  0.2985
 9443SOL    HW139965   0.150   2.369  11.101  0.3633 -2.7195 -0.6759
 9443SOL    HW239966   0.068   2.477  11.037 -1.2466 -0.0309 -0.5807
 9444SOL     OW39967   1.499   1.414  10.195 -0.1682  0.5345  0.1933
 9444SOL    HW139968   1.460   1.327  10.189 -0.5119  0.5844  1.8614
 9444SOL    HW239969   1.432   1.467  10.152  1.1361  1.2197 -1.0346
 9445SOL     OW39970   2.532   0.936  16.243 -0.0425  0.1772 -0.2767
 9445SOL    HW139971   2.557   0.847  16.218 -0.9074 -0.5903  1.6452
 9445SOL    HW239972   2.507   0.937  16.335  1.0215  1.7278 -0.0037
 9446SOL     OW39973   2.366   1.810   4.191  0.3041  0.1772 -0.4449
 9446SOL    HW139974   2.348   1.729   4.143  1.6284  0.5844 -1.6429
 9446SOL    HW239975   2.282   1.855   4.192 -0.5655 -1.4358 -1.2004
 9447SOL     OW39976   2.398   1.807  17.517  0.0824  0.0077 -0.6400
 9447SOL    HW139977   2.384   1.737  17.581  0.9093  0.5614  0.1538
 9447SOL    HW239978   2.349   1.774  17.442  4.3730 -1.7551 -2.7041
 9448SOL     OW39979   1.596   4.171   8.087  0.3362  0.8738 -0.3875
 9448SOL    HW139980   1.641   4.227   8.025 -1.7351  2.6009 -0.3575
 9448SOL    HW239981   1.508   4.207   8.075  0.5104  1.9139  1.4226
 9449SOL     OW39982   0.075   2.924   6.827 -0.2577 -0.3729  0.3113
 9449SOL    HW139983   0.093   2.948   6.918  0.7323 -1.3680  0.3732
 9449SOL    HW239984   0.000   2.978   6.801 -1.1778 -1.1495  1.3584
 9450SOL     OW39985   2.035   0.704   5.280  0.2807  0.7754 -0.3512
 9450SOL    HW139986   2.108   0.711   5.342 -0.2522 -1.7034  0.5859
 9450SOL    HW239987   1.956   0.687   5.332 -0.5094  0.4962 -1.6540
 9451SOL     OW39988   2.017   0.845   9.013  0.1155 -0.2826 -0.5897
 9451SOL    HW139989   2.093   0.897   9.038 -0.1191  0.3252 -1.1474
 9451SOL    HW239990   2.047   0.761   9.047  0.1959  0.0393  0.1356
 9452SOL     OW39991   4.328   1.571  12.969  0.2975 -0.2834 -0.2592
 9452SOL    HW139992   4.359   1.616  12.891 -1.1579 -0.6249 -1.0394
 9452SOL    HW239993   4.395   1.510  13.000  0.4391 -1.1125 -2.2153
 9453SOL     OW39994   4.714   3.115   8.282 -0.0045  0.4243  0.2100
 9453SOL    HW139995   0.017   3.186   8.329  1.5964 -0.5993  0.3055
 9453SOL    HW239996   0.021   3.039   8.319  0.3225  0.9862  0.9428
 9454SOL     OW39997   3.949   0.740  13.080  0.8394  0.1950 -0.1536
 9454SOL    HW139998   4.032   0.703  13.108 -0.1948 -0.0555  2.5514
 9454SOL    HW239999   3.894   0.662  13.076  1.2178 -0.1075  0.5876
 9455SOL     OW40000   4.243   0.854   1.996  0.2307  0.1395  0.0659
 9455SOL    HW140001   4.218   0.773   2.041  0.5891 -0.9129 -1.6203
 9455SOL    HW240002   4.212   0.919   2.059  1.5942  0.7801  0.0724
 9456SOL     OW40003   0.533   0.878   5.813  0.1335 -0.1032  0.6775
 9456SOL    HW140004   0.617   0.904   5.853  1.3461 -1.8748 -0.7276
 9456SOL    HW240005   0.499   0.962   5.782 -1.3136 -0.5406  1.0842
 9457SOL     OW40006   2.055   4.009   3.717  0.2751 -0.0705 -0.0824
 9457SOL    HW140007   2.076   4.094   3.755  3.7371 -0.7949 -0.4369
 9457SOL    HW240008   1.959   4.005   3.718  0.2846 -0.9052 -2.1354
 9458SOL     OW40009   2.748   2.350  13.028  0.2398 -0.0442 -0.0716
 9458SOL    HW140010   2.692   2.382  13.099 -0.2176 -0.8118 -0.0927
 9458SOL    HW240011   2.762   2.260  13.058  2.6093  0.3878  0.1746
 9459SOL     OW40012   1.502   0.937   5.505  0.1830  0.6102 -0.3842
 9459SOL    HW140013   1.422   0.891   5.529  0.3349  0.7954  0.4901
 9459SOL    HW240014   1.470   0.964   5.420 -1.7412 -2.8243 -0.7407
 9460SOL     OW40015   2.357   0.701   6.627  0.3013 -0.4429 -0.0462
 9460SOL    HW140016   2.436   0.725   6.578 -0.6607 -0.8470 -1.7939
 9460SOL    HW240017   2.287   0.707   6.562  0.6851 -0.6711 -0.4836
 9461SOL     OW40018   1.119   1.046   3.206  0.2646 -0.3143 -0.4313
 9461SOL    HW140019   1.111   1.103   3.129 -1.1688 -0.3113 -0.2762
 9461SOL    HW240020   1.213   1.032   3.194  0.2542 -0.3862 -0.4231
 9462SOL     OW40021   3.368   0.258   8.820 -0.0613 -0.6160  0.3542
 9462SOL    HW140022   3.413   0.294   8.896 -2.7062 -2.1217  2.6484
 9462SOL    HW240023   3.440   0.222   8.768 -0.5344  0.6415 -1.1709
 9463SOL     OW40024   1.339   0.444   7.332  0.3093  0.0060  0.0883
 9463SOL    HW140025   1.335   0.530   7.290 -1.4282 -0.0421  0.1478
 9463SOL    HW240026   1.247   0.418   7.327  0.5012 -1.0978  2.2506
 9464SOL     OW40027   2.158   0.912   4.489  0.5081 -0.5960 -0.4229
 9464SOL    HW140028   2.242   0.958   4.489  0.9606 -1.4263  0.5987
 9464SOL    HW240029   2.098   0.986   4.489 -0.0940 -1.0824  0.3479
 9465SOL     OW40030   4.446   1.898  11.579 -0.0505 -0.6582  0.1837
 9465SOL    HW140031   4.408   1.968  11.527  1.1716 -0.6845 -0.7533
 9465SOL    HW240032   4.500   1.953  11.636  1.6401 -0.5620 -1.5016
 9466SOL     OW40033   0.579   0.245   1.433 -0.6413 -0.0452  0.7212
 9466SOL    HW140034   0.647   0.197   1.481 -0.1232  0.2882  0.3265
 9466SOL    HW240035   0.552   0.312   1.496  0.9875  1.2777  0.0034
 9467SOL     OW40036   2.812   3.484   4.786  0.5262 -0.2712  0.3187
 9467SOL    HW140037   2.885   3.508   4.729  1.4934 -1.3430  1.0955
 9467SOL    HW240038   2.767   3.420   4.731 -0.9945 -0.1496  1.4182
 9468SOL     OW40039   4.312   1.612   4.293  0.0928  0.4985  0.2751
 9468SOL    HW140040   4.384   1.663   4.257  0.8113 -0.9649 -0.3356
 9468SOL    HW240041   4.324   1.611   4.388 -0.6867 -1.9326  0.3383
 9469SOL     OW40042   4.029   4.449   0.715  0.1592 -0.1896 -0.1053
 9469SOL    HW140043   4.058   4.368   0.673  0.3284  1.1588 -2.5857
 9469SOL    HW240044   4.116   4.489   0.716 -0.5942  1.4058  1.5909
 9470SOL     OW40045   0.457   4.240   0.995 -0.1948  0.2759  0.3677
 9470SOL    HW140046   0.404   4.279   0.926 -0.2328 -0.4249 -0.0023
 9470SOL    HW240047   0.449   4.303   1.067  1.7575  0.4559  0.4162
 9471SOL     OW40048   3.179   3.486   9.128  0.4510 -0.3108 -0.1189
 9471SOL    HW140049   3.230   3.562   9.101  0.5955 -0.7222 -1.0011
 9471SOL    HW240050   3.176   3.427   9.052 -0.3452  0.0556 -0.3777
 9472SOL     OW40051   1.035   2.650   7.417  0.3072 -0.4084  0.5501
 9472SOL    HW140052   1.003   2.732   7.454 -0.6547  0.2207 -1.6596
 9472SOL    HW240053   0.954   2.600   7.427  0.1278 -0.0111  1.0645
 9473SOL     OW40054   3.581   0.661   1.696 -1.1181  0.1437  0.2493
 9473SOL    HW140055   3.630   0.720   1.639 -1.1105  0.5000  0.6278
 9473SOL    HW240056   3.496   0.702   1.711 -1.1673  0.3361 -0.5849
 9474SOL     OW40057   0.596   1.618   2.792 -0.4824  0.4705  0.0134
 9474SOL    HW140058   0.625   1.543   2.843 -0.1654  0.2885 -0.4362
 9474SOL    HW240059   0.501   1.602   2.789 -0.4055  0.5047 -2.6912
 9475SOL     OW40060   4.643   3.915   3.292  0.2213 -0.1234 -0.3896
 9475SOL    HW140061   4.661   3.822   3.307  1.6357  0.4943  1.7954
 9475SOL    HW240062   4.580   3.923   3.221  0.7278 -0.2109 -0.8422
 9476SOL     OW40063   4.573   4.733   4.281  0.2707  0.1045  0.2229
 9476SOL    HW140064   4.489   4.720   4.326  0.5473 -3.0019 -0.1718
 9476SOL    HW240065   4.598   4.652   4.238  1.1014  0.3154  0.3011
 9477SOL     OW40066   0.181   0.376   5.885 -0.4546  0.1764  0.0438
 9477SOL    HW140067   0.258   0.406   5.933 -1.4346  0.0647  1.6565
 9477SOL    HW240068   0.200   0.283   5.869  0.2075  0.1306  1.1215
 9478SOL     OW40069   3.176   4.514   4.595  0.5944  0.1419 -0.0037
 9478SOL    HW140070   3.089   4.507   4.557 -0.2081  1.6441  1.6011
 9478SOL    HW240071   3.162   4.501   4.689  0.4117  1.3132  0.1294
 9479SOL     OW40072   3.291   0.217   3.570 -0.3757 -0.1823 -0.3166
 9479SOL    HW140073   3.341   0.136   3.569 -1.6542 -0.9744  0.6237
 9479SOL    HW240074   3.267   0.231   3.662  2.6592 -0.7793  0.5655
 9480SOL     OW40075   1.610   3.164   6.891  0.3275 -0.4099  0.1970
 9480SOL    HW140076   1.520   3.173   6.922 -0.1460 -0.4854 -1.1832
 9480SOL    HW240077   1.606   3.074   6.859 -2.2423  0.4341 -1.7887
 9481SOL     OW40078   2.401   2.268  15.823 -0.1236  0.3668  0.0860
 9481SOL    HW140079   2.334   2.274  15.755  1.1666 -0.1402 -1.2304
 9481SOL    HW240080   2.454   2.222  15.758 -0.0657 -1.8531  1.6932
 9482SOL     OW40081   1.054   1.407   9.571 -0.9850  0.2108  0.1738
 9482SOL    HW140082   1.062   1.430   9.479 -2.5162 -0.4205 -0.1252
 9482SOL    HW240083   0.959   1.421   9.573 -0.8321  1.0840  1.1534
 9483SOL     OW40084   4.710   1.968   7.719  0.3713  1.0143  0.2808
 9483SOL    HW140085   4.703   1.937   7.629 -2.5022  2.2364  0.0907
 9483SOL    HW240086   0.054   1.930   7.747  0.6430  1.3725 -0.0554
 9484SOL     OW40087   1.794   2.511  11.924 -0.3213  0.2386  0.2761
 9484SOL    HW140088   1.759   2.471  11.845  1.4142  0.2327 -0.4707
 9484SOL    HW240089   1.868   2.559  11.887 -0.7533  2.1148  1.7829
 9485SOL     OW40090   3.271   3.166   5.599  0.6283 -0.0467  0.0286
 9485SOL    HW140091   3.283   3.133   5.510  0.1831  1.6247 -0.6489
 9485SOL    HW240092   3.180   3.143   5.615  0.7326 -0.4348  0.0716
 9486SOL     OW40093   0.411   4.305   8.913  0.2394  0.1154  0.0990
 9486SOL    HW140094   0.413   4.229   8.856 -1.8404 -0.1134  0.3357
 9486SOL    HW240095   0.493   4.347   8.888  0.7696 -0.0063  1.6346
 9487SOL     OW40096   3.847   3.448  12.263  0.0573 -0.0218  0.2657
 9487SOL    HW140097   3.879   3.530  12.301  0.8712  0.8991 -2.4226
 9487SOL    HW240098   3.875   3.478  12.177 -0.6646 -1.5263 -0.4890
 9488SOL     OW40099   2.113   2.837   8.002  0.1426  0.6324 -0.1643
 9488SOL    HW140100   2.143   2.764   7.949 -0.3155 -0.3583  0.9406
 9488SOL    HW240101   2.019   2.822   8.015  0.4350 -1.5941 -0.6348
 9489SOL     OW40102   1.544   3.874  10.816  0.2018 -0.7083  0.1081
 9489SOL    HW140103   1.448   3.872  10.817  0.2222 -0.5061  2.6304
 9489SOL    HW240104   1.572   3.792  10.856 -1.0938 -1.4449 -0.4932
 9490SOL     OW40105   0.335   3.623   3.251  0.2412  0.2437 -0.1328
 9490SOL    HW140106   0.403   3.570   3.209 -0.1861 -1.1428  0.9471
 9490SOL    HW240107   0.320   3.586   3.337 -0.8095  0.4652 -0.2260
 9491SOL     OW40108   0.406   1.002   6.674 -0.2449  0.0932  0.9948
 9491SOL    HW140109   0.342   0.931   6.674  1.1681 -1.1798  0.3026
 9491SOL    HW240110   0.492   0.959   6.673 -0.7906 -0.9088 -1.3433
 9492SOL     OW40111   2.911   3.861  16.984 -0.3521  0.3603  0.0707
 9492SOL    HW140112   2.816   3.852  16.974  0.0680 -0.6870 -2.9462
 9492SOL    HW240113   2.926   3.902  16.899  1.9210 -1.2620 -0.2969
 9493SOL     OW40114   3.671   1.042   5.554  0.2688  0.0513 -0.2409
 9493SOL    HW140115   3.612   1.066   5.625  0.3222  1.1966 -0.5763
 9493SOL    HW240116   3.602   1.031   5.489 -1.2692  1.8058  1.0937
 9494SOL     OW40117   1.285   2.608   2.449  0.3837 -0.7040 -0.2881
 9494SOL    HW140118   1.247   2.609   2.361 -0.2715 -0.3920 -0.0047
 9494SOL    HW240119   1.318   2.697   2.458 -1.4304  0.0290 -0.9218
 9495SOL     OW40120   1.565   0.727   6.045  0.2271 -0.4330 -0.3652
 9495SOL    HW140121   1.492   0.666   6.053  1.3333 -1.6475  0.6266
 9495SOL    HW240122   1.645   0.674   6.034 -1.1465 -2.6944  0.5833
 9496SOL     OW40123   2.000   0.166   5.047 -0.3665 -0.0704 -0.3385
 9496SOL    HW140124   1.947   0.217   5.107  0.1788  0.6659 -0.4844
 9496SOL    HW240125   1.978   0.206   4.963  0.1815 -1.1229 -0.9823
 9497SOL     OW40126   2.534   0.409   8.675  0.6017  0.3129  0.4362
 9497SOL    HW140127   2.564   0.358   8.751  0.0218 -0.2143  0.3039
 9497SOL    HW240128   2.500   0.340   8.618  2.2223 -0.6644  0.6593
 9498SOL     OW40129   4.531   0.548   8.187 -0.0919 -0.0494  0.0127
 9498SOL    HW140130   4.517   0.640   8.165 -0.2761  0.5935  2.7354
 9498SOL    HW240131   4.610   0.537   8.135 -1.4466  0.7728 -2.1946
 9499SOL     OW40132   3.858   4.635   7.188  0.0737  0.0775 -0.2478
 9499SOL    HW140133   3.833   4.700   7.253  0.0947 -1.1675  1.0138
 9499SOL    HW240134   3.853   4.565   7.253 -2.3463 -0.3130 -0.8374
 9500SOL     OW40135   2.571   2.149  15.635  0.4999 -0.2134  0.1888
 9500SOL    HW140136   2.647   2.154  15.577  1.0607 -0.8885  0.8648
 9500SOL    HW240137   2.502   2.146  15.569 -0.4352  2.4371  1.0295
 9501SOL     OW40138   0.500   1.589  16.119 -0.6444 -0.2891 -0.5950
 9501SOL    HW140139   0.466   1.666  16.073  1.0896  0.2954 -0.9340
 9501SOL    HW240140   0.586   1.618  16.151 -0.8718  1.9783 -2.0025
 9502SOL     OW40141   3.595   3.969  13.245  0.1460  0.0862  0.5061
 9502SOL    HW140142   3.560   3.964  13.334  0.6087 -1.9927  0.5761
 9502SOL    HW240143   3.688   3.969  13.267  0.2126 -0.1643  0.2325
 9503SOL     OW40144   3.662   2.412   6.954  0.2609 -0.1948  0.0636
 9503SOL    HW140145   3.757   2.397   6.956  0.1626 -0.2751  3.9859
 9503SOL    HW240146   3.639   2.412   7.047 -1.2686  0.6868 -0.3091
 9504SOL     OW40147   3.662   4.379   1.583  0.0676  0.2595 -0.2756
 9504SOL    HW140148   3.709   4.327   1.518 -1.3181  0.8861 -1.7964
 9504SOL    HW240149   3.730   4.437   1.617  0.4771 -0.0182 -0.6226
 9505SOL     OW40150   4.188   0.672   6.921 -0.0554 -0.2474  0.2257
 9505SOL    HW140151   4.175   0.662   6.826  0.9443 -0.0790  0.0728
 9505SOL    HW240152   4.226   0.759   6.924  0.0584 -0.2840 -0.0673
 9506SOL     OW40153   0.231   4.110   2.706 -0.0498  0.4332 -0.0532
 9506SOL    HW140154   0.207   4.096   2.614  0.0605 -0.8225  0.1121
 9506SOL    HW240155   0.178   4.188   2.718 -1.8998 -1.0045  1.0985
 9507SOL     OW40156   1.719   3.580  16.370  0.1360 -0.4961  0.4658
 9507SOL    HW140157   1.672   3.514  16.320 -0.3345 -1.8483  2.6998
 9507SOL    HW240158   1.649   3.644  16.380 -0.5657 -0.8792 -1.8907
 9508SOL     OW40159   2.745   3.113   4.603  0.2763  0.5697  0.3891
 9508SOL    HW140160   2.784   3.055   4.669 -2.6987 -3.0089 -1.0253
 9508SOL    HW240161   2.792   3.091   4.523  1.0783  0.7258  0.8198
 9509SOL     OW40162   1.076   2.581   2.793 -0.0633  0.3909 -0.0102
 9509SOL    HW140163   1.011   2.631   2.842 -2.3385  0.9827 -3.5775
 9509SOL    HW240164   1.154   2.625   2.827 -0.0163 -0.8174  1.4382
 9510SOL     OW40165   0.695   1.854   2.234  0.2371  0.5002  0.4919
 9510SOL    HW140166   0.744   1.900   2.302  1.8565  0.7300 -0.8344
 9510SOL    HW240167   0.605   1.864   2.267  0.5816 -0.2068  1.6686
 9511SOL     OW40168   3.712   4.234   7.244 -0.1437 -0.1983  0.1674
 9511SOL    HW140169   3.685   4.251   7.153 -1.4821 -1.1116  0.3811
 9511SOL    HW240170   3.650   4.164   7.263 -1.5807  0.4919 -1.8996
 9512SOL     OW40171   2.341   4.556  13.534  0.1525  0.4266 -0.8553
 9512SOL    HW140172   2.291   4.544  13.454  0.6723  0.0611 -1.1218
 9512SOL    HW240173   2.392   4.477  13.548  0.0616  0.8313  1.7570
 9513SOL     OW40174   2.322   0.877   2.754  0.7365 -0.2060  0.5130
 9513SOL    HW140175   2.330   0.969   2.782  2.1150  0.0652 -0.7689
 9513SOL    HW240176   2.391   0.866   2.688 -3.4449 -0.2005 -3.8134
 9514SOL     OW40177   3.279   3.139   4.949  0.2624 -0.7338 -0.3364
 9514SOL    HW140178   3.297   3.091   4.869 -2.8794 -0.0496 -1.4533
 9514SOL    HW240179   3.271   3.231   4.924  1.4489 -0.4318  0.3771
 9515SOL     OW40180   3.667   0.930  13.314  0.0407  0.1181 -0.2642
 9515SOL    HW140181   3.757   0.905  13.295 -0.2908 -0.7198 -0.7503
 9515SOL    HW240182   3.656   0.946  13.408  2.8081  0.8513 -0.0734
 9516SOL     OW40183   2.936   0.228  11.523 -0.3165 -0.2446 -0.2112
 9516SOL    HW140184   2.992   0.297  11.561 -1.8077  1.2278 -0.7065
 9516SOL    HW240185   2.904   0.272  11.445 -1.4419 -0.3430  0.1963
 9517SOL     OW40186   4.147   0.176   5.197  0.2319 -0.1073 -0.3894
 9517SOL    HW140187   4.057   0.210   5.189  1.5885  3.3725 -0.9176
 9517SOL    HW240188   4.150   0.161   5.102  0.1673 -1.4266 -0.1755
 9518SOL     OW40189   2.543   2.258  11.864  0.0814 -0.4427 -0.3245
 9518SOL    HW140190   2.475   2.243  11.798 -0.5247  1.2699 -0.1019
 9518SOL    HW240191   2.562   2.167  11.883  1.6871 -0.0121  0.1405
 9519SOL     OW40192   3.813   1.034   9.247  0.1003  0.6337  0.1288
 9519SOL    HW140193   3.784   0.943   9.247 -1.4068  1.1157  1.4846
 9519SOL    HW240194   3.882   1.037   9.313 -0.8774  0.6660  1.1581
 9520SOL     OW40195   3.997   0.393   6.288 -0.2479 -0.4019 -0.0199
 9520SOL    HW140196   3.985   0.316   6.344 -0.6023  0.1187  0.6243
 9520SOL    HW240197   3.990   0.362   6.198  0.1028 -0.0466 -0.1713
 9521SOL     OW40198   1.429   1.669   3.748 -0.8467 -0.2474 -0.9047
 9521SOL    HW140199   1.348   1.686   3.796  1.3419  0.9860  2.4259
 9521SOL    HW240200   1.465   1.758   3.741  1.1185 -1.2333 -3.5206
 9522SOL     OW40201   2.813   3.546   4.461 -0.0979  0.1135 -0.1186
 9522SOL    HW140202   2.731   3.514   4.498 -0.0925  0.8414  0.5258
 9522SOL    HW240203   2.872   3.472   4.445  1.0114  0.4635  2.3833
 9523SOL     OW40204   0.069   3.383   7.794 -0.1700  0.0777 -0.1245
 9523SOL    HW140205   4.720   3.389   7.760  0.2439 -0.3815 -1.3134
 9523SOL    HW240206   0.062   3.369   7.888 -0.2795  1.5936  0.0962
 9524SOL     OW40207   3.980   2.858   5.533 -0.8696  0.3876 -0.2487
 9524SOL    HW140208   3.904   2.869   5.589  0.2408 -0.1980  1.3654
 9524SOL    HW240209   4.020   2.784   5.579  1.3518  0.8320 -1.4411
 9525SOL     OW40210   1.360   0.515   1.991  0.5934 -0.0837 -0.4276
 9525SOL    HW140211   1.353   0.424   2.017  0.2435  0.0944  0.1033
 9525SOL    HW240212   1.382   0.567   2.068 -1.0646  1.3432 -0.9253
 9526SOL     OW40213   1.918   1.666   6.794  0.1087  0.0958 -0.8066
 9526SOL    HW140214   1.953   1.636   6.878 -0.7230  0.7532 -0.2297
 9526SOL    HW240215   1.829   1.634   6.805  0.3436 -0.5989 -0.8806
 9527SOL     OW40216   2.248   1.568   7.514 -0.0936 -0.1217  0.6729
 9527SOL    HW140217   2.287   1.541   7.431 -0.5277  0.3962  0.3039
 9527SOL    HW240218   2.263   1.487   7.563 -1.5727  0.2838  1.7907
 9528SOL     OW40219   0.126   4.615   1.361  0.0572 -0.1148 -0.0490
 9528SOL    HW140220   0.045   4.601   1.411 -0.0191 -0.6500 -0.3302
 9528SOL    HW240221   0.201   4.611   1.421 -0.3035  2.8497  0.6073
 9529SOL     OW40222   3.570   1.313  16.813  0.1468  0.2160 -0.4031
 9529SOL    HW140223   3.591   1.258  16.737 -0.3511 -1.7351  0.8581
 9529SOL    HW240224   3.656   1.323  16.853 -0.2188 -1.9487  0.9248
 9530SOL     OW40225   2.600   1.823  14.932  0.0799 -0.4974 -0.0960
 9530SOL    HW140226   2.617   1.775  15.013  1.3436 -0.3722 -0.2979
 9530SOL    HW240227   2.662   1.895  14.941 -0.1676 -0.4520  1.2283
 9531SOL     OW40228   0.202   0.009   2.702 -0.2563  0.3036 -0.4813
 9531SOL    HW140229   0.140   4.722   2.771  0.5877 -0.9722 -0.2323
 9531SOL    HW240230   0.159   4.705   2.628 -0.3683 -0.7642  0.2189
 9532SOL     OW40231   2.591   1.708  10.522 -0.5834  0.0450 -0.0474
 9532SOL    HW140232   2.614   1.681  10.433  1.5293 -1.3025  0.9186
 9532SOL    HW240233   2.500   1.681  10.537 -2.0880  4.2203 -1.5832
 9533SOL     OW40234   3.901   0.704   7.029  0.1745 -0.1252  0.1209
 9533SOL    HW140235   3.996   0.699   7.037  0.1758  0.6488  0.6876
 9533SOL    HW240236   3.882   0.791   7.064 -0.8604 -0.3452  0.1371
 9534SOL     OW40237   1.283   3.360   5.963  0.0007 -0.0131  0.0510
 9534SOL    HW140238   1.365   3.409   5.958 -0.0933 -0.1598 -2.9757
 9534SOL    HW240239   1.316   3.293   6.023  1.4654  1.9562  1.4542
 9535SOL     OW40240   3.375   1.548   5.504 -0.1533 -0.2810  0.1152
 9535SOL    HW140241   3.364   1.566   5.411  2.1130 -0.3781 -0.1776
 9535SOL    HW240242   3.301   1.499   5.539 -0.0940 -0.5741 -0.1651
 9536SOL     OW40243   2.670   0.190  10.737 -0.0262 -0.4752  0.4361
 9536SOL    HW140244   2.580   0.164  10.719 -1.0173  0.3294  4.0953
 9536SOL    HW240245   2.655   0.237  10.819 -0.8692  1.3962 -0.7753
 9537SOL     OW40246   2.238   2.274   4.611 -0.9478  0.9107 -0.1991
 9537SOL    HW140247   2.264   2.362   4.587  0.6270  0.5624  0.2549
 9537SOL    HW240248   2.145   2.278   4.636 -0.6831 -1.0667  1.1487
 9538SOL     OW40249   2.922   0.180   8.997 -0.2878  0.5374 -0.0716
 9538SOL    HW140250   2.990   0.239   8.964  0.2192 -0.4534 -0.8043
 9538SOL    HW240251   2.926   0.207   9.089  1.5175  2.3191 -0.6727
 9539SOL     OW40252   2.754   0.112  11.697  0.0459  0.1248 -0.4787
 9539SOL    HW140253   2.692   0.184  11.689 -0.0748  0.2340  1.5403
 9539SOL    HW240254   2.819   0.156  11.642 -1.6464 -1.7043 -3.9917
 9540SOL     OW40255   3.816   2.299   4.940  0.1189 -0.0473 -0.0176
 9540SOL    HW140256   3.796   2.391   4.952  0.6973  0.2340 -1.1387
 9540SOL    HW240257   3.764   2.261   5.010  0.3632  0.5830  0.4997
 9541SOL     OW40258   4.483   0.287   4.997 -0.2463  0.4648  0.4543
 9541SOL    HW140259   4.538   0.265   5.072 -0.7487 -1.4327  0.2637
 9541SOL    HW240260   4.484   0.205   4.948  0.7494  0.6980  0.0830
 9542SOL     OW40261   0.125   0.765   4.108  0.5121  0.3067  0.5429
 9542SOL    HW140262   0.103   0.675   4.082  0.0139  0.4981  0.3038
 9542SOL    HW240263   0.215   0.757   4.140  1.0563  0.9494 -0.8120
 9543SOL     OW40264   0.054   1.440   8.286  0.3221 -0.0893  0.0522
 9543SOL    HW140265   0.053   1.499   8.361  1.2763  1.0166 -0.8133
 9543SOL    HW240266   4.718   1.384   8.304 -0.6191  0.7935 -1.1519
 9544SOL     OW40267   2.552   0.519   4.842  0.0482 -0.0329 -0.2188
 9544SOL    HW140268   2.480   0.529   4.781  0.2657 -0.2297 -0.5078
 9544SOL    HW240269   2.618   0.585   4.819  0.1057 -1.1699 -3.3056
 9545SOL     OW40270   1.205   2.779   2.974 -0.4948 -0.3253 -0.1539
 9545SOL    HW140271   1.274   2.845   2.961  1.5102 -2.5276 -0.8491
 9545SOL    HW240272   1.153   2.833   3.033  0.3320 -0.9039  1.0921
 9546SOL     OW40273   3.787   4.482   5.497  0.5353  0.8168 -0.1551
 9546SOL    HW140274   3.842   4.544   5.449  1.2036  0.8912  0.7003
 9546SOL    HW240275   3.846   4.456   5.567  0.0427  0.1332  0.0041
 9547SOL     OW40276   2.485   1.681  11.042 -0.4734 -0.0482  0.0556
 9547SOL    HW140277   2.493   1.686  11.137  0.4474 -0.1425 -0.0186
 9547SOL    HW240278   2.454   1.765  11.008 -0.9911 -0.0147  0.6083
 9548SOL     OW40279   3.285   1.469   8.642 -0.5587  0.1497  0.4861
 9548SOL    HW140280   3.196   1.435   8.630 -0.2528 -0.5027  0.1070
 9548SOL    HW240281   3.266   1.546   8.696 -2.7797  0.2257 -0.3869
 9549SOL     OW40282   3.016   0.311   5.388  0.1143  0.0203 -0.0703
 9549SOL    HW140283   2.996   0.278   5.476 -0.7976  2.7395  0.7637
 9549SOL    HW240284   2.938   0.281   5.341 -0.5592  2.3533 -0.4745
 9550SOL     OW40285   0.141   4.683   7.074 -0.1610  0.0349 -0.2139
 9550SOL    HW140286   0.164   4.703   7.165 -1.6183  0.5352  0.0348
 9550SOL    HW240287   0.066   0.002   7.070 -0.3659 -0.2230 -0.1649
 9551SOL     OW40288   2.229   2.946   4.840  0.1340  0.2445 -0.1126
 9551SOL    HW140289   2.239   2.864   4.792 -0.4250  0.2077 -0.1672
 9551SOL    HW240290   2.320   2.957   4.866 -0.3144  1.8835  0.7838
 9552SOL     OW40291   0.978   4.369   6.358 -0.6977 -0.7119  0.2302
 9552SOL    HW140292   0.965   4.406   6.445  0.7541 -1.3955  0.7309
 9552SOL    HW240293   1.050   4.422   6.325 -0.9225 -0.6825 -0.2196
 9553SOL     OW40294   1.600   1.133   3.886 -0.1870  0.1852 -0.0432
 9553SOL    HW140295   1.522   1.144   3.831  1.6297  0.8968 -2.4775
 9553SOL    HW240296   1.578   1.173   3.970  0.2672  0.0718  0.1322
 9554SOL     OW40297   0.898   3.099   8.288 -0.1197 -0.0301 -0.2727
 9554SOL    HW140298   0.976   3.066   8.244  0.4045  1.0109 -0.1201
 9554SOL    HW240299   0.869   3.019   8.333 -1.3710 -0.1818 -1.3432
 9555SOL     OW40300   0.193   4.035   1.733  0.1590  0.2386 -0.0529
 9555SOL    HW140301   0.247   4.112   1.748  1.5284 -0.4156 -1.6223
 9555SOL    HW240302   0.218   4.003   1.647 -1.4757 -1.5563  0.1378
 9556SOL     OW40303   0.155   0.886  11.128 -0.6050  0.0527  0.1097
 9556SOL    HW140304   0.123   0.797  11.116  2.3525 -1.3171  2.3219
 9556SOL    HW240305   0.247   0.872  11.104 -0.7169  1.2940 -1.0580
 9557SOL     OW40306   2.521   0.542   2.107  0.3221 -0.6543 -0.4178
 9557SOL    HW140307   2.587   0.610   2.116  0.8044 -1.7145  3.6779
 9557SOL    HW240308   2.492   0.527   2.197 -0.0287 -0.8388 -0.5597
 9558SOL     OW40309   3.276   1.380   4.658  0.0050  0.1480 -0.3010
 9558SOL    HW140310   3.275   1.369   4.563 -1.1361  0.0315 -0.2762
 9558SOL    HW240311   3.263   1.290   4.689  0.8206  0.2996  0.4743
 9559SOL     OW40312   1.122   0.655   6.610 -0.0912  0.4873 -0.0006
 9559SOL    HW140313   1.084   0.667   6.697  0.8696 -0.7102  0.5882
 9559SOL    HW240314   1.071   0.581   6.578 -0.5710  0.0922  1.7073
 9560SOL     OW40315   1.346   4.049  16.747 -0.1667  0.1487 -0.1907
 9560SOL    HW140316   1.360   3.985  16.817  0.6694  3.0606  2.3075
 9560SOL    HW240317   1.305   3.985  16.689 -0.2875  0.8832 -0.9156
 9561SOL     OW40318   3.234   2.300   8.634  0.2966  0.7184  0.4362
 9561SOL    HW140319   3.215   2.330   8.723 -0.6160 -0.1718  0.5457
 9561SOL    HW240320   3.271   2.378   8.594  0.2267  1.6742  2.2295
 9562SOL     OW40321   4.364   4.203  12.064 -0.0609 -0.2580 -0.3770
 9562SOL    HW140322   4.392   4.275  12.007  0.6400  0.5645  0.9824
 9562SOL    HW240323   4.403   4.136  12.009  1.0200  0.5963 -0.6707
 9563SOL     OW40324   2.032   0.672   3.769  0.2072 -0.2016 -0.4050
 9563SOL    HW140325   1.993   0.685   3.855 -1.6071  0.7868 -1.3805
 9563SOL    HW240326   2.116   0.712   3.790  0.0781  0.5990 -1.3948
 9564SOL     OW40327   1.601   2.320   9.014 -0.7723 -0.0279  0.3262
 9564SOL    HW140328   1.652   2.245   8.984 -2.1849 -1.8313  2.4862
 9564SOL    HW240329   1.510   2.310   8.987 -0.7109  1.5421 -0.4714
 9565SOL     OW40330   0.219   1.909   1.162 -0.3918  0.0332 -0.1197
 9565SOL    HW140331   0.249   1.971   1.229  0.3283  0.8767 -1.2236
 9565SOL    HW240332   0.224   1.958   1.079 -0.0937 -0.1722 -0.2225
 9566SOL     OW40333   4.370   3.927   2.085 -0.1903 -0.5992 -0.5365
 9566SOL    HW140334   4.389   4.012   2.125 -3.2773  0.5621 -1.5270
 9566SOL    HW240335   4.448   3.900   2.038  0.4584  1.7674 -0.8155
 9567SOL     OW40336   0.942   4.422   5.447  0.0931  0.9687 -0.0714
 9567SOL    HW140337   1.012   4.476   5.412  0.5393  0.6540  0.3325
 9567SOL    HW240338   0.988   4.351   5.494 -2.2844 -0.1356  0.5971
 9568SOL     OW40339   3.321   3.098   4.209  0.3146  0.1231  0.2598
 9568SOL    HW140340   3.325   3.077   4.302  0.0304  0.4808  0.3530
 9568SOL    HW240341   3.226   3.109   4.203  0.1952 -0.8423  0.3830
 9569SOL     OW40342   3.640   1.455   6.250  0.2742 -0.1933  0.0306
 9569SOL    HW140343   3.733   1.446   6.231  0.3669  1.8284 -0.4844
 9569SOL    HW240344   3.642   1.501   6.334 -0.8613  0.6186 -0.3847
   4.73981   4.73981  17.75689
