Membrane in water
40344
    1TMC1    C1    1   2.543   0.368  11.412  0.2037  0.7847 -1.3075
    1TMC1    C2    2   2.437   0.439  11.349 -0.3817  0.5390  0.6197
    1TMC1    C3    3   2.466   0.549  11.273 -0.3710 -0.7026 -0.3634
    1TMC1    C4    4   2.672   0.403  11.393  0.6787  0.2558  0.2319
    1TMC1    C5    5   2.697   0.511  11.313 -0.2837  0.2227 -0.3510
    1TMC1    C6    6   2.601   0.581  11.246 -0.3436  0.8587  0.2747
    1TMC1     C    7   2.500   0.251  11.485  0.1990 -0.4755  1.1266
    1TMC1     O    8   2.382   0.258  11.513  0.7674 -0.3944 -0.1449
    1TMC1     H    9   2.335   0.405  11.350 -0.0160 -0.6409 -0.9076
    1TMC1    H1   10   2.752   0.366  11.456 -0.4355  1.8475  2.5887
    1TMC1    H2   11   2.636   0.649  11.169  2.4260 -0.1813  0.6136
    1TMC1    C7   12   2.828   0.517  11.259  0.1698 -0.3434  0.0489
    1TMC1    C8   13   2.367   0.573  11.173 -0.7105 -0.3293  0.3968
    1TMC1    O1   14   2.870   0.620  11.211 -0.6144 -0.1152 -0.0690
    1TMC1    O2   15   2.289   0.485  11.146  0.1876 -0.2857 -0.8823
    1TMC1    O3   16   2.882   0.396  11.254  0.0805  0.0635  0.3361
    1TMC1    H3   17   2.838   0.322  11.301  3.3605 -1.7581  0.5709
    1TMC1    O5   18   2.415   0.663  11.084 -0.2874  0.0795  0.6017
    1TMC1    H5   19   2.466   0.731  11.133 -0.2822  0.0053  0.6970
    2MPD2     C   20   2.604   4.646  11.836 -0.3793 -0.1920  0.2109
    2MPD2    C1   21   2.478   4.681  11.796 -0.8071  0.4854 -0.3144
    2MPD2    C2   22   2.468   0.040  11.695 -0.0923  0.1830  0.0785
    2MPD2    C3   23   2.586   0.074  11.622 -0.0570  0.2001  0.4993
    2MPD2    C4   24   2.710   0.016  11.656  0.9246  0.6325  0.4989
    2MPD2    C5   25   2.712   4.675  11.763 -0.5082 -0.4411  0.2154
    2MPD2     H   26   2.374   0.080  11.658 -1.5022 -0.6468  2.7483
    2MPD2    H1   27   2.803   0.035  11.604  1.3584  2.8369  2.0772
    2MPD2    H2   28   2.618   4.574  11.915 -0.4306 -0.0764  0.3263
    2MPD2    H3   29   2.807   4.629  11.788 -0.4091  0.5257  1.6577
    2MPD2     N   30   2.601   0.168  11.522  0.8176 -0.0612  0.3177
    2MPD2    H5   31   2.688   0.184  11.474  0.3119  1.2843 -0.1485
    2MPD2    N1   32   2.357   4.640  11.858  0.6463 -0.4313 -0.2738
    2MPD2    H7   33   2.272   4.682  11.822  1.7250  0.7154 -1.4902
    3TMC1    C1   34   1.251   1.167  10.180 -0.4869 -0.0924 -0.1267
    3TMC1    C2   35   1.345   1.254  10.228  0.1385  0.2593  0.0480
    3TMC1    C3   36   1.472   1.251  10.174 -0.5339 -0.4156  0.0999
    3TMC1    C4   37   1.279   1.076  10.082  0.1556  0.1427  0.7336
    3TMC1    C5   38   1.408   1.079  10.030  0.2805  0.2666  0.7100
    3TMC1    C6   39   1.504   1.170  10.071 -0.1217  0.1591 -0.0172
    3TMC1     C   40   1.111   1.170  10.226  0.6582 -0.0151 -0.5648
    3TMC1     O   41   1.031   1.102  10.165  0.3948  0.6280 -0.2485
    3TMC1     H   42   1.317   1.321  10.309  1.1117  0.6988  0.0206
    3TMC1    H1   43   1.206   1.009  10.037  0.2053  0.4227  0.2329
    3TMC1    H2   44   1.603   1.177  10.029 -0.1418  0.3893 -0.0253
    3TMC1    C7   45   1.424   1.020   9.902  0.3813  0.0163 -0.2611
    3TMC1    C8   46   1.588   1.309  10.233  0.2252  0.0202 -0.3376
    3TMC1    O1   47   1.336   1.017   9.815  0.1980 -0.2767  0.1587
    3TMC1    O2   48   1.679   1.344  10.162 -0.3915 -0.2838 -0.7477
    3TMC1    O3   49   1.562   1.017   9.882  0.1050 -0.1998  0.4471
    3TMC1    H3   50   1.616   1.020   9.964  0.8803 -1.1297 -0.0276
    3TMC1    O5   51   1.566   1.333  10.365 -0.3141  0.4184  0.1684
    3TMC1    H5   52   1.483   1.301  10.406 -0.2250  0.6717  0.5480
    4MPD2     C   53   0.746   1.335  10.536  0.0366  0.4029 -0.0339
    4MPD2    C1   54   0.853   1.427  10.538 -0.3678 -0.3291  0.4711
    4MPD2    C2   55   0.963   1.399  10.460 -0.5166 -0.3982 -0.1535
    4MPD2    C3   56   0.973   1.279  10.394 -0.2637  0.0719  0.2342
    4MPD2    C4   57   0.878   1.182  10.402  0.5947  0.2306 -0.7166
    4MPD2    C5   58   0.765   1.215  10.476 -0.1827  0.4570 -0.7806
    4MPD2     H   59   1.045   1.469  10.455 -1.6668  0.8632 -1.4305
    4MPD2    H1   60   0.883   1.086  10.353 -0.2340  0.7695 -1.8471
    4MPD2    H2   61   0.655   1.350  10.594  0.7373  1.6583  0.7433
    4MPD2    H3   62   0.680   1.151  10.496 -0.1747  0.9447  0.8224
    4MPD2     N   63   1.084   1.271  10.310 -0.5289  0.2169 -0.0007
    4MPD2    H5   64   1.148   1.349  10.300  0.7350 -0.5356  2.3374
    4MPD2    N1   65   0.850   1.555  10.604  0.1948 -0.2406  0.1083
    4MPD2    H7   66   0.933   1.613  10.600 -0.0130  0.2943  3.5108
    5TCq1    O1   67   1.777   2.579  11.917 -0.0994 -0.3123  0.3256
    5TCq1    C1   68   1.837   2.604  11.796 -0.3745  0.3489 -0.3540
    5TCq1    O2   69   1.943   2.663  11.787  0.1571  0.3822  0.0245
    5TCq1    C2   70   1.734   2.630  11.695  0.5454 -0.0697  0.3044
    5TCq1    C3   71   1.604   2.654  11.731  0.2439  0.1963 -0.1329
    5TCq1    C4   72   1.510   2.651  11.634  0.3497  0.0034  0.2476
    5TCq1    C5   73   1.541   2.663  11.505  0.7907 -0.1700 -0.7637
    5TCq1    C6   74   1.673   2.658  11.468  0.0821  0.2472  1.0393
    5TCq1    C7   75   1.767   2.650  11.562 -0.3479  0.4641  0.3561
    5TCq1    C8   76   1.704   2.688  11.327  0.4988 -0.9181  0.1447
    5TCq1    O4   77   1.820   2.667  11.287 -0.9038  0.8855  0.3545
    5TCq1    C9   78   1.368   2.628  11.666  0.4819 -0.3590 -0.5136
    5TCq1    O5   79   1.284   2.632  11.571 -0.4601 -0.0612 -0.1669
    5TCq1    O6   80   1.346   2.613  11.795  0.5536  0.5038 -0.2455
    5TCq1    H1   81   1.684   2.547  11.923 -0.0562 -0.7023 -0.9854
    5TCq1    H2   82   1.568   2.651  11.833  1.3733  0.2931  0.2717
    5TCq1    H3   83   1.458   2.651  11.437  0.5258 -1.4236 -0.2370
    5TCq1    H4   84   1.869   2.638  11.529 -0.4247  0.4711  0.1211
    6MPD2     C   85   1.493   2.877  11.083 -0.0212  0.0224 -0.7560
    6MPD2    C1   86   1.599   2.802  11.126 -0.4810  0.2759  0.7115
    6MPD2    C2   87   1.711   2.790  11.038  0.5700 -0.3565  0.6874
    6MPD2    C3   88   1.699   2.824  10.912  0.4256  0.6229  0.2800
    6MPD2    C4   89   1.584   2.892  10.863 -0.2124 -0.4824 -0.5387
    6MPD2    C5   90   1.486   2.917  10.952  0.2543 -0.3615  0.3891
    6MPD2     H   91   1.796   2.730  11.071 -0.3504 -3.1610 -1.9805
    6MPD2    H1   92   1.563   2.914  10.759 -1.2508  2.1940  0.2422
    6MPD2    H2   93   1.407   2.892  11.147 -0.3803  0.4704 -1.3379
    6MPD2    H3   94   1.390   2.947  10.912  1.3898  2.2206 -0.4070
    6MPD2     N   95   1.790   2.773  10.819  0.0363 -0.3637 -0.5387
    6MPD2    H5   96   1.854   2.701  10.850  0.2888 -0.4711 -1.3136
    6MPD2    N1   97   1.602   2.757  11.262 -0.0206 -0.0119  0.3448
    6MPD2    H7   98   1.520   2.775  11.319 -0.1489 -0.6158  0.3567
    7TCq1    O1   99   3.669   2.534  14.058 -0.2623 -0.4101  0.5112
    7TCq1    C1  100   3.646   2.405  14.046 -0.3405 -0.9325 -1.0355
    7TCq1    O2  101   3.725   2.320  14.092  0.9261 -0.5824 -0.9257
    7TCq1    C2  102   3.568   2.383  13.929 -0.4377  0.1553 -0.0130
    7TCq1    C3  103   3.483   2.480  13.898  0.1535  0.4239 -0.5389
    7TCq1    C4  104   3.435   2.484  13.770 -0.4834  0.6954 -0.9961
    7TCq1    C5  105   3.466   2.387  13.683 -0.4243  0.4559  0.3044
    7TCq1    C6  106   3.540   2.280  13.722  0.5063 -0.2732  0.1971
    7TCq1    C7  107   3.602   2.292  13.840  0.6615  0.1783 -0.3736
    7TCq1    C8  108   3.509   2.152  13.671  0.6958  0.3753  0.1423
    7TCq1    O4  109   3.584   2.065  13.712 -0.4679 -0.8445 -0.0063
    7TCq1    C9  110   3.318   2.572  13.740  0.3288  0.0852  0.9481
    7TCq1    O5  111   3.271   2.637  13.834  0.1949  0.4076 -0.4611
    7TCq1    O6  112   3.293   2.592  13.624  0.2065 -0.7241 -0.3652
    7TCq1    H1  113   3.606   2.579  13.998  0.0482 -0.5107  0.1142
    7TCq1    H2  114   3.441   2.552  13.967 -0.6939 -0.9096  0.3315
    7TCq1    H3  115   3.412   2.393  13.589 -1.9996 -1.8693  1.0562
    7TCq1    H4  116   3.686   2.228  13.865  1.9542  3.1018  2.7727
    8MPD2     C  117   3.266   1.836  13.324 -0.6540 -0.0839 -0.1731
    8MPD2    C1  118   3.375   1.820  13.404  0.0061 -0.2511  0.4707
    8MPD2    C2  119   3.405   1.907  13.506 -0.4070 -0.5085  0.3998
    8MPD2    C3  120   3.340   2.025  13.522  0.1954 -0.5408 -0.1190
    8MPD2    C4  121   3.221   2.046  13.441  0.4710  0.1466 -0.1710
    8MPD2    C5  122   3.177   1.942  13.360 -0.8815  0.7022  0.5825
    8MPD2     H  123   3.491   1.895  13.572 -2.4148 -0.4984  2.9936
    8MPD2    H1  124   3.155   2.132  13.451  0.0849 -0.3128  1.2276
    8MPD2    H2  125   3.241   1.761  13.250 -0.0534  0.6667 -1.1308
    8MPD2    H3  126   3.089   1.956  13.298 -1.3441 -0.9712  0.8662
    8MPD2     N  127   3.389   2.137  13.604  0.7690  0.7218 -0.8310
    8MPD2    H5  128   3.328   2.217  13.598  0.1586  0.2287 -1.1960
    8MPD2    N1  129   3.453   1.700  13.382 -0.2609  0.0571  0.0600
    8MPD2    H7  130   3.409   1.628  13.325  1.5975 -2.1348  1.3745
    9TMC1    C1  131   1.231   1.294  11.155 -0.5580 -0.5077  0.6714
    9TMC1    C2  132   1.171   1.382  11.066 -0.2828 -0.6410  0.0746
    9TMC1    C3  133   1.253   1.439  10.980 -0.5918  0.1800  1.1962
    9TMC1    C4  134   1.361   1.248  11.150 -0.1299 -0.0662  0.8070
    9TMC1    C5  135   1.435   1.303  11.056 -0.1279 -0.2290  0.0156
    9TMC1    C6  136   1.384   1.398  10.972  0.2419  0.1092 -0.5366
    9TMC1     C  137   1.142   1.225  11.244  0.0046  0.2134 -1.0847
    9TMC1     O  138   1.026   1.267  11.248 -0.0659 -0.4327 -0.2310
    9TMC1     H  139   1.071   1.423  11.070 -0.3201 -0.9275  1.8392
    9TMC1    H1  140   1.406   1.164  11.201  1.7021 -0.6266 -1.7184
    9TMC1    H2  141   1.435   1.428  10.881 -1.5433 -1.2593 -1.9870
    9TMC1    C7  142   1.560   1.240  11.027 -0.4135  0.4782  0.2172
    9TMC1    C8  143   1.193   1.523  10.880 -0.4054  0.2207  0.0016
    9TMC1    O1  144   1.621   1.188  11.122 -0.0158  0.2421  0.7113
    9TMC1    O2  145   1.101   1.598  10.911 -0.3220  0.3119 -0.1558
    9TMC1    O3  146   1.537   1.175  10.907  0.8379 -0.4965  0.2657
    9TMC1    H3  147   1.463   1.205  10.851  1.0643 -0.1536  0.1457
    9TMC1    O5  148   1.216   1.473  10.758  0.4824 -0.2334 -0.1037
    9TMC1    H5  149   1.287   1.405  10.757 -1.8447 -2.6439 -1.0523
   10MPD2     C  150   1.014   1.068  11.463  0.5562  0.4712  0.5174
   10MPD2    C1  151   1.140   1.047  11.420 -0.6325 -0.0916 -0.5076
   10MPD2    C2  152   1.206   0.944  11.483 -0.6711 -0.3877  0.2792
   10MPD2    C3  153   1.162   0.877  11.590  0.0015  0.4004 -0.5089
   10MPD2    C4  154   1.040   0.915  11.639 -0.5880  0.1419 -0.0985
   10MPD2    C5  155   0.961   1.007  11.577  0.4199 -0.4478 -0.4472
   10MPD2     H  156   1.303   0.927  11.439  0.1770  0.8727  1.6582
   10MPD2    H1  157   1.000   0.867  11.727 -1.3456 -0.4479 -0.7576
   10MPD2    H2  158   0.942   1.140  11.426  1.5510 -0.0396 -2.4231
   10MPD2    H3  159   0.861   1.021  11.616 -0.0437 -2.5970 -0.8533
   10MPD2     N  160   1.246   0.782  11.657  0.1191 -0.2106 -0.2054
   10MPD2    H5  161   1.212   0.731  11.739  1.2142 -0.0211  0.3656
   10MPD2    N1  162   1.202   1.126  11.318 -0.4502  0.3475 -0.5172
   10MPD2    H7  163   1.297   1.107  11.286 -0.3081  0.6304 -0.2531
   11TCq1    O1  164   2.733   0.445  13.732 -0.4528  0.2203 -0.0400
   11TCq1    C1  165   2.672   0.422  13.847 -0.8055 -0.7149 -0.2147
   11TCq1    O2  166   2.599   0.322  13.860 -0.2455  0.0168 -0.1356
   11TCq1    C2  167   2.601   0.549  13.878 -0.1617 -0.9095  0.8213
   11TCq1    C3  168   2.681   0.613  13.968 -0.1728  0.7157 -0.1797
   11TCq1    C4  169   2.616   0.684  14.068  0.0603 -0.0305  0.1843
   11TCq1    C5  170   2.482   0.654  14.091  0.8817 -0.4145  0.5210
   11TCq1    C6  171   2.406   0.591  13.998 -0.2258  0.3098  0.9298
   11TCq1    C7  172   2.466   0.525  13.887 -0.0192 -0.2274 -0.1457
   11TCq1    C8  173   2.290   0.521  14.050  0.2207 -0.0701 -0.0460
   11TCq1    O4  174   2.232   0.577  14.140  0.5392 -0.0203  0.3724
   11TCq1    C9  175   2.690   0.761  14.165 -0.4537  0.3993  0.2535
   11TCq1    O5  176   2.656   0.737  14.285  0.2456  0.6355  0.0532
   11TCq1    O6  177   2.804   0.787  14.124  0.5904 -0.0349  0.6844
   11TCq1    H1  178   2.786   0.528  13.735  0.7483 -0.4840 -1.3185
   11TCq1    H2  179   2.787   0.619  13.947 -0.0119 -3.4969 -0.7263
   11TCq1    H3  180   2.430   0.696  14.176  0.1093 -2.9890  1.3108
   11TCq1    H4  181   2.409   0.474  13.809  1.5502 -3.7173  1.0051
   12MPD2     C  182   2.101   0.303  14.126  0.2678 -0.0411  0.3810
   12MPD2    C1  183   2.204   0.287  14.034  0.3033 -0.2678  0.0577
   12MPD2    C2  184   2.206   0.169  13.967  0.2629 -0.1726 -0.4194
   12MPD2    C3  185   2.124   0.059  13.994 -0.9523 -0.0776 -0.3891
   12MPD2    C4  186   2.043   0.073  14.107 -0.2812  0.0013  0.0518
   12MPD2    C5  187   2.037   0.193  14.168 -0.1832 -0.1063 -0.1289
   12MPD2     H  188   2.279   0.158  13.887 -0.5047 -0.8671 -1.0194
   12MPD2    H1  189   1.997   4.721  14.150 -0.8295  0.1616 -0.2012
   12MPD2    H2  190   2.071   0.401  14.159  0.3874 -0.4131  1.5833
   12MPD2    H3  191   1.963   0.203  14.247  0.1927 -0.4411  0.2585
   12MPD2     N  192   2.126   4.671  13.933  0.1878 -0.8098  0.7994
   12MPD2    H5  193   2.073   4.597  13.979 -1.5941  1.6297  2.6801
   12MPD2    N1  194   2.286   0.393  13.994  0.1420 -0.7050 -0.2092
   12MPD2    H7  195   2.366   0.362  13.939 -0.0874  1.6771 -1.8912
   13TCq1    O1  196   1.351   0.817  10.330 -0.3253  0.0958 -0.0065
   13TCq1    C1  197   1.218   0.850  10.330 -0.3781  0.8008 -0.1985
   13TCq1    O2  198   1.129   0.779  10.284 -0.4337  0.0979  0.1846
   13TCq1    C2  199   1.190   0.927  10.451  0.0758  0.0915  0.8276
   13TCq1    C3  200   1.273   1.023  10.494 -0.3620  0.3799  0.1803
   13TCq1    C4  201   1.243   1.104  10.601  0.2923  0.2632 -0.0576
   13TCq1    C5  202   1.131   1.089  10.670  0.6330 -0.2264  0.6085
   13TCq1    C6  203   1.044   0.989  10.623 -0.3404 -0.3584  0.0350
   13TCq1    C7  204   1.068   0.914  10.509 -0.8092 -0.0212  0.9276
   13TCq1    C8  205   0.915   0.957  10.684  0.3358  0.0467  0.6049
   13TCq1    O4  206   0.836   0.877  10.630 -0.0708  0.3055 -0.0560
   13TCq1    C9  207   1.324   1.217  10.623  0.5599  0.4171  0.4858
   13TCq1    O5  208   1.347   1.245  10.744  0.2985 -0.1353  0.5397
   13TCq1    O6  209   1.382   1.263  10.525 -0.3093 -0.3308 -0.1416
   13TCq1    H1  210   1.395   0.860  10.406  1.6033 -0.6654 -0.6709
   13TCq1    H2  211   1.365   1.048  10.443 -0.5986 -3.4456 -2.0769
   13TCq1    H3  212   1.119   1.151  10.758  0.2883 -0.8000  0.9712
   13TCq1    H4  213   0.993   0.850  10.465  2.0748 -1.5888 -1.7544
   14MPD2     C  214   0.747   0.855  10.916 -0.0897  0.1923 -0.5120
   14MPD2    C1  215   0.822   0.976  10.917  0.3743  0.0300  0.4054
   14MPD2    C2  216   0.809   1.055  11.024 -0.0614  0.0883 -0.6579
   14MPD2    C3  217   0.727   1.022  11.129  0.4387 -0.2701 -0.0609
   14MPD2    C4  218   0.654   0.901  11.129  0.5646 -0.1013  0.0411
   14MPD2    C5  219   0.663   0.824  11.016  0.8248 -0.3737  0.3447
   14MPD2     H  220   0.860   1.151  11.014 -0.6936  0.5440  0.4704
   14MPD2    H1  221   0.604   0.852  11.212  1.0586  0.0332  0.4182
   14MPD2    H2  222   0.753   0.796  10.825 -0.2278  0.8255 -0.9278
   14MPD2    H3  223   0.611   0.729  11.006  0.6880 -0.3044  0.4034
   14MPD2     N  224   0.704   1.120  11.226  0.1891 -0.1282  0.1129
   14MPD2    H5  225   0.751   1.210  11.215 -0.2652 -0.0810 -1.4070
   14MPD2    N1  226   0.903   1.015  10.805  0.1157 -0.2090  0.1176
   14MPD2    H7  227   0.958   1.098  10.822  0.4263 -0.0603 -1.6303
   15TCq1    O1  228   4.082   4.481   1.878 -0.5867 -0.2429  0.2013
   15TCq1    C1  229   3.972   4.529   1.946  0.0863 -0.4620  0.2352
   15TCq1    O2  230   3.973   4.577   2.057 -0.3808 -0.0638 -0.4246
   15TCq1    C2  231   3.887   4.577   1.832 -0.3754 -0.0812 -0.8710
   15TCq1    C3  232   3.783   4.662   1.868 -0.3704 -0.9039 -0.1788
   15TCq1    C4  233   3.689   4.692   1.766  0.1538  0.4264  0.0978
   15TCq1    C5  234   3.692   4.642   1.640 -0.3137 -0.0019  0.4280
   15TCq1    C6  235   3.797   4.554   1.617 -0.3991  0.8748  0.6823
   15TCq1    C7  236   3.896   4.525   1.707 -0.9009  0.5425  0.3973
   15TCq1    C8  237   3.808   4.486   1.484 -0.6854 -0.3997  0.4365
   15TCq1    O4  238   3.903   4.414   1.472 -0.4764 -0.6210  0.0029
   15TCq1    C9  239   3.573   0.040   1.795 -0.3444  0.0847  0.6539
   15TCq1    O5  240   3.494   0.073   1.700  0.1875 -0.6610  0.2561
   15TCq1    O6  241   3.577   0.100   1.906 -0.5421 -0.0223 -0.0038
   15TCq1    H1  242   4.076   4.491   1.781 -1.4270 -0.3848  0.2331
   15TCq1    H2  243   3.778   4.705   1.967  1.0733  3.9414 -2.1647
   15TCq1    H3  244   3.624   4.678   1.564  0.7445 -1.1904 -1.0696
   15TCq1    H4  245   3.962   4.442   1.685  0.1307  0.8414  2.3513
   16MPD2     C  246   3.586   4.470   1.197 -0.4887  0.2847 -0.0567
   16MPD2    C1  247   3.687   4.423   1.279  0.3963 -0.1534  0.4418
   16MPD2    C2  248   3.766   4.312   1.248  0.4203  0.5705 -0.2181
   16MPD2    C3  249   3.760   4.258   1.126 -0.4638 -0.1054  0.1409
   16MPD2    C4  250   3.660   4.313   1.042 -0.1932  0.0009 -0.4716
   16MPD2    C5  251   3.580   4.416   1.076 -0.5174 -0.1549 -0.0848
   16MPD2     H  252   3.823   4.267   1.329  1.4721 -1.3600 -2.0261
   16MPD2    H1  253   3.654   4.290   0.936 -1.0616  0.5536 -0.5450
   16MPD2    H2  254   3.514   4.546   1.224  0.8951  1.1356  1.1899
   16MPD2    H3  255   3.515   4.453   0.997 -0.4741 -1.1956 -0.6213
   16MPD2     N  256   3.846   4.145   1.094  0.5526  0.3270 -0.1953
   16MPD2    H5  257   3.906   4.100   1.162  0.4413 -2.8709 -2.2223
   16MPD2    N1  258   3.703   4.490   1.402  0.2343 -0.0020 -0.4875
   16MPD2    H7  259   3.625   4.550   1.427  1.1540  0.9328  0.1628
   17TMC1    C1  260   1.590   4.607  11.231  0.4994 -0.2431 -0.3614
   17TMC1    C2  261   1.582   4.500  11.311  0.2174 -0.1125  0.0296
   17TMC1    C3  262   1.539   4.381  11.262  0.2179  0.6561  0.5480
   17TMC1    C4  263   1.576   4.586  11.097  0.0805 -0.5675 -0.1068
   17TMC1    C5  264   1.537   4.460  11.052 -0.6321  0.0731 -0.0178
   17TMC1    C6  265   1.523   4.359  11.130  0.1904  0.7184 -0.1384
   17TMC1     C  266   1.658   4.724  11.281  0.5544 -0.8814 -0.0279
   17TMC1     O  267   1.597   0.046  11.370 -0.4543 -0.6956 -0.2697
   17TMC1     H  268   1.581   4.517  11.418 -0.1377  0.5889 -0.0902
   17TMC1    H1  269   1.595   4.663  11.022 -0.8237  0.8691  1.1276
   17TMC1    H2  270   1.488   4.267  11.084  0.0453  1.8569 -2.2877
   17TMC1    C7  271   1.488   4.463  10.920 -0.9120 -0.1979 -0.4252
   17TMC1    C8  272   1.591   4.267  11.332  1.1813 -0.9194  0.6226
   17TMC1    O1  273   1.541   4.531  10.832 -0.4019 -0.7813  0.1060
   17TMC1    O2  274   1.584   4.155  11.289 -0.6660 -0.1437  0.5232
   17TMC1    O3  275   1.355   4.444  10.936  0.7844 -0.1598 -0.7504
   17TMC1    H3  276   1.331   4.378  11.004 -1.7047  2.1216  0.6037
   17TMC1    O5  277   1.709   4.310  11.386 -0.2721 -0.4770 -0.2453
   17TMC1    H5  278   1.712   4.408  11.379  0.3283 -0.1849  3.8793
   18MPD2     C  279   1.808   0.256  11.294 -0.6005 -0.7496 -0.2215
   18MPD2    C1  280   1.833   0.154  11.210 -0.0931  0.5088  0.0874
   18MPD2    C2  281   1.930   0.171  11.113 -0.3239  0.3553  0.2762
   18MPD2    C3  282   2.004   0.290  11.125 -0.2993  0.3292 -0.9258
   18MPD2    C4  283   1.976   0.392  11.213 -0.5792  0.0550  0.4017
   18MPD2    C5  284   1.877   0.372  11.302 -0.5581  0.2271  0.4078
   18MPD2     H  285   1.944   0.085  11.049  2.5606 -0.2906  1.7422
   18MPD2    H1  286   2.040   0.479  11.223 -1.9830  0.9839  1.2449
   18MPD2    H2  287   1.729   0.244  11.367 -0.4652  1.3464  0.2588
   18MPD2    H3  288   1.855   0.444  11.381 -0.0460  0.8822 -0.0499
   18MPD2     N  289   2.114   0.312  11.046  0.3319  0.5480 -0.1857
   18MPD2    H5  290   2.176   0.390  11.065  1.5256 -1.3761  3.8272
   18MPD2    N1  291   1.764   0.028  11.207  0.0635 -1.0606  0.4524
   18MPD2    H7  292   1.792   4.696  11.138 -0.0864  0.6524 -1.2949
   19TMC2    C1  293   3.605   0.534  13.898 -0.4348  0.2114 -0.3953
   19TMC2    C2  294   3.549   0.655  13.911  0.2039  0.0975  0.4937
   19TMC2    C3  295   3.419   0.664  13.967  1.1400 -0.6634  0.4918
   19TMC2    C4  296   3.536   0.413  13.917  0.2730  0.6366 -0.0506
   19TMC2    C5  297   3.407   0.426  13.953 -0.1007  0.6216 -0.3106
   19TMC2    C6  298   3.354   0.545  13.996 -0.3207  0.2363 -0.1602
   19TMC2     C  299   3.737   0.546  13.842 -0.1317  0.1403 -0.2187
   19TMC2     O  300   3.751   0.628  13.749  0.3295  0.5823  0.4331
   19TMC2     H  301   3.610   0.745  13.907  0.5067 -0.0924  0.9376
   19TMC2    H1  302   3.586   0.317  13.910  1.8543  1.3399  1.4700
   19TMC2    H2  303   3.258   0.551  14.047  0.1125 -0.0894  0.6963
   19TMC2    C7  304   3.342   0.302  13.982 -0.4452  0.0656 -0.1891
   19TMC2    C8  305   3.406   0.771  14.067 -0.2904  0.1562 -0.3108
   19TMC2    O1  306   3.399   0.221  14.054 -0.2309 -0.2473 -0.0601
   19TMC2    O2  307   3.347   0.757  14.173  0.0351  0.3659 -0.0670
   19TMC2    O5  308   3.392   0.879  13.985  0.5220 -0.1936 -0.0527
   19TMC2    H5  309   3.423   0.848  13.897 -0.8744  1.9191 -1.2740
   20MPD2     C  310   4.030   0.562  13.823  0.0425 -0.3192  0.5080
   20MPD2    C1  311   3.971   0.472  13.905 -0.4842  0.2712 -0.0562
   20MPD2    C2  312   4.045   0.394  13.996 -0.0988 -0.0866 -0.4669
   20MPD2    C3  313   4.181   0.397  13.990 -1.1641 -0.0053 -0.1623
   20MPD2    C4  314   4.246   0.482  13.900 -0.4586 -0.1629 -0.1366
   20MPD2    C5  315   4.168   0.570  13.827  0.3611  0.4399  0.0345
   20MPD2     H  316   3.987   0.326  14.057  0.6517  0.3706  0.7543
   20MPD2    H1  317   4.354   0.489  13.902 -0.4160 -1.4559  1.8431
   20MPD2    H2  318   3.976   0.628  13.755  1.3185 -1.9855 -2.0984
   20MPD2    H3  319   4.215   0.649  13.770  2.3850 -1.2949 -0.7271
   20MPD2     N  320   4.268   0.324  14.081 -0.0810 -0.3855 -0.1660
   20MPD2    H5  321   4.366   0.348  14.066  0.5040 -0.7522  3.0690
   20MPD2    N1  322   3.828   0.466  13.913  0.1453 -0.4342 -0.3633
   20MPD2    H7  323   3.786   0.397  13.974  0.6630 -1.3229 -1.0064
   21TMC2    C1  324   1.140   0.854  13.737 -0.0933  0.3052  0.1586
   21TMC2    C2  325   1.238   0.763  13.763 -0.1519 -0.5152 -0.3610
   21TMC2    C3  326   1.212   0.687  13.869  0.2648 -0.0360  0.1959
   21TMC2    C4  327   1.027   0.878  13.822 -0.0244  0.4433  0.4343
   21TMC2    C5  328   1.019   0.811  13.945 -0.1352 -0.8837  0.4915
   21TMC2    C6  329   1.114   0.722  13.966  0.6497 -0.3441 -0.4324
   21TMC2     C  330   1.141   0.927  13.611 -0.5917 -0.7748  0.0936
   21TMC2     O  331   1.179   0.861  13.519  0.1932 -0.0964  0.5638
   21TMC2     H  332   1.309   0.742  13.684 -2.3418 -0.7322 -2.2753
   21TMC2    H1  333   0.950   0.949  13.794  1.7603  2.5517  0.8101
   21TMC2    H2  334   1.101   0.670  14.060 -2.1115  0.1797 -0.5413
   21TMC2    C7  335   0.963   0.866  14.062 -0.0835  0.7445 -0.0680
   21TMC2    C8  336   1.292   0.559  13.876 -1.1049 -0.1559  0.5166
   21TMC2    O1  337   0.978   0.805  14.168 -0.3517  0.4759 -0.4612
   21TMC2    O2  338   1.315   0.495  13.772  0.3546 -0.2603 -0.2326
   21TMC2    O5  339   1.299   0.519  14.006  0.4022 -0.3194  0.2657
   21TMC2    H5  340   1.270   0.595  14.060 -0.5836 -0.6823  0.2333
   22MPD2     C  341   1.072   1.306  13.947  0.4145  0.2920 -0.1563
   22MPD2    C1  342   1.154   1.199  13.940  0.2408  0.0214 -0.5197
   22MPD2    C2  343   1.176   1.123  13.830 -0.3023  0.3272  0.1687
   22MPD2    C3  344   1.096   1.146  13.722  0.5397  0.3941  0.3613
   22MPD2    C4  345   1.013   1.260  13.723  0.2210 -0.7167 -0.2106
   22MPD2    C5  346   1.000   1.340  13.837  0.1289 -0.1383 -0.4965
   22MPD2     H  347   1.260   1.054  13.832 -0.9544 -0.4684 -0.1564
   22MPD2    H1  348   0.951   1.287  13.638 -1.8016 -0.6306  1.2805
   22MPD2    H2  349   1.056   1.356  14.042  2.0999  1.1000 -0.2928
   22MPD2    H3  350   0.940   1.430  13.842  0.5889  0.1203  0.3274
   22MPD2     N  351   1.099   1.060  13.609  0.1017  0.2576  0.1951
   22MPD2    H5  352   1.072   1.112  13.526  1.6623  0.8846  0.0976
   22MPD2    N1  353   1.214   1.145  14.053  0.3194 -0.0029  0.6412
   22MPD2    H7  354   1.244   1.049  14.046 -0.4057 -0.2067  0.3261
   23TMC2    C1  355   1.830   1.900  14.330  0.7917  0.6323  0.1500
   23TMC2    C2  356   1.839   2.040  14.339  0.5867  1.0552  0.3746
   23TMC2    C3  357   1.737   2.109  14.280  0.3008 -0.5278 -0.0463
   23TMC2    C4  358   1.728   1.846  14.262 -0.1073 -0.1076 -0.1701
   23TMC2    C5  359   1.626   1.919  14.209 -0.1670  0.1013 -0.0492
   23TMC2    C6  360   1.625   2.056  14.219  0.1439 -0.0098  0.4744
   23TMC2     C  361   1.951   1.833  14.296  0.3419  0.6034  0.3540
   23TMC2     O  362   1.952   1.755  14.201  0.2973  0.0316 -0.2278
   23TMC2     H  363   1.909   2.101  14.393  0.9125  0.4726  0.6134
   23TMC2    H1  364   1.729   1.740  14.240 -2.1200 -0.5213  1.6705
   23TMC2    H2  365   1.542   2.116  14.184  2.1058  1.2077 -2.0712
   23TMC2    C7  366   1.537   1.851  14.118 -1.0315  0.0185 -0.2225
   23TMC2    C8  367   1.739   2.250  14.303 -0.1450 -0.0477 -0.5014
   23TMC2    O1  368   1.576   1.740  14.082  0.2664  0.2478 -0.6856
   23TMC2    O2  369   1.628   2.301  14.304  0.6067  0.3354 -0.4087
   23TMC2    O5  370   1.840   2.294  14.226  0.3864 -0.1683 -0.3678
   23TMC2    H5  371   1.910   2.230  14.203  0.1324 -1.4875  2.4205
   24MPD2     C  372   2.437   1.795  14.260 -0.6444  0.5677  0.2004
   24MPD2    C1  373   2.413   1.826  14.395 -0.4590 -0.6591  0.9879
   24MPD2    C2  374   2.281   1.864  14.420 -0.1392  0.4242  0.1719
   24MPD2    C3  375   2.187   1.867  14.320 -0.6672  0.2387 -0.1817
   24MPD2    C4  376   2.224   1.840  14.187 -0.0698  0.5602 -0.7399
   24MPD2    C5  377   2.349   1.800  14.154  0.4000 -0.6341 -0.3125
   24MPD2     H  378   2.244   1.893  14.518  0.8654  1.5320  0.2293
   24MPD2    H1  379   2.157   1.856  14.104  1.0470  3.1492 -1.1312
   24MPD2    H2  380   2.538   1.772  14.228 -0.7098 -1.6425  1.5646
   24MPD2    H3  381   2.369   1.763  14.054  1.1945 -0.0391 -0.3712
   24MPD2     N  382   2.053   1.884  14.360 -0.1020 -0.3953  0.6336
   24MPD2    H5  383   2.035   1.918  14.454 -0.2100 -1.6105  1.0524
   24MPD2    N1  384   2.509   1.806  14.498  0.3282  0.0555  0.0261
   24MPD2    H7  385   2.469   1.803  14.591  0.9976  0.7108  0.3276
   25TMC2    C1  386   1.930   3.485  11.155 -0.1715 -0.5819 -0.2469
   25TMC2    C2  387   2.058   3.451  11.174 -0.4696  1.1930 -0.0133
   25TMC2    C3  388   2.109   3.441  11.298  0.5486  0.0302 -0.7630
   25TMC2    C4  389   1.844   3.476  11.258  0.3320  0.5207 -0.4187
   25TMC2    C5  390   1.900   3.470  11.385 -0.0864  1.3895  0.0342
   25TMC2    C6  391   2.036   3.454  11.407 -0.4237  0.3067 -0.2586
   25TMC2     C  392   1.882   3.559  11.036  0.4659  0.1431 -0.2768
   25TMC2     O  393   1.964   3.611  10.968  0.1206  0.1436  0.2481
   25TMC2     H  394   2.113   3.459  11.081  0.8764  0.6856  0.7411
   25TMC2    H1  395   1.737   3.490  11.263 -0.0761 -3.0922  0.9630
   25TMC2    H2  396   2.076   3.445  11.507  1.1850 -1.2724 -1.0576
   25TMC2    C7  397   1.817   3.496  11.498  1.1283 -0.3030  0.3318
   25TMC2    C8  398   2.251   3.444  11.310  0.3338  0.2724 -0.0009
   25TMC2    O1  399   1.719   3.570  11.489 -0.3266  0.7202  0.2445
   25TMC2    O2  400   2.303   3.512  11.402  0.9138  0.2186  0.0625
   25TMC2    O5  401   2.321   3.405  11.199 -0.0963 -0.3557 -0.7582
   25TMC2    H5  402   2.268   3.333  11.158  1.8947 -1.0941 -2.0248
   26MPD2     C  403   1.540   3.744  10.722 -0.2884  0.7007  0.4233
   26MPD2    C1  404   1.465   3.657  10.796 -0.2176 -0.4692 -0.4292
   26MPD2    C2  405   1.541   3.605  10.898 -0.7634 -0.3024 -0.6080
   26MPD2    C3  406   1.675   3.632  10.922 -0.1200 -0.3259 -0.3171
   26MPD2    C4  407   1.740   3.732  10.852  0.3494 -0.6489 -0.2487
   26MPD2    C5  408   1.666   3.788  10.754 -0.5958  0.0460  0.7387
   26MPD2     H  409   1.488   3.542  10.970 -0.9138 -1.9666 -2.1761
   26MPD2    H1  410   1.842   3.766  10.866  0.0924  0.3478 -0.7796
   26MPD2    H2  411   1.486   3.786  10.638  0.8332  3.8827  1.2951
   26MPD2    H3  412   1.706   3.874  10.702 -0.5719 -1.1565 -1.2145
   26MPD2     N  413   1.745   3.559  11.021 -0.1967  0.4297 -0.0300
   26MPD2    H5  414   1.681   3.502  11.075  1.0372 -0.7712  0.1648
   26MPD2    N1  415   1.330   3.634  10.767  0.4924  0.3944  0.4338
   26MPD2    H7  416   1.303   3.658  10.672  0.2612 -1.5952 -0.0184
   27TMC2    C1  417   4.594   2.298  11.958 -0.5043  0.4869 -0.5266
   27TMC2    C2  418   4.592   2.333  11.831 -0.6122  0.3457 -0.2209
   27TMC2    C3  419   4.590   2.472  11.805 -0.2009  0.2128 -0.3436
   27TMC2    C4  420   4.612   2.388  12.060  0.5584  0.4084  0.1009
   27TMC2    C5  421   4.618   2.521  12.022 -0.4082 -0.5026 -0.6072
   27TMC2    C6  422   4.603   2.568  11.897  0.3526  0.4726 -0.0500
   27TMC2     C  423   4.597   2.156  11.991 -0.1653  0.0496  0.4161
   27TMC2     O  424   4.634   2.086  11.905  0.3405  0.4055 -1.1432
   27TMC2     H  425   4.585   2.261  11.750  1.6044  1.4260 -1.3722
   27TMC2    H1  426   4.629   2.363  12.165 -2.2269 -3.3900 -0.3526
   27TMC2    H2  427   4.583   2.671  11.871  1.1656  0.7405  0.3892
   27TMC2    C7  428   4.645   2.614  12.131 -0.0131 -0.7862 -0.8206
   27TMC2    C8  429   4.590   2.501  11.660  0.0164 -0.3285  0.0534
   27TMC2    O1  430   4.629   2.569  12.243 -0.2944  0.6135 -0.4386
   27TMC2    O2  431   4.553   2.418  11.576 -0.2599  0.0377  0.8589
   27TMC2    O5  432   4.683   2.593  11.644 -0.0514 -0.2293 -0.1509
   27TMC2    H5  433   4.722   2.625  11.728 -0.9406 -0.1068  0.2116
   28MPD2     C  434   4.518   1.763  12.322  0.9460  0.0646 -0.0768
   28MPD2    C1  435   4.470   1.886  12.374 -0.5002 -1.2683 -0.3255
   28MPD2    C2  436   4.498   2.003  12.312 -0.8841  0.2515 -0.0799
   28MPD2    C3  437   4.559   2.003  12.192  0.3388  0.6821 -0.0744
   28MPD2    C4  438   4.605   1.889  12.130 -0.1318  0.0859  0.2293
   28MPD2    C5  439   4.578   1.767  12.199 -0.3997  0.0569 -0.8206
   28MPD2     H  440   4.459   2.099  12.342 -1.5651 -0.2794  0.7372
   28MPD2    H1  441   4.663   1.889  12.039 -0.2903 -0.1431  0.1265
   28MPD2    H2  442   4.497   1.666  12.365 -1.5637  0.3891 -0.5635
   28MPD2    H3  443   4.613   1.670  12.166  1.9016  0.0970  1.5174
   28MPD2     N  444   4.568   2.128  12.130 -0.2793  0.0982  0.3549
   28MPD2    H5  445   4.541   2.207  12.188 -0.2583  1.6543 -1.7664
   28MPD2    N1  446   4.399   1.883  12.493  0.2190  0.4710  0.2221
   28MPD2    H7  447   4.366   1.795  12.532 -0.8155  0.1190 -1.4807
   29TMC2    C1  448   4.398   4.011  14.154  0.1715 -0.1355  0.1022
   29TMC2    C2  449   4.391   4.005  14.290 -0.0354 -0.5307 -0.4789
   29TMC2    C3  450   4.396   4.115  14.367 -0.2261  0.3260  0.2341
   29TMC2    C4  451   4.412   4.133  14.093 -1.2628 -0.0019  0.0375
   29TMC2    C5  452   4.411   4.243  14.169  0.2775  1.1443  0.1777
   29TMC2    C6  453   4.411   4.237  14.307 -0.0821  0.4114  0.9480
   29TMC2     C  454   4.356   3.894  14.087  0.2485 -0.3462 -0.3425
   29TMC2     O  455   4.368   3.787  14.151 -0.1577  0.0793  0.2666
   29TMC2     H  456   4.402   3.911  14.343 -0.1633 -0.0023  0.4825
   29TMC2    H1  457   4.425   4.146  13.986  1.5296  0.6621  0.4354
   29TMC2    H2  458   4.401   4.325  14.369 -0.4804  0.0449  1.4077
   29TMC2    C7  459   4.411   4.377  14.101  0.1026 -0.1715  0.9998
   29TMC2    C8  460   4.400   4.122  14.512 -0.5336  0.8075 -0.1548
   29TMC2    O1  461   4.353   4.380  13.992  0.1618 -0.1897 -1.0101
   29TMC2    O2  462   4.361   4.028  14.585  0.4046 -0.0252 -0.1418
   29TMC2    O5  463   4.500   4.216  14.546 -0.2149  0.2092  0.1029
   29TMC2    H5  464   4.564   4.242  14.477 -3.8236  2.4967 -2.3686
   30MPD2     C  465   4.241   3.674  13.647 -1.1241  0.5205  0.5435
   30MPD2    C1  466   4.281   3.622  13.766 -0.4993  0.3944 -0.6451
   30MPD2    C2  467   4.294   3.700  13.876 -0.2574  0.7446 -0.5279
   30MPD2    C3  468   4.245   3.827  13.875  0.4326 -0.2074  0.1873
   30MPD2    C4  469   4.184   3.875  13.758 -0.4399  0.8086  0.5209
   30MPD2    C5  470   4.193   3.797  13.641 -0.7563  0.4286  0.1276
   30MPD2     H  471   4.357   3.672  13.960 -1.5615 -0.3909  0.0611
   30MPD2    H1  472   4.153   3.978  13.750 -1.2014  0.7011  2.0644
   30MPD2    H2  473   4.241   3.608  13.561  1.6228  0.8305  0.3251
   30MPD2    H3  474   4.141   3.835  13.554 -0.9991 -1.6214 -0.6125
   30MPD2     N  475   4.288   3.922  13.973  0.4301 -0.1610 -0.5618
   30MPD2    H5  476   4.249   4.016  13.979 -0.1585 -0.4373 -0.0424
   30MPD2    N1  477   4.294   3.478  13.788  0.4181 -1.3016 -0.2489
   30MPD2    H7  478   4.350   3.457  13.871 -0.4865 -0.2295  0.6259
   31TMC2    C1  479   2.087   2.666  15.401  0.7016  0.0545  0.3513
   31TMC2    C2  480   1.984   2.737  15.445  0.4686 -0.2096  0.1380
   31TMC2    C3  481   1.977   2.774  15.574 -1.0855 -0.7645  0.9635
   31TMC2    C4  482   2.210   2.652  15.471 -0.0378  0.4205  0.1853
   31TMC2    C5  483   2.196   2.686  15.602 -0.3579 -0.0835 -0.7811
   31TMC2    C6  484   2.077   2.742  15.655 -0.1007  0.4138 -0.0209
   31TMC2     C  485   2.112   2.671  15.258 -0.4152 -0.7904 -0.8708
   31TMC2     O  486   2.042   2.750  15.196  0.8235  0.1211 -0.7036
   31TMC2     H  487   1.902   2.750  15.376  0.2335 -1.0045  0.2652
   31TMC2    H1  488   2.304   2.608  15.438 -0.5972  0.9353 -2.1136
   31TMC2    H2  489   2.051   2.766  15.757 -1.5158  0.8072 -0.4775
   31TMC2    C7  490   2.289   2.640  15.702  0.4610  0.6775 -0.2049
   31TMC2    C8  491   1.844   2.744  15.632  0.1534 -0.2088  0.0604
   31TMC2    O1  492   2.337   2.531  15.677 -0.3380 -0.3941  0.3166
   31TMC2    O2  493   1.832   2.662  15.718  0.4853 -0.1153 -0.3501
   31TMC2    O5  494   1.751   2.833  15.598  0.1199 -0.4555  0.1930
   31TMC2    H5  495   1.774   2.896  15.525 -0.9602  0.1842  0.3923
   32MPD2     C  496   2.419   2.588  14.843  0.1882  0.2003  0.3991
   32MPD2    C1  497   2.325   2.686  14.870 -1.0299 -0.8143 -0.1890
   32MPD2    C2  498   2.254   2.684  14.984 -0.3003 -0.1949  1.0444
   32MPD2    C3  499   2.277   2.594  15.089 -0.9102  0.1023 -0.0780
   32MPD2    C4  500   2.380   2.501  15.059  0.2389  0.3000 -0.9344
   32MPD2    C5  501   2.452   2.499  14.942  0.2333 -0.7739 -0.1580
   32MPD2     H  502   2.187   2.768  14.996 -0.1746  0.0357  0.1375
   32MPD2    H1  503   2.406   2.430  15.137  1.2095  2.8884  1.0687
   32MPD2    H2  504   2.474   2.590  14.750 -0.4250  0.7947  0.0489
   32MPD2    H3  505   2.538   2.435  14.930  1.6743  1.1080  0.1673
   32MPD2     N  506   2.215   2.591  15.217  0.3327 -0.4815 -0.1248
   32MPD2    H5  507   2.249   2.533  15.293 -0.3538 -1.2380 -0.3942
   32MPD2    N1  508   2.289   2.785  14.780 -0.4684  0.2814  0.1600
   32MPD2    H7  509   2.229   2.864  14.804  0.7130  1.5288 -1.0613
   33TMC2    C1  510   2.089   1.026  10.362 -0.0443  0.3805  0.1849
   33TMC2    C2  511   1.960   0.976  10.347 -0.5367 -0.4413 -0.1355
   33TMC2    C3  512   1.877   1.035  10.255 -1.1315 -0.2520 -0.3694
   33TMC2    C4  513   2.133   1.137  10.285  0.1814  0.6763 -0.9535
   33TMC2    C5  514   2.051   1.181  10.187 -0.8028 -0.7358 -0.4364
   33TMC2    C6  515   1.920   1.137  10.175 -0.5379 -0.6861 -0.8670
   33TMC2     C  516   2.170   0.956  10.452 -0.1172 -0.1922 -0.3928
   33TMC2     O  517   2.130   0.847  10.488 -0.2600 -0.1610  0.2739
   33TMC2     H  518   1.922   0.889  10.398 -0.2810 -1.5837 -1.9137
   33TMC2    H1  519   2.237   1.165  10.297  0.3332  0.3239 -1.4501
   33TMC2    H2  520   1.849   1.174  10.103 -1.6166  0.0840  0.5924
   33TMC2    C7  521   2.099   1.301  10.114 -0.3854  0.1504  0.2242
   33TMC2    C8  522   1.744   0.988  10.229 -0.0650 -0.5385  0.3643
   33TMC2    O1  523   2.218   1.328  10.131 -0.1478  0.2700  0.4763
   33TMC2    O2  524   1.706   0.970  10.116  0.1289  0.4819 -0.1087
   33TMC2    O5  525   1.657   1.013  10.332  1.0619 -0.3973  0.5823
   33TMC2    H5  526   1.704   1.031  10.416 -0.6341 -2.3450  1.9178
   34MPD2     C  527   2.583   0.902  10.757  0.3066  0.1245  0.4642
   34MPD2    C1  528   2.489   0.803  10.719  0.6078 -0.0080  0.3802
   34MPD2    C2  529   2.388   0.839  10.631 -0.5730  0.3947  0.5154
   34MPD2    C3  530   2.381   0.967  10.589  0.7365  0.0258  0.1356
   34MPD2    C4  531   2.475   1.061  10.621  0.4654 -0.0586 -0.2726
   34MPD2    C5  532   2.575   1.027  10.706  0.5449  0.5897  0.3648
   34MPD2     H  533   2.319   0.764  10.594  2.8383 -2.6752  0.4289
   34MPD2    H1  534   2.475   1.161  10.577 -0.4211  0.0587 -0.0254
   34MPD2    H2  535   2.656   0.870  10.830  1.0639 -1.4823 -1.0190
   34MPD2    H3  536   2.649   1.099  10.738  1.8114  0.0259 -1.2973
   34MPD2     N  537   2.281   1.025  10.500 -0.0416  0.4283 -0.2129
   34MPD2    H5  538   2.287   1.124  10.481  0.4166  0.4984  0.2755
   34MPD2    N1  539   2.491   0.680  10.780 -0.2951 -0.2432 -0.3430
   34MPD2    H7  540   2.558   0.666  10.855 -2.0873 -2.0058  0.9077
   35TMC2    C1  541   2.764   1.964  11.256 -0.7394  0.1517 -0.9717
   35TMC2    C2  542   2.640   2.025  11.249 -0.4176  0.0919 -0.2148
   35TMC2    C3  543   2.539   1.982  11.334  1.0579 -0.5565 -0.2758
   35TMC2    C4  544   2.769   1.849  11.331 -0.3098  0.2146  0.5424
   35TMC2    C5  545   2.664   1.800  11.403  0.1384 -0.4235 -0.5471
   35TMC2    C6  546   2.547   1.877  11.420  0.0323  0.3201  0.3221
   35TMC2     C  547   2.885   2.050  11.270  0.9277 -0.3421 -0.9420
   35TMC2     O  548   2.891   2.161  11.220 -0.5631  0.0907 -0.3404
   35TMC2     H  549   2.621   2.113  11.187  1.8372  0.6285 -0.1676
   35TMC2    H1  550   2.859   1.788  11.331 -0.3171  0.1929 -1.1401
   35TMC2    H2  551   2.468   1.863  11.493  1.1839 -2.8434  0.9548
   35TMC2    C7  552   2.683   1.687  11.489  0.1567 -0.3378 -0.5648
   35TMC2    C8  553   2.427   2.066  11.354  0.6785 -0.3540  0.0090
   35TMC2    O1  554   2.801   1.653  11.523  0.0916  0.2269 -0.5989
   35TMC2    O2  555   2.336   2.032  11.428  0.6252 -0.1750  0.5472
   35TMC2    O5  556   2.444   2.192  11.307  0.2028  0.0233  0.5386
   35TMC2    H5  557   2.538   2.208  11.282  1.1985 -3.4329  2.0602
   36MPD2     C  558   3.097   2.242  11.686  0.1366 -0.0393 -0.5482
   36MPD2    C1  559   3.133   2.110  11.680 -0.6510 -0.1927  0.1781
   36MPD2    C2  560   3.084   2.036  11.578  0.3513 -0.3613  0.4393
   36MPD2    C3  561   3.015   2.093  11.472 -0.3477 -0.6872 -0.1103
   36MPD2    C4  562   3.000   2.232  11.469 -0.2220  0.0611  0.2713
   36MPD2    C5  563   3.033   2.303  11.581  0.4091 -0.3384 -0.0370
   36MPD2     H  564   3.105   1.930  11.568  0.2584 -0.6407  3.2620
   36MPD2    H1  565   2.954   2.292  11.392 -0.7455 -0.8018 -0.0818
   36MPD2    H2  566   3.134   2.308  11.764  0.5658 -0.9828  0.0417
   36MPD2    H3  567   3.000   2.406  11.587  1.2617 -0.0331 -0.5669
   36MPD2     N  568   2.949   2.011  11.384 -0.1763  0.0846  0.3802
   36MPD2    H5  569   2.960   1.912  11.403 -2.1698 -0.0746  0.6634
   36MPD2    N1  570   3.221   2.058  11.777 -0.1867  0.5910 -0.3260
   36MPD2    H7  571   3.258   2.131  11.836  0.6516 -0.7834  0.8392
   37TMC2    C1  572   1.880   1.839  11.713  0.5449 -0.1781  0.1928
   37TMC2    C2  573   1.990   1.852  11.790 -0.2744  0.2612  0.1172
   37TMC2    C3  574   2.085   1.939  11.746 -0.2644 -0.9078  0.3038
   37TMC2    C4  575   1.863   1.907  11.599 -0.1294 -0.3604  0.6060
   37TMC2    C5  576   1.969   1.985  11.554 -0.1631 -0.0438 -0.2519
   37TMC2    C6  577   2.076   2.012  11.630 -0.4648 -0.0465  0.0302
   37TMC2     C  578   1.755   1.802  11.764  0.3836 -0.4265 -0.1822
   37TMC2     O  579   1.675   1.760  11.684  0.2896  0.2007 -0.4745
   37TMC2     H  580   2.007   1.778  11.867  0.1026  1.2517  0.9711
   37TMC2    H1  581   1.781   1.878  11.534  0.0154  1.7962 -0.5290
   37TMC2    H2  582   2.148   2.086  11.598  0.2233 -0.6154  0.2668
   37TMC2    C7  583   1.941   2.066  11.433 -0.1990  0.4223  0.2503
   37TMC2    C8  584   2.174   1.998  11.842 -0.3779  0.9710 -0.5059
   37TMC2    O1  585   1.824   2.077  11.402 -0.1058 -0.3587 -0.0039
   37TMC2    O2  586   2.245   2.093  11.808  0.2696  0.4870 -0.2142
   37TMC2    O5  587   2.149   1.957  11.964  0.1267  0.2959 -0.4788
   37TMC2    H5  588   2.061   1.917  11.981  0.1667  0.4347  0.0509
   38MPD2     C  589   1.387   1.750  12.119  0.0073  0.3205  0.0956
   38MPD2    C1  590   1.508   1.714  12.173  0.4163  0.2893  0.2669
   38MPD2    C2  591   1.630   1.727  12.104 -0.2968  0.1675  0.3613
   38MPD2    C3  592   1.626   1.782  11.976 -0.1465 -0.6205  0.0123
   38MPD2    C4  593   1.507   1.828  11.925 -0.4696 -0.2158  0.3151
   38MPD2    C5  594   1.392   1.823  12.004  0.6847  0.1178 -0.1230
   38MPD2     H  595   1.721   1.693  12.153 -1.0965 -1.1053  0.9698
   38MPD2    H1  596   1.487   1.871  11.828  0.2023  0.1134  0.3232
   38MPD2    H2  597   1.291   1.737  12.168 -0.6546 -1.7680 -1.7765
   38MPD2    H3  598   1.300   1.865  11.965  1.1859  1.0760 -0.2837
   38MPD2     N  599   1.744   1.789  11.902 -0.0996  0.4443 -0.4555
   38MPD2    H5  600   1.827   1.787  11.960 -1.1076 -2.4431  0.8780
   38MPD2    N1  601   1.516   1.665  12.303 -0.0437  0.7712 -0.5105
   38MPD2    H7  602   1.607   1.636  12.339 -0.7688  0.5644  1.1404
   39TMC2    C1  603   4.572   3.111   1.394 -0.2201  0.4798 -0.4200
   39TMC2    C2  604   4.529   3.049   1.505 -0.5681  0.3474  0.0384
   39TMC2    C3  605   4.611   2.998   1.594 -0.3549  0.0449  0.0526
   39TMC2    C4  606   4.708   3.136   1.367 -0.1520 -0.7103 -0.4610
   39TMC2    C5  607   0.058   3.086   1.470  0.6321 -0.3802  0.5638
   39TMC2    C6  608   0.008   3.009   1.572  0.3900  0.3204  0.2574
   39TMC2     C  609   4.479   3.168   1.306 -0.0964  0.4447  0.9053
   39TMC2     O  610   4.367   3.206   1.345  0.2869  0.9230 -0.6732
   39TMC2     H  611   4.424   3.060   1.529 -1.2546 -1.8642 -1.9059
   39TMC2    H1  612   0.010   3.192   1.283 -1.3233  1.5651  0.5228
   39TMC2    H2  613   0.070   2.979   1.657  0.4821 -0.3513 -0.0449
   39TMC2    C7  614   0.203   3.108   1.461 -0.6440 -0.1946 -0.6347
   39TMC2    C8  615   4.556   3.002   1.729 -0.9592  0.6819  0.2991
   39TMC2    O1  616   0.271   3.069   1.556 -0.1000 -0.6210 -0.2102
   39TMC2    O2  617   4.452   3.054   1.767  0.6469 -0.6334 -0.1803
   39TMC2    O5  618   4.636   2.928   1.810  0.1549  0.8013  0.1022
   39TMC2    H5  619   4.702   2.873   1.762 -0.8050 -0.5299  0.3172
   40MPD2     C  620   4.493   3.068   0.948  0.7200  0.9366 -0.3806
   40MPD2    C1  621   4.445   3.135   1.060 -0.7763  0.2521 -0.2035
   40MPD2    C2  622   4.319   3.192   1.053  0.1016  1.0008 -0.0314
   40MPD2    C3  623   4.251   3.189   0.934  0.2913 -0.4064 -0.4727
   40MPD2    C4  624   4.300   3.119   0.830  0.6416  0.0502  0.3023
   40MPD2    C5  625   4.426   3.068   0.833  0.1219 -0.8872 -0.5479
   40MPD2     H  626   4.289   3.253   1.137  0.3046  0.0334  0.7516
   40MPD2    H1  627   4.248   3.120   0.735  0.0886  1.4102  0.6143
   40MPD2    H2  628   4.590   3.019   0.953  0.8927  1.0865 -2.4387
   40MPD2    H3  629   4.466   3.010   0.750 -0.0576  1.0898 -2.0154
   40MPD2     N  630   4.121   3.236   0.921 -0.5742 -0.4278 -0.2013
   40MPD2    H5  631   4.079   3.223   0.830  0.8014 -0.3877 -0.8351
   40MPD2    N1  632   4.519   3.130   1.181 -0.0161  0.0277  0.1250
   40MPD2    H7  633   4.611   3.089   1.181  0.2062  0.5510  1.3898
   41TMC2    C1  634   2.550   1.884  13.465 -0.3283 -1.1750 -0.7465
   41TMC2    C2  635   2.464   1.870  13.363  0.9715 -0.2381  0.7241
   41TMC2    C3  636   2.482   1.935  13.250 -0.7919 -0.4540  0.9801
   41TMC2    C4  637   2.663   1.958  13.448 -0.3565  0.2484 -0.0067
   41TMC2    C5  638   2.689   2.008  13.327 -0.3754  0.1169 -0.3887
   41TMC2    C6  639   2.600   1.996  13.223 -0.1959  1.1917  0.4542
   41TMC2     C  640   2.544   1.789  13.573 -0.0305  0.6605 -0.3549
   41TMC2     O  641   2.472   1.691  13.566 -0.3174  0.6255 -0.1331
   41TMC2     H  642   2.379   1.807  13.387  0.7312  0.1405  0.8647
   41TMC2    H1  643   2.742   1.981  13.518 -0.0824  0.5627 -0.4146
   41TMC2    H2  644   2.605   2.055  13.132  0.6154  1.7469  0.8539
   41TMC2    C7  645   2.820   2.071  13.297 -0.2836  0.1506  0.3154
   41TMC2    C8  646   2.403   1.903  13.132 -0.2645  0.4797  0.5738
   41TMC2    O1  647   2.888   2.108  13.396 -0.0218 -0.0807  0.0018
   41TMC2    O2  648   2.447   1.894  13.026  0.2931 -0.1331 -0.4344
   41TMC2    O5  649   2.282   1.854  13.175  0.4227  0.2986  0.5301
   41TMC2    H5  650   2.257   1.881  13.266 -0.2082 -0.6832  0.6493
   42MPD2     C  651   2.572   1.649  13.832 -0.3297  0.4341  0.8215
   42MPD2    C1  652   2.636   1.767  13.799 -0.4836 -0.1733 -0.2678
   42MPD2    C2  653   2.716   1.830  13.891  0.4484 -0.5255 -0.1553
   42MPD2    C3  654   2.728   1.778  14.020  0.2206 -0.2404 -0.5635
   42MPD2    C4  655   2.676   1.657  14.044 -0.1682 -0.2662 -0.3123
   42MPD2    C5  656   2.595   1.595  13.952  0.2609 -0.2862 -0.0116
   42MPD2     H  657   2.763   1.924  13.865 -1.1167  0.3251  0.1153
   42MPD2    H1  658   2.690   1.613  14.142  2.0961  2.3588  0.5256
   42MPD2    H2  659   2.514   1.589  13.763 -0.9376  0.6054  1.1880
   42MPD2    H3  660   2.548   1.498  13.965 -2.3642  0.9497 -0.2858
   42MPD2     N  661   2.801   1.843  14.132  0.2128 -0.2590 -0.5896
   42MPD2    H5  662   2.802   1.797  14.222  2.0630 -1.5530 -1.2620
   42MPD2    N1  663   2.617   1.833  13.679  0.4990 -1.0078  0.1175
   42MPD2    H7  664   2.667   1.921  13.676 -0.5157 -0.3919  2.1726
   43TMC2    C1  665   0.035   3.991   1.132  0.2788  0.2695  0.9559
   43TMC2    C2  666   0.048   3.863   1.174 -0.3040  0.0805 -0.5215
   43TMC2    C3  667   0.094   3.837   1.299 -0.3922 -0.5401  0.5779
   43TMC2    C4  668   0.081   4.098   1.206  0.0123  0.0672  0.8246
   43TMC2    C5  669   0.141   4.067   1.325 -0.7535  0.9992  0.0432
   43TMC2    C6  670   0.145   3.940   1.370  0.0337  0.2293 -0.2920
   43TMC2     C  671   4.729   4.008   0.994 -0.1658  0.7649 -1.0247
   43TMC2     O  672   0.007   3.910   0.918  0.0314  0.0347 -0.0596
   43TMC2     H  673   0.006   3.787   1.109 -2.8666  1.2308 -0.1897
   43TMC2    H1  674   0.070   4.200   1.171 -0.4185 -0.7591 -1.4473
   43TMC2    H2  675   0.197   3.915   1.461  0.1558  0.1945 -0.3722
   43TMC2    C7  676   0.210   4.174   1.388 -0.6101  1.0265 -0.2201
   43TMC2    C8  677   0.141   3.705   1.326 -0.3937  1.0413 -0.2208
   43TMC2    O1  678   0.328   4.161   1.402  0.3255  0.1231  0.0689
   43TMC2    O2  679   0.169   3.674   1.443 -0.0473  0.2415  0.5750
   43TMC2    O5  680   0.225   3.678   1.224 -0.1016  0.0284 -0.6866
   43TMC2    H5  681   0.189   3.722   1.143 -3.6365 -1.9223 -0.1810
   44MPD2     C  682   4.503   4.289   0.642 -0.5385 -0.9249 -0.2351
   44MPD2    C1  683   4.545   4.155   0.633  0.3926 -0.7193  0.0596
   44MPD2    C2  684   4.617   4.102   0.737  0.3859 -0.3609  0.0849
   44MPD2    C3  685   4.641   4.179   0.855 -0.3505  0.1472 -0.6509
   44MPD2    C4  686   4.608   4.311   0.851 -0.0700  0.0366 -0.2903
   44MPD2    C5  687   4.547   4.360   0.749  0.4773  0.8441  0.0708
   44MPD2     H  688   4.637   3.996   0.728  0.2206 -0.3835 -0.0060
   44MPD2    H1  689   4.634   4.374   0.935 -0.0918  1.9662 -1.7394
   44MPD2    H2  690   4.449   4.343   0.566  0.0533  0.7623  0.5474
   44MPD2    H3  691   4.519   4.464   0.747 -1.2097  0.3560 -1.5794
   44MPD2     N  692   4.689   4.130   0.976  0.2566  0.7047 -0.0148
   44MPD2    H5  693   4.689   4.190   1.057 -0.7881  1.2823 -0.4373
   44MPD2    N1  694   4.543   4.081   0.515 -0.1557 -0.1156  0.0473
   44MPD2    H7  695   4.583   3.988   0.522 -2.3005 -1.1554 -1.2897
   45TMC2    C1  696   4.241   2.763   9.198 -0.9794 -0.0942  0.3642
   45TMC2    C2  697   4.282   2.667   9.121  0.2684 -0.6331  0.7226
   45TMC2    C3  698   4.419   2.652   9.107 -0.2113 -0.0910 -0.0392
   45TMC2    C4  699   4.322   2.856   9.247 -0.4073  0.1031  0.5785
   45TMC2    C5  700   4.462   2.838   9.230  0.1599 -0.1366 -0.5599
   45TMC2    C6  701   4.508   2.734   9.161  0.5980  0.5478  0.3071
   45TMC2     C  702   4.099   2.783   9.206 -0.4222 -0.3759 -0.0241
   45TMC2     O  703   4.061   2.897   9.224  0.1870 -0.5547  0.1589
   45TMC2     H  704   4.205   2.605   9.078  1.8958 -1.8146 -0.5092
   45TMC2    H1  705   4.284   2.916   9.329 -0.6994  1.9300 -0.8835
   45TMC2    H2  706   4.614   2.732   9.138  0.3683  0.5602 -0.7187
   45TMC2    C7  707   4.562   2.923   9.292 -0.3275  0.0037  0.2059
   45TMC2    C8  708   4.477   2.532   9.059 -0.1044 -0.1171 -0.1043
   45TMC2    O1  709   4.678   2.882   9.284 -0.4140 -0.3506  0.1393
   45TMC2    O2  710   4.596   2.511   9.044 -0.4689  0.0353 -0.6255
   45TMC2    O5  711   4.383   2.444   9.097 -0.6977  0.2856  0.0019
   45TMC2    H5  712   4.295   2.472   9.128  0.2460  3.2711 -0.0864
   46MPD2     C  713   3.797   2.778   9.239 -0.1013  0.4105 -0.2418
   46MPD2    C1  714   3.881   2.672   9.240  0.9045 -0.2021  0.1787
   46MPD2    C2  715   3.829   2.548   9.253 -0.6792 -0.1967  0.2456
   46MPD2    C3  716   3.693   2.528   9.265  0.1483  0.2710  0.8554
   46MPD2    C4  717   3.610   2.633   9.251  0.7685 -0.3103 -0.0422
   46MPD2    C5  718   3.666   2.757   9.237 -0.6509  0.2648  0.4775
   46MPD2     H  719   3.901   2.467   9.259 -0.0989  0.2338 -0.9711
   46MPD2    H1  720   3.502   2.623   9.254  0.7607 -0.8338 -2.8796
   46MPD2    H2  721   3.836   2.879   9.227 -0.1591  0.4767  0.1232
   46MPD2    H3  722   3.602   2.842   9.218  0.6161  0.5522 -2.5856
   46MPD2     N  723   3.651   2.400   9.298  0.4007  0.2165 -0.0287
   46MPD2    H5  724   3.722   2.328   9.307  0.1653 -0.2242 -1.7679
   46MPD2    N1  725   4.023   2.675   9.211 -0.5730 -0.1200  0.4908
   46MPD2    H7  726   4.069   2.585   9.200 -1.2341 -0.7121  2.5393
   47TMC2    C1  727   2.105   3.796   9.725  0.0814 -0.9439  0.2259
   47TMC2    C2  728   2.059   3.919   9.721 -0.6239  0.0179 -0.5890
   47TMC2    C3  729   1.943   3.945   9.791 -0.3355  0.2921  0.5209
   47TMC2    C4  730   2.056   3.707   9.817  0.0190  0.0922  0.4868
   47TMC2    C5  731   1.947   3.739   9.895  0.0166 -0.0530 -0.0318
   47TMC2    C6  732   1.898   3.861   9.878 -0.0526  0.2219 -0.9364
   47TMC2     C  733   2.211   3.761   9.633  0.5126  0.0425 -0.8629
   47TMC2     O  734   2.250   3.848   9.556 -0.6479  0.1849 -0.0114
   47TMC2     H  735   2.082   3.976   9.632  0.2039 -2.2037 -1.7975
   47TMC2    H1  736   2.104   3.610   9.826  1.4942  0.8533  0.6610
   47TMC2    H2  737   1.809   3.893   9.931  2.2534  1.6800  2.1115
   47TMC2    C7  738   1.878   3.646   9.975 -0.0613 -0.0717 -0.0506
   47TMC2    C8  739   1.857   4.060   9.752  0.0774  0.4119  0.0118
   47TMC2    O1  740   1.886   3.529   9.941  0.1551 -0.2587 -0.1500
   47TMC2    O2  741   1.741   4.068   9.782  0.1337  0.3092 -0.3091
   47TMC2    O5  742   1.925   4.150   9.680 -0.4427  0.1811  0.0612
   47TMC2    H5  743   2.021   4.138   9.696 -0.5869 -1.6636 -0.5279
   48MPD2     C  744   2.467   3.651   9.527  1.1223 -0.2904 -1.0248
   48MPD2    C1  745   2.375   3.575   9.597 -0.4613  0.3657  0.2442
   48MPD2    C2  746   2.405   3.445   9.614  0.0344 -0.8161 -0.1676
   48MPD2    C3  747   2.521   3.385   9.576  0.7215  0.0252 -0.1620
   48MPD2    C4  748   2.607   3.455   9.495  0.0639  0.0976 -0.4361
   48MPD2    C5  749   2.583   3.594   9.486  0.4220  0.0731  0.0518
   48MPD2     H  750   2.333   3.381   9.665  1.2508 -3.0600 -1.2485
   48MPD2    H1  751   2.694   3.409   9.450 -0.3086 -1.6442  0.6254
   48MPD2    H2  752   2.453   3.755   9.501 -0.3638 -0.7694 -2.1082
   48MPD2    H3  753   2.659   3.648   9.431 -0.7589  0.5177 -1.1525
   48MPD2     N  754   2.541   3.246   9.604  0.8199  0.1854 -0.3381
   48MPD2    H5  755   2.456   3.207   9.642 -0.0352  2.8845  0.5438
   48MPD2    N1  756   2.250   3.625   9.641  0.3236 -0.7271  0.4401
   48MPD2    H7  757   2.199   3.567   9.707  1.2448 -0.7325  1.1510
   49TMC2    C1  758   2.145   0.419   9.933  0.9329 -0.2687  0.1793
   49TMC2    C2  759   2.054   0.335   9.877  0.1618 -0.6701  0.2251
   49TMC2    C3  760   2.040   0.344   9.746 -0.2607 -1.0022  0.0674
   49TMC2    C4  761   2.194   0.522   9.866  0.5968  0.3452  0.0511
   49TMC2    C5  762   2.161   0.544   9.741 -0.4853  0.1766  0.7835
   49TMC2    C6  763   2.087   0.449   9.673 -0.3047  0.8392  0.3661
   49TMC2     C  764   2.143   0.432  10.075 -0.8527 -0.4253  0.2800
   49TMC2     O  765   2.191   0.536  10.112 -0.4494 -0.1371  0.0470
   49TMC2     H  766   2.012   0.248   9.927  0.1981 -0.0439  1.3497
   49TMC2    H1  767   2.280   0.578   9.902  1.8927 -1.5282 -0.1176
   49TMC2    H2  768   2.081   0.448   9.565 -2.2331  1.3639  0.4686
   49TMC2    C7  769   2.215   0.665   9.673  0.1731 -0.0951  0.0207
   49TMC2    C8  770   1.947   0.247   9.696  0.7644  0.5164  0.5070
   49TMC2    O1  771   2.158   0.684   9.566 -0.2087 -0.0573 -0.1675
   49TMC2    O2  772   1.926   0.132   9.738 -0.6151  0.1077  0.1400
   49TMC2    O5  773   1.899   0.283   9.578  0.1184  0.4932  0.2065
   49TMC2    H5  774   1.905   0.381   9.569 -0.5498  0.3726 -1.6257
   50MPD2     C  775   2.072   0.447  10.378 -0.4032 -0.2289  0.0492
   50MPD2    C1  776   2.041   0.349  10.286 -0.0755  0.2469  0.2084
   50MPD2    C2  777   1.953   0.255  10.331 -0.2140 -0.1481  0.1150
   50MPD2    C3  778   1.909   0.258  10.463  0.6261 -0.5855 -0.8840
   50MPD2    C4  779   1.955   0.346  10.556 -0.2532 -0.0053 -0.0600
   50MPD2    C5  780   2.038   0.442  10.506 -0.3038 -0.4813  0.5261
   50MPD2     H  781   1.910   0.189  10.256  0.0856  0.8900 -0.9802
   50MPD2    H1  782   1.924   0.353  10.660  0.2486 -2.5900  0.2472
   50MPD2    H2  783   2.135   0.528  10.342  1.3140 -0.7497  1.8707
   50MPD2    H3  784   2.075   0.516  10.575 -1.4519  1.4728 -0.9563
   50MPD2     N  785   1.808   0.171  10.516  0.2669  0.1373  0.4977
   50MPD2    H5  786   1.786   0.204  10.610 -0.0068  1.1201  0.0897
   50MPD2    N1  787   2.072   0.342  10.154 -0.4518  0.0990 -0.3295
   50MPD2    H7  788   2.043   0.264  10.096  0.0577  0.4325 -1.0341
   51TMC2    C1  789   1.761   2.635   1.032 -0.0279 -0.0984 -1.0085
   51TMC2    C2  790   1.641   2.653   0.967 -0.4930  0.5085 -0.3385
   51TMC2    C3  791   1.618   2.774   0.905 -0.4044 -0.3009 -0.0358
   51TMC2    C4  792   1.859   2.731   1.041  0.2639 -0.2218  0.8635
   51TMC2    C5  793   1.836   2.838   0.968 -0.2342  0.2339  0.2596
   51TMC2    C6  794   1.725   2.860   0.894 -0.5962  0.4043  0.2219
   51TMC2     C  795   1.800   2.503   1.074 -0.2565 -0.1951 -0.6073
   51TMC2     O  796   1.775   2.411   0.997 -0.3774  0.0881 -0.8186
   51TMC2     H  797   1.571   2.571   0.957 -0.8191  0.7044  0.3371
   51TMC2    H1  798   1.951   2.707   1.093  0.1599  1.9391  2.0470
   51TMC2    H2  799   1.710   2.950   0.836  0.0294  0.5601  0.3016
   51TMC2    C7  800   1.961   2.917   0.940 -0.4916 -0.6958 -0.0715
   51TMC2    C8  801   1.524   2.769   0.790  0.1471 -0.6147 -0.4438
   51TMC2    O1  802   2.059   2.893   1.009 -0.1561  0.1955 -0.3227
   51TMC2    O2  803   1.536   2.827   0.684  0.2484 -0.2110  0.2725
   51TMC2    O5  804   1.411   2.706   0.829 -0.0985  0.0023  0.4572
   51TMC2    H5  805   1.403   2.675   0.922 -0.0929 -0.5547  0.2738
   52MPD2     C  806   2.006   2.138   1.364  1.1182  0.1785 -0.2862
   52MPD2    C1  807   1.992   2.156   1.224  0.3096 -0.2243  0.2901
   52MPD2    C2  808   1.940   2.273   1.173 -0.0947  0.0283 -0.1894
   52MPD2    C3  809   1.894   2.372   1.260  0.7957  0.0243 -0.3088
   52MPD2    C4  810   1.925   2.364   1.394 -0.4121 -0.1656 -0.0706
   52MPD2    C5  811   1.974   2.247   1.442  0.3258  0.0466  0.2216
   52MPD2     H  812   1.939   2.290   1.066 -0.0294 -2.6409 -0.6237
   52MPD2    H1  813   1.892   2.447   1.455 -0.1593  2.5872 -3.6679
   52MPD2    H2  814   2.058   2.054   1.408 -0.9332 -0.8075  0.2404
   52MPD2    H3  815   1.998   2.239   1.547  1.2681 -1.6856 -0.1049
   52MPD2     N  816   1.844   2.496   1.205 -0.2530  1.0759  0.4028
   52MPD2    H5  817   1.826   2.579   1.262 -0.0141 -0.3375  2.5163
   52MPD2    N1  818   2.028   2.062   1.121 -0.1009  0.4760  0.5943
   52MPD2    H7  819   2.028   2.099   1.027 -0.1172  0.3705  0.5537
   53TMC2    C1  820   1.578   2.434  10.974 -0.3250  0.2444  0.4562
   53TMC2    C2  821   1.503   2.516  10.894  0.7314 -0.4848 -0.1686
   53TMC2    C3  822   1.367   2.520  10.917 -0.0965  0.4062 -0.0386
   53TMC2    C4  823   1.512   2.347  11.054  0.7954 -0.5211  1.0598
   53TMC2    C5  824   1.381   2.349  11.072 -0.5194  0.1542  0.1476
   53TMC2    C6  825   1.306   2.428  10.998 -0.4095  0.2728  0.1377
   53TMC2     C  826   1.719   2.402  10.947  0.0250 -0.1567 -0.6730
   53TMC2     O  827   1.768   2.418  10.839  0.3334 -0.3990 -0.0332
   53TMC2     H  828   1.552   2.583  10.825  0.7450 -1.3724 -1.0227
   53TMC2    H1  829   1.567   2.264  11.096  1.5936 -0.5080  0.0233
   53TMC2    H2  830   1.198   2.416  11.000 -0.2682 -1.0472 -0.1080
   53TMC2    C7  831   1.318   2.245  11.154 -0.5796 -0.1196  0.0143
   53TMC2    C8  832   1.298   2.621  10.839 -0.5611 -0.3049  0.2675
   53TMC2    O1  833   1.214   2.200  11.114  0.0980 -0.4650  0.3087
   53TMC2    O2  834   1.341   2.693  10.751 -0.5100 -0.1927 -0.1299
   53TMC2    O5  835   1.175   2.640  10.892  0.7762 -0.8739 -0.3949
   53TMC2    H5  836   1.167   2.606  10.983 -0.4386 -1.8630 -0.8659
   54MPD2     C  837   1.998   2.283  10.986 -0.1392  0.2965  0.1302
   54MPD2    C1  838   1.903   2.306  11.084 -0.8420  0.0793  0.1857
   54MPD2    C2  839   1.927   2.248  11.211 -0.7081  0.3589 -0.4878
   54MPD2    C3  840   2.033   2.165  11.230 -0.0622 -0.0630  0.1953
   54MPD2    C4  841   2.130   2.156  11.126  0.1176 -0.7038 -0.2549
   54MPD2    C5  842   2.115   2.216  11.006  0.1475  0.2095  0.5384
   54MPD2     H  843   1.854   2.271  11.288 -1.2178 -0.1402 -0.8176
   54MPD2    H1  844   2.218   2.096  11.148  0.1814 -0.2700  0.6882
   54MPD2    H2  845   1.962   2.304  10.885 -1.8020 -0.3891  0.5773
   54MPD2    H3  846   2.195   2.195  10.936  0.0069  1.4372  0.0163
   54MPD2     N  847   2.050   2.093  11.354 -0.1346 -0.7009 -0.2082
   54MPD2    H5  848   2.142   2.054  11.372 -0.6175 -2.8988 -2.5322
   54MPD2    N1  849   1.782   2.373  11.067  0.4829 -0.0829  0.3266
   54MPD2    H7  850   1.725   2.396  11.149  1.5481 -2.6492  1.7869
   55TMC2    C1  851   2.886   0.390  17.723  0.2761 -0.1739  0.3477
   55TMC2    C2  852   2.969   0.443  17.626 -0.1994  0.1240  0.0992
   55TMC2    C3  853   3.016   0.354  17.530  0.4393 -0.7908  0.2432
   55TMC2    C4  854   2.859   0.250  17.729  0.3875 -0.3061 -0.1648
   55TMC2    C5  855   2.921   0.175  17.634 -0.8430  0.9570  0.0844
   55TMC2    C6  856   2.987   0.225  17.533  0.2258 -0.1961  0.1514
   55TMC2     C  857   2.809   0.470   0.072  0.0134  0.6666  0.2662
   55TMC2     O  858   2.747   0.411   0.161  0.4433 -0.9095  0.4073
   55TMC2     H  859   3.004   0.545  17.625 -0.3076  0.1573 -0.4951
   55TMC2    H1  860   2.798   0.210   0.066  1.3813  0.0198  0.7588
   55TMC2    H2  861   3.021   0.162  17.452 -0.5196 -0.0112 -0.3060
   55TMC2    C7  862   2.918   0.027  17.643 -0.4958  0.1513 -0.4102
   55TMC2    C8  863   3.125   0.388  17.437 -0.0221 -0.2668  0.1713
   55TMC2    O1  864   2.969   4.703  17.548 -0.0112  0.0937 -0.1673
   55TMC2    O2  865   3.213   0.304  17.413  0.3804 -0.1434  0.0768
   55TMC2    O5  866   3.151   0.518  17.442  0.1650 -0.1281 -0.1471
   55TMC2    H5  867   3.072   0.576  17.443 -0.3672 -0.8957  1.3350
   56MPD2     C  868   2.767   0.835   0.041 -0.0127 -0.3901 -0.0750
   56MPD2    C1  869   2.754   0.704   0.098 -0.3525  0.3020  0.4785
   56MPD2    C2  870   2.648   0.685   0.185 -0.1013 -0.8760  0.0562
   56MPD2    C3  871   2.548   0.777   0.206  0.0253  0.8062 -0.1226
   56MPD2    C4  872   2.563   0.904   0.150 -0.1555 -0.5062  0.3879
   56MPD2    C5  873   2.678   0.935   0.076  0.4164 -0.7852 -0.1814
   56MPD2     H  874   2.635   0.588   0.231  0.6741 -1.2939 -0.6007
   56MPD2    H1  875   2.481   0.974   0.158  0.8240  0.3111  3.1391
   56MPD2    H2  876   2.851   0.868  17.725 -1.6079  0.5070 -1.8754
   56MPD2    H3  877   2.687   1.034   0.032 -0.7808 -0.7950 -0.4506
   56MPD2     N  878   2.443   0.738   0.291  0.4399  0.2882  0.5292
   56MPD2    H5  879   2.445   0.644   0.331  3.0218 -0.0109 -0.2943
   56MPD2    N1  880   2.832   0.602   0.053  0.1706 -0.6245 -0.1373
   56MPD2    H7  881   2.892   0.632  17.720  1.5767 -0.4370  1.0564
   57TMC2    C1  882   1.783   0.432  13.545 -0.0269 -0.3276 -0.6125
   57TMC2    C2  883   1.757   0.336  13.636 -0.0569  0.3392  1.0354
   57TMC2    C3  884   1.802   0.210  13.603  0.5288 -1.0911  0.0144
   57TMC2    C4  885   1.860   0.417  13.432 -0.4103 -0.0417 -0.4698
   57TMC2    C5  886   1.906   0.291  13.409  0.5931 -0.7812 -0.6181
   57TMC2    C6  887   1.877   0.184  13.492 -0.2219 -0.8971  0.8665
   57TMC2     C  888   1.712   0.557  13.546 -0.2556  0.0783  0.2707
   57TMC2     O  889   1.695   0.607  13.437 -0.0515  0.0110  0.3811
   57TMC2     H  890   1.688   0.365  13.714 -0.4207  2.5048 -0.1084
   57TMC2    H1  891   1.880   0.496  13.361 -0.4021  0.9255  0.6034
   57TMC2    H2  892   1.909   0.083  13.466 -0.0796 -1.1207  1.9268
   57TMC2    C7  893   2.005   0.288  13.303  0.5204  0.4610 -0.1165
   57TMC2    C8  894   1.762   0.100  13.680  0.1369  0.3425  0.1152
   57TMC2    O1  895   2.000   0.375  13.215  0.2053 -0.4046  0.0169
   57TMC2    O2  896   1.832   4.734  13.684 -0.0362  0.0146  0.0900
   57TMC2    O5  897   1.637   0.101  13.723  0.1510  0.1911  0.7202
   57TMC2    H5  898   1.588   0.184  13.702 -1.5132 -0.7422  0.9298
   58MPD2     C  899   1.521   0.971  13.789  0.4091 -0.5044  0.6811
   58MPD2    C1  900   1.544   0.947  13.658 -0.1749 -0.0167 -0.7362
   58MPD2    C2  901   1.595   0.830  13.611 -1.0208 -0.5299  0.5181
   58MPD2    C3  902   1.633   0.732  13.705  0.6439 -0.5231 -0.3558
   58MPD2    C4  903   1.625   0.763  13.842 -0.2324 -0.0697  0.6262
   58MPD2    C5  904   1.568   0.883  13.878  0.4110 -0.6399 -0.1137
   58MPD2     H  905   1.609   0.814  13.505 -0.1930  0.8041  0.4245
   58MPD2    H1  906   1.662   0.699  13.921  1.4164 -0.8024 -0.7260
   58MPD2    H2  907   1.482   1.064  13.829  0.8815  0.7115 -1.6695
   58MPD2    H3  908   1.568   0.912  13.983  1.5300 -1.4415  0.0997
   58MPD2     N  909   1.689   0.607  13.671 -0.0064 -0.8757 -0.0970
   58MPD2    H5  910   1.722   0.555  13.751  2.0027 -0.5846 -0.7527
   58MPD2    N1  911   1.508   1.038  13.553 -0.4890  0.0626 -0.3678
   58MPD2    H7  912   1.533   1.010  13.459  2.7939  2.1094 -0.1076
   59TMC2    C1  913   3.856   1.139  12.704 -0.4228 -0.2523 -0.0737
   59TMC2    C2  914   3.925   1.023  12.714  0.2962  0.4751  0.6140
   59TMC2    C3  915   3.883   0.931  12.623 -0.4504  0.2835  0.2219
   59TMC2    C4  916   3.757   1.163  12.620  0.4242  0.4718 -1.0502
   59TMC2    C5  917   3.711   1.058  12.539  0.8585  0.5906  0.6293
   59TMC2    C6  918   3.769   0.935  12.545 -0.6531  0.9822 -0.7021
   59TMC2     C  919   3.896   1.253  12.785 -0.4640 -0.1030  0.7662
   59TMC2     O  920   3.888   1.363  12.734  0.4629 -0.0590 -0.4592
   59TMC2     H  921   4.019   1.015  12.768 -0.4132  1.8899  2.0410
   59TMC2    H1  922   3.715   1.263  12.618 -0.7633  0.0177  0.1929
   59TMC2    H2  923   3.740   0.862  12.470  0.0952 -0.8037  0.7479
   59TMC2    C7  924   3.594   1.065  12.450 -0.0547  0.1981 -0.4168
   59TMC2    C8  925   3.962   0.809  12.645  0.0928 -0.6074 -0.7604
   59TMC2    O1  926   3.518   0.965  12.445 -0.0771  1.0991 -0.2555
   59TMC2    O2  927   4.070   0.790  12.698  0.3194  0.0997 -0.1302
   59TMC2    O5  928   3.881   0.710  12.619  0.3051 -0.4087 -0.0710
   59TMC2    H5  929   3.786   0.731  12.610  0.4614  0.7208  0.8989
   60MPD2     C  930   4.010   1.448  12.964 -0.3436 -0.5607  0.2956
   60MPD2    C1  931   4.026   1.315  12.977 -0.2262  0.8638 -0.4606
   60MPD2    C2  932   4.111   1.271  13.076 -0.2271  0.8508 -0.7869
   60MPD2    C3  933   4.185   1.361  13.154 -0.5916  0.3822 -0.6478
   60MPD2    C4  934   4.157   1.499  13.146  0.2081 -0.6003  0.3501
   60MPD2    C5  935   4.074   1.532  13.047  0.0222 -0.5780 -0.3775
   60MPD2     H  936   4.118   1.163  13.080 -0.5341  0.8310 -0.7612
   60MPD2    H1  937   4.214   1.570  13.205 -0.9933  1.1432 -0.5727
   60MPD2    H2  938   3.941   1.499  12.898 -0.2569  0.1443  0.7429
   60MPD2    H3  939   4.067   1.639  13.033  0.5459 -1.1254 -4.8568
   60MPD2     N  940   4.307   1.335  13.222 -0.2578  0.1647  0.3883
   60MPD2    H5  941   4.364   1.416  13.243 -3.3009  2.0691  1.1584
   60MPD2    N1  942   3.960   1.222  12.900  0.4650 -0.2519 -0.1277
   60MPD2    H7  943   3.976   1.123  12.912 -0.0379 -0.4858 -1.3717
   61TMC2    C1  944   3.838   2.316  15.494 -0.6730 -0.0325  0.1460
   61TMC2    C2  945   3.888   2.289  15.620  0.2336 -0.0905 -0.1239
   61TMC2    C3  946   3.872   2.378  15.725  0.1767 -0.2223  0.3618
   61TMC2    C4  947   3.779   2.438  15.474 -0.2155  0.3837  0.2216
   61TMC2    C5  948   3.751   2.516  15.578 -0.2993  0.8863 -0.3786
   61TMC2    C6  949   3.810   2.494  15.698  0.3344 -0.3701 -0.2041
   61TMC2     C  950   3.864   2.229  15.381  0.1151 -0.1175  0.2588
   61TMC2     O  951   3.883   2.108  15.400 -0.1444  0.2929  0.1800
   61TMC2     H  952   3.922   2.190  15.649 -3.8562 -1.2012  0.7798
   61TMC2    H1  953   3.734   2.453  15.377 -0.9011 -2.1247  0.1636
   61TMC2    H2  954   3.797   2.568  15.777  0.6206  0.7488 -1.2168
   61TMC2    C7  955   3.692   2.647  15.555 -0.2782 -0.7721 -0.7014
   61TMC2    C8  956   3.920   2.344  15.856  0.1062  0.1604 -0.1173
   61TMC2    O1  957   3.736   2.743  15.622 -0.2350 -0.2350  0.4879
   61TMC2    O2  958   4.006   2.261  15.870  0.3811 -0.1875  0.0512
   61TMC2    O5  959   3.824   2.376  15.940 -0.2822  0.2164 -0.3048
   61TMC2    H5  960   3.756   2.442  15.912  0.7783  0.8329 -1.4135
   62MPD2     C  961   3.807   2.126  15.114 -0.2438 -0.0172  0.3233
   62MPD2    C1  962   3.886   2.238  15.140  0.6290 -0.6647  0.5025
   62MPD2    C2  963   3.922   2.327  15.038  0.5459  0.7332 -0.3438
   62MPD2    C3  964   3.885   2.304  14.911 -0.0421  0.7760  0.4789
   62MPD2    C4  965   3.803   2.194  14.889  0.2841  0.0835  0.0002
   62MPD2    C5  966   3.771   2.104  14.988 -0.0520 -0.1087  0.1871
   62MPD2     H  967   3.977   2.415  15.068  0.4469  0.5450  0.4045
   62MPD2    H1  968   3.771   2.184  14.786 -3.8082 -0.2524  1.3234
   62MPD2    H2  969   3.773   2.060  15.193 -0.5340 -1.9620 -1.4397
   62MPD2    H3  970   3.720   2.010  14.973 -1.2469  0.5305  0.1487
   62MPD2     N  971   3.917   2.398  14.805  0.5040 -0.3192  0.3106
   62MPD2    H5  972   3.879   2.375  14.713  2.2132 -1.0802 -0.2177
   62MPD2    N1  973   3.914   2.288  15.270  0.1367  0.5392 -0.0597
   62MPD2    H7  974   3.943   2.385  15.262 -0.6736  0.5980 -2.5871
   63TMC2    C1  975   2.803   2.651  10.173 -0.0265 -0.5988 -0.8844
   63TMC2    C2  976   2.924   2.591  10.188 -0.1457  0.1335  0.1375
   63TMC2    C3  977   3.035   2.671  10.179  0.4798  0.1626 -0.1689
   63TMC2    C4  978   2.796   2.784  10.146  0.0353 -0.1086 -0.6459
   63TMC2    C5  979   2.909   2.855  10.133  0.0380 -0.6639 -0.3254
   63TMC2    C6  980   3.034   2.797  10.143 -0.5362 -0.0228  0.4477
   63TMC2     C  981   2.674   2.584  10.204 -0.9512 -0.7770 -0.1479
   63TMC2     O  982   2.576   2.635  10.150 -0.0343 -0.4498 -0.3682
   63TMC2     H  983   2.933   2.488  10.221 -0.2327 -0.2751 -1.1224
   63TMC2    H1  984   2.698   2.824  10.123  0.1191  0.1899 -0.4825
   63TMC2    H2  985   3.126   2.839  10.105  0.6799 -2.2757  0.9139
   63TMC2    C7  986   2.894   2.993  10.093  0.5664  0.2545  0.2718
   63TMC2    C8  987   3.165   2.597  10.174 -0.4959 -0.1427 -0.2308
   63TMC2    O1  988   2.786   3.024  10.042 -0.4144  0.2587 -0.0328
   63TMC2    O2  989   3.161   2.475  10.163 -0.0739  0.4470 -0.3057
   63TMC2    O5  990   3.259   2.672  10.232  0.1129 -0.1467 -0.8019
   63TMC2    H5  991   3.221   2.760  10.252 -3.8097 -1.6677 -1.4863
   64MPD2     C  992   2.408   2.204  10.426 -0.1431 -0.1230 -0.2196
   64MPD2    C1  993   2.539   2.204  10.479 -0.2067  0.0274 -0.6255
   64MPD2    C2  994   2.632   2.302  10.434 -0.1449  0.0296  0.9490
   64MPD2    C3  995   2.594   2.390  10.338 -0.0948 -0.1607 -0.1237
   64MPD2    C4  996   2.464   2.395  10.289  0.0816 -0.5776  0.1080
   64MPD2    C5  997   2.368   2.305  10.333 -0.5119 -0.1239 -0.3386
   64MPD2     H  998   2.735   2.301  10.468 -0.3981 -1.4424  1.6566
   64MPD2    H1  999   2.429   2.465  10.214 -0.5524 -0.6895  0.2986
   64MPD2    H2 1000   2.329   2.144  10.468 -0.6189  0.0426 -0.8864
   64MPD2    H3 1001   2.265   2.310  10.300 -0.7139 -3.0902 -0.1562
   64MPD2     N 1002   2.691   2.474  10.288  0.3826  0.4939 -0.4295
   64MPD2    H5 1003   2.784   2.464  10.328  0.2489  3.0980  0.5649
   64MPD2    N1 1004   2.589   2.110  10.573  0.4242 -0.0171  0.1821
   64MPD2    H7 1005   2.682   2.122  10.613  0.5465  0.6656 -0.3014
   65TMC2    C1 1006   4.400   2.053  15.360  0.8309 -0.1161  0.0914
   65TMC2    C2 1007   4.491   2.051  15.249  0.0005  0.0297 -0.0425
   65TMC2    C3 1008   4.458   2.116  15.129  0.1710 -0.1967 -0.4471
   65TMC2    C4 1009   4.302   2.148  15.360  0.2038 -0.0444 -0.3131
   65TMC2    C5 1010   4.287   2.228  15.250  0.3088 -0.3789 -0.3906
   65TMC2    C6 1011   4.360   2.212  15.133 -0.3155  0.4543 -0.2336
   65TMC2     C 1012   4.410   1.958  15.467 -0.6154  0.0924  0.7341
   65TMC2     O 1013   4.359   1.982  15.577  0.0224 -0.2260  0.0488
   65TMC2     H 1014   4.591   2.010  15.257 -0.1985 -0.9222 -2.7406
   65TMC2    H1 1015   4.242   2.148  15.451  0.1341  1.6301 -0.3697
   65TMC2    H2 1016   4.350   2.282  15.050  2.3325  0.4534 -0.5772
   65TMC2    C7 1017   4.227   2.354  15.275 -0.4421  0.0935 -0.4585
   65TMC2    C8 1018   4.529   2.085  15.008  0.6161 -0.3003  0.3861
   65TMC2    O1 1019   4.211   2.413  15.168 -0.0267  0.1344  0.7112
   65TMC2    O2 1020   4.645   2.047  14.996  0.6369  0.2888 -0.1945
   65TMC2    O5 1021   4.432   2.040  14.923  0.1737  0.1309  0.1052
   65TMC2    H5 1022   4.341   2.046  14.960  0.0368 -0.6517 -0.1092
   66MPD2     C 1023   4.520   1.727  15.631 -0.2067  0.2318 -0.7235
   66MPD2    C1 1024   4.505   1.722  15.496 -0.4454 -0.3932  0.6396
   66MPD2    C2 1025   4.535   1.605  15.428 -0.1735  0.0017 -0.1673
   66MPD2    C3 1026   4.554   1.487  15.490  0.0056  0.2682  0.0857
   66MPD2    C4 1027   4.569   1.491  15.635 -0.3446  0.2779 -0.3065
   66MPD2    C5 1028   4.554   1.617  15.698  0.3129  0.4883  0.0744
   66MPD2     H 1029   4.520   1.612  15.321 -0.7870  1.0828 -0.0116
   66MPD2    H1 1030   4.592   1.402  15.692  0.0506 -0.4784 -1.6561
   66MPD2    H2 1031   4.480   1.808  15.692  0.6689  0.6460 -0.7016
   66MPD2    H3 1032   4.559   1.635  15.804  1.4964 -3.0147  0.6227
   66MPD2     N 1033   4.531   1.367  15.424 -0.1734 -0.0776 -0.2893
   66MPD2    H5 1034   4.514   1.282  15.477 -0.6444 -1.0881 -2.0621
   66MPD2    N1 1035   4.466   1.837  15.423 -0.0791 -0.7275 -0.0729
   66MPD2    H7 1036   4.470   1.840  15.321 -1.9020  1.7702 -0.0541
   67TMC2    C1 1037   0.055   1.278  13.894  0.5843 -0.5639  0.6506
   67TMC2    C2 1038   4.710   1.385  13.907  0.1730  0.8452  0.1374
   67TMC2    C3 1039   4.712   1.453  14.022 -0.5646 -0.3919  0.0251
   67TMC2    C4 1040   0.149   1.248  13.991  0.1782 -0.3578 -0.9607
   67TMC2    C5 1041   0.135   1.315  14.110 -0.8428  0.3786  0.1873
   67TMC2    C6 1042   0.053   1.426  14.128  0.6183 -0.2324  0.1864
   67TMC2     C 1043   0.013   1.164  13.813  0.2835  0.4617 -0.0428
   67TMC2     O 1044   0.087   1.070  13.795 -0.0635  0.5027 -0.3788
   67TMC2     H 1045   4.647   1.410  13.822 -0.8151  0.4081  0.7419
   67TMC2    H1 1046   0.221   1.166  13.987 -0.0372 -0.6894  2.0814
   67TMC2    H2 1047   0.037   1.474  14.224 -0.5939 -1.1794  0.4602
   67TMC2    C7 1048   0.249   1.303  14.199  0.5495  0.2903 -0.2708
   67TMC2    C8 1049   4.637   1.576  14.028 -0.0257  0.3731  0.1404
   67TMC2    O1 1050   0.350   1.250  14.160  0.0229  0.1958 -0.1387
   67TMC2    O2 1051   4.562   1.605  13.936 -0.1786 -0.1823  0.1332
   67TMC2    O5 1052   4.697   1.651  14.125  0.2150  0.3903  0.0398
   67TMC2    H5 1053   4.677   1.746  14.114  1.9573  0.8661  0.9705
   68MPD2     C 1054   4.598   0.984  13.628  0.1535 -0.2531 -0.7075
   68MPD2    C1 1055   4.539   1.084  13.705 -0.1568  0.5843 -0.3718
   68MPD2    C2 1056   4.399   1.092  13.721 -0.0949  0.3868  0.0363
   68MPD2    C3 1057   4.317   1.008  13.645 -0.6080  0.1709  0.3872
   68MPD2    C4 1058   4.380   0.935  13.541  0.0117  0.0473  0.2977
   68MPD2    C5 1059   4.515   0.916  13.542 -0.4964 -0.2426  0.5364
   68MPD2     H 1060   4.355   1.169  13.783  0.9600  1.7311 -0.8724
   68MPD2    H1 1061   4.318   0.879  13.471 -0.5887  1.9281 -0.6602
   68MPD2    H2 1062   4.705   0.966  13.624  0.0435 -1.1445  0.3573
   68MPD2    H3 1063   4.561   0.840  13.480 -1.7087 -1.7488  1.4606
   68MPD2     N 1064   4.177   1.005  13.665 -0.7397 -0.3463  0.2164
   68MPD2    H5 1065   4.125   0.951  13.596  0.4331 -0.7662 -0.3310
   68MPD2    N1 1066   4.615   1.179  13.780  0.3788  0.8249  0.6948
   68MPD2    H7 1067   4.564   1.253  13.827 -1.5557  0.4245 -0.7652
   69TMC2    C1 1068   1.149   2.195  11.752 -0.6823  0.3406  0.2089
   69TMC2    C2 1069   1.100   2.282  11.656 -0.2744 -0.5065 -0.1864
   69TMC2    C3 1070   1.184   2.334  11.566 -0.0657  0.2615  0.7420
   69TMC2    C4 1071   1.285   2.170  11.770 -0.1153 -0.3137 -0.6706
   69TMC2    C5 1072   1.366   2.239  11.682  0.0466  0.1703  0.7237
   69TMC2    C6 1073   1.316   2.312  11.579 -0.7884  0.6893 -0.2383
   69TMC2     C 1074   1.061   2.155  11.859 -0.3808 -0.2543 -0.1581
   69TMC2     O 1075   1.092   2.058  11.923  0.2554 -0.1024 -0.1504
   69TMC2     H 1076   0.994   2.300  11.641  0.2466  1.6616 -1.2771
   69TMC2    H1 1077   1.319   2.102  11.848 -1.6998 -0.6596 -0.2754
   69TMC2    H2 1078   1.374   2.331  11.489 -2.2089  1.2697 -1.0293
   69TMC2    C7 1079   1.510   2.245  11.697 -1.0384  0.1629  0.5067
   69TMC2    C8 1080   1.127   2.357  11.436 -0.0882  0.6169  0.7533
   69TMC2    O1 1081   1.559   2.307  11.604 -0.4292  0.3234 -0.2716
   69TMC2    O2 1082   1.065   2.270  11.375  0.1449  0.0430  0.2814
   69TMC2    O5 1083   1.177   2.477  11.393  0.2601 -0.2037  1.5394
   69TMC2    H5 1084   1.211   2.520  11.474 -1.9666 -0.0225  2.3924
   70MPD2     C 1085   0.838   2.383  12.040  0.1192  0.2085 -0.1458
   70MPD2    C1 1086   0.915   2.270  12.019 -0.2194 -0.7218 -0.1818
   70MPD2    C2 1087   0.931   2.181  12.127 -0.1256 -0.4465 -0.4768
   70MPD2    C3 1088   0.874   2.212  12.249 -0.2172 -0.2293 -1.0658
   70MPD2    C4 1089   0.789   2.324  12.256 -0.0447 -0.8191  0.2305
   70MPD2    C5 1090   0.778   2.412  12.157  0.0151 -0.3687 -0.0319
   70MPD2     H 1091   0.988   2.088  12.130 -1.9915 -1.5356  1.6720
   70MPD2    H1 1092   0.736   2.345  12.348  1.0103  1.5033  0.3191
   70MPD2    H2 1093   0.830   2.455  11.959 -0.2168  1.3168  0.8753
   70MPD2    H3 1094   0.718   2.502  12.159  0.1739 -0.2637 -0.0316
   70MPD2     N 1095   0.905   2.119  12.355 -0.4171 -0.8215 -0.0476
   70MPD2    H5 1096   0.980   2.052  12.342 -1.5261 -1.8795 -1.0041
   70MPD2    N1 1097   0.979   2.256  11.895 -0.0942  0.0755  0.1821
   70MPD2    H7 1098   0.973   2.333  11.828  1.3115  1.3862  1.5754
   71TMC2    C1 1099   4.061   2.679   1.345  0.5157  0.1729 -0.0409
   71TMC2    C2 1100   4.147   2.736   1.427  0.2058 -0.2697  0.6542
   71TMC2    C3 1101   4.119   2.716   1.560  0.3752  0.0395  0.0814
   71TMC2    C4 1102   3.947   2.614   1.388  0.6812 -0.1675 -0.4093
   71TMC2    C5 1103   3.923   2.609   1.527 -0.1249 -0.7522  0.1958
   71TMC2    C6 1104   4.014   2.651   1.617  0.7848  1.2370 -0.6142
   71TMC2     C 1105   4.082   2.671   1.201 -0.1022 -0.2994  0.3886
   71TMC2     O 1106   3.992   2.658   1.120  0.3639  0.1500  0.2069
   71TMC2     H 1107   4.222   2.799   1.382 -0.8064  1.1468  0.9522
   71TMC2    H1 1108   3.888   2.558   1.316 -1.4963 -0.5587  1.6752
   71TMC2    H2 1109   4.007   2.652   1.725  0.1915 -1.4060 -0.6198
   71TMC2    C7 1110   3.816   2.524   1.581  0.0253  0.5344  0.0510
   71TMC2    C8 1111   4.227   2.750   1.650  0.0972 -0.6357  0.2994
   71TMC2    O1 1112   3.821   2.497   1.699 -0.5315 -0.5183 -0.2208
   71TMC2    O2 1113   4.212   2.781   1.766  0.0134  0.1289  0.4351
   71TMC2    O5 1114   4.346   2.739   1.595 -0.0017 -0.2518  0.3687
   71TMC2    H5 1115   4.348   2.683   1.515  2.7162  2.4788 -1.5133
   72MPD2     C 1116   4.392   2.753   0.793 -0.0559 -0.3022  0.0049
   72MPD2    C1 1117   4.257   2.774   0.810  0.9291 -0.0876  0.3842
   72MPD2    C2 1118   4.194   2.736   0.930  0.3080  0.4719 -0.1268
   72MPD2    C3 1119   4.269   2.697   1.039 -0.2246  0.3946 -0.2239
   72MPD2    C4 1120   4.406   2.684   1.021 -0.0654  0.2486 -0.1586
   72MPD2    C5 1121   4.465   2.720   0.902 -0.2349  0.1988  0.1201
   72MPD2     H 1122   4.087   2.745   0.939  0.2312 -1.5009  1.0924
   72MPD2    H1 1123   4.471   2.671   1.108  0.3465 -1.7589 -0.7849
   72MPD2    H2 1124   4.448   2.787   0.707 -0.4743 -0.3902 -0.3035
   72MPD2    H3 1125   4.572   2.698   0.901 -0.5075 -1.0836 -1.4288
   72MPD2     N 1126   4.216   2.676   1.168 -0.3700 -0.4524  0.0792
   72MPD2    H5 1127   4.286   2.659   1.240  0.8405 -0.9379 -1.2154
   72MPD2    N1 1128   4.172   2.809   0.702  0.1111  0.3791 -0.5511
   72MPD2    H7 1129   4.071   2.816   0.715  0.1412  0.9396 -0.6065
   73TMC2    C1 1130   3.615   4.617  14.014  0.0838  0.7958 -0.0999
   73TMC2    C2 1131   3.575   4.635  14.143  0.2928 -0.2352 -0.0066
   73TMC2    C3 1132   3.663   4.623  14.246 -0.3556 -0.4902  0.7839
   73TMC2    C4 1133   3.743   4.571  13.995 -0.3434  0.3228  0.2945
   73TMC2    C5 1134   3.828   4.553  14.105 -0.2848  0.2550  0.2252
   73TMC2    C6 1135   3.786   4.566  14.233  0.0837  0.2405 -0.2468
   73TMC2     C 1136   3.585   4.712  13.911  0.0261  0.1895 -0.2115
   73TMC2     O 1137   3.685   0.008  13.848  0.4056  0.7235 -0.1758
   73TMC2     H 1138   3.485   4.691  14.168  1.4272  1.3855  0.4270
   73TMC2    H1 1139   3.776   4.561  13.892 -1.2436  1.3118 -0.0822
   73TMC2    H2 1140   3.860   4.566  14.313 -0.5314 -1.2184  0.3202
   73TMC2    C7 1141   3.948   4.626  14.073  0.2511  0.0864  0.6399
   73TMC2    C8 1142   3.606   4.623  14.380 -0.0207  0.1647  0.5847
   73TMC2    O1 1143   4.047   4.616  14.143  0.0321  0.3227  0.1694
   73TMC2    O2 1144   3.502   4.561  14.405 -0.1390  0.3789 -0.2181
   73TMC2    O5 1145   3.701   4.671  14.460  0.4728 -0.2157  1.1169
   73TMC2    H5 1146   3.770   4.718  14.407  0.5323  0.3046  1.6503
   74MPD2     C 1147   3.304   0.153  13.542 -0.3037 -0.1482 -0.8848
   74MPD2    C1 1148   3.433   0.188  13.574  0.2856 -0.2941 -0.4046
   74MPD2    C2 1149   3.478   0.131  13.693 -0.2475  0.7506  0.4560
   74MPD2    C3 1150   3.403   0.037  13.758 -0.4995  0.1572 -0.2640
   74MPD2    C4 1151   3.275   0.006  13.715  0.2824  0.0721 -0.2068
   74MPD2    C5 1152   3.217   0.072  13.613  0.7035 -0.1098 -0.5739
   74MPD2     H 1153   3.572   0.165  13.735  0.4633 -1.4140  0.6196
   74MPD2    H1 1154   3.216   4.680  13.782  1.6625  1.5167  2.3406
   74MPD2    H2 1155   3.260   0.205  13.458  0.5290 -1.4570 -2.1385
   74MPD2    H3 1156   3.110   0.057  13.598  0.0152  1.4429  2.6420
   74MPD2     N 1157   3.449   4.705  13.877 -0.0559  0.7032  0.6042
   74MPD2    H5 1158   3.388   4.648  13.935  0.7938 -0.3132  0.5105
   74MPD2    N1 1159   3.503   0.280  13.494  0.1548 -0.5257  0.3068
   74MPD2    H7 1160   3.457   0.312  13.409  0.8347 -1.0126 -0.2336
   75TMC2    C1 1161   3.964   1.050  13.786  0.1834 -0.2097 -0.9604
   75TMC2    C2 1162   3.923   1.037  13.913 -0.1946 -0.0854 -0.4439
   75TMC2    C3 1163   3.788   1.026  13.928 -0.5398  0.1818 -0.1489
   75TMC2    C4 1164   3.883   1.029  13.682  0.3574  0.2155  0.2516
   75TMC2    C5 1165   3.752   0.996  13.696  0.0036 -0.4826  0.4780
   75TMC2    C6 1166   3.704   1.000  13.824  0.3881 -0.1133 -0.0440
   75TMC2     C 1167   4.111   1.056  13.776  0.2575 -0.8434  0.5687
   75TMC2     O 1168   4.166   1.084  13.878 -0.1148 -0.8877  0.1573
   75TMC2     H 1169   3.984   1.072  13.995  1.0221 -1.4818 -0.7360
   75TMC2    H1 1170   3.921   1.045  13.581 -0.9927 -2.4453 -0.6769
   75TMC2    H2 1171   3.599   0.994  13.849  0.5825  0.2309  0.8554
   75TMC2    C7 1172   3.664   1.058  13.598 -0.0642  0.1871 -0.4058
   75TMC2    C8 1173   3.757   0.984  14.061  0.1733 -0.0681 -0.0659
   75TMC2    O1 1174   3.694   1.041  13.483  0.3760  0.4820  0.4881
   75TMC2    O2 1175   3.650   1.024  14.098 -0.2781  0.2670 -0.3657
   75TMC2    O5 1176   3.796   0.851  14.055 -0.7934 -0.0458  0.4069
   75TMC2    H5 1177   3.893   0.844  14.044 -1.0889 -3.4935  0.0884
   76TMC2    C1 1178   2.377   1.604  11.947 -0.1105  0.1640 -0.3820
   76TMC2    C2 1179   2.244   1.575  11.953 -0.6753  0.4597 -0.0526
   76TMC2    C3 1180   2.199   1.498  12.060  0.0085  0.2839 -0.7931
   76TMC2    C4 1181   2.463   1.590  12.058  0.0922 -0.1256  0.3484
   76TMC2    C5 1182   2.412   1.501  12.151 -0.4608  0.2895  0.5865
   76TMC2    C6 1183   2.289   1.454  12.153 -0.8158 -0.3098  0.0398
   76TMC2     C 1184   2.418   1.697  11.846 -0.8036  0.3562 -1.1855
   76TMC2     O 1185   2.328   1.749  11.780 -0.0415 -0.1644  0.1802
   76TMC2     H 1186   2.168   1.611  11.884 -0.4717  1.1436  0.0797
   76TMC2    H1 1187   2.550   1.652  12.076  0.5478 -0.7099  0.1827
   76TMC2    H2 1188   2.244   1.409  12.240 -0.9340 -1.3162 -0.5469
   76TMC2    C7 1189   2.496   1.458  12.259  0.0063  0.0528 -0.1177
   76TMC2    C8 1190   2.061   1.522  12.092  0.3764 -0.2007  0.1639
   76TMC2    O1 1191   2.450   1.397  12.356  0.1931  0.3582  0.5859
   76TMC2    O2 1192   1.987   1.564  12.005 -0.2070 -0.0310 -0.5715
   76TMC2    O5 1193   2.056   1.577  12.214 -0.3908  0.0694 -0.3165
   76TMC2    H5 1194   2.128   1.554  12.277 -0.0684 -0.9381 -1.0471
   77MPD2     C 1195   2.714   2.116  11.742 -0.2158  0.4228 -0.3962
   77MPD2    C1 1196   2.582   2.096  11.726 -0.0613 -0.0737  0.4127
   77MPD2    C2 1197   2.526   1.975  11.768 -0.4619  0.2458  0.2965
   77MPD2    C3 1198   2.597   1.869  11.817 -0.4451  0.0513 -0.0139
   77MPD2    C4 1199   2.733   1.892  11.841  0.2454 -0.0696  0.0806
   77MPD2    C5 1200   2.791   2.016  11.811 -0.6537  0.7464  0.8629
   77MPD2     H 1201   2.421   1.960  11.749 -0.7425  0.4106  1.7267
   77MPD2    H1 1202   2.795   1.810  11.876  1.0656 -1.3042 -4.2062
   77MPD2    H2 1203   2.762   2.206  11.705  0.2489  1.3970  2.4979
   77MPD2    H3 1204   2.896   2.028  11.836 -0.5120  0.5607  0.3409
   77MPD2     N 1205   2.545   1.743  11.855  0.1433  0.5283  0.8483
   77MPD2    H5 1206   2.603   1.681  11.911  1.0407  1.0631  0.5031
   77MPD2    N1 1207   2.489   2.194  11.682  0.1821 -0.0981 -0.2374
   77MPD2    H7 1208   2.391   2.165  11.690  0.6392 -0.7252  2.9131
   78TMC2    C1 1209   3.689   2.087   1.303  0.3238 -0.5194  0.2447
   78TMC2    C2 1210   3.644   2.009   1.407 -0.1884  0.5538 -0.2019
   78TMC2    C3 1211   3.718   1.997   1.523  0.0213  0.2466 -0.2953
   78TMC2    C4 1212   3.804   2.160   1.323  0.4136  0.7086  0.5601
   78TMC2    C5 1213   3.880   2.135   1.434  0.6026  0.4686 -0.3784
   78TMC2    C6 1214   3.838   2.058   1.536 -0.0090 -0.4404  0.4851
   78TMC2     C 1215   3.642   2.068   1.168 -0.3058 -0.3284  0.3671
   78TMC2     O 1216   3.711   2.123   1.086 -0.8922 -0.1270  0.5306
   78TMC2     H 1217   3.540   1.981   1.396 -0.2969 -0.0615  2.3654
   78TMC2    H1 1218   3.840   2.221   1.241  0.2294  0.1548  0.0640
   78TMC2    H2 1219   3.906   2.036   1.618  0.9983 -0.6793 -0.4078
   78TMC2    C7 1220   4.003   2.191   1.438  0.2693  0.4661  0.2202
   78TMC2    C8 1221   3.692   1.892   1.627  0.3639 -0.6859  0.0277
   78TMC2    O1 1222   4.058   2.207   1.329 -0.0308  0.2343  0.6006
   78TMC2    O2 1223   3.730   1.924   1.739 -0.1281  0.0348 -0.0009
   78TMC2    O5 1224   3.597   1.812   1.590 -0.7494  0.4894  0.2155
   78TMC2    H5 1225   3.570   1.824   1.497 -0.4963  0.0233  0.0838
   79MPD1     C 1226   3.332   1.877   0.805  0.8364 -0.2512  0.5253
   79MPD1    C1 1227   3.436   1.975   0.795 -0.4280 -0.2646  0.3238
   79MPD1    C2 1228   3.509   2.005   0.909  0.4473  0.2082 -0.9808
   79MPD1    C3 1229   3.469   1.956   1.026  0.1567 -0.4333  0.0588
   79MPD1    C4 1230   3.370   1.862   1.041 -0.2379 -0.9014  0.8048
   79MPD1    C5 1231   3.302   1.822   0.930 -0.1509  0.3339  0.2229
   79MPD1     H 1232   3.588   2.078   0.898 -0.8950  1.5309 -1.9073
   79MPD1    H1 1233   3.333   1.824   1.136 -2.5985 -1.0245 -0.1446
   79MPD1    H2 1234   3.284   1.848   0.712 -0.6337 -1.5879  1.7012
   79MPD1    H3 1235   3.211   1.764   0.941  0.7964 -0.8694  1.7455
   79MPD1     N 1236   3.538   1.987   1.151 -1.2590 -0.2466  0.4930
   79MPD1    H5 1237   3.503   1.932   1.229  0.6970  0.0084  1.5453
   79MPD1    N1 1238   3.467   2.032   0.666  0.1739  0.1455  0.7867
   79MPD1    H6 1239   3.399   2.002   0.597  0.3084  0.0321  0.7021
   79MPD1    H7 1240   3.485   2.132   0.668 -3.6921  0.8077  3.6005
   80TMC2    C1 1241   1.962   1.122  11.947  0.5498 -0.2502  1.1239
   80TMC2    C2 1242   2.023   1.151  11.828  0.1794  0.7081 -0.3663
   80TMC2    C3 1243   1.943   1.147  11.715  0.6347  0.2106 -0.3442
   80TMC2    C4 1244   1.830   1.103  11.961  0.0795  0.3762 -0.6352
   80TMC2    C5 1245   1.750   1.108  11.849 -0.7998  0.0206  0.1312
   80TMC2    C6 1246   1.806   1.139  11.724 -0.4585 -0.3501  0.9249
   80TMC2     C 1247   2.039   1.145  12.070 -0.3513 -0.2516  0.3097
   80TMC2     O 1248   2.160   1.135  12.064  0.3279  0.0612 -0.2112
   80TMC2     H 1249   2.128   1.173  11.813  0.4915 -0.0061  0.7848
   80TMC2    H1 1250   1.788   1.055  12.049  1.7795 -2.9499 -1.6307
   80TMC2    H2 1251   1.760   1.154  11.628  0.2657 -1.6146  0.3731
   80TMC2    C7 1252   1.606   1.112  11.851 -0.4239  1.0302 -0.4285
   80TMC2    C8 1253   2.002   1.202  11.596  0.7435 -0.3643 -0.0286
   80TMC2    O1 1254   1.545   1.148  11.749 -0.3861  0.2181  0.2861
   80TMC2    O2 1255   2.111   1.151  11.565  0.3111  0.7196 -0.0803
   80TMC2    O5 1256   1.988   1.332  11.626  0.0370 -0.2733  0.0599
   80TMC2    H5 1257   1.908   1.349  11.680  0.3278  0.6009  0.2028
   81MPD2     C 1258   2.118   1.179  12.355  0.1556 -1.1794  0.9600
   81MPD2    C1 1259   1.994   1.213  12.313  0.2300 -0.0859 -0.0557
   81MPD2    C2 1260   1.897   1.275  12.393  0.0095  0.3135  0.2354
   81MPD2    C3 1261   1.939   1.316  12.524 -0.6518  0.3227  0.1388
   81MPD2    C4 1262   2.065   1.274  12.564 -0.5791 -0.4665 -0.1977
   81MPD2    C5 1263   2.158   1.222  12.482  0.4480 -0.5023 -0.5244
   81MPD2     H 1264   1.795   1.287  12.358  0.7910 -1.4874 -2.7126
   81MPD2    H1 1265   2.097   1.287  12.667  0.4921  0.2725 -0.6262
   81MPD2    H2 1266   2.184   1.121  12.291  0.0481 -0.7560  0.4709
   81MPD2    H3 1267   2.245   1.182  12.532  0.1464  2.8499  2.6013
   81MPD2     N 1268   1.851   1.395  12.601  0.1813 -0.1083  0.3688
   81MPD2    H5 1269   1.868   1.420  12.698  0.2680  0.8644  0.1035
   81MPD2    N1 1270   1.954   1.182  12.178  0.2214 -0.5037  0.3904
   81MPD2    H7 1271   1.863   1.219  12.153 -0.7579 -3.2461 -0.0431
   82TMC2    C1 1272   4.381   0.547  11.026  0.1774 -0.0191 -0.7077
   82TMC2    C2 1273   4.462   0.594  11.124  0.2836  0.1017 -0.2806
   82TMC2    C3 1274   4.465   0.529  11.245  0.4848  0.5435 -0.1520
   82TMC2    C4 1275   4.304   0.442  11.038 -0.0201  0.1536 -0.4615
   82TMC2    C5 1276   4.300   0.383  11.165  0.0075  0.2111 -0.6439
   82TMC2    C6 1277   4.377   0.432  11.273 -0.5928 -0.0742 -0.0442
   82TMC2     C 1278   4.388   0.608  10.894 -0.4448 -0.1425 -0.5123
   82TMC2     O 1279   4.294   0.582  10.820 -0.1615  0.0992 -0.3641
   82TMC2     H 1280   4.513   0.690  11.123 -2.4793  1.5840  2.8915
   82TMC2    H1 1281   4.236   0.410  10.960  0.5469 -0.9073 -0.5189
   82TMC2    H2 1282   4.382   0.386  11.372  1.0581  0.0982 -0.0580
   82TMC2    C7 1283   4.222   0.261  11.187 -0.4809 -0.2554  0.4393
   82TMC2    C8 1284   4.528   0.599  11.352  0.0106 -0.0858  0.5260
   82TMC2    O1 1285   4.253   0.220  11.298 -0.2948  0.0236  0.2237
   82TMC2    O2 1286   4.488   0.582  11.467 -0.1856 -0.3345  0.3889
   82TMC2    O5 1287   4.659   0.608  11.314  0.2233  0.4543 -0.5641
   82TMC2    H5 1288   4.678   0.608  11.218 -0.4911  1.2122 -0.7096
   83MPD2     C 1289   4.555   1.008  10.622  0.7280  0.3307 -0.5788
   83MPD2    C1 1290   4.427   0.958  10.636 -0.3074 -0.0668 -0.1089
   83MPD2    C2 1291   4.413   0.850  10.713 -0.4661 -0.2590 -0.4298
   83MPD2    C3 1292   4.517   0.800  10.791  1.1048  0.1329 -0.8283
   83MPD2    C4 1293   4.641   0.855  10.785 -0.5963 -0.1090  0.9134
   83MPD2    C5 1294   4.658   0.954  10.687  0.0422 -0.0021  0.3825
   83MPD2     H 1295   4.319   0.801  10.733 -0.9038 -0.0797 -2.0918
   83MPD2    H1 1296   4.728   0.820  10.840 -1.3694 -1.2846  1.3782
   83MPD2    H2 1297   4.575   1.076  10.540  1.7163  0.6054 -0.1095
   83MPD2    H3 1298   0.022   0.990  10.669  0.3281 -0.5228  0.9563
   83MPD2     N 1299   4.498   0.689  10.877 -0.7336  0.5138 -0.4112
   83MPD2    H5 1300   4.572   0.670  10.943 -0.7226 -0.4083 -0.6850
   83MPD2    N1 1301   4.329   1.045  10.592 -0.1698  0.0222  0.3160
   83MPD2    H7 1302   4.353   1.126  10.537 -1.8224  0.7280  0.6227
   84TMC2    C1 1303   1.455   0.084  10.684 -0.6535  0.2532  0.0897
   84TMC2    C2 1304   1.375   4.723  10.638 -0.5179 -0.3377 -0.7405
   84TMC2    C3 1305   1.411   4.666  10.522 -0.0047 -0.3414  0.0650
   84TMC2    C4 1306   1.578   0.117  10.636 -0.2408 -0.0231 -0.0576
   84TMC2    C5 1307   1.609   0.047  10.521 -0.2619 -0.2235  0.5328
   84TMC2    C6 1308   1.527   4.696  10.458  0.6249 -0.7075 -0.3780
   84TMC2     C 1309   1.448   0.106  10.829  0.3677 -0.1341  0.0697
   84TMC2     O 1310   1.546   0.156  10.884 -0.2416  0.1542  0.0367
   84TMC2     H 1311   1.293   4.683  10.696 -0.4338  0.9567  0.2690
   84TMC2    H1 1312   1.639   0.193  10.683 -0.4989 -0.3367  0.7818
   84TMC2    H2 1313   1.563   4.639  10.373 -0.6267  1.1170 -2.1389
   84TMC2    C7 1314   1.725   0.092  10.444 -0.1535  0.0515  0.2462
   84TMC2    C8 1315   1.311   4.571  10.470  0.2182  0.5953 -0.4866
   84TMC2    O1 1316   1.743   0.052  10.330 -0.5449  0.5796 -1.0672
   84TMC2    O2 1317   1.190   4.586  10.478 -0.3688  0.1564  0.0266
   84TMC2    O5 1318   1.385   4.459  10.457  0.1120 -0.2925  0.0210
   84TMC2    H5 1319   1.474   4.483  10.490 -0.3424  2.2365 -0.6224
   85TMC2    C1 1320   1.948   3.277  15.664  0.0392 -0.0206 -0.3344
   85TMC2    C2 1321   1.834   3.356  15.687 -0.2161  0.0287  0.2607
   85TMC2    C3 1322   1.833   3.479  15.627  0.4721  0.0865 -0.5120
   85TMC2    C4 1323   2.057   3.331  15.595  0.1595  0.4707  0.4184
   85TMC2    C5 1324   2.032   3.441  15.514  0.4112  0.3282 -0.5743
   85TMC2    C6 1325   1.918   3.516  15.525  0.0518  0.3844  0.4988
   85TMC2     C 1326   1.977   3.176  15.768 -0.1652  0.0389 -0.4553
   85TMC2     O 1327   2.095   3.149  15.792  0.8631  0.4536  0.0579
   85TMC2     H 1328   1.761   3.342  15.766 -0.5470 -0.5275 -0.1501
   85TMC2    H1 1329   2.151   3.277  15.589 -0.2162 -0.3058  1.5322
   85TMC2    H2 1330   1.906   3.609  15.471 -0.8447 -0.4409 -0.7325
   85TMC2    C7 1331   2.075   3.426  15.378  0.0645  0.6886 -0.4344
   85TMC2    C8 1332   1.757   3.586  15.693  0.0466  0.2865 -0.8142
   85TMC2    O1 1333   2.161   3.342  15.354 -0.1594 -0.4791 -0.5396
   85TMC2    O2 1334   1.733   3.690  15.628 -0.0286 -0.4680 -0.6571
   85TMC2    O5 1335   1.748   3.580  15.826  0.0260 -0.6238  0.2436
   85TMC2    H5 1336   1.802   3.511  15.871  0.6282 -0.7595 -0.6854
   86MPD2     C 1337   1.869   2.792  16.077 -0.3475 -0.1123  0.2935
   86MPD2    C1 1338   1.753   2.819  16.010  0.0007 -0.2678  0.4043
   86MPD2    C2 1339   1.753   2.922  15.916  0.1663 -1.1016 -0.4073
   86MPD2    C3 1340   1.861   3.015  15.914  0.6720 -0.5966 -0.5685
   86MPD2    C4 1341   1.972   2.993  15.995  0.4659 -0.1835 -0.7258
   86MPD2    C5 1342   1.972   2.881  16.070  0.3111 -0.0646  0.6148
   86MPD2     H 1343   1.668   2.929  15.849 -1.1083  2.1771  1.5489
   86MPD2    H1 1344   2.051   3.066  16.002 -0.7481  1.3994 -3.5871
   86MPD2    H2 1345   1.875   2.701  16.136  0.0528 -0.0374  0.3668
   86MPD2    H3 1346   2.064   2.860  16.124 -0.9495  0.9481  3.1624
   86MPD2     N 1347   1.862   3.121  15.821  0.0151 -0.4481  0.3687
   86MPD2    H5 1348   1.768   3.147  15.790  0.3547 -1.1013 -1.2224
   86MPD2    N1 1349   1.642   2.730  16.020  0.0979 -0.3976 -0.2824
   86MPD2    H7 1350   1.561   2.746  15.962 -0.2717 -2.2117 -0.2877
   87TMC2    C1 1351   4.318   0.840   0.894  0.3734 -0.4618  0.1795
   87TMC2    C2 1352   4.337   0.796   1.023  0.2645 -0.1973  0.5776
   87TMC2    C3 1353   4.275   0.858   1.123  0.0892 -1.0776  0.6049
   87TMC2    C4 1354   4.235   0.945   0.863  0.2477  0.2591 -0.5477
   87TMC2    C5 1355   4.181   1.009   0.963  0.2574 -0.0642  0.3310
   87TMC2    C6 1356   4.192   0.965   1.094 -0.1375  0.1484  0.0451
   87TMC2     C 1357   4.378   0.762   0.786 -0.3717 -0.1869  0.6455
   87TMC2     O 1358   4.332   0.775   0.674 -0.4610 -0.1935  0.3727
   87TMC2     H 1359   4.398   0.712   1.053  0.7638  1.1318  3.2621
   87TMC2    H1 1360   4.219   0.973   0.759 -3.3643 -3.9269 -1.1359
   87TMC2    H2 1361   4.136   1.014   1.172 -1.1054 -1.5845  0.4216
   87TMC2    C7 1362   4.084   1.117   0.942  0.1839 -0.3345 -0.6009
   87TMC2    C8 1363   4.267   0.786   1.249  0.8386 -0.0714  0.2336
   87TMC2    O1 1364   4.029   1.164   1.043  0.5846 -0.5906 -0.0750
   87TMC2    O2 1365   4.236   0.669   1.253 -0.3970  0.7069  0.0268
   87TMC2    O5 1366   4.225   0.884   1.336  0.1940  0.3386 -0.3994
   87TMC2    H5 1367   4.264   0.973   1.325  0.4703  0.1285 -1.1081
   88MPD2     C 1368   3.895   1.228   0.642  0.0575  0.2606  0.5822
   88MPD2    C1 1369   3.949   1.236   0.765  0.7482 -0.6695 -0.0025
   88MPD2    C2 1370   3.905   1.338   0.849  0.4209  0.3450 -0.2643
   88MPD2    C3 1371   3.826   1.441   0.807 -0.5472  0.3657 -0.6276
   88MPD2    C4 1372   3.774   1.432   0.679  0.3212  0.1589  0.0337
   88MPD2    C5 1373   3.809   1.330   0.605 -0.4893 -0.4671  0.7452
   88MPD2     H 1374   3.973   1.361   0.930 -0.4931  0.4637  0.4687
   88MPD2    H1 1375   3.692   1.493   0.642 -0.9445 -0.8610  1.1590
   88MPD2    H2 1376   3.921   1.147   0.574 -2.2741  0.3001 -0.3497
   88MPD2    H3 1377   3.762   1.323   0.508  1.1397 -1.0998  0.0159
   88MPD2     N 1378   3.795   1.559   0.876 -0.1281  0.9277 -0.0162
   88MPD2    H5 1379   3.742   1.627   0.822 -1.0624 -0.1496 -0.4674
   88MPD2    N1 1380   4.031   1.128   0.813 -0.1322  0.6958  0.7940
   88MPD2    H7 1381   4.061   1.059   0.744  1.1465  2.8826 -0.8370
   89TMC2    C1 1382   0.590   3.783   1.234  0.1642 -0.1553  0.5116
   89TMC2    C2 1383   0.638   3.867   1.327  0.6103 -0.3190 -0.0902
   89TMC2    C3 1384   0.592   3.998   1.334  0.1969  0.3703  0.4853
   89TMC2    C4 1385   0.508   3.822   1.128 -0.1031  0.7703 -0.0320
   89TMC2    C5 1386   0.487   3.958   1.119  0.3691  0.1453  0.0165
   89TMC2    C6 1387   0.517   4.043   1.229  0.4935 -0.1420  1.1371
   89TMC2     C 1388   0.633   3.648   1.239  0.0664 -0.0455  0.0315
   89TMC2     O 1389   0.745   3.622   1.276  0.1987 -0.6103  0.0915
   89TMC2     H 1390   0.694   3.830   1.412  0.1841  1.8244  1.1270
   89TMC2    H1 1391   0.485   3.746   1.054  0.6787  0.7239 -0.2246
   89TMC2    H2 1392   0.500   4.150   1.226 -0.5346 -0.3552 -0.2919
   89TMC2    C7 1393   0.409   4.015   1.007  0.4379 -0.0638  0.7176
   89TMC2    C8 1394   0.677   4.092   1.398  0.5329  0.0864 -0.6986
   89TMC2    O1 1395   0.345   3.944   0.931  0.1201 -0.1773  0.3480
   89TMC2    O2 1396   0.782   4.065   1.450  0.1886  0.1467 -0.1698
   89TMC2    O5 1397   0.586   4.178   1.447 -0.4342 -0.3615 -0.3275
   89TMC2    H5 1398   0.498   4.163   1.407 -0.5851  0.1724 -0.2078
   90MPD2     C 1399   0.484   3.185   1.385  0.5638 -0.2411  0.8484
   90MPD2    C1 1400   0.374   3.247   1.345  0.7835 -0.1518 -0.2320
   90MPD2    C2 1401   0.399   3.365   1.279  0.2084 -0.6127  1.2603
   90MPD2    C3 1402   0.520   3.430   1.281  0.6666 -0.0531 -0.4681
   90MPD2    C4 1403   0.633   3.361   1.329  0.0278 -0.1536 -0.2111
   90MPD2    C5 1404   0.614   3.230   1.366 -0.2201  0.1154 -0.6427
   90MPD2     H 1405   0.312   3.419   1.243  0.8960  1.1782  2.2985
   90MPD2    H1 1406   0.737   3.393   1.319  0.1041 -0.0502  0.9790
   90MPD2    H2 1407   0.486   3.091   1.439  2.0732 -0.8862 -0.3107
   90MPD2    H3 1408   0.692   3.169   1.411 -2.2555 -1.6496  0.4574
   90MPD2     N 1409   0.523   3.563   1.238  0.1557 -0.0946 -0.5588
   90MPD2    H5 1410   0.434   3.601   1.208  0.0276  0.2033  0.2065
   90MPD2    N1 1411   0.241   3.197   1.368 -0.0866 -0.4971 -0.0518
   90MPD2    H7 1412   0.167   3.243   1.316  1.1253  1.1219 -0.3488
   91TMC2    C1 1413   1.702   3.993  16.175 -0.9348  0.4878  0.2033
   91TMC2    C2 1414   1.760   4.058  16.278 -0.3666  0.7076 -0.5850
   91TMC2    C3 1415   1.702   4.054  16.403  0.3579 -1.0506 -0.6827
   91TMC2    C4 1416   1.574   3.932  16.187 -0.6164  0.6666 -0.1926
   91TMC2    C5 1417   1.505   3.957  16.304  0.1301  0.3877  0.5576
   91TMC2    C6 1418   1.571   4.011  16.418  0.8227  0.1278  0.0582
   91TMC2     C 1419   1.775   3.970  16.052  0.0602  0.3914  0.2873
   91TMC2     O 1420   1.703   3.954  15.954  0.4761  0.4156 -0.4442
   91TMC2     H 1421   1.856   4.106  16.260 -0.5249  1.7622  1.4285
   91TMC2    H1 1422   1.528   3.896  16.096 -2.8758  1.9943  0.4260
   91TMC2    H2 1423   1.516   4.033  16.509  1.5195 -0.2533  0.5695
   91TMC2    C7 1424   1.390   3.874  16.343  0.3167  0.6224  0.5277
   91TMC2    C8 1425   1.759   4.131  16.510  0.6602  0.4310 -0.5221
   91TMC2    O1 1426   1.384   3.838  16.458  0.1406 -0.1536  0.2888
   91TMC2    O2 1427   1.836   4.227  16.494 -0.1084 -0.7901  0.4829
   91TMC2    O5 1428   1.770   4.043  16.615  0.0484 -0.4900  0.2004
   91TMC2    H5 1429   1.743   3.959  16.572  1.7090 -0.8870 -0.0883
   92MPD2     C 1430   1.951   3.833  15.863  0.8298  0.1157  0.4055
   92MPD2    C1 1431   1.996   3.906  15.972 -0.6791 -0.0219 -0.5650
   92MPD2    C2 1432   2.130   3.895  16.002  0.6648  0.4780 -0.2481
   92MPD2    C3 1433   2.225   3.828  15.928 -0.0934  0.3777  0.3206
   92MPD2    C4 1434   2.182   3.775  15.809  0.2896  0.0575  0.4516
   92MPD2    C5 1435   2.048   3.783  15.778  0.1167 -0.4089  0.0190
   92MPD2     H 1436   2.165   3.947  16.091  1.2860 -0.5817  0.1339
   92MPD2    H1 1437   2.249   3.727  15.739  0.8828 -1.2459  1.9421
   92MPD2    H2 1438   1.848   3.825  15.831  0.8749 -2.0470  0.7667
   92MPD2    H3 1439   2.024   3.750  15.677 -0.3174  0.1622 -0.0640
   92MPD2     N 1440   2.363   3.834  15.959  0.1701  0.4212 -0.2111
   92MPD2    H5 1441   2.387   3.899  16.033 -0.0751 -1.3377  1.4097
   92MPD2    N1 1442   1.913   3.967  16.065 -0.2360  0.2844 -0.5780
   92MPD2    H7 1443   1.957   4.000  16.151 -2.0787  0.9605  0.1114
   93TMC2    C1 1444   3.547   4.177  13.790 -0.2045  0.9604 -0.0105
   93TMC2    C2 1445   3.536   4.052  13.745 -0.2325  0.0132  0.0421
   93TMC2    C3 1446   3.648   3.981  13.719  0.6636  0.3740  0.2451
   93TMC2    C4 1447   3.669   4.219  13.822  0.7320 -0.3681  0.5555
   93TMC2    C5 1448   3.781   4.146  13.802  0.1610  0.9611  0.0952
   93TMC2    C6 1449   3.776   4.017  13.752 -0.2719  0.0341 -0.0904
   93TMC2     C 1450   3.434   4.280  13.801 -0.4136 -0.1714  0.5218
   93TMC2     O 1451   3.462   4.397  13.808  0.3546 -0.1970 -0.6370
   93TMC2     H 1452   3.435   4.019  13.724 -0.0472 -0.7954  0.3992
   93TMC2    H1 1453   3.678   4.316  13.869  1.3519 -0.7503  1.2219
   93TMC2    H2 1454   3.863   3.952  13.746 -0.3584 -0.1009  0.1074
   93TMC2    C7 1455   3.918   4.211  13.805 -0.0460  0.2961 -0.1733
   93TMC2    C8 1456   3.630   3.853  13.668 -0.1192 -0.1584 -0.4684
   93TMC2    O1 1457   4.009   4.144  13.847  0.5896  0.6472 -0.2803
   93TMC2    O2 1458   3.523   3.792  13.666  0.4019 -0.2411  0.4097
   93TMC2    O5 1459   3.748   3.819  13.614  0.1903  0.3811 -0.4718
   93TMC2    H5 1460   3.805   3.898  13.608  0.5366  0.2257  0.8237
   94MPD2     C 1461   3.175   4.416  13.784 -0.7150  0.0316 -0.3549
   94MPD2    C1 1462   3.188   4.280  13.799 -0.2339 -0.2846 -0.0750
   94MPD2    C2 1463   3.076   4.195  13.790 -0.1870 -0.6288  0.4076
   94MPD2    C3 1464   2.947   4.250  13.780 -0.1696  0.0623  0.3345
   94MPD2    C4 1465   2.934   4.391  13.777  0.5204  0.5114  0.8506
   94MPD2    C5 1466   3.047   4.470  13.778  0.7925 -0.0669  0.6887
   94MPD2     H 1467   3.090   4.088  13.787  1.7438 -0.4595  3.4482
   94MPD2    H1 1468   2.846   4.453  13.761  0.8512  0.7533 -0.0116
   94MPD2    H2 1469   3.256   4.487  13.794 -1.5972  0.7315  1.9823
   94MPD2    H3 1470   3.038   4.575  13.756 -1.8312 -0.4112  0.0858
   94MPD2     N 1471   2.830   4.173  13.762 -0.2762 -0.5377 -0.0341
   94MPD2    H5 1472   2.745   4.225  13.741  0.0054  0.6711  1.8321
   94MPD2    N1 1473   3.313   4.217  13.805 -0.3536 -0.2662  0.4766
   94MPD2    H7 1474   3.306   4.117  13.824 -1.3114 -0.2111  0.4320
   95TMC2    C1 1475   3.736   0.742  15.782 -0.5056 -0.0775  0.1454
   95TMC2    C2 1476   3.756   0.652  15.882 -0.0334 -0.5006  0.0613
   95TMC2    C3 1477   3.654   0.593  15.952 -0.1503 -0.1784 -0.2511
   95TMC2    C4 1478   3.610   0.769  15.746  0.5341 -0.3722 -0.6685
   95TMC2    C5 1479   3.511   0.693  15.798 -0.3977 -0.3330 -0.3738
   95TMC2    C6 1480   3.523   0.606  15.901 -0.6886  0.4266  0.7082
   95TMC2     C 1481   3.836   0.786  15.686  0.3700 -0.4641 -0.4763
   95TMC2     O 1482   3.819   0.887  15.624  0.3033 -0.4247 -0.6697
   95TMC2     H 1483   3.853   0.633  15.926  0.7851  2.7586 -0.2795
   95TMC2    H1 1484   3.589   0.834  15.662  0.5464  0.5867  0.0653
   95TMC2    H2 1485   3.435   0.557  15.942 -0.2194 -0.6848  0.3836
   95TMC2    C7 1486   3.415   0.643  15.695  0.4894 -0.5010 -0.2052
   95TMC2    C8 1487   3.686   0.461  16.002  0.8294  0.0381 -0.5550
   95TMC2    O1 1488   3.399   0.521  15.698  0.4524  0.5457 -0.3067
   95TMC2    O2 1489   3.782   0.406  15.950 -0.4950 -0.2995  0.0401
   95TMC2    O5 1490   3.595   0.403  16.077 -0.1278 -0.1509  0.2415
   95TMC2    H5 1491   3.542   0.473  16.120  0.0243 -1.0753  1.9161
   96MPD2     C 1492   4.247   0.629  15.427  0.0460 -0.0308  0.2848
   96MPD2    C1 1493   4.193   0.758  15.441 -0.2773  0.5158 -0.6263
   96MPD2    C2 1494   4.085   0.781  15.519  0.9846  0.2767 -0.4764
   96MPD2    C3 1495   4.036   0.677  15.593  0.2990  0.3090  0.1859
   96MPD2    C4 1496   4.084   0.550  15.578  1.0859 -0.1739  0.4014
   96MPD2    C5 1497   4.191   0.530  15.496 -0.4248  0.2202  0.5699
   96MPD2     H 1498   4.043   0.880  15.532 -0.4612 -0.2728 -0.9551
   96MPD2    H1 1499   4.036   0.466  15.628  4.1127  0.2682  4.0753
   96MPD2    H2 1500   4.322   0.608  15.352  0.2814 -0.7263  0.7131
   96MPD2    H3 1501   4.225   0.429  15.474 -2.0604  0.3343 -2.4707
   96MPD2     N 1502   3.929   0.688  15.682 -0.2104 -0.3482  0.0877
   96MPD2    H5 1503   3.893   0.612  15.738 -0.8354 -1.1644 -1.3941
   96MPD2    N1 1504   4.254   0.857  15.363  0.3673  0.3788 -0.2668
   96MPD2    H7 1505   4.333   0.820  15.312 -0.6117  0.8019 -2.0672
   97TMC2    C1 1506   0.993   3.648  17.381 -0.8819 -0.6988  0.1196
   97TMC2    C2 1507   0.949   3.646  17.254 -0.6444  0.0922 -0.9355
   97TMC2    C3 1508   0.982   3.752  17.172  0.0608 -0.4538 -0.1048
   97TMC2    C4 1509   1.042   3.766  17.439  0.0757 -0.7619  0.1319
   97TMC2    C5 1510   1.076   3.866  17.352 -0.1804 -0.3063 -0.0040
   97TMC2    C6 1511   1.033   3.871  17.225  0.1114  0.1455  0.0184
   97TMC2     C 1512   0.957   3.540  17.474  0.1509 -0.0842 -0.1476
   97TMC2     O 1513   0.995   3.556  17.591 -0.3161  0.8165  0.5094
   97TMC2     H 1514   0.896   3.563  17.208  0.9464 -1.5428  0.2317
   97TMC2    H1 1515   1.081   3.762  17.540 -0.6248 -0.5394  0.4110
   97TMC2    H2 1516   1.078   3.939  17.153 -1.2252  0.2320 -0.7325
   97TMC2    C7 1517   1.167   3.973  17.391  0.6233  0.3907 -0.7603
   97TMC2    C8 1518   0.994   3.732  17.026  0.7623  0.4785 -0.0018
   97TMC2    O1 1519   1.257   3.946  17.470  0.1261 -0.1895  0.3095
   97TMC2    O2 1520   0.993   3.825  16.948 -0.7497 -0.3095  0.2403
   97TMC2    O5 1521   0.974   3.599  16.989  0.9039  0.0731  0.3530
   97TMC2    H5 1522   0.984   3.529  17.057 -1.7079 -0.4038  0.2616
   98MPD2     C 1523   0.836   3.059  17.607 -0.3124 -0.7629  0.2132
   98MPD2    C1 1524   0.934   3.145  17.654  0.6209 -0.4852 -0.8493
   98MPD2    C2 1525   0.959   3.265  17.590 -0.6119 -1.2808 -0.1522
   98MPD2    C3 1526   0.877   3.310  17.484 -1.4288 -0.5140 -0.7909
   98MPD2    C4 1527   0.784   3.222  17.434 -0.4201  0.2335  0.3216
   98MPD2    C5 1528   0.760   3.100  17.499 -0.0502  0.0363 -0.2663
   98MPD2     H 1529   1.020   3.344  17.634 -2.1657  0.9858 -2.0238
   98MPD2    H1 1530   0.731   3.249  17.343 -0.1456 -0.1983  0.0349
   98MPD2    H2 1531   0.808   2.970  17.661 -2.0267 -0.8969 -0.9082
   98MPD2    H3 1532   0.683   3.035  17.460  1.0427 -1.5333  0.1901
   98MPD2     N 1533   0.897   3.430  17.418  0.1026 -0.4431  0.4752
   98MPD2    H5 1534   0.862   3.425  17.323  1.0214  1.3653  0.0424
   98MPD2    N1 1535   0.988   3.112   0.038 -0.7313 -0.9887 -0.6742
   98MPD2    H7 1536   0.988   3.016   0.071  0.3001 -0.2740  1.4650
   99TMC2    C1 1537   4.644   4.697   1.952 -0.2939  0.0181 -0.4214
   99TMC2    C2 1538   4.677   0.005   2.079  0.0701  0.1566 -0.0408
   99TMC2    C3 1539   4.573   0.062   2.147  0.8939  0.4315 -0.2275
   99TMC2    C4 1540   4.515   4.703   1.894  0.2195  0.2362 -0.2898
   99TMC2    C5 1541   4.419   0.018   1.982 -0.3245  1.1583 -0.3339
   99TMC2    C6 1542   4.445   0.057   2.108 -0.2874 -0.5630 -0.0957
   99TMC2     C 1543   0.023   4.682   1.864  0.1761 -0.5833  0.1542
   99TMC2     O 1544   0.112   0.027   1.889 -0.5809 -0.0916 -0.4991
   99TMC2     H 1545   0.045   0.022   2.101  0.2652 -2.7900  1.2189
   99TMC2    H1 1546   4.507   4.700   1.786  0.7316 -1.0284 -0.2875
   99TMC2    H2 1547   4.363   0.079   2.176  0.3299 -0.2437  0.5356
   99TMC2    C7 1548   4.292   0.063   1.927  0.1375 -0.5569  0.4166
   99TMC2    C8 1549   4.594   0.056   2.290  0.7453 -0.1776  0.2078
   99TMC2    O1 1550   4.221   0.124   2.007 -0.7338 -0.2390  0.3304
   99TMC2    O2 1551   4.678   4.718   2.343 -0.0225 -0.2195 -0.9970
   99TMC2    O5 1552   4.516   0.148   2.347 -0.1951  0.3906 -0.0134
   99TMC2    H5 1553   4.474   0.206   2.280 -0.0158  1.6541  0.9614
  100MPD2     C 1554   0.245   4.581   1.691 -0.3120  0.0082  0.3271
  100MPD2    C1 1555   0.109   4.547   1.681  0.7227 -0.0666 -0.3430
  100MPD2    C2 1556   0.071   4.458   1.586 -0.0565 -0.0604 -0.0940
  100MPD2    C3 1557   0.162   4.383   1.504  0.5601  0.1065  0.6607
  100MPD2    C4 1558   0.295   4.409   1.515 -0.0055 -0.1760 -0.0454
  100MPD2    C5 1559   0.332   4.511   1.601  0.0952  0.1081 -0.4994
  100MPD2     H 1560   4.702   4.431   1.580  0.1442 -0.5525 -1.3393
  100MPD2    H1 1561   0.380   4.362   1.467  2.2177  1.6895  2.0625
  100MPD2    H2 1562   0.288   4.666   1.742  1.3976 -1.0715  0.6598
  100MPD2    H3 1563   0.435   4.536   1.625 -1.7038  4.3256  2.8016
  100MPD2     N 1564   0.119   4.270   1.432  0.4271  0.2626  0.4849
  100MPD2    H5 1565   0.021   4.245   1.438 -0.3982  2.7806 -2.1486
  100MPD2    N1 1566   0.008   4.584   1.767 -0.1594  0.5465 -0.4547
  100MPD2    H7 1567   4.657   4.532   1.765 -0.5116  1.1128  0.4208
  101TMC2    C1 1568   0.422   1.584  12.739 -0.3351  1.0505 -0.1296
  101TMC2    C2 1569   0.369   1.711  12.761  0.1684  0.5765  0.3507
  101TMC2    C3 1570   0.416   1.804  12.670  0.4018 -0.2275 -0.2238
  101TMC2    C4 1571   0.508   1.542  12.637 -0.0905 -0.1974  0.8212
  101TMC2    C5 1572   0.560   1.644  12.562 -0.0036  0.2696 -0.1731
  101TMC2    C6 1573   0.514   1.777  12.576  0.2137  0.2681  0.5530
  101TMC2     C 1574   0.365   1.486  12.821  0.3151 -0.1936 -0.2912
  101TMC2     O 1575   0.291   1.520  12.912  0.6629 -0.4243 -0.3113
  101TMC2     H 1576   0.287   1.733  12.828 -0.0378  0.5679  0.0982
  101TMC2    H1 1577   0.543   1.439  12.633 -1.9907 -0.7020 -2.5507
  101TMC2    H2 1578   0.538   1.854  12.504 -1.5104  1.7023  1.5254
  101TMC2    C7 1579   0.635   1.628  12.436 -0.1188  0.3892  0.1499
  101TMC2    C8 1580   0.395   1.945  12.703  0.8512 -0.2275  0.4678
  101TMC2    O1 1581   0.694   1.724  12.390  0.3934  0.3016  0.6236
  101TMC2    O2 1582   0.394   2.037  12.622 -0.1812 -0.3289  0.2530
  101TMC2    O5 1583   0.387   1.951  12.841  0.1794 -0.4970  0.7976
  101TMC2    H5 1584   0.384   1.864  12.886 -0.0966 -0.5472  0.6829
  102MPD2     C 1585   0.354   1.116  12.791 -0.4375  0.1353  0.2114
  102MPD2    C1 1586   0.341   1.235  12.857  0.3116  0.1272  0.1419
  102MPD2    C2 1587   0.285   1.242  12.986 -0.0959  0.8869 -0.5124
  102MPD2    C3 1588   0.232   1.127  13.040 -0.4930  0.3617  0.3367
  102MPD2    C4 1589   0.243   1.011  12.968  0.1097  0.0854  0.5434
  102MPD2    C5 1590   0.303   1.002  12.846 -0.5820  0.0974  0.2668
  102MPD2     H 1591   0.290   1.333  13.044  1.0972 -0.0747  0.9038
  102MPD2    H1 1592   0.214   0.914  13.007 -0.8824  0.0012 -0.4009
  102MPD2    H2 1593   0.387   1.112  12.687  0.7199 -0.1245  0.5874
  102MPD2    H3 1594   0.319   0.911  12.789 -0.1951  2.1332 -2.8372
  102MPD2     N 1595   0.158   1.147  13.158  0.1111  0.0506 -0.0455
  102MPD2    H5 1596   0.158   1.243  13.192 -1.1848 -0.4519  1.3752
  102MPD2    N1 1597   0.390   1.356  12.792 -0.0999 -0.7170  0.0960
  102MPD2    H7 1598   0.443   1.340  12.707 -1.2030  1.8715 -1.0903
  103TMC2    C1 1599   3.190   1.803  12.413  0.5567 -0.1235 -0.2837
  103TMC2    C2 1600   3.238   1.907  12.337  0.0679 -0.2081 -0.0148
  103TMC2    C3 1601   3.281   2.015  12.411 -0.1407 -0.0577  0.3191
  103TMC2    C4 1602   3.177   1.802  12.554  0.2849 -0.3026 -0.2556
  103TMC2    C5 1603   3.226   1.915  12.620 -0.0953 -0.0490  0.3191
  103TMC2    C6 1604   3.273   2.024  12.549 -0.3366  0.0932  0.0849
  103TMC2     C 1605   3.095   1.712  12.346 -0.2580  0.7823 -0.1522
  103TMC2     O 1606   3.050   1.749  12.238  0.1097  0.4578 -0.1480
  103TMC2     H 1607   3.236   1.911  12.229 -0.3176 -0.9683 -0.0347
  103TMC2    H1 1608   3.141   1.718  12.613 -3.5023  2.3726  1.2487
  103TMC2    H2 1609   3.306   2.121  12.586  0.2121  0.6777 -1.9312
  103TMC2    C7 1610   3.166   1.923  12.754  0.1334 -0.0252  0.2234
  103TMC2    C8 1611   3.346   2.121  12.334  0.4216 -0.2404 -0.3350
  103TMC2    O1 1612   3.115   1.825  12.803 -0.0679  0.4980  0.7474
  103TMC2    O2 1613   3.315   2.152  12.219  0.3159 -0.2904  0.6155
  103TMC2    O5 1614   3.464   2.149  12.395 -0.2321  0.0082 -0.4045
  103TMC2    H5 1615   3.482   2.092  12.473 -0.5484  3.9818  2.5374
  104MPD2     C 1616   2.948   1.402  12.498  0.2500 -0.8527  0.8641
  104MPD2    C1 1617   2.955   1.516  12.418 -0.3937 -0.1262  0.3899
  104MPD2    C2 1618   2.844   1.548  12.346  0.1459 -0.0697 -0.6532
  104MPD2    C3 1619   2.727   1.469  12.349 -0.5996  0.4289  0.0563
  104MPD2    C4 1620   2.717   1.358  12.431 -1.0254  0.2839 -0.7034
  104MPD2    C5 1621   2.831   1.326  12.501 -0.3863 -0.0845  0.2017
  104MPD2     H 1622   2.853   1.625  12.271  1.7643  0.7478  0.3691
  104MPD2    H1 1623   2.641   1.280  12.427 -0.1546 -0.5502 -0.9888
  104MPD2    H2 1624   3.034   1.375  12.559 -0.0523 -1.3766  1.0563
  104MPD2    H3 1625   2.848   1.234  12.557  0.1435 -1.0316 -1.5285
  104MPD2     N 1626   2.630   1.500  12.251 -0.2331  0.1120  0.6096
  104MPD2    H5 1627   2.667   1.557  12.176 -1.2970 -2.0184 -1.5249
  104MPD2    N1 1628   3.070   1.600  12.424  0.3863  0.1268  0.0508
  104MPD2    H7 1629   3.146   1.580  12.487  0.0136  0.2469  0.5343
  105TMC2    C1 1630   4.528   0.175   0.058 -0.6035  0.1266 -0.0417
  105TMC2    C2 1631   4.402   0.129   0.103  0.0594  0.2210  0.3226
  105TMC2    C3 1632   4.370   0.145   0.232 -0.3973 -0.8954  0.4345
  105TMC2    C4 1633   4.607   0.255   0.140 -0.5383  0.1831  0.2654
  105TMC2    C5 1634   4.562   0.270   0.269  0.1665 -0.3970 -0.6801
  105TMC2    C6 1635   4.447   0.214   0.319 -0.4370  0.2193  0.3039
  105TMC2     C 1636   4.554   0.168  17.657  0.2637 -0.0314 -0.6791
  105TMC2     O 1637   4.489   0.084  17.598 -0.6082 -0.2034 -0.1283
  105TMC2     H 1638   4.330   0.081   0.038  0.3850 -3.5975  2.7746
  105TMC2    H1 1639   4.708   0.285   0.117 -0.7512  1.0784  0.5024
  105TMC2    H2 1640   4.409   0.238   0.417  2.2111 -0.7856  1.5846
  105TMC2    C7 1641   4.652   0.332   0.367 -0.3360  0.3879 -0.2800
  105TMC2    C8 1642   4.247   0.095   0.280 -0.6485  0.3113  0.3947
  105TMC2    O1 1643   0.038   0.310   0.356  0.2779  1.0313 -0.5495
  105TMC2    O2 1644   4.161   0.053   0.205 -0.1390  0.1171  0.0843
  105TMC2    O5 1645   4.249   0.068   0.410 -0.2430 -0.1361  0.1352
  105TMC2    H5 1646   4.330   0.086   0.463 -1.0465  1.5206  0.8043
  106MPD2     C 1647   0.070   0.342  17.243 -0.1517 -0.2217  0.2052
  106MPD2    C1 1648   0.075   0.445  17.341  0.5664 -0.4702 -0.6234
  106MPD2    C2 1649   0.020   0.419  17.468 -0.1713 -0.4578  0.3038
  106MPD2    C3 1650   4.695   0.294  17.493  0.2719 -0.3735  0.3246
  106MPD2    C4 1651   4.696   0.197  17.405  0.3661 -0.0229  0.0762
  106MPD2    C5 1652   0.020   0.217  17.280  1.1919 -0.4548  0.4901
  106MPD2     H 1653   0.006   0.500  17.539  0.5731 -0.9412  0.9957
  106MPD2    H1 1654   4.653   0.102  17.433 -0.5408  0.1856 -0.6023
  106MPD2    H2 1655   0.107   0.351  17.142 -1.6409 -0.1818 -0.3405
  106MPD2    H3 1656   0.013   0.140  17.204 -2.8984 -1.5536  2.0268
  106MPD2     N 1657   4.634   0.275  17.624 -0.3671 -0.4383  0.8930
  106MPD2    H5 1658   4.639   0.350  17.692  0.3681 -0.0695  0.4317
  106MPD2    N1 1659   0.144   0.568  17.318 -0.0886  0.0425  0.1561
  106MPD2    H7 1660   0.142   0.628  17.400 -0.3340  2.0014 -1.3070
  107TMC2    C1 1661   0.519   0.190  11.331 -0.0341  0.3533  0.3801
  107TMC2    C2 1662   0.453   0.145  11.217 -0.1151 -0.0020 -0.2665
  107TMC2    C3 1663   0.526   0.081  11.121  0.5873 -0.2793 -0.3091
  107TMC2    C4 1664   0.651   0.163  11.350  0.4244 -0.2718 -0.7576
  107TMC2    C5 1665   0.724   0.093  11.258  0.3273  0.0226  0.1807
  107TMC2    C6 1666   0.658   0.060  11.138  0.2513 -0.0031  0.3035
  107TMC2     C 1667   0.444   0.272  11.429  0.1829 -0.0151  1.6797
  107TMC2     O 1668   0.334   0.237  11.472  0.1347  0.2563 -0.0494
  107TMC2     H 1669   0.347   0.163  11.200 -0.0987  0.6776  0.3600
  107TMC2    H1 1670   0.699   0.183  11.446  0.4348 -0.4769 -0.7203
  107TMC2    H2 1671   0.716   0.007  11.064 -0.8420 -0.1695 -0.4280
  107TMC2    C7 1672   0.868   0.078  11.281  0.0283 -0.1504 -0.0412
  107TMC2    C8 1673   0.454   4.733  11.024 -0.5667  0.2050  0.2626
  107TMC2    O1 1674   0.910   0.098  11.393  0.5740  0.4491 -0.2639
  107TMC2    O2 1675   0.516   4.676  10.935 -0.0115  0.0907  0.2280
  107TMC2    O5 1676   0.356   4.675  11.095  0.0586  0.2314  0.3179
  107TMC2    H5 1677   0.320   4.726  11.170  0.5335 -0.2388  0.8651
  108MPD2     C 1678   0.484   0.626  11.493  1.0585 -0.2427 -0.8266
  108MPD2    C1 1679   0.439   0.495  11.517  0.2437 -0.3736  0.7248
  108MPD2    C2 1680   0.349   0.473  11.624  0.5538 -0.6165  0.5677
  108MPD2    C3 1681   0.299   0.580  11.699 -0.3950  0.3638  0.2252
  108MPD2    C4 1682   0.351   0.704  11.666  0.1320  0.1319 -0.3119
  108MPD2    C5 1683   0.430   0.734  11.561  0.0094  0.3468  0.5599
  108MPD2     H 1684   0.332   0.369  11.649 -1.4584 -0.9860 -2.3077
  108MPD2    H1 1685   0.328   0.793  11.722 -0.1343  0.2024 -0.5337
  108MPD2    H2 1686   0.561   0.654  11.423  1.0813 -1.5535 -1.3319
  108MPD2    H3 1687   0.472   0.834  11.555  1.2022 -0.2166 -0.4338
  108MPD2     N 1688   0.226   0.565  11.819 -0.3818  0.2649  0.1786
  108MPD2    H5 1689   0.226   0.648  11.877 -0.9929 -0.0230  0.5962
  108MPD2    N1 1690   0.500   0.394  11.445  0.4116  0.5686 -0.0590
  108MPD2    H7 1691   0.587   0.416  11.398  1.3033  0.6416  1.6460
  109TMC2    C1 1692   0.216   2.278   0.204  0.3631  0.7987  0.0696
  109TMC2    C2 1693   0.219   2.265   0.063 -0.2768 -0.2438 -0.2314
  109TMC2    C3 1694   0.319   2.322   0.000  0.1024 -0.0942 -0.2150
  109TMC2    C4 1695   0.321   2.334   0.271  1.1273  0.0705  0.6521
  109TMC2    C5 1696   0.431   2.381   0.199 -0.1775  0.2565  0.6032
  109TMC2    C6 1697   0.426   2.372   0.066  0.8488  0.5236  0.1232
  109TMC2     C 1698   0.092   2.241   0.270 -0.2599 -0.3374 -0.5867
  109TMC2     O 1699   0.015   2.179   0.199  0.6811  0.0481 -0.2276
  109TMC2     H 1700   0.144   2.216   0.003  0.1947 -1.9840  0.6071
  109TMC2    H1 1701   0.304   2.364   0.374 -2.2453  2.9403 -0.7482
  109TMC2    H2 1702   0.503   2.423   0.008  1.1523 -0.2645 -0.1619
  109TMC2    C7 1703   0.525   2.477   0.265 -0.7402 -0.8563  0.1128
  109TMC2    C8 1704   0.323   2.316  17.603  0.0847 -0.3144 -0.0243
  109TMC2    O1 1705   0.576   2.559   0.189 -0.5909  0.5173  0.2050
  109TMC2    O2 1706   0.429   2.316  17.538  0.0706 -0.1000 -0.3312
  109TMC2    O5 1707   0.209   2.362  17.548  0.5805  0.3850  0.2785
  109TMC2    H5 1708   0.146   2.400  17.612 -1.3888 -1.8109 -0.3393
  110MPD2     C 1709   4.565   2.082   0.691  0.1612 -0.2311  0.1693
  110MPD2    C1 1710   4.680   2.144   0.732 -0.5833 -0.5970  0.0917
  110MPD2    C2 1711   0.030   2.190   0.635 -0.2818 -0.2990  0.6342
  110MPD2    C3 1712   4.733   2.187   0.500 -0.4909 -0.6093  0.4082
  110MPD2    C4 1713   4.614   2.128   0.456  0.4912 -0.1314 -0.2013
  110MPD2    C5 1714   4.530   2.073   0.552  0.3268  0.0281 -0.5795
  110MPD2     H 1715   0.125   2.236   0.661  0.0483 -0.0990 -0.9376
  110MPD2    H1 1716   4.593   2.106   0.352 -0.7947 -0.5271  0.1367
  110MPD2    H2 1717   4.497   2.039   0.763 -1.4195  0.4409 -0.9128
  110MPD2    H3 1718   4.442   2.013   0.535 -0.9238  1.1625  1.8905
  110MPD2     N 1719   0.095   2.241   0.411 -0.5279  0.2276  0.7268
  110MPD2    H5 1720   0.175   2.288   0.454  0.0360  0.1927 -0.2853
  110MPD2    N1 1721   4.701   2.160   0.873  0.7405  0.4374 -0.2077
  110MPD2    H7 1722   4.624   2.125   0.929 -0.2828 -0.6267 -2.2480
  111TMC2    C1 1723   0.799   2.863  11.347  0.0776 -0.5257  0.2077
  111TMC2    C2 1724   0.921   2.858  11.290 -0.0135 -0.4743  0.1509
  111TMC2    C3 1725   1.033   2.822  11.368 -0.8101 -0.0940 -0.1520
  111TMC2    C4 1726   0.776   2.821  11.475  0.2223 -0.0497 -0.6082
  111TMC2    C5 1727   0.882   2.776  11.546  0.1996  1.0072 -0.2105
  111TMC2    C6 1728   1.014   2.781  11.499  0.7516 -0.8328 -0.1863
  111TMC2     C 1729   0.682   2.902  11.261 -0.0500  0.3963  0.3134
  111TMC2     O 1730   0.701   2.901  11.139  0.1220 -0.0634 -0.3658
  111TMC2     H 1731   0.939   2.892  11.188  2.0036 -0.4830  0.4943
  111TMC2    H1 1732   0.675   2.816  11.514 -0.0992 -2.6196 -1.7716
  111TMC2    H2 1733   1.098   2.754  11.563 -0.2688  0.5537  1.7167
  111TMC2    C7 1734   0.859   2.661  11.631 -0.4703 -0.5847  0.3418
  111TMC2    C8 1735   1.167   2.870  11.321  0.2811 -0.2872  0.5854
  111TMC2    O1 1736   0.936   2.563  11.616  0.4320  0.2476 -0.6052
  111TMC2    O2 1737   1.166   2.950  11.227  0.3528 -0.6867 -0.4189
  111TMC2    O5 1738   1.271   2.800  11.377  0.3214  0.5847  0.0207
  111TMC2    H5 1739   1.258   2.738  11.451  0.1098 -1.8691 -2.0524
  112MPD2     C 1740   0.187   3.039  11.178  0.0474  0.1663 -0.2575
  112MPD2    C1 1741   0.289   2.998  11.097  0.0479  0.6205  0.1521
  112MPD2    C2 1742   0.415   2.979  11.144 -0.2380  0.1161  0.0055
  112MPD2    C3 1743   0.450   2.989  11.278 -0.3064  0.5303 -0.1528
  112MPD2    C4 1744   0.350   3.030  11.366 -0.2522  0.4174  0.6225
  112MPD2    C5 1745   0.227   3.056  11.312 -0.2259 -0.8162  0.4981
  112MPD2     H 1746   0.490   2.953  11.070 -2.0039 -2.2190 -0.9623
  112MPD2    H1 1747   0.361   3.031  11.474  0.2721  1.0908  0.5576
  112MPD2    H2 1748   0.094   3.078  11.139  0.1981  1.0448  0.2565
  112MPD2    H3 1749   0.146   3.086  11.378  0.4290 -1.6384  1.6693
  112MPD2     N 1750   0.574   2.949  11.328  0.8181  0.2445 -0.2956
  112MPD2    H5 1751   0.598   2.970  11.424  0.9709 -0.1810 -0.2377
  112MPD2    N1 1752   0.277   2.993  10.957 -0.4905  0.0742  0.0578
  112MPD2    H7 1753   0.357   2.965  10.901 -1.2203 -2.1933  0.1435
  113TMC2    C1 1754   3.828   0.298   0.888  0.4588 -0.0098  0.3406
  113TMC2    C2 1755   3.761   0.393   0.956  1.1705  0.0233 -0.2908
  113TMC2    C3 1756   3.659   0.456   0.884 -0.1670  0.1056 -0.3051
  113TMC2    C4 1757   3.791   0.264   0.758 -0.4031  0.1721 -0.1389
  113TMC2    C5 1758   3.686   0.324   0.702  0.3394 -0.2908 -0.0828
  113TMC2    C6 1759   3.623   0.429   0.758 -0.0109  0.5262 -0.6976
  113TMC2     C 1760   3.948   0.246   0.939 -0.1963  0.6044  0.4625
  113TMC2     O 1761   3.968   0.259   1.059 -0.4288 -0.0517  0.0419
  113TMC2     H 1762   3.786   0.445   1.048  0.8055 -2.3263  1.1400
  113TMC2    H1 1763   3.829   0.173   0.713 -1.8944 -0.2035 -0.6693
  113TMC2    H2 1764   3.533   0.470   0.715 -0.2051 -0.5414 -1.3102
  113TMC2    C7 1765   3.601   0.258   0.605 -0.4843 -0.5740 -0.0500
  113TMC2    C8 1766   3.576   0.546   0.953  0.6199  0.4834  0.1421
  113TMC2    O1 1767   3.551   0.338   0.528  0.0841 -0.8802 -0.1577
  113TMC2    O2 1768   3.584   0.553   1.074  0.2265  0.0300 -0.3118
  113TMC2    O5 1769   3.567   0.661   0.882 -0.1219  0.0704 -0.4108
  113TMC2    H5 1770   3.585   0.647   0.786  0.5995  0.9954 -0.4152
  114MPD2     C 1771   4.352   4.662   0.943 -0.0228 -0.6918  0.1274
  114MPD2    C1 1772   4.312   0.022   1.030  0.3454  0.7836  0.2845
  114MPD2    C2 1773   4.206   0.106   0.993  0.6406 -0.9225  0.3354
  114MPD2    C3 1774   4.133   0.093   0.883 -0.6919  0.2786  0.5693
  114MPD2    C4 1775   4.170   4.729   0.798  0.5463 -0.2438  0.2084
  114MPD2    C5 1776   4.273   4.650   0.830  0.5583  0.8503  1.1983
  114MPD2     H 1777   4.182   0.184   1.064  0.0155 -0.2942 -0.5690
  114MPD2    H1 1778   4.121   4.716   0.702 -0.5280  1.8399  0.4611
  114MPD2    H2 1779   4.437   4.595   0.951  0.6058  0.0118 -0.6242
  114MPD2    H3 1780   4.307   4.577   0.759 -1.1565  1.6622 -0.4667
  114MPD2     N 1781   4.022   0.173   0.846 -0.5033  0.2353 -0.3235
  114MPD2    H5 1782   4.002   0.168   0.747 -0.0802 -2.3128 -0.2836
  114MPD2    N1 1783   4.376   0.036   1.157 -0.2102  0.2470  0.5001
  114MPD2    H7 1784   4.350   0.120   1.208 -2.1280  0.0075 -0.1163
  115TMC2    C1 1785   4.116   2.592  17.577 -0.0305  0.6297  0.4241
  115TMC2    C2 1786   4.251   2.603  17.586  0.1243  0.4467  0.1116
  115TMC2    C3 1787   4.303   2.724  17.589 -0.1845  0.3030 -0.3663
  115TMC2    C4 1788   4.037   2.701  17.548 -0.3035 -1.0927 -0.1009
  115TMC2    C5 1789   4.103   2.819  17.544 -0.2119 -0.4425 -0.0547
  115TMC2    C6 1790   4.234   2.840  17.568  0.4651 -0.1462 -0.0030
  115TMC2     C 1791   4.066   2.461  17.541 -0.2835 -0.5579  1.0871
  115TMC2     O 1792   4.146   2.380  17.506  0.3096 -0.0538  0.0024
  115TMC2     H 1793   4.317   2.518  17.592  1.0486  0.9511 -2.7938
  115TMC2    H1 1794   3.936   2.690  17.508 -0.5640 -0.9780  0.5244
  115TMC2    H2 1795   4.280   2.938  17.575  1.8440 -0.7272 -1.0889
  115TMC2    C7 1796   4.013   2.932  17.514  0.0457 -0.5709  0.0479
  115TMC2    C8 1797   4.451   2.721  17.582 -0.2685  0.4924  0.8911
  115TMC2    O1 1798   3.904   2.930  17.555  0.1651  0.6856 -0.3840
  115TMC2    O2 1799   4.522   2.622  17.584 -0.0234  0.1361 -0.7434
  115TMC2    O5 1800   4.493   2.847  17.576  0.3989 -0.5185  0.0353
  115TMC2    H5 1801   4.428   2.920  17.567 -1.5095 -1.9981  1.6936
  116MPD2     C 1802   3.695   2.116  17.485 -0.1324 -0.5851 -0.1375
  116MPD2    C1 1803   3.823   2.123  17.436  0.1313 -0.0259 -0.2659
  116MPD2    C2 1804   3.900   2.234  17.466  0.1022  0.7963  0.1470
  116MPD2    C3 1805   3.870   2.325  17.559 -0.7200  0.5203  0.2883
  116MPD2    C4 1806   3.756   2.298  17.626 -0.6670 -0.3283  0.8229
  116MPD2    C5 1807   3.665   2.199  17.585 -0.1687  0.1244 -0.0396
  116MPD2     H 1808   3.995   2.249  17.416  0.5891 -1.4363  0.4186
  116MPD2    H1 1809   3.717   2.373  17.694 -2.2412 -1.2541  0.9676
  116MPD2    H2 1810   3.623   2.042  17.454 -3.7935  2.6660  0.5871
  116MPD2    H3 1811   3.566   2.190  17.629 -0.5006  0.0060 -0.8015
  116MPD2     N 1812   3.937   2.439  17.589  0.3263 -0.3934  0.0888
  116MPD2    H5 1813   3.886   2.506  17.644 -0.4481  0.8091 -2.1143
  116MPD2    N1 1814   3.847   2.035  17.333  0.3199  0.0163 -0.2647
  116MPD2    H7 1815   3.769   1.978  17.303  1.9083 -2.2589 -0.1301
  117TMC2    C1 1816   3.094   4.184  14.146 -0.3743 -0.2643 -0.2735
  117TMC2    C2 1817   3.211   4.126  14.180  0.5304  0.3872 -0.7243
  117TMC2    C3 1818   3.325   4.204  14.181 -0.1209  0.2695 -0.2682
  117TMC2    C4 1819   3.076   4.318  14.119 -0.2289  0.3469 -0.5931
  117TMC2    C5 1820   3.192   4.394  14.131 -0.2445 -0.2004 -0.4649
  117TMC2    C6 1821   3.313   4.339  14.172  0.2568  1.1149 -0.4403
  117TMC2     C 1822   2.984   4.090  14.139 -0.2606 -0.4178 -0.2840
  117TMC2     O 1823   2.996   3.979  14.186 -0.2881 -0.8330  0.0419
  117TMC2     H 1824   3.220   4.018  14.194  2.1783  0.7700  1.2784
  117TMC2    H1 1825   2.980   4.354  14.084 -1.1909 -2.5838 -1.0300
  117TMC2    H2 1826   3.403   4.399  14.177  1.0560 -0.1404  0.3002
  117TMC2    C7 1827   3.191   4.532  14.092  0.2017 -0.1489 -0.0906
  117TMC2    C8 1828   3.461   4.145  14.192  0.8174  0.0190 -0.4079
  117TMC2    O1 1829   3.298   4.584  14.064 -0.1146  0.0497  0.4027
  117TMC2    O2 1830   3.556   4.212  14.225  0.1962 -0.3320  0.3933
  117TMC2    O5 1831   3.469   4.068  14.085 -0.7241 -0.2145 -0.3098
  117TMC2    H5 1832   3.379   4.041  14.057 -1.0493  1.0025 -0.4412
  118MPD2     C 1833   2.913   0.012  14.003 -0.2729  0.1873 -0.2412
  118MPD2    C1 1834   3.036   4.719  14.040 -0.0537 -0.6989 -0.6566
  118MPD2    C2 1835   3.129   0.082  14.019  0.4360 -0.0942  0.7314
  118MPD2    C3 1836   3.100   0.209  13.985  0.7859  0.6702 -0.5125
  118MPD2    C4 1837   2.968   0.237  13.952 -0.2913  0.6020  0.4341
  118MPD2    C5 1838   2.878   0.130  13.957  0.1908 -0.0152 -0.1893
  118MPD2     H 1839   3.235   0.067  14.039  0.5786 -0.2202 -0.1125
  118MPD2    H1 1840   2.926   0.335  13.931  2.5035  1.6790 -0.0866
  118MPD2    H2 1841   2.833   4.674  13.998  0.7742 -1.0144  1.0565
  118MPD2    H3 1842   2.780   0.142  13.912  1.0113 -1.0539 -2.2307
  118MPD2     N 1843   3.204   0.310  13.960 -0.0971 -0.6917 -0.4712
  118MPD2    H5 1844   3.160   0.395  13.925  0.7265 -0.6141 -1.3205
  118MPD2    N1 1845   3.068   4.589  14.085  0.3439  0.0356 -0.7830
  118MPD2    H7 1846   2.996   4.518  14.094 -1.3041  1.6322 -1.2329
  119TMC2    C1 1847   1.316   0.352  13.025  0.7421  0.5677  0.1803
  119TMC2    C2 1848   1.385   0.235  13.036 -0.1817 -0.0341 -0.3764
  119TMC2    C3 1849   1.310   0.123  13.067  0.5600  0.5331 -0.6938
  119TMC2    C4 1850   1.179   0.354  13.035  0.7781 -0.5919  0.0197
  119TMC2    C5 1851   1.112   0.245  13.074 -0.3874 -0.7710  0.6457
  119TMC2    C6 1852   1.180   0.124  13.089 -0.4700  0.7359 -0.5053
  119TMC2     C 1853   1.378   0.481  13.039  0.0202  0.1582 -0.2743
  119TMC2     O 1854   1.315   0.579  13.006  0.1674  0.0512 -0.7197
  119TMC2     H 1855   1.493   0.232  13.038 -0.2051 -0.7897 -0.2744
  119TMC2    H1 1856   1.127   0.449  13.024 -1.1177 -1.6230  0.0768
  119TMC2    H2 1857   1.131   0.033  13.123  0.9525 -0.1806 -0.9207
  119TMC2    C7 1858   0.971   0.242  13.105  0.2868  0.0156 -0.4390
  119TMC2    C8 1859   1.397   0.028  13.122 -0.4752 -1.3879  0.6996
  119TMC2    O1 1860   0.917   0.135  13.090  0.3490 -0.5825  0.2154
  119TMC2    O2 1861   1.491   4.715  13.067  0.3867  0.3069  0.1765
  119TMC2    O5 1862   1.401   0.052  13.253 -0.3157 -0.5756  0.5351
  119TMC2    H5 1863   1.342   0.125  13.282 -0.8288 -1.1079  0.8170
  120MPD2     C 1864   1.777   0.804  13.161  0.0798 -0.4267  0.5736
  120MPD2    C1 1865   1.639   0.822  13.142 -0.0876  0.7881 -0.9775
  120MPD2    C2 1866   1.550   0.724  13.105 -0.4709 -0.6399  0.2408
  120MPD2    C3 1867   1.601   0.593  13.084 -0.6134  0.5713  0.7019
  120MPD2    C4 1868   1.736   0.568  13.102  0.3310  0.3054  0.1045
  120MPD2    C5 1869   1.825   0.674  13.131 -0.1537 -0.7403 -0.0500
  120MPD2     H 1870   1.446   0.738  13.080 -0.2291  0.4235 -0.1660
  120MPD2    H1 1871   1.775   0.467  13.106 -0.7187 -0.0903  0.3156
  120MPD2    H2 1872   1.848   0.881  13.191 -1.5722  1.2756  0.1412
  120MPD2    H3 1873   1.926   0.652  13.162  0.0966  1.3456  0.6443
  120MPD2     N 1874   1.512   0.481  13.067  0.0379 -0.3466 -0.1913
  120MPD2    H5 1875   1.547   0.388  13.091  1.2504  0.8041  2.4454
  120MPD2    N1 1876   1.595   0.957  13.154 -0.1720  0.4247 -0.9770
  120MPD2    H7 1877   1.664   1.026  13.179 -1.6708  0.9727  1.6418
  121TMC2    C1 1878   2.037   2.306  13.749 -0.2682 -0.3117  0.5179
  121TMC2    C2 1879   2.039   2.261  13.623  0.2408 -0.5040  0.3164
  121TMC2    C3 1880   1.929   2.197  13.581 -0.3835  0.5150  0.5421
  121TMC2    C4 1881   1.942   2.280  13.839  0.1659 -0.5349 -1.0537
  121TMC2    C5 1882   1.836   2.212  13.793  0.0228  0.6537 -0.5845
  121TMC2    C6 1883   1.818   2.174  13.661  0.7758 -0.2213 -0.3820
  121TMC2     C 1884   2.144   2.384  13.803  0.5898  0.0426 -0.0156
  121TMC2     O 1885   2.182   2.364  13.917 -0.2189 -0.1948  0.3169
  121TMC2     H 1886   2.122   2.278  13.555  1.3356  1.1324  2.0600
  121TMC2    H1 1887   1.947   2.307  13.944  1.3741  0.0144 -1.2533
  121TMC2    H2 1888   1.721   2.135  13.632  1.2951 -2.9918  1.5563
  121TMC2    C7 1889   1.722   2.199  13.878 -0.3409 -0.1882 -0.1535
  121TMC2    C8 1890   1.937   2.137  13.443 -0.3647 -0.0770  0.7843
  121TMC2    O1 1891   1.656   2.098  13.873  0.2157 -0.1513 -0.1588
  121TMC2    O2 1892   2.014   2.182  13.361  0.5098  0.0798 -0.0831
  121TMC2    O5 1893   1.814   2.089  13.424 -0.3713  0.1743  0.8205
  121TMC2    H5 1894   1.793   2.033  13.502 -0.6482 -0.8670 -0.0000
  122MPD2     C 1895   2.394   2.554  13.841  0.3877  0.5061  0.0259
  122MPD2    C1 1896   2.331   2.525  13.714 -0.4809 -0.1354  0.1668
  122MPD2    C2 1897   2.392   2.566  13.594  1.1182  0.2273 -0.1904
  122MPD2    C3 1898   2.502   2.647  13.592  0.8897  0.3768 -0.4438
  122MPD2    C4 1899   2.563   2.666  13.714 -0.3217 -0.2268 -0.1087
  122MPD2    C5 1900   2.527   2.603  13.833 -0.0023  0.3181  0.3132
  122MPD2     H 1901   2.342   2.548  13.500 -0.3356 -2.5806  1.1520
  122MPD2    H1 1902   2.655   2.723  13.705 -0.6746  0.3203 -0.2537
  122MPD2    H2 1903   2.346   2.528  13.935  0.1495  0.7419 -0.0324
  122MPD2    H3 1904   2.587   2.614  13.923  3.1156  1.0894 -1.8379
  122MPD2     N 1905   2.562   2.697  13.474  0.7214 -0.0116  0.1670
  122MPD2    H5 1906   2.651   2.746  13.483  0.9416 -0.8944  2.6410
  122MPD2    N1 1907   2.212   2.451  13.705 -0.5213 -0.5107 -0.1529
  122MPD2    H7 1908   2.185   2.429  13.609  1.4730  0.4972 -0.9608
  123TMC2    C1 1909   1.655   0.884  11.200  0.2136  0.1221  0.1494
  123TMC2    C2 1910   1.690   0.884  11.333 -0.4956  0.2441 -0.7693
  123TMC2    C3 1911   1.811   0.825  11.361  0.2140 -0.4502 -0.1243
  123TMC2    C4 1912   1.744   0.844  11.101 -0.2855  0.8353  0.2150
  123TMC2    C5 1913   1.864   0.784  11.138 -0.5508 -0.0776  0.3450
  123TMC2    C6 1914   1.898   0.790  11.269 -0.2998 -0.0384  0.3283
  123TMC2     C 1915   1.519   0.895  11.172 -0.2442  0.3375  0.2071
  123TMC2     O 1916   1.443   0.943  11.257  0.0146 -0.0593 -0.4520
  123TMC2     H 1917   1.618   0.908  11.410 -1.3307 -3.8146 -0.2728
  123TMC2    H1 1918   1.729   0.868  10.996 -0.7029 -1.8364 -0.3584
  123TMC2    H2 1919   1.998   0.765  11.304 -0.1204 -0.7080 -0.6667
  123TMC2    C7 1920   1.964   0.734  11.040 -0.0234 -1.0407 -0.2025
  123TMC2    C8 1921   1.872   0.838  11.491 -0.0732 -0.7234  0.1247
  123TMC2    O1 1922   2.078   0.773  11.058  0.0788 -0.0947  0.5176
  123TMC2    O2 1923   1.991   0.855  11.512 -0.3877 -0.3448  0.2441
  123TMC2    O5 1924   1.786   0.784  11.581  0.6108 -0.1823 -0.2389
  123TMC2    H5 1925   1.701   0.760  11.537  0.5093  2.0100 -1.2505
  124MPD2     C 1926   1.098   0.748  10.934 -0.1582 -0.3684  0.2060
  124MPD2    C1 1927   1.201   0.713  10.856  0.5937  0.5800 -0.6977
  124MPD2    C2 1928   1.328   0.752  10.899 -0.5823  0.1847  0.5003
  124MPD2    C3 1929   1.352   0.820  11.018 -0.1066 -0.3211  0.2901
  124MPD2    C4 1930   1.240   0.836  11.103  1.0331 -0.0186  0.7979
  124MPD2    C5 1931   1.115   0.803  11.060  0.2198 -0.5770  0.6709
  124MPD2     H 1932   1.410   0.718  10.837 -1.0816  0.2606 -0.1949
  124MPD2    H1 1933   1.244   0.867  11.207 -0.0107  1.3514  0.4267
  124MPD2    H2 1934   0.995   0.719  10.914 -0.1299  0.3122 -0.9113
  124MPD2    H3 1935   1.026   0.821  11.119 -0.7979 -0.5919 -0.8584
  124MPD2     N 1936   1.487   0.845  11.051  0.0460  0.4782  0.2067
  124MPD2    H5 1937   1.557   0.823  10.981 -0.8626 -0.1239 -0.5024
  124MPD2    N1 1938   1.174   0.650  10.730  0.4529 -0.0844 -0.3352
  124MPD2    H7 1939   1.074   0.639  10.713  0.2051  1.6815 -0.0510
  125TMC2    C1 1940   1.449   2.975  10.094 -0.0486 -0.4280  0.0932
  125TMC2    C2 1941   1.455   2.855  10.156 -0.4116 -0.2598 -0.3277
  125TMC2    C3 1942   1.474   2.853  10.292 -1.1657  0.2375  0.1729
  125TMC2    C4 1943   1.482   3.094  10.151 -0.5921  0.9535 -0.6257
  125TMC2    C5 1944   1.515   3.087  10.283  0.2677  0.2569  0.5398
  125TMC2    C6 1945   1.511   2.967  10.358 -0.8257  0.0527 -0.2498
  125TMC2     C 1946   1.379   2.994   9.969  0.0674  0.1861 -0.3703
  125TMC2     O 1947   1.334   3.105   9.956 -0.0926 -0.2521  0.2108
  125TMC2     H 1948   1.416   2.764  10.112 -0.7484  0.2504 -1.0886
  125TMC2    H1 1949   1.491   3.186  10.095 -0.6798  1.9166  0.9727
  125TMC2    H2 1950   1.551   2.967  10.458 -0.7529  2.6114 -0.2626
  125TMC2    C7 1951   1.570   3.216  10.338 -0.2354 -0.5740  0.3561
  125TMC2    C8 1952   1.471   2.723  10.346  0.1911  0.6402 -0.9486
  125TMC2    O1 1953   1.592   3.221  10.456 -0.2019 -0.2132 -0.3536
  125TMC2    O2 1954   1.505   2.625  10.277  0.0301  0.3102  0.1741
  125TMC2    O5 1955   1.454   2.720  10.476  0.3371 -0.4072 -0.2732
  125TMC2    H5 1956   1.415   2.797  10.522  2.4572 -1.1249  2.7065
  126MPD1     C 1957   1.192   2.796   9.522  0.0902  0.3284 -0.1231
  126MPD1    C1 1958   1.287   2.712   9.571  0.3372  0.8851 -0.2190
  126MPD1    C2 1959   1.344   2.744   9.698 -0.1998  0.2789  0.0765
  126MPD1    C3 1960   1.323   2.857   9.767  0.1735  0.4515  0.3493
  126MPD1    C4 1961   1.242   2.938   9.708 -0.0024 -0.3743  0.2373
  126MPD1    C5 1962   1.176   2.913   9.591 -0.8495 -0.1172 -0.6556
  126MPD1     H 1963   1.409   2.668   9.739 -0.3622  1.3543  2.3247
  126MPD1    H1 1964   1.219   3.037   9.747  0.7021 -0.7275  1.5487
  126MPD1    H2 1965   1.145   2.775   9.427 -1.8250  0.6320  0.7517
  126MPD1    H3 1966   1.115   2.992   9.549  1.6346  1.8662 -0.5695
  126MPD1     N 1967   1.389   2.885   9.884  0.8121  0.4708 -0.4414
  126MPD1    H5 1968   1.449   2.807   9.911 -0.1560 -1.7306 -4.6211
  126MPD1    N1 1969   1.291   2.576   9.533  0.5560  0.4321  0.3547
  126MPD1    H6 1970   1.371   2.527   9.572  1.6945  2.3867  0.4743
  126MPD1    H7 1971   1.291   2.557   9.433  1.0155 -3.1571  1.0270
  127TMC2    C1 1972   2.549   1.973   9.584 -0.0606 -0.2380  1.6092
  127TMC2    C2 1973   2.650   1.945   9.668 -0.7631 -0.3690  0.3593
  127TMC2    C3 1974   2.625   1.839   9.755 -0.0419 -0.0481 -0.1617
  127TMC2    C4 1975   2.423   1.918   9.597 -0.4643 -0.6093 -0.4141
  127TMC2    C5 1976   2.396   1.819   9.688 -0.1945  0.3100  0.3476
  127TMC2    C6 1977   2.496   1.785   9.772  0.0587 -0.7969  0.5676
  127TMC2     C 1978   2.556   2.107   9.532 -0.4156  0.1543  0.4002
  127TMC2     O 1979   2.651   2.173   9.572  0.1854 -0.0592  0.4165
  127TMC2     H 1980   2.743   2.001   9.674 -2.8283  3.3363 -2.1949
  127TMC2    H1 1981   2.341   1.932   9.527 -0.7290  0.2166  0.0615
  127TMC2    H2 1982   2.492   1.697   9.836 -5.2337 -1.4181 -0.6655
  127TMC2    C7 1983   2.260   1.784   9.717  0.0599 -0.1102  0.9678
  127TMC2    C8 1984   2.707   1.806   9.870 -0.1704  0.1015  0.5889
  127TMC2    O1 1985   2.182   1.839   9.640  0.2018  0.6725 -0.1039
  127TMC2    O2 1986   2.664   1.764   9.974 -0.6857  0.7097  0.2182
  127TMC2    O5 1987   2.840   1.848   9.857  0.1587  0.0518 -0.3474
  127TMC2    H5 1988   2.859   1.851   9.761  3.2970  1.1013  0.3044
  128MPD2     C 1989   2.300   2.301   9.358 -0.4405  0.1834 -0.9890
  128MPD2    C1 1990   2.404   2.274   9.445 -0.5734  0.2240 -0.4727
  128MPD2    C2 1991   2.472   2.381   9.503  0.0626 -0.4417 -0.0585
  128MPD2    C3 1992   2.443   2.511   9.467  0.6108 -0.4464 -0.1028
  128MPD2    C4 1993   2.343   2.537   9.374  0.7529  0.3416  0.2196
  128MPD2    C5 1994   2.274   2.425   9.322  0.1803  0.2486 -0.5381
  128MPD2     H 1995   2.550   2.368   9.577 -1.5430 -1.6380  1.3957
  128MPD2    H1 1996   2.307   2.636   9.346 -1.8623 -0.9736 -1.0168
  128MPD2    H2 1997   2.244   2.224   9.306  0.1489  0.9251 -2.6918
  128MPD2    H3 1998   2.179   2.440   9.271  0.6025  0.6646 -1.2066
  128MPD2     N 1999   2.518   2.617   9.531  0.9844  0.1201 -0.1435
  128MPD2    H5 2000   2.597   2.595   9.591  0.5004  1.1450  0.8740
  128MPD2    N1 2001   2.444   2.145   9.467 -0.6092  0.0578 -0.0045
  128MPD2    H7 2002   2.389   2.072   9.423 -1.3592 -1.0763  2.8147
  129TMC2    C1 2003   2.699   1.162   1.457 -0.3534  0.5260 -0.0534
  129TMC2    C2 2004   2.761   1.117   1.569  0.0325 -0.3293 -0.5167
  129TMC2    C3 2005   2.693   1.011   1.635 -0.4306 -0.7294 -0.2214
  129TMC2    C4 2006   2.570   1.122   1.422 -0.3042  1.0120 -0.1882
  129TMC2    C5 2007   2.510   1.027   1.495  0.1535  0.4337  0.3752
  129TMC2    C6 2008   2.574   0.974   1.604  0.4303  0.1698 -0.1321
  129TMC2     C 2009   2.771   1.270   1.382 -0.2831 -0.3955 -0.1246
  129TMC2     O 2010   2.890   1.277   1.384  0.2334  0.2667 -0.4710
  129TMC2     H 2011   2.854   1.156   1.609  0.5491 -0.4562 -1.5753
  129TMC2    H1 2012   2.529   1.148   1.326  3.4484  0.0751 -2.0325
  129TMC2    H2 2013   2.530   0.907   1.678  1.3902 -0.6522 -0.3110
  129TMC2    C7 2014   2.385   0.979   1.459 -0.0399  0.1756 -0.2501
  129TMC2    C8 2015   2.754   0.943   1.746  0.4246 -0.2340 -0.8833
  129TMC2    O1 2016   2.300   1.049   1.403  0.2661  0.0857 -0.3579
  129TMC2    O2 2017   2.873   0.904   1.756  0.0032  0.3359 -0.6870
  129TMC2    O5 2018   2.673   0.960   1.854 -0.0286  0.6283 -0.3308
  129TMC2    H5 2019   2.588   1.004   1.832  1.1712  3.0233 -0.1268
  130MPD2     C 2020   2.834   1.497   1.195 -0.4211 -0.5316 -0.5774
  130MPD2    C1 2021   2.707   1.466   1.242 -0.3440  0.6283  0.2655
  130MPD2    C2 2022   2.600   1.535   1.200 -0.3697 -0.0118 -0.1067
  130MPD2    C3 2023   2.612   1.632   1.102 -0.5053  0.2367  0.0624
  130MPD2    C4 2024   2.735   1.661   1.055  0.2998 -0.3134  0.3681
  130MPD2    C5 2025   2.846   1.600   1.103  0.0343 -0.7117 -0.2908
  130MPD2     H 2026   2.504   1.495   1.231  0.4852 -2.9085 -1.2088
  130MPD2    H1 2027   2.745   1.742   0.984 -0.4730  0.2246  0.8742
  130MPD2    H2 2028   2.925   1.445   1.223 -0.2079  0.7040  1.0336
  130MPD2    H3 2029   2.944   1.636   1.073  0.3694 -2.5886 -1.4077
  130MPD2     N 2030   2.487   1.692   1.060  0.2742 -0.0361  0.0007
  130MPD2    H5 2031   2.403   1.675   1.115 -0.9029 -1.3125 -2.2233
  130MPD2    N1 2032   2.678   1.354   1.326  0.2305  0.0131 -0.3401
  130MPD2    H7 2033   2.584   1.348   1.364  0.6511 -0.1426  0.6894
  131TMC2    C1 2034   0.698   1.277  10.085  1.0006 -0.7400 -0.5547
  131TMC2    C2 2035   0.646   1.384  10.156  0.9869  0.0699 -0.2708
  131TMC2    C3 2036   0.728   1.491  10.171  0.2559 -0.2193 -0.1436
  131TMC2    C4 2037   0.818   1.282  10.023 -0.3666  0.1210 -0.0381
  131TMC2    C5 2038   0.891   1.396  10.044 -0.1351 -0.5656  0.6898
  131TMC2    C6 2039   0.854   1.497  10.122  0.4591 -0.2720 -0.1232
  131TMC2     C 2040   0.638   1.149  10.115 -0.4453  0.4267 -0.5065
  131TMC2     O 2041   0.516   1.147  10.110  0.3913 -0.6693  0.5179
  131TMC2     H 2042   0.547   1.381  10.200  0.5998  0.7018 -1.1166
  131TMC2    H1 2043   0.851   1.205   9.954  0.0559  0.1340  0.1509
  131TMC2    H2 2044   0.907   1.589  10.142 -0.7241  0.6432 -1.2500
  131TMC2    C7 2045   1.022   1.393   9.992 -0.1198 -0.3301  0.4795
  131TMC2    C8 2046   0.675   1.603  10.239  0.2219 -0.4223  0.2531
  131TMC2    O1 2047   1.070   1.290   9.951  0.0949  0.4045  0.7634
  131TMC2    O2 2048   0.745   1.678  10.301  0.1208  0.2557 -0.2524
  131TMC2    O5 2049   0.561   1.634  10.176  0.2003 -0.6574 -0.1860
  131TMC2    H5 2050   0.514   1.562  10.130  1.5520 -0.6895 -1.5260
  132MPD2     C 2051   0.581   0.881  10.205  0.5393 -0.3327 -0.3317
  132MPD2    C1 2052   0.708   0.916  10.176 -0.8590 -0.2082  0.2407
  132MPD2    C2 2053   0.811   0.837  10.218 -0.0957  0.2944  0.7219
  132MPD2    C3 2054   0.785   0.714  10.272  0.2206 -0.1634  0.2613
  132MPD2    C4 2055   0.653   0.666  10.274  0.4686 -0.6672  0.2073
  132MPD2    C5 2056   0.554   0.753  10.246 -0.0918  0.3409 -0.0203
  132MPD2     H 2057   0.913   0.871  10.200 -0.0242 -0.6894 -0.7045
  132MPD2    H1 2058   0.615   0.574  10.315 -1.3411  0.7619  1.7560
  132MPD2    H2 2059   0.497   0.947  10.186  2.4863  2.0769 -0.5567
  132MPD2    H3 2060   0.457   0.704  10.243  1.4626 -2.7701  1.1715
  132MPD2     N 2061   0.888   0.630  10.320  0.0575  0.5022 -0.3341
  132MPD2    H5 2062   0.978   0.677  10.310  0.7181 -0.3817  1.3987
  132MPD2    N1 2063   0.735   1.051  10.135 -0.1969  1.4546  0.2900
  132MPD2    H7 2064   0.831   1.080  10.119  0.5587 -0.9987  0.3692
  133TMC2    C1 2065   2.817   1.480   9.211 -0.5441  0.1068 -0.5279
  133TMC2    C2 2066   2.879   1.377   9.275  0.2635  0.2758 -0.0544
  133TMC2    C3 2067   2.792   1.289   9.344 -0.6732  0.0380 -0.3723
  133TMC2    C4 2068   2.684   1.496   9.207 -1.5791  0.0795  0.2015
  133TMC2    C5 2069   2.611   1.391   9.254 -0.4200 -0.5607  0.3125
  133TMC2    C6 2070   2.661   1.284   9.324  0.4144  0.3610 -0.4537
  133TMC2     C 2071   2.899   1.601   9.209  0.3497 -0.2406  0.4337
  133TMC2     O 2072   3.020   1.591   9.188  0.1914 -0.1024 -0.0140
  133TMC2     H 2073   2.986   1.386   9.289 -0.0782  0.5118  2.4394
  133TMC2    H1 2074   2.631   1.568   9.147  0.1545  0.8769 -0.3539
  133TMC2    H2 2075   2.600   1.204   9.364  2.1644 -0.7734 -0.0580
  133TMC2    C7 2076   2.473   1.374   9.212 -0.0304  0.0463  0.1248
  133TMC2    C8 2077   2.838   1.223   9.464 -0.0203 -0.6020  0.2737
  133TMC2    O1 2078   2.433   1.255   9.207  0.2161  0.1957 -0.2053
  133TMC2    O2 2079   2.770   1.148   9.533 -0.3111  0.3949  0.8407
  133TMC2    O5 2080   2.951   1.277   9.502  0.2525  0.2814 -0.0411
  133TMC2    H5 2081   2.979   1.349   9.442  0.4630 -1.0083 -1.4978
  134MPD2     C 2082   2.769   1.950   9.224  0.5155 -0.4272  0.3381
  134MPD2    C1 2083   2.861   1.850   9.251  0.5399 -0.0553  0.0521
  134MPD2    C2 2084   2.991   1.880   9.299  0.1561  0.3225 -0.0094
  134MPD2    C3 2085   3.027   2.013   9.318 -0.1825 -0.5452  0.3524
  134MPD2    C4 2086   2.938   2.113   9.283  0.1603  0.0787  0.3343
  134MPD2    C5 2087   2.815   2.081   9.238  0.2828  0.6915  0.1762
  134MPD2     H 2088   3.066   1.805   9.320 -0.0023 -0.4825 -2.2771
  134MPD2    H1 2089   2.968   2.217   9.283  2.4880 -0.6092 -0.5305
  134MPD2    H2 2090   2.670   1.926   9.188  1.1757  1.0683 -2.4642
  134MPD2    H3 2091   2.741   2.157   9.215 -0.5891  0.3435  1.8345
  134MPD2     N 2092   3.156   2.053   9.359  0.0453  0.1432 -0.1658
  134MPD2    H5 2093   3.172   2.154   9.356 -2.5175  0.5465 -0.8117
  134MPD2    N1 2094   2.822   1.716   9.228  0.5527  0.0827 -0.8091
  134MPD2    H7 2095   2.722   1.700   9.224  0.4208  0.4772  0.7440
  135TMC2    C1 2096   1.607   3.592   9.191  0.1486  0.6918  1.2430
  135TMC2    C2 2097   1.660   3.469   9.216  0.5541 -0.2667 -0.4767
  135TMC2    C3 2098   1.585   3.399   9.305 -0.0436  0.3194 -0.0985
  135TMC2    C4 2099   1.510   3.656   9.261 -0.0363 -0.6014 -0.0392
  135TMC2    C5 2100   1.451   3.587   9.360  0.1860  0.2308 -0.1075
  135TMC2    C6 2101   1.488   3.457   9.386  0.3518 -0.0684  0.5030
  135TMC2     C 2102   1.668   3.659   9.077 -0.2349 -0.0706 -0.3719
  135TMC2     O 2103   1.611   3.752   9.023 -0.0780  0.4008  0.2041
  135TMC2     H 2104   1.727   3.417   9.148  1.6054  0.1983  0.2017
  135TMC2    H1 2105   1.474   3.755   9.232  1.3189  0.0572  0.5399
  135TMC2    H2 2106   1.423   3.395   9.447  0.9641  1.2194  2.4659
  135TMC2    C7 2107   1.357   3.650   9.449  0.1057 -0.4963  0.0702
  135TMC2    C8 2108   1.627   3.259   9.318  0.0219 -0.0641 -0.3952
  135TMC2    O1 2109   1.341   3.771   9.430  0.0075  0.2645 -0.6372
  135TMC2    O2 2110   1.629   3.182   9.221 -0.0050  0.2941  0.3541
  135TMC2    O5 2111   1.593   3.224   9.443 -0.7074 -0.1763  0.3904
  135TMC2    H5 2112   1.630   3.284   9.512 -0.4283  1.6932 -1.3825
  136MPD2     C 2113   1.836   3.733   8.841 -0.6218 -0.5701 -0.2971
  136MPD2    C1 2114   1.876   3.651   8.941 -0.1951  0.0304 -0.2745
  136MPD2    C2 2115   2.003   3.596   8.927 -0.8909 -0.1639  0.2544
  136MPD2    C3 2116   2.082   3.605   8.810 -0.0456 -0.7102 -0.5273
  136MPD2    C4 2117   2.035   3.682   8.706  0.3154  0.1037  0.3086
  136MPD2    C5 2118   1.909   3.744   8.728  0.4330 -0.8257  0.1449
  136MPD2     H 2119   2.040   3.531   9.005  1.3350  1.0564  0.2147
  136MPD2    H1 2120   2.074   3.685   8.605 -0.8858  3.3753 -0.0724
  136MPD2    H2 2121   1.748   3.795   8.856  1.0025  1.8615 -0.7886
  136MPD2    H3 2122   1.867   3.811   8.654  1.1036 -0.0667  0.4402
  136MPD2     N 2123   2.218   3.565   8.799 -0.1881 -0.1403  0.5897
  136MPD2    H5 2124   2.261   3.584   8.710  1.2028 -0.4099  1.2016
  136MPD2    N1 2125   1.800   3.629   9.060 -0.1525 -0.1972  0.3114
  136MPD2    H7 2126   1.843   3.563   9.124 -0.9188 -0.2624  0.7626
  137TMC2    C1 2127   2.347   2.844   9.990  0.2087  0.4971 -0.3020
  137TMC2    C2 2128   2.324   2.933   9.890  0.8071  0.7615  0.0170
  137TMC2    C3 2129   2.260   2.902   9.772 -0.5050 -0.1565  0.2054
  137TMC2    C4 2130   2.325   2.711   9.958  0.2468 -0.7458 -0.3514
  137TMC2    C5 2131   2.280   2.679   9.830 -0.1174 -0.3303  0.1363
  137TMC2    C6 2132   2.231   2.776   9.746 -0.3196  0.4001  0.9144
  137TMC2     C 2133   2.309   2.881  10.128  0.0498 -0.2422 -1.4279
  137TMC2     O 2134   2.252   2.992  10.120  0.1486 -0.0805  0.0246
  137TMC2     H 2135   2.327   3.040   9.910 -1.0018  0.8875 -0.3516
  137TMC2    H1 2136   2.347   2.640  10.037 -0.2109 -0.4143  0.0714
  137TMC2    H2 2137   2.190   2.748   9.650 -1.8564  2.7253  0.9140
  137TMC2    C7 2138   2.249   2.541   9.799  0.5133 -0.1062  0.2295
  137TMC2    C8 2139   2.249   3.017   9.683 -0.3175 -0.3060  0.1973
  137TMC2    O1 2140   2.317   2.473   9.871 -0.0836 -0.2224  0.5082
  137TMC2    O2 2141   2.305   3.125   9.684 -0.0469 -0.4744 -0.1345
  137TMC2    O5 2142   2.115   3.015   9.667  0.2131  0.4140  0.5062
  137TMC2    H5 2143   2.072   2.929   9.687  0.5362  0.1203 -0.0736
  138MPD2     C 2144   2.372   2.740  10.456  0.3255 -0.2623 -0.5436
  138MPD2    C1 2145   2.306   2.805  10.363  0.2942 -0.3854 -1.0895
  138MPD2    C2 2146   2.211   2.902  10.398  0.6991  0.2082  0.0006
  138MPD2    C3 2147   2.180   2.924  10.533  0.3044 -0.8680 -0.4792
  138MPD2    C4 2148   2.250   2.861  10.632  0.5897 -0.1543  0.1634
  138MPD2    C5 2149   2.345   2.768  10.589 -0.7482  0.2258  0.1808
  138MPD2     H 2150   2.148   2.953  10.326  2.2984 -1.2535 -2.3963
  138MPD2    H1 2151   2.239   2.891  10.736 -0.5536  0.3772 -0.1038
  138MPD2    H2 2152   2.454   2.672  10.435  0.3063 -0.3969 -0.1838
  138MPD2    H3 2153   2.416   2.721  10.655  1.0096  2.1969 -0.2879
  138MPD2     N 2154   2.082   3.024  10.563  0.2609  0.4554  0.4410
  138MPD2    H5 2155   2.037   3.066  10.482 -0.7759  0.8508  1.2168
  138MPD2    N1 2156   2.343   2.790  10.230 -0.0945 -0.0090  0.6382
  138MPD2    H7 2157   2.411   2.720  10.204  0.3454  0.1733  1.2958
  139TMC2    C1 2158   2.895   0.345  13.358 -0.5693 -0.0883  0.2302
  139TMC2    C2 2159   2.983   0.443  13.387  0.2917 -0.4667  0.1396
  139TMC2    C3 2160   2.939   0.571  13.397  0.5436 -0.2744 -0.1787
  139TMC2    C4 2161   2.756   0.363  13.366  0.0416  0.7615 -0.0981
  139TMC2    C5 2162   2.718   0.495  13.391 -0.0891  0.0036 -0.0925
  139TMC2    C6 2163   2.812   0.597  13.400  0.0297 -0.8531 -0.2298
  139TMC2     C 2164   2.949   0.215  13.356  0.4000 -0.0127  0.2638
  139TMC2     O 2165   3.066   0.208  13.311  0.2044 -0.0939  0.3626
  139TMC2     H 2166   3.091   0.435  13.390  0.3885  2.6020  4.3206
  139TMC2    H1 2167   2.689   0.283  13.339  0.0872  0.9495 -0.7838
  139TMC2    H2 2168   2.779   0.698  13.420  3.0972  0.4390 -1.8057
  139TMC2    C7 2169   2.582   0.526  13.421  0.0030 -0.1091 -0.7804
  139TMC2    C8 2170   3.027   0.683  13.405 -0.8088 -0.6043  0.4807
  139TMC2    O1 2171   2.553   0.643  13.411  1.0554 -0.1288 -0.2695
  139TMC2    O2 2172   3.001   0.796  13.368  0.5727 -0.5714 -0.1424
  139TMC2    O5 2173   3.117   0.654  13.505 -0.5239  0.8729 -0.5263
  139TMC2    H5 2174   3.123   0.566  13.548  1.4269  0.3917 -1.8035
  140MPD2     C 2175   2.808   4.631  13.490 -0.2952  0.1908  0.1284
  140MPD2    C1 2176   2.901   4.713  13.426  0.8187  0.0950  0.3266
  140MPD2    C2 2177   3.019   4.653  13.378  0.1519 -0.2933  0.0720
  140MPD2    C3 2178   3.041   4.520  13.395 -0.8303  0.7111 -0.2482
  140MPD2    C4 2179   2.937   4.439  13.442 -0.6637 -0.6216 -0.1271
  140MPD2    C5 2180   2.824   4.499  13.498  0.0855  0.0161 -0.2305
  140MPD2     H 2181   3.090   4.718  13.328  0.8700 -0.3052  1.0974
  140MPD2    H1 2182   2.948   4.331  13.444  0.5803 -0.5131 -0.8826
  140MPD2    H2 2183   2.715   4.678  13.518  0.4320  1.1398  0.9858
  140MPD2    H3 2184   2.738   4.449  13.542  1.1347 -2.8766 -1.4930
  140MPD2     N 2185   3.171   4.468  13.348 -0.5191  0.4601 -0.1064
  140MPD2    H5 2186   3.229   4.528  13.290  0.4149 -0.0368  0.3024
  140MPD2    N1 2187   2.874   0.121  13.420 -0.7274 -0.1305 -0.0704
  140MPD2    H7 2188   2.787   0.153  13.460 -1.0695 -0.0951 -0.8454
  141TMC2    C1 2189   2.931   2.007  14.244  0.3668 -0.2808  0.0616
  141TMC2    C2 2190   2.980   1.908  14.326 -0.2745 -0.7664  0.2748
  141TMC2    C3 2191   3.070   1.949  14.415 -0.3463  0.3572  0.5462
  141TMC2    C4 2192   2.989   2.130  14.237  0.0866 -0.3411 -0.5336
  141TMC2    C5 2193   3.090   2.165  14.320 -0.3278  0.0801  0.4301
  141TMC2    C6 2194   3.137   2.073  14.419 -0.2871 -0.5741 -0.2239
  141TMC2     C 2195   2.846   1.973  14.127 -0.9262 -0.1429 -0.0764
  141TMC2     O 2196   2.853   2.046  14.030  0.1906  0.0489 -0.1567
  141TMC2     H 2197   2.940   1.807  14.331  0.3454 -1.0968 -1.3712
  141TMC2    H1 2198   2.961   2.201  14.160  3.5279  0.3064 -1.1615
  141TMC2    H2 2199   3.212   2.103  14.491 -1.6655 -0.3076  1.1031
  141TMC2    C7 2200   3.134   2.300  14.317 -0.1218 -0.0837 -0.7062
  141TMC2    C8 2201   3.117   1.848  14.514  1.0888 -0.0370 -0.2235
  141TMC2    O1 2202   3.049   2.385  14.280  0.2032  0.4085 -0.6681
  141TMC2    O2 2203   3.236   1.813  14.521 -0.1258 -0.1195 -0.0267
  141TMC2    O5 2204   3.014   1.838  14.598  0.3169  0.1700 -0.7325
  141TMC2    H5 2205   2.932   1.884  14.569  0.1153  0.1829 -0.1483
  142TMC2    C1 2206   1.124   0.421  11.174  0.0272  0.3206  0.1577
  142TMC2    C2 2207   1.103   0.405  11.307  0.3906 -0.4374  0.1020
  142TMC2    C3 2208   1.207   0.431  11.390  0.1440  0.4116  0.2834
  142TMC2    C4 2209   1.244   0.448  11.116  0.3301  0.2103 -0.2217
  142TMC2    C5 2210   1.341   0.469  11.210 -0.3719  0.4891 -0.6727
  142TMC2    C6 2211   1.333   0.459  11.346  0.0663 -0.1962 -0.3111
  142TMC2     C 2212   1.013   0.414  11.082  0.3271 -0.5334  0.3388
  142TMC2     O 2213   1.032   0.404  10.962 -0.7285  0.4977  0.0035
  142TMC2     H 2214   1.030   0.335  11.346  1.7713 -0.6956  2.2167
  142TMC2    H1 2215   1.256   0.435  11.009  0.3811  0.0080 -0.1917
  142TMC2    H2 2216   1.406   0.508  11.408 -1.3577  0.7053  0.6326
  142TMC2    C7 2217   1.480   0.484  11.161 -0.1006  0.4753  0.2075
  142TMC2    C8 2218   1.176   0.414  11.534 -0.0353 -0.2583  0.2292
  142TMC2    O1 2219   1.564   0.522  11.236 -0.3208 -0.0752  0.3190
  142TMC2    O2 2220   1.060   0.436  11.573 -0.4793 -0.1472  0.7344
  142TMC2    O5 2221   1.261   0.326  11.594 -0.2510  0.8635  0.5952
  142TMC2    H5 2222   1.342   0.299  11.547  1.0286  2.3657  1.9345
  143MPD2     C 2223   0.512   0.426  10.978  0.0419 -0.0857  0.0818
  143MPD2    C1 2224   0.618   0.385  10.901  0.2471 -0.3864 -0.0020
  143MPD2    C2 2225   0.745   0.380  10.958 -0.0069 -0.6989  0.1911
  143MPD2    C3 2226   0.760   0.431  11.082 -0.0306  0.4262 -0.4460
  143MPD2    C4 2227   0.659   0.491  11.149  0.5498 -0.0887 -0.5712
  143MPD2    C5 2228   0.532   0.479  11.103 -0.1831 -0.3108  0.1300
  143MPD2     H 2229   0.830   0.329  10.916  1.8963  1.9849  0.8059
  143MPD2    H1 2230   0.667   0.540  11.246  0.9508 -1.2000 -0.0375
  143MPD2    H2 2231   0.412   0.422  10.937 -0.2568  0.2832  0.7615
  143MPD2    H3 2232   0.449   0.514  11.162 -0.4513 -0.4682 -0.1555
  143MPD2     N 2233   0.891   0.431  11.148 -0.1018 -0.0097  0.5105
  143MPD2    H5 2234   0.897   0.458  11.246  0.3795 -0.1572  0.5207
  143MPD2    N1 2235   0.586   0.344  10.771  0.6883 -0.7590  0.1907
  143MPD2    H7 2236   0.491   0.346  10.735 -0.3243  0.6348  2.9500
  144TMC2    C1 2237   4.097   3.808   0.376 -0.0885 -0.3057 -0.6150
  144TMC2    C2 2238   4.150   3.704   0.309 -0.3816 -0.1199  0.2157
  144TMC2    C3 2239   4.244   3.634   0.383 -0.8831 -0.0443 -0.1711
  144TMC2    C4 2240   4.146   3.872   0.488  0.0341  0.4274  0.6591
  144TMC2    C5 2241   4.255   3.800   0.542  0.0179  0.0278  0.1141
  144TMC2    C6 2242   4.294   3.680   0.503  1.1135  0.8057 -0.1471
  144TMC2     C 2243   3.980   3.867   0.312 -0.1328 -0.0748  0.3271
  144TMC2     O 2244   3.922   3.797   0.235 -0.0620  0.4216  0.0829
  144TMC2     H 2245   4.116   3.679   0.209  2.4607 -2.6856 -0.1039
  144TMC2    H1 2246   4.088   3.943   0.547  0.8032  2.1774 -0.6662
  144TMC2    H2 2247   4.376   3.626   0.550 -0.5302 -3.9843 -2.7076
  144TMC2    C7 2248   4.303   3.841   0.678  0.1311  0.4996  0.7306
  144TMC2    C8 2249   4.268   3.502   0.332 -0.2762 -0.7773  0.2826
  144TMC2    O1 2250   4.355   3.760   0.752 -0.2613 -0.4196  0.4940
  144TMC2    O2 2251   4.203   3.458   0.240  0.3985 -0.3780 -0.0274
  144TMC2    O5 2252   4.396   3.469   0.346 -0.1676  0.1021  1.6860
  144TMC2    H5 2253   4.453   3.535   0.391 -0.5396  1.8729 -0.4586
  145MPD2     C 2254   3.625   4.227   0.255  0.4894 -0.3678 -0.3133
  145MPD2    C1 2255   3.633   4.097   0.217 -0.3026  0.1642  0.2713
  145MPD2    C2 2256   3.738   4.023   0.249 -0.1999  0.0892  0.2999
  145MPD2    C3 2257   3.846   4.076   0.309  0.6455  0.2113  0.4476
  145MPD2    C4 2258   3.841   4.212   0.344 -0.0724  0.7135 -0.1989
  145MPD2    C5 2259   3.733   4.291   0.315  0.2675  0.1455 -0.6530
  145MPD2     H 2260   3.739   3.916   0.228 -0.4029  0.0223  0.6221
  145MPD2    H1 2261   3.922   4.258   0.400 -0.6778  1.1511  0.3215
  145MPD2    H2 2262   3.535   4.284   0.240 -1.0917 -2.4660  1.2336
  145MPD2    H3 2263   3.736   4.392   0.355 -3.2507  0.2813 -0.8031
  145MPD2     N 2264   3.954   3.996   0.350 -0.3740 -0.0114  0.1909
  145MPD2    H5 2265   4.021   4.051   0.403  0.3259 -0.8425  0.1866
  145MPD2    N1 2266   3.532   4.034   0.143 -0.7505  0.1407 -0.2511
  145MPD2    H7 2267   3.546   3.935   0.125  1.0415  0.6178 -1.4676
  146TMC2    C1 2268   0.322   3.109  12.322 -0.2845  0.1032  0.1460
  146TMC2    C2 2269   0.357   3.168  12.202  0.5666 -0.1701  0.6146
  146TMC2    C3 2270   0.369   3.098  12.091 -0.5782 -0.5783  0.4384
  146TMC2    C4 2271   0.300   2.973  12.330  0.2756 -0.1018 -0.4911
  146TMC2    C5 2272   0.328   2.907  12.213 -0.8679 -0.3375 -0.2513
  146TMC2    C6 2273   0.356   2.966  12.094  0.3515  0.1834 -0.0252
  146TMC2     C 2274   0.303   3.202  12.428  0.8409  0.0718  0.6832
  146TMC2     O 2275   0.296   3.321  12.395 -0.4815  0.4013  0.2844
  146TMC2     H 2276   0.385   3.272  12.210  2.3342 -0.3616 -3.1396
  146TMC2    H1 2277   0.239   2.926  12.406  0.2885 -0.2278 -0.5575
  146TMC2    H2 2278   0.361   2.895  12.012 -1.9430  0.3295 -0.2981
  146TMC2    C7 2279   0.322   2.766  12.213  0.4299 -0.4548 -0.0175
  146TMC2    C8 2280   0.454   3.146  11.984  0.1210 -0.5893  0.3070
  146TMC2    O1 2281   0.285   2.713  12.109 -0.1756  0.1747  0.4950
  146TMC2    O2 2282   0.539   3.078  11.929 -0.0428 -0.6807  0.2471
  146TMC2    O5 2283   0.439   3.285  11.965  0.0931 -0.4398 -0.6041
  146TMC2    H5 2284   0.367   3.314  12.025 -0.5790 -2.6156 -0.3687
  147MPD2     C 2285   0.434   2.299  12.379 -0.2457  0.5401 -0.6743
  147MPD2    C1 2286   0.391   2.371  12.490 -0.0899 -0.2295 -0.3068
  147MPD2    C2 2287   0.370   2.506  12.464  0.4307 -0.1325 -0.4449
  147MPD2    C3 2288   0.378   2.565  12.346  1.2022  0.1666  0.0501
  147MPD2    C4 2289   0.416   2.487  12.235  0.3777  1.1353  0.6394
  147MPD2    C5 2290   0.437   2.351  12.254  0.4300 -0.5168  0.4309
  147MPD2     H 2291   0.341   2.571  12.546 -0.9941  0.2100 -1.2249
  147MPD2    H1 2292   0.437   2.523  12.135  0.3287  0.8846  0.5398
  147MPD2    H2 2293   0.470   2.198  12.398  2.8272  1.5473 -1.2349
  147MPD2    H3 2294   0.461   2.288  12.169 -0.2571  1.0584 -0.9263
  147MPD2     N 2295   0.370   2.709  12.332  0.1525 -0.1690  0.2319
  147MPD2    H5 2296   0.366   2.764  12.417 -1.5343  0.7273 -0.4403
  147MPD2    N1 2297   0.392   2.303  12.614 -0.0069 -0.4620 -0.7857
  147MPD2    H7 2298   0.432   2.210  12.618 -0.0435 -0.3984  1.2417
  148TMC2    C1 2299   0.281   1.991  10.633 -0.4103 -0.8279 -0.4415
  148TMC2    C2 2300   0.404   2.041  10.588  0.3381  0.5199 -0.7777
  148TMC2    C3 2301   0.496   1.955  10.529  0.0267 -0.4201  0.4578
  148TMC2    C4 2302   0.268   1.855  10.617 -0.2462 -1.0840  0.3025
  148TMC2    C5 2303   0.369   1.773  10.575 -0.3773 -1.0480  0.3092
  148TMC2    C6 2304   0.483   1.822  10.520  0.3548 -0.8127  0.4841
  148TMC2     C 2305   0.168   2.064  10.560  0.4222 -0.8026  0.2640
  148TMC2     O 2306   0.181   2.186  10.550 -0.6816  0.7147  0.0333
  148TMC2     H 2307   0.433   2.145  10.596  2.1595  0.1171 -2.1271
  148TMC2    H1 2308   0.182   1.807  10.662 -0.5563 -1.1755 -0.3849
  148TMC2    H2 2309   0.558   1.763  10.469 -0.6506  1.4432 -3.6871
  148TMC2    C7 2310   0.311   1.665  10.497 -0.1807  0.8580 -0.2645
  148TMC2    C8 2311   0.620   2.022  10.490  0.3050 -0.1733  0.6217
  148TMC2    O1 2312   0.209   1.689  10.432  0.2421  0.0985  0.4837
  148TMC2    O2 2313   0.676   2.100  10.570 -0.2564  0.0892  0.1953
  148TMC2    O5 2314   0.673   1.951  10.395  0.2795 -0.1490  0.1167
  148TMC2    H5 2315   0.601   1.906  10.345 -0.8113 -0.1696  1.6883
  149MPD2     C 2316   4.674   2.125  10.378  0.5034  0.0429 -0.0114
  149MPD2    C1 2317   4.718   1.995  10.401 -0.5332 -0.2132 -0.2475
  149MPD2    C2 2318   4.671   1.888  10.330  0.0797 -0.5719 -0.5888
  149MPD2    C3 2319   4.575   1.899  10.234 -0.1686  0.3909  0.1617
  149MPD2    C4 2320   4.525   2.027  10.217  0.3155  0.3449  0.0697
  149MPD2    C5 2321   4.569   2.136  10.288  0.1989  0.4027 -0.3495
  149MPD2     H 2322   4.716   1.795  10.362 -0.1764 -0.6778 -0.5344
  149MPD2    H1 2323   4.440   2.043  10.152 -0.1368 -3.5468 -0.2771
  149MPD2    H2 2324   4.698   2.217  10.429  1.4344 -0.8689  1.1923
  149MPD2    H3 2325   4.513   2.228  10.281  1.7707  1.3062 -1.1343
  149MPD2     N 2326   4.519   1.790  10.167  0.4930 -0.7773  1.0626
  149MPD2    H5 2327   4.460   1.816  10.088 -0.6074  2.2904  2.8932
  149MPD2    N1 2328   0.079   1.971  10.497 -0.5575  0.4140  0.2422
  149MPD2    H7 2329   0.107   1.874  10.508 -1.1561  0.5195  2.6857
  150TMC2    C1 2330   2.376   0.855  12.292 -0.2759  0.7695 -0.9361
  150TMC2    C2 2331   2.380   0.941  12.187  0.0625  0.2972  0.3090
  150TMC2    C3 2332   2.482   1.029  12.191 -0.4851  0.0877  0.2018
  150TMC2    C4 2333   2.482   0.845  12.378  0.2576 -0.2489 -0.4773
  150TMC2    C5 2334   2.588   0.938  12.368  0.1589  0.1606 -0.4151
  150TMC2    C6 2335   2.589   1.037  12.274 -0.1575 -0.7273 -0.4665
  150TMC2     C 2336   2.246   0.831  12.361  0.5467  0.2061  0.5341
  150TMC2     O 2337   2.247   0.819  12.484 -0.0051  0.1621 -0.6056
  150TMC2     H 2338   2.294   0.960  12.124 -1.5700 -3.1407  1.4775
  150TMC2    H1 2339   2.463   0.801  12.476 -0.6708 -2.5024 -1.6735
  150TMC2    H2 2340   2.665   1.112  12.258 -0.5211 -0.2531  0.0206
  150TMC2    C7 2341   2.698   0.937  12.459  1.4717  0.4936  0.0338
  150TMC2    C8 2342   2.501   1.116  12.075  0.3026  0.1616 -0.0719
  150TMC2    O1 2343   2.782   1.021  12.449 -0.1523  0.6292  0.1071
  150TMC2    O2 2344   2.577   1.209  12.073 -0.4663  0.2671  0.2576
  150TMC2    O5 2345   2.491   1.039  11.968 -0.0262 -0.2269 -0.0569
  150TMC2    H5 2346   2.468   0.945  11.981  0.1847 -0.4132 -1.0213
  151MPD2     C 2347   1.734   0.747  12.367  0.1617  0.0123  0.4175
  151MPD2    C1 2348   1.770   0.763  12.235 -0.6514  0.7068  0.7182
  151MPD2    C2 2349   1.899   0.785  12.201 -0.2318  0.0660 -0.7000
  151MPD2    C3 2350   1.997   0.805  12.302 -0.4770 -0.2035 -0.5012
  151MPD2    C4 2351   1.957   0.797  12.429  0.0644  1.1500 -0.6969
  151MPD2    C5 2352   1.825   0.766  12.466  0.6919  0.2375 -0.1632
  151MPD2     H 2353   1.936   0.785  12.099  1.1543 -0.1445 -0.2060
  151MPD2    H1 2354   2.034   0.791  12.505  0.3224 -1.6083 -1.1572
  151MPD2    H2 2355   1.630   0.721  12.387 -0.1565  1.9510  1.1874
  151MPD2    H3 2356   1.803   0.769  12.572  2.4109  0.1248  0.1953
  151MPD2     N 2357   2.139   0.831  12.276 -0.0029 -0.0621 -0.2989
  151MPD2    H5 2358   2.158   0.835  12.176  0.9953 -0.6602 -0.1307
  151MPD2    N1 2359   1.676   0.737  12.134 -0.1664  0.0927  0.2057
  151MPD2    H7 2360   1.585   0.702  12.162  0.8928 -2.5543  0.3231
  152TMC2    C1 2361   2.110   0.690  12.793 -1.0782 -0.2134 -0.0705
  152TMC2    C2 2362   2.196   0.584  12.761 -0.9063 -0.6054  0.5219
  152TMC2    C3 2363   2.322   0.612  12.747 -0.1276  0.0882 -0.8246
  152TMC2    C4 2364   2.153   0.816  12.810  0.2042  0.5060 -0.1319
  152TMC2    C5 2365   2.290   0.840  12.799 -0.7369  0.0535 -0.1709
  152TMC2    C6 2366   2.379   0.737  12.769  0.4340 -0.3874  1.0449
  152TMC2     C 2367   1.969   0.663  12.802  0.2108 -0.0467  0.1818
  152TMC2     O 2368   1.894   0.760  12.779  0.0403 -0.5507  0.5691
  152TMC2     H 2369   2.167   0.481  12.743 -1.9121 -0.3480  0.6583
  152TMC2    H1 2370   2.084   0.899  12.821  1.3976  1.2345  1.9589
  152TMC2    H2 2371   2.487   0.730  12.763  0.2057 -0.8307 -2.2964
  152TMC2    C7 2372   2.335   0.974  12.822 -0.3307 -0.3210  0.1910
  152TMC2    C8 2373   2.425   0.506  12.746 -0.4048  0.2755 -0.2827
  152TMC2    O1 2374   2.253   1.063  12.825 -0.0847  0.4917  0.0968
  152TMC2    O2 2375   2.493   0.495  12.645 -0.4785  0.2096 -0.4363
  152TMC2    O5 2376   2.469   0.520  12.874 -0.1909 -0.8064 -0.5506
  152TMC2    H5 2377   2.397   0.559  12.927  0.9924 -0.0051  0.4574
  153MPD2     C 2378   1.827   0.330  12.836 -0.1115 -0.0304 -0.5902
  153MPD2    C1 2379   1.820   0.463  12.801  0.7890  0.6736  0.0448
  153MPD2    C2 2380   1.700   0.509  12.739 -0.4442  0.7865 -0.0453
  153MPD2    C3 2381   1.595   0.424  12.721 -0.5237 -0.4497 -0.0088
  153MPD2    C4 2382   1.592   0.299  12.778  0.3036 -0.4133  0.3708
  153MPD2    C5 2383   1.711   0.255  12.834  0.8221  0.1661  0.1538
  153MPD2     H 2384   1.688   0.604  12.688  1.0118  1.2535  0.4654
  153MPD2    H1 2385   1.510   0.228  12.786  0.9109 -1.5533 -3.4755
  153MPD2    H2 2386   1.917   0.278  12.867  0.2754  1.1889  0.3448
  153MPD2    H3 2387   1.724   0.152  12.861 -1.6161 -0.5035 -1.2039
  153MPD2     N 2388   1.482   0.482  12.661 -0.2288  0.3821 -0.0604
  153MPD2    H5 2389   1.484   0.581  12.639  0.2591  0.2161 -0.7414
  153MPD2    N1 2390   1.943   0.533  12.820  0.1358  0.1654 -0.1962
  153MPD2    H7 2391   2.020   0.481  12.860  1.4152  2.8424  0.7953
  154TMC2    C1 2392   4.432   0.312   0.899  0.6200 -0.5480 -0.0094
  154TMC2    C2 2393   4.539   0.316   0.989  0.1737  0.1822 -0.0729
  154TMC2    C3 2394   4.658   0.260   0.954  0.5518  0.2535 -0.1092
  154TMC2    C4 2395   4.442   0.248   0.781  0.0072  0.5862 -0.1915
  154TMC2    C5 2396   4.555   0.180   0.762  0.0706  0.2950  0.2782
  154TMC2    C6 2397   4.670   0.187   0.837  0.2686  0.6952 -0.0437
  154TMC2     C 2398   4.315   0.389   0.939  0.5101 -0.0251  0.5383
  154TMC2     O 2399   4.320   0.424   1.053  0.1453 -0.5177 -0.3152
  154TMC2     H 2400   4.528   0.384   1.072 -1.8384  0.7411 -0.8072
  154TMC2    H1 2401   4.355   0.227   0.719 -0.5646  0.5946  0.6094
  154TMC2    H2 2402   0.029   0.140   0.814 -0.2420 -0.8787  1.0182
  154TMC2    C7 2403   4.556   0.091   0.644  0.4568  0.1598  0.8255
  154TMC2    C8 2404   0.034   0.290   1.042 -0.7571  0.4017 -0.4046
  154TMC2    O1 2405   4.457   0.088   0.574 -0.2550  0.6093 -0.2995
  154TMC2    O2 2406   0.035   0.394   1.106  0.4194  0.5351 -0.5079
  154TMC2    O5 2407   0.071   0.167   1.078 -0.2474  0.4483  0.2490
  154TMC2    H5 2408   0.033   0.091   1.030 -0.9844  0.1822  1.2622
  155MPD2     C 2409   4.078   0.588   0.732  0.6944  0.5380  0.6411
  155MPD2    C1 2410   4.127   0.523   0.846 -0.1597  0.1500  0.2904
  155MPD2    C2 2411   4.084   0.572   0.971 -0.1047 -0.7256 -0.0505
  155MPD2    C3 2412   3.988   0.666   0.977 -0.4862 -0.8011 -0.5982
  155MPD2    C4 2413   3.927   0.716   0.871 -0.3306 -0.3443 -0.1247
  155MPD2    C5 2414   3.963   0.674   0.744  0.2111  0.0336 -0.0765
  155MPD2     H 2415   4.128   0.531   1.061  0.4159 -0.0814 -0.0107
  155MPD2    H1 2416   3.851   0.792   0.882 -0.6819 -0.4074 -1.9842
  155MPD2    H2 2417   4.119   0.561   0.635  1.7100  1.1846  0.8933
  155MPD2    H3 2418   3.914   0.712   0.655  0.0978  0.2305  0.0689
  155MPD2     N 2419   3.946   0.702   1.107  0.4388 -0.3312  1.0868
  155MPD2    H5 2420   3.984   0.651   1.186 -0.4624 -3.0312 -0.2238
  155MPD2    N1 2421   4.237   0.438   0.833 -0.1841 -0.8036 -0.3468
  155MPD2    H7 2422   4.253   0.402   0.739 -0.8281 -2.1060  0.0346
  156TMC2    C1 2423   2.503   2.741  11.403 -0.7888  0.1479  0.1947
  156TMC2    C2 2424   2.533   2.743  11.275 -0.0055 -0.6188 -0.2416
  156TMC2    C3 2425   2.459   2.824  11.197 -0.2536 -0.3722 -0.7332
  156TMC2    C4 2426   2.423   2.834  11.462 -0.2027  1.0487 -0.4471
  156TMC2    C5 2427   2.356   2.921  11.389  0.4990  0.3123 -0.1233
  156TMC2    C6 2428   2.377   2.924  11.253 -0.2303  0.8294  0.6685
  156TMC2     C 2429   2.616   2.699  11.487  0.0713  0.3712 -0.4675
  156TMC2     O 2430   2.595   2.694  11.606 -0.6097 -0.0572 -0.2472
  156TMC2     H 2431   2.587   2.661  11.228  2.6997  0.8054  0.3976
  156TMC2    H1 2432   2.425   2.841  11.570 -0.0084  0.5841 -0.4212
  156TMC2    H2 2433   2.310   2.991  11.201 -0.8955 -1.2110 -1.1115
  156TMC2    C7 2434   2.316   3.045  11.450  0.7073  0.0280 -0.1129
  156TMC2    C8 2435   2.444   2.803  11.054  0.4358  0.2453  0.1878
  156TMC2    O1 2436   2.311   3.149  11.387 -0.1101  0.6475  0.5760
  156TMC2    O2 2437   2.333   2.822  10.999  0.2338 -0.1974 -0.8269
  156TMC2    O5 2438   2.558   2.767  10.991 -0.3670  0.0007 -0.4734
  156TMC2    H5 2439   2.636   2.775  11.050 -0.9701 -2.1374  0.5959
  157MPD2     C 2440   2.980   2.635  11.408 -0.8786 -0.3483  0.6420
  157MPD2    C1 2441   2.865   2.663  11.483  0.2573  0.1006 -0.3235
  157MPD2    C2 2442   2.882   2.665  11.616 -0.9216 -0.6583 -0.2662
  157MPD2    C3 2443   3.005   2.664  11.677  0.5548 -0.1238 -0.3468
  157MPD2    C4 2444   3.121   2.643  11.604  0.7767 -0.0396 -0.0312
  157MPD2    C5 2445   3.103   2.636  11.467  0.0254 -0.2881 -0.0465
  157MPD2     H 2446   2.801   2.693  11.683  0.5362  1.5686  0.5448
  157MPD2    H1 2447   3.222   2.617  11.635  1.7538  2.0746 -1.4347
  157MPD2    H2 2448   2.985   2.643  11.300 -0.1304  0.2118  0.7171
  157MPD2    H3 2449   3.193   2.632  11.406 -1.1030  1.9008 -1.9021
  157MPD2     N 2450   3.005   2.683  11.816  0.0304  0.0192  0.0564
  157MPD2    H5 2451   2.911   2.696  11.851  0.2300  0.6478  0.3456
  157MPD2    N1 2452   2.740   2.682  11.417 -0.4305 -0.0435  0.4333
  157MPD2    H7 2453   2.739   2.697  11.317 -1.7782 -1.8467  0.1727
  158TMC2    C1 2454   2.642   1.645  13.069  0.4781 -0.3461  0.3178
  158TMC2    C2 2455   2.672   1.674  12.940 -0.2033 -0.5809 -0.3464
  158TMC2    C3 2456   2.579   1.637  12.848  0.2086  0.1787  0.9047
  158TMC2    C4 2457   2.523   1.584  13.106 -0.1971 -0.9312  0.6339
  158TMC2    C5 2458   2.426   1.566  13.011 -0.2468 -0.1261 -0.3290
  158TMC2    C6 2459   2.460   1.573  12.881 -0.7885 -0.5400  0.4889
  158TMC2     C 2460   2.742   1.677  13.164  0.5323  0.5447  0.4197
  158TMC2     O 2461   2.834   1.751  13.136  0.7349  0.0655 -0.6131
  158TMC2     H 2462   2.759   1.733  12.912 -1.7090  1.5422 -0.5066
  158TMC2    H1 2463   2.494   1.569  13.210  0.0255  1.2268  1.0010
  158TMC2    H2 2464   2.381   1.538  12.816 -0.2443 -1.4098  0.3005
  158TMC2    C7 2465   2.284   1.557  13.039 -0.4341  0.2353 -0.0531
  158TMC2    C8 2466   2.601   1.669  12.706 -0.2786 -0.2302  0.2791
  158TMC2    O1 2467   2.212   1.617  12.962  0.1099 -0.9993  0.1452
  158TMC2    O2 2468   2.507   1.663  12.631 -0.3196 -0.2918  0.6163
  158TMC2    O5 2469   2.728   1.667  12.664 -0.3582  0.0120 -0.4597
  158TMC2    H5 2470   2.794   1.667  12.736 -0.4278 -1.3229 -0.3823
  159MPD2     C 2471   2.977   1.622  13.613  0.1069  0.4904 -0.2179
  159MPD2    C1 2472   2.875   1.536  13.618 -0.0310  0.1618 -0.0318
  159MPD2    C2 2473   2.783   1.537  13.512  0.2689  0.0161 -0.2238
  159MPD2    C3 2474   2.808   1.620  13.404 -0.0069  0.3086 -0.0774
  159MPD2    C4 2475   2.927   1.699  13.398 -0.0595  0.0318 -0.1752
  159MPD2    C5 2476   3.008   1.704  13.507  0.5510  0.2490 -0.0758
  159MPD2     H 2477   2.698   1.470  13.515  0.5293 -0.3283 -0.4878
  159MPD2    H1 2478   2.925   1.781  13.328  0.5836  1.7720  1.8472
  159MPD2    H2 2479   3.043   1.637  13.698 -0.9994 -1.9071  1.0486
  159MPD2    H3 2480   3.093   1.771  13.516 -0.5954  1.5118  1.3269
  159MPD2     N 2481   2.721   1.609  13.288  0.0677  0.2339  0.5713
  159MPD2    H5 2482   2.640   1.549  13.297  0.2127 -0.1962 -0.9535
  159MPD2    N1 2483   2.864   1.452  13.732 -0.5564 -0.0649  0.1845
  159MPD2    H7 2484   2.947   1.455  13.791 -1.0795  0.4052  0.8914
  160TMC2    C1 2485   2.646   4.461   1.364 -0.1073  0.1349 -0.0978
  160TMC2    C2 2486   2.694   4.377   1.464 -0.6273 -0.8277 -0.3324
  160TMC2    C3 2487   2.697   4.240   1.436  0.1718  0.5110 -0.7550
  160TMC2    C4 2488   2.651   4.411   1.232  0.1381  0.7202 -0.4374
  160TMC2    C5 2489   2.677   4.281   1.206  1.4223 -0.4641  0.4485
  160TMC2    C6 2490   2.688   4.192   1.307  0.5792  0.3217  0.0652
  160TMC2     C 2491   2.641   4.603   1.385  0.3231 -0.8107  0.3040
  160TMC2     O 2492   2.719   4.645   1.467  0.2928  0.0196  0.5028
  160TMC2     H 2493   2.713   4.422   1.561 -2.3798  1.8933 -1.2405
  160TMC2    H1 2494   2.623   4.480   1.153 -0.0985 -0.6598 -1.5562
  160TMC2    H2 2495   2.715   4.092   1.276 -1.4490  0.1558 -1.1734
  160TMC2    C7 2496   2.699   4.238   1.069  1.1495 -0.8769 -0.3630
  160TMC2    C8 2497   2.652   4.154   1.539  0.2926 -0.6844  0.5368
  160TMC2    O1 2498   2.658   4.126   1.041  0.0394 -0.1628  0.5508
  160TMC2    O2 2499   2.681   4.034   1.540  0.2024 -0.4590  0.2728
  160TMC2    O5 2500   2.579   4.217   1.633  0.5698 -0.0329  0.2627
  160TMC2    H5 2501   2.527   4.294   1.601 -0.0597  0.0664  1.5174
  161MPD2     C 2502   2.625   0.165   1.372  0.2770  0.1667  0.5934
  161MPD2    C1 2503   2.539   0.082   1.309 -0.1385 -0.0093  0.8262
  161MPD2    C2 2504   2.430   0.130   1.238  0.0373 -0.3054  0.1124
  161MPD2    C3 2505   2.399   0.264   1.248  0.6475 -0.5052 -0.3115
  161MPD2    C4 2506   2.483   0.348   1.316  0.6266 -0.1508 -0.4576
  161MPD2    C5 2507   2.596   0.297   1.375 -0.3904 -0.2234 -0.1606
  161MPD2     H 2508   2.369   0.065   1.176 -0.5175 -0.2562  0.6021
  161MPD2    H1 2509   2.467   0.455   1.304  1.4675  0.1367  0.9822
  161MPD2    H2 2510   2.717   0.131   1.418 -0.8189 -1.3746  1.6279
  161MPD2    H3 2511   2.671   0.366   1.414 -1.0646  0.3300  0.1564
  161MPD2     N 2512   2.310   0.336   1.171 -0.6036 -0.3505 -0.5642
  161MPD2    H5 2513   2.306   0.437   1.164 -3.0589 -0.1315  3.8349
  161MPD2    N1 2514   2.566   4.678   1.299 -0.3304  0.4270 -0.5404
  161MPD2    H7 2515   2.502   4.626   1.239  0.9746  0.9565 -2.3848
  162TMC2    C1 2516   1.246   1.835   1.110  0.2574 -0.5064  0.2420
  162TMC2    C2 2517   1.165   1.923   1.168 -0.6426 -0.2691  0.9087
  162TMC2    C3 2518   1.148   1.905   1.302 -0.0385 -0.2220 -0.9290
  162TMC2    C4 2519   1.314   1.728   1.181 -0.0266  0.3040  0.4983
  162TMC2    C5 2520   1.322   1.738   1.316  0.1514  0.1112 -1.1826
  162TMC2    C6 2521   1.223   1.818   1.379  0.6171 -0.0951 -0.7103
  162TMC2     C 2522   1.204   1.797   0.974 -0.2534  0.3802 -0.3558
  162TMC2     O 2523   1.085   1.811   0.943  0.5847  0.2551  0.3800
  162TMC2     H 2524   1.097   1.984   1.110 -1.0685 -0.0595  1.6325
  162TMC2    H1 2525   1.376   1.663   1.121  1.3705  0.2322  2.0399
  162TMC2    H2 2526   1.219   1.816   1.487 -0.2082 -1.8462 -0.7741
  162TMC2    C7 2527   1.415   1.650   1.395  0.3007 -0.3589  0.2989
  162TMC2    C8 2528   1.007   1.899   1.322 -0.2122 -0.1387 -0.1074
  162TMC2    O1 2529   1.452   1.686   1.503  0.2480 -0.2316  0.0696
  162TMC2    O2 2530   0.922   1.954   1.250 -0.1407 -0.4536  0.0329
  162TMC2    O5 2531   0.995   1.771   1.366  0.0111  0.2097 -0.1630
  162TMC2    H5 2532   1.069   1.739   1.423 -0.5636  1.4881  1.2882
  163MPD2     C 2533   1.277   1.636   0.490 -0.1832  0.0455  0.2678
  163MPD2    C1 2534   1.169   1.647   0.569  0.3705 -0.2921 -0.8140
  163MPD2    C2 2535   1.175   1.671   0.705 -0.3952 -1.0435  0.0697
  163MPD2    C3 2536   1.300   1.694   0.765 -0.4144 -0.0643  0.4278
  163MPD2    C4 2537   1.413   1.654   0.691 -0.1022  0.1819  0.2900
  163MPD2    C5 2538   1.396   1.624   0.554  0.6849  0.1487 -0.3059
  163MPD2     H 2539   1.086   1.693   0.762 -1.1349 -4.2308  0.1318
  163MPD2    H1 2540   1.513   1.666   0.730  0.2407 -1.2469 -0.1789
  163MPD2    H2 2541   1.272   1.620   0.383 -0.5705  0.4636  0.2239
  163MPD2    H3 2542   1.481   1.590   0.496 -1.2932 -1.5440 -2.2188
  163MPD2     N 2543   1.312   1.742   0.902 -0.1350  0.3147 -0.2569
  163MPD2    H5 2544   1.400   1.759   0.950 -0.3242 -1.2157  0.6531
  163MPD2    N1 2545   1.044   1.638   0.498 -0.5891 -0.3902  0.3937
  163MPD2    H7 2546   1.045   1.628   0.397  0.2207 -1.9647  0.5513
  164TMC2    C1 2547   0.792   1.727  10.756  0.2938 -0.0656  0.4094
  164TMC2    C2 2548   0.925   1.769  10.739  0.0333 -0.8197  0.3170
  164TMC2    C3 2549   0.952   1.899  10.782 -0.6387  0.1280 -0.2811
  164TMC2    C4 2550   0.691   1.806  10.808  0.5250  0.1666 -0.2784
  164TMC2    C5 2551   0.732   1.924  10.865 -0.0525  0.3425  0.1334
  164TMC2    C6 2552   0.856   1.978  10.842  0.1901  0.1114  0.0659
  164TMC2     C 2553   0.757   1.599  10.694  0.3269  0.2326 -0.1837
  164TMC2     O 2554   0.649   1.553  10.719 -0.0873  0.6294  0.1109
  164TMC2     H 2555   1.003   1.695  10.726  1.1554  0.7447 -1.9004
  164TMC2    H1 2556   0.597   1.758  10.829  1.1456 -1.3032 -0.8595
  164TMC2    H2 2557   0.890   2.077  10.868 -0.3301  0.2417  0.2564
  164TMC2    C7 2558   0.619   2.011  10.888  0.1039 -0.4257 -0.2920
  164TMC2    C8 2559   1.094   1.930  10.810  0.1178 -0.1003  0.2699
  164TMC2    O1 2560   0.508   1.952  10.887 -0.0715  0.1328 -0.6200
  164TMC2    O2 2561   1.128   2.008  10.900 -0.3256  0.3575 -0.4557
  164TMC2    O5 2562   1.177   1.863  10.733 -0.6046 -0.7200  0.2633
  164TMC2    H5 2563   1.124   1.819  10.663 -0.2735  0.0709 -0.4918
  165TMC2    C1 2564   2.522   3.269   1.025  0.1559 -0.7523 -0.2195
  165TMC2    C2 2565   2.573   3.228   1.149  0.9448 -0.5962 -0.5593
  165TMC2    C3 2566   2.698   3.262   1.181 -0.2419 -0.4717  0.5580
  165TMC2    C4 2567   2.593   3.354   0.940  0.1093 -0.2530 -0.8816
  165TMC2    C5 2568   2.709   3.400   0.986 -0.2061  0.0738  0.7240
  165TMC2    C6 2569   2.761   3.357   1.114  0.5655 -0.3194 -0.3104
  165TMC2     C 2570   2.410   3.181   0.968 -0.1945 -0.1032  0.3013
  165TMC2     O 2571   2.361   3.104   1.052 -0.1887  0.4138  0.2724
  165TMC2     H 2572   2.534   3.141   1.201 -0.9759 -0.2425 -1.3895
  165TMC2    H1 2573   2.540   3.406   0.861 -0.2964  1.4874  0.5553
  165TMC2    H2 2574   2.864   3.375   1.142 -0.1380  3.1590  0.1057
  165TMC2    C7 2575   2.764   3.527   0.932  0.2171  0.7230  0.4699
  165TMC2    C8 2576   2.759   3.213   1.307  0.0194  0.2901 -0.3224
  165TMC2    O1 2577   2.840   3.594   1.002  0.6549 -0.0065 -0.0850
  165TMC2    O2 2578   2.734   3.105   1.354 -0.1572 -0.3204  0.7754
  165TMC2    O5 2579   2.795   3.318   1.381  0.1007  0.4376 -0.3943
  165TMC2    H5 2580   2.794   3.410   1.347  2.5643  0.0169 -1.6194
  166MPD2     C 2581   2.052   3.107   0.629 -0.0266  0.2529 -0.2265
  166MPD2    C1 2582   2.064   3.053   0.757  0.3740  0.1958 -0.1917
  166MPD2    C2 2583   2.176   3.091   0.827 -0.2779  0.0650  0.4499
  166MPD2    C3 2584   2.271   3.180   0.776  0.2161  0.0951  0.1479
  166MPD2    C4 2585   2.257   3.225   0.649  0.5090 -0.3774 -0.5651
  166MPD2    C5 2586   2.152   3.185   0.570  0.2217 -0.4820 -0.1811
  166MPD2     H 2587   2.187   3.056   0.929 -1.1680  1.3702  0.9867
  166MPD2    H1 2588   2.337   3.284   0.606 -0.9621  1.8991 -0.1723
  166MPD2    H2 2589   1.985   3.061   0.558 -1.0346  1.2196  0.0983
  166MPD2    H3 2590   2.155   3.203   0.464 -0.7501  3.4119  0.4433
  166MPD2     N 2591   2.381   3.224   0.843 -0.5188 -0.2378  0.6234
  166MPD2    H5 2592   2.442   3.286   0.790 -0.3626 -1.1267 -0.2286
  166MPD2    N1 2593   1.960   2.985   0.824  0.0695  0.9145  0.2275
  166MPD2    H7 2594   1.868   2.982   0.781  0.6450  0.4052 -0.9935
  167TMC2    C1 2595   4.634   2.962  12.764 -0.3576  0.2121  0.4652
  167TMC2    C2 2596   4.607   3.045  12.869 -0.2075 -0.5129  0.4725
  167TMC2    C3 2597   4.584   2.985  12.992 -0.4382 -0.5862  0.2547
  167TMC2    C4 2598   4.596   2.825  12.775 -0.1446 -0.1315 -0.0151
  167TMC2    C5 2599   4.582   2.766  12.899  0.2961  0.5285 -0.0850
  167TMC2    C6 2600   4.567   2.849  13.007  0.4821 -0.0647  0.3616
  167TMC2     C 2601   4.660   3.026  12.635 -0.3453  0.1360 -0.8050
  167TMC2     O 2602   4.665   3.146  12.626  0.2005  0.5827 -0.5265
  167TMC2     H 2603   4.644   3.147  12.861  2.1791 -1.3866  0.2127
  167TMC2    H1 2604   4.593   2.760  12.688  3.6084 -0.4996  0.1114
  167TMC2    H2 2605   4.548   2.801  13.102  0.5353 -0.0909  0.3591
  167TMC2    C7 2606   4.529   2.631  12.900  0.4742 -0.0885  0.4787
  167TMC2    C8 2607   4.538   3.071  13.098 -0.0765  0.5735  0.2893
  167TMC2    O1 2608   4.431   2.615  12.968 -0.2814  0.1019 -0.3135
  167TMC2    O2 2609   4.551   3.042  13.218  0.0802  0.5879  0.6074
  167TMC2    O5 2610   4.532   3.200  13.050 -0.5422  0.6326  0.1119
  167TMC2    H5 2611   4.507   3.189  12.956 -0.6452  2.3087 -0.0552
  168MPD2     C 2612   4.707   3.074  12.334  0.2142  0.0443  0.7130
  168MPD2    C1 2613   4.688   2.952  12.391 -0.6686  0.2459  0.1826
  168MPD2    C2 2614   4.689   2.837  12.315 -0.6428  0.0719  1.0232
  168MPD2    C3 2615   4.703   2.851  12.176 -0.4555  1.2537  0.7070
  168MPD2    C4 2616   4.731   2.976  12.122 -1.0345 -0.8047 -0.0534
  168MPD2    C5 2617   0.000   3.084  12.203 -0.3542  0.2761 -0.3904
  168MPD2     H 2618   4.676   2.744  12.370 -1.4988 -1.2487 -1.4358
  168MPD2    H1 2619   4.723   3.004  12.017 -1.0944 -0.2409  0.0993
  168MPD2    H2 2620   4.710   3.159  12.400  0.2743  2.1488 -2.0118
  168MPD2    H3 2621   0.008   3.183  12.158 -2.2252  1.6598  2.3710
  168MPD2     N 2622   4.680   2.741  12.088 -0.4147 -0.1650 -0.8063
  168MPD2    H5 2623   4.708   2.754  11.991 -1.0723  1.6080 -0.7689
  168MPD2    N1 2624   4.665   2.929  12.530 -0.3766  0.4572  0.8259
  168MPD2    H7 2625   4.665   2.835  12.569 -1.9199  0.9800  2.0602
  169MPD1     C 2626   1.810   2.079   9.301  0.1030  0.6617 -0.0205
  169MPD1    C1 2627   1.908   2.090   9.406 -0.2288  0.3244  0.5758
  169MPD1    C2 2628   1.959   1.970   9.447  0.2986  0.2985 -0.2923
  169MPD1    C3 2629   1.896   1.850   9.422  0.0179  0.0451  0.2651
  169MPD1    C4 2630   1.787   1.847   9.329  0.1876 -0.0038  0.0646
  169MPD1    C5 2631   1.748   1.962   9.273 -0.4789  0.2525 -0.2346
  169MPD1     H 2632   2.047   1.969   9.510  1.0667  0.6455 -1.3646
  169MPD1    H1 2633   1.729   1.757   9.313 -0.9698  0.5121  1.3362
  169MPD1    H2 2634   1.786   2.165   9.239  0.1774 -1.0510 -2.4057
  169MPD1    H3 2635   1.674   1.960   9.194  0.1197 -0.4904 -0.7794
  169MPD1     N 2636   1.955   1.732   9.472  0.4342 -0.4021 -0.0534
  169MPD1    H5 2637   2.037   1.742   9.531  0.1595 -2.0800  0.6020
  169MPD1    N1 2638   1.983   2.203   9.415 -0.4726  0.0213  0.2546
  169MPD1    H6 2639   2.022   2.218   9.508  2.3504  1.8786 -1.2546
  169MPD1    H7 2640   1.929   2.284   9.385 -0.6603 -0.6815 -1.2895
  170MPD1     C 2641   1.877   3.310  13.170  0.0257 -0.2419 -0.2955
  170MPD1    C1 2642   1.863   3.350  13.296  0.5398 -0.2782 -0.1887
  170MPD1    C2 2643   1.756   3.426  13.332  0.1492 -0.1393 -0.4193
  170MPD1    C3 2644   1.671   3.469  13.238 -0.6169  0.1234 -0.4323
  170MPD1    C4 2645   1.684   3.425  13.106 -0.0429 -0.8991 -0.1879
  170MPD1    C5 2646   1.784   3.341  13.076  0.4686 -0.2518  0.0176
  170MPD1     H 2647   1.748   3.449  13.438  2.0356 -3.5566  0.4587
  170MPD1    H1 2648   1.622   3.450  13.021 -0.7057 -0.7528  0.3387
  170MPD1    H2 2649   1.954   3.237  13.146 -0.3044 -0.3517 -1.0109
  170MPD1    H3 2650   1.798   3.302  12.976 -0.5022  0.2777 -0.3122
  170MPD1     N 2651   1.553   3.545  13.288 -0.0135 -0.0665  0.3666
  170MPD1    H5 2652   1.546   3.550  13.389  1.6641 -2.6424  0.6156
  170MPD1    N1 2653   1.962   3.313  13.394 -0.1635 -0.1245 -0.1508
  170MPD1    H6 2654   1.940   3.272  13.485  0.9632  0.2035  0.2730
  170MPD1    H7 2655   2.037   3.261  13.349 -1.7874 -1.3494 -1.4637
  171MPD1     C 2656   4.579   0.370  15.343 -0.2833 -0.3100 -0.8315
  171MPD1    C1 2657   4.588   0.251  15.274  0.2700 -0.5888  0.0310
  171MPD1    C2 2658   4.661   0.148  15.335 -0.2233 -0.5937 -0.1707
  171MPD1    C3 2659   4.710   0.156  15.462 -0.1199  0.3924 -0.3527
  171MPD1    C4 2660   4.683   0.271  15.532  0.5879  0.0385 -0.2728
  171MPD1    C5 2661   4.624   0.382  15.470 -0.3669  0.1886 -0.3249
  171MPD1     H 2662   4.676   0.059  15.275 -1.4446 -1.0943  0.2642
  171MPD1    H1 2663   4.713   0.286  15.635 -0.9914 -0.0922  0.2082
  171MPD1    H2 2664   4.534   0.458  15.298  0.1291  0.8279  0.9423
  171MPD1    H3 2665   4.630   0.474  15.527 -1.7275  0.9242 -1.3560
  171MPD1     N 2666   0.031   0.057  15.534 -0.7467 -0.1153 -0.4659
  171MPD1    H5 2667   0.066   0.087  15.625  1.0744 -1.6920 -0.6383
  171MPD1    N1 2668   4.554   0.251  15.137 -0.2308  0.5184 -0.3792
  171MPD1    H6 2669   4.530   0.159  15.100  0.7259  0.2938 -0.4382
  171MPD1    H7 2670   4.469   0.306  15.125 -0.6581 -0.5208 -2.1789
  172MPD1     C 2671   3.581   3.671  17.254 -0.5289 -0.2264  0.4805
  172MPD1    C1 2672   3.607   3.639  17.385  1.1584 -0.0981  0.5518
  172MPD1    C2 2673   3.648   3.743  17.472 -0.4120  0.2718  0.0346
  172MPD1    C3 2674   3.670   3.870  17.423  0.1695  0.3077  0.0537
  172MPD1    C4 2675   3.646   3.901  17.291  0.2131  0.3252 -0.5698
  172MPD1    C5 2676   3.596   3.802  17.211  0.3654 -0.5382 -0.1761
  172MPD1     H 2677   3.663   3.717  17.576 -1.2266  0.6218  0.2381
  172MPD1    H1 2678   3.654   3.994  17.237  0.3545 -0.9220 -2.7095
  172MPD1    H2 2679   3.531   3.601  17.188  0.5609  0.6650 -1.2753
  172MPD1    H3 2680   3.573   3.817  17.106  2.2330 -0.5945 -0.6083
  172MPD1     N 2681   3.716   3.979  17.503  0.5920 -0.2634 -0.2739
  172MPD1    H5 2682   3.719   4.068  17.453  1.0574 -1.8561 -3.0868
  172MPD1    N1 2683   3.556   3.513  17.427  0.2343 -0.4185 -0.5974
  172MPD1    H6 2684   3.607   3.487  17.512 -0.6420 -1.7901 -0.4920
  172MPD1    H7 2685   3.563   3.438  17.359 -1.4662  2.4744 -3.9541
  173MPD1     C 2686   0.799   4.600  13.756 -0.6669 -0.8407  0.3294
  173MPD1    C1 2687   0.685   4.619  13.832 -0.1824  1.0664  0.9944
  173MPD1    C2 2688   0.635   4.519  13.912 -0.4289 -0.0741 -0.2383
  173MPD1    C3 2689   0.700   4.394  13.921 -0.1103  0.2285  0.6787
  173MPD1    C4 2690   0.808   4.373  13.839  0.1678 -0.0534 -0.2026
  173MPD1    C5 2691   0.859   4.477  13.762  0.5308 -0.3220  0.2839
  173MPD1     H 2692   0.544   4.542  13.966 -0.8245  1.5849 -1.5893
  173MPD1    H1 2693   0.867   4.282  13.837  0.6524  0.3012 -2.4240
  173MPD1    H2 2694   0.839   4.680  13.694 -0.1138  0.0142  1.7889
  173MPD1    H3 2695   0.946   4.448  13.703  0.3898  2.1137 -1.1018
  173MPD1     N 2696   0.657   4.303  14.020  0.0430  0.0393  0.2509
  173MPD1    H5 2697   0.584   4.327  14.086 -0.5740 -0.0386 -0.4010
  173MPD1    N1 2698   0.643   0.017  13.851 -0.3520  0.1074  0.4744
  173MPD1    H6 2699   0.552   0.031  13.894 -1.4488  1.5199 -2.3201
  173MPD1    H7 2700   0.639   0.076  13.769  1.1630 -0.7066 -0.1767
  174MPD1     C 2701   1.180   3.604  14.537 -0.1996  0.2579  0.2010
  174MPD1    C1 2702   1.056   3.610  14.603 -0.1195 -0.2313  0.6448
  174MPD1    C2 2703   0.950   3.668  14.527 -0.1317 -0.0336 -0.0762
  174MPD1    C3 2704   0.971   3.736  14.410 -0.2242  0.2172 -1.0144
  174MPD1    C4 2705   1.100   3.741  14.364 -0.6219  0.3774 -0.4285
  174MPD1    C5 2706   1.204   3.675  14.419  0.5237 -1.1552  0.4005
  174MPD1     H 2707   0.850   3.660  14.570 -0.0516 -0.0155  0.1120
  174MPD1    H1 2708   1.124   3.784  14.267  0.6026  1.3930  0.3351
  174MPD1    H2 2709   1.270   3.557  14.577 -0.7273 -2.7221 -2.1856
  174MPD1    H3 2710   1.303   3.687  14.376  0.2443 -1.7262 -0.4088
  174MPD1     N 2711   0.864   3.809  14.343 -0.9351  0.3090  0.1303
  174MPD1    H5 2712   0.884   3.832  14.246  0.6938 -0.8295  0.1866
  174MPD1    N1 2713   1.027   3.536  14.716 -0.3078  0.5848  0.3499
  174MPD1    H6 2714   1.108   3.524  14.777 -1.4547  0.9780  1.9586
  174MPD1    H7 2715   0.943   3.560  14.768 -0.9758  0.6060 -0.7460
  175MPD1     C 2716   3.655   0.389  15.167  0.5650  0.6972  0.8458
  175MPD1    C1 2717   3.711   0.279  15.235 -0.2455  0.1957 -0.1189
  175MPD1    C2 2718   3.683   0.257  15.372 -0.1262 -0.5212 -1.0052
  175MPD1    C3 2719   3.606   0.347  15.445  0.0208 -0.8125  0.2159
  175MPD1    C4 2720   3.553   0.449  15.367  0.1631 -0.2509 -0.4484
  175MPD1    C5 2721   3.582   0.479  15.237 -0.9214 -0.1942 -0.1428
  175MPD1     H 2722   3.715   0.158  15.403 -1.5509  0.1219  2.5290
  175MPD1    H1 2723   3.492   0.517  15.425 -0.6072 -1.6233  0.3509
  175MPD1    H2 2724   3.675   0.417  15.064 -1.6450 -2.7450 -0.4907
  175MPD1    H3 2725   3.542   0.566  15.186 -1.8655 -0.0428  0.8545
  175MPD1     N 2726   3.540   0.317  15.566  0.2767 -0.1731 -0.2064
  175MPD1    H5 2727   3.479   0.389  15.602  2.1744  1.4176 -0.2227
  175MPD1    N1 2728   3.778   0.183  15.165  0.3800  0.0292  0.8211
  175MPD1    H6 2729   3.845   0.128  15.218  2.4381  1.3315 -0.4419
  175MPD1    H7 2730   3.825   0.226  15.085 -1.6542  1.4235  0.3775
  176MPD1     C 2731   0.412   1.656  17.651  0.5016 -0.3491  0.0173
  176MPD1    C1 2732   0.308   1.750  17.652  0.1499 -0.0249 -0.2374
  176MPD1    C2 2733   0.321   1.852  17.563  1.1679  0.3685 -0.1075
  176MPD1    C3 2734   0.420   1.859  17.466  0.0331  0.0972  0.4179
  176MPD1    C4 2735   0.518   1.766  17.466 -0.0860 -0.5217 -0.0622
  176MPD1    C5 2736   0.514   1.672  17.563 -0.2183  0.2819  0.2985
  176MPD1     H 2737   0.255   1.938  17.576 -0.6812 -0.7033 -2.3747
  176MPD1    H1 2738   0.595   1.759  17.390  1.6658 -1.4341  1.7960
  176MPD1    H2 2739   0.415   1.568  17.714  0.5383 -0.9121 -0.7643
  176MPD1    H3 2740   0.588   1.593  17.560 -3.9128 -3.0604 -2.2753
  176MPD1     N 2741   0.413   1.967  17.381  0.3987 -0.1143 -0.7806
  176MPD1    H5 2742   0.338   2.035  17.391  1.6922  1.1705  0.1944
  176MPD1    N1 2743   0.211   1.753   0.012 -0.0016  0.2985 -0.5535
  176MPD1    H6 2744   0.174   1.661   0.034 -0.6129  0.7477  0.2582
  176MPD1    H7 2745   0.134   1.813  17.727  0.9422  2.4592  1.4854
  177MPD1     C 2746   3.402   2.846   9.894  0.6572 -0.4650  0.3102
  177MPD1    C1 2747   3.363   2.976   9.865  0.1007  0.1390 -0.1779
  177MPD1    C2 2748   3.222   2.984   9.847  0.4406  0.0390  0.8969
  177MPD1    C3 2749   3.140   2.881   9.830 -0.1109 -0.2114  0.1401
  177MPD1    C4 2750   3.185   2.750   9.852 -0.7077  0.2986  0.0643
  177MPD1    C5 2751   3.320   2.736   9.894 -0.1375  0.1768  0.4837
  177MPD1     H 2752   3.192   3.084   9.815  1.1364 -0.0383  0.0067
  177MPD1    H1 2753   3.120   2.665   9.835  0.4456 -0.0686 -2.5583
  177MPD1    H2 2754   3.501   2.826   9.936  0.9579 -1.4708 -0.8794
  177MPD1    H3 2755   3.356   2.637   9.920  0.5288  0.3721  0.3069
  177MPD1     N 2756   3.002   2.905   9.799 -0.9587  0.7873  0.2094
  177MPD1    H5 2757   2.978   3.003   9.792  0.1634  1.2198  2.6263
  177MPD1    N1 2758   3.447   3.087   9.879 -0.5453 -0.4850 -0.6763
  177MPD1    H6 2759   3.544   3.065   9.858 -0.1651  1.3232 -0.8139
  177MPD1    H7 2760   3.436   3.163   9.813  0.4584 -0.9135 -1.3432
  178MPD1     C 2761   1.318   2.871   0.289  0.4264 -0.3052  0.3851
  178MPD1    C1 2762   1.262   2.761   0.214  0.2877 -0.4482  0.6730
  178MPD1    C2 2763   1.283   2.751   0.081  0.4638 -0.2023 -0.2430
  178MPD1    C3 2764   1.350   2.851   0.016 -0.4987 -0.4890  0.3080
  178MPD1    C4 2765   1.392   2.959   0.082  0.0949 -0.2432  0.6319
  178MPD1    C5 2766   1.375   2.972   0.216 -0.3550  0.8398 -0.4225
  178MPD1     H 2767   1.245   2.663   0.030  2.0932 -2.1778  1.8922
  178MPD1    H1 2768   1.441   3.042   0.034  1.4320 -1.1003  0.5365
  178MPD1    H2 2769   1.317   2.887   0.396 -1.2211  1.3614  0.1123
  178MPD1    H3 2770   1.415   3.061   0.263  0.5441 -0.1311  0.6509
  178MPD1     N 2771   1.394   2.842  17.621  0.2951 -0.6977  0.3930
  178MPD1    H5 2772   1.453   2.917  17.589 -0.8376  1.0050  2.2839
  178MPD1    N1 2773   1.216   2.647   0.285  0.2656  0.2765 -0.7339
  178MPD1    H6 2774   1.138   2.592   0.249  1.1785 -1.9139  0.6486
  178MPD1    H7 2775   1.188   2.672   0.380  2.6944  1.0035 -0.2266
  179MPD1     C 2776   1.062   1.698  15.912  0.3440  0.3515  0.1583
  179MPD1    C1 2777   1.031   1.675  15.781  0.6331  0.3950 -0.3866
  179MPD1    C2 2778   0.993   1.553  15.724  1.2956 -0.4530  0.6092
  179MPD1    C3 2779   0.983   1.453  15.813 -1.0073  0.6166  1.0489
  179MPD1    C4 2780   1.005   1.475  15.945 -0.3341  0.4520 -0.4077
  179MPD1    C5 2781   1.042   1.599  15.999  0.5284  0.3783  0.5116
  179MPD1     H 2782   0.976   1.551  15.617  0.0413  0.2137  0.7951
  179MPD1    H1 2783   1.002   1.396  16.019 -1.1323  1.6949  0.8642
  179MPD1    H2 2784   1.083   1.797  15.952  0.1163  0.8836 -1.0342
  179MPD1    H3 2785   1.047   1.615  16.106  0.4643 -1.2068  0.7524
  179MPD1     N 2786   0.957   1.320  15.774  0.1286  0.4883 -0.6886
  179MPD1    H5 2787   0.972   1.253  15.849  1.4279  0.5190 -0.9187
  179MPD1    N1 2788   1.071   1.777  15.692  1.1149 -0.1106 -0.0403
  179MPD1    H6 2789   1.052   1.870  15.731  0.1586  0.0241 -0.8448
  179MPD1    H7 2790   1.026   1.764  15.602 -1.5918  1.0900  1.1534
  180MPD1     C 2791   1.347   3.078  14.851  0.0087  0.5321  0.4471
  180MPD1    C1 2792   1.328   3.135  14.723  0.5333  0.1869  0.1461
  180MPD1    C2 2793   1.215   3.096  14.649 -0.1740 -0.3493  0.0335
  180MPD1    C3 2794   1.125   3.006  14.718  0.0294  0.5151  0.1478
  180MPD1    C4 2795   1.140   2.965  14.845  0.4869  1.0213 -0.5965
  180MPD1    C5 2796   1.255   2.997  14.914 -0.5387 -0.1667 -0.1658
  180MPD1     H 2797   1.210   3.113  14.542  0.6183  1.0785  0.2276
  180MPD1    H1 2798   1.070   2.906  14.904  1.8518  2.1806  2.1845
  180MPD1    H2 2799   1.446   3.087  14.896 -0.3737 -0.4380  1.4644
  180MPD1    H3 2800   1.270   2.955  15.013  1.1794 -1.6316 -1.0334
  180MPD1     N 2801   1.017   2.961  14.633 -0.3576  0.2149  0.1470
  180MPD1    H5 2802   1.008   2.995  14.538  0.3150  1.8584  0.6791
  180MPD1    N1 2803   1.434   3.202  14.662 -0.1005 -0.3198 -0.3740
  180MPD1    H6 2804   1.491   3.264  14.719  0.3625 -0.7981 -0.3083
  180MPD1    H7 2805   1.410   3.232  14.568 -1.2789 -1.9729 -0.6045
  181MPD1     C 2806   2.260   4.324  10.731  0.8993  0.3616  0.4510
  181MPD1    C1 2807   2.351   4.399  10.808  1.0422 -0.0757 -0.0891
  181MPD1    C2 2808   2.425   4.492  10.734 -0.1763  0.4565 -0.0467
  181MPD1    C3 2809   2.430   4.499  10.596  0.2544 -0.3502  0.1981
  181MPD1    C4 2810   2.346   4.417  10.524  0.4588  0.0109 -0.5205
  181MPD1    C5 2811   2.267   4.329  10.595 -0.1640  0.5256 -0.4995
  181MPD1     H 2812   2.498   4.547  10.794  0.5204 -1.2682  0.6733
  181MPD1    H1 2813   2.341   4.402  10.417 -1.2581 -1.0864 -0.2870
  181MPD1    H2 2814   2.177   4.272  10.776  0.2005 -0.8901 -2.2987
  181MPD1    H3 2815   2.184   4.286  10.539 -1.1300  0.5494  0.9172
  181MPD1     N 2816   2.514   4.593  10.523 -0.0146 -0.1015 -0.6577
  181MPD1    H5 2817   2.516   4.588  10.422 -1.4242  1.4119 -0.7691
  181MPD1    N1 2818   2.339   4.419  10.948  0.0434  0.4290 -0.4103
  181MPD1    H6 2819   2.417   4.462  10.996  0.2170 -0.4391  0.0808
  181MPD1    H7 2820   2.318   4.324  10.977 -1.4018  0.1175 -2.4368
  182MPD1     C 2821   3.373   3.857   0.513 -0.4139 -0.1788  0.6095
  182MPD1    C1 2822   3.348   3.785   0.626  0.3333 -0.9833 -0.2880
  182MPD1    C2 2823   3.256   3.683   0.616  0.9589  0.5659 -0.2860
  182MPD1    C3 2824   3.204   3.651   0.490  0.6125  0.2882  0.4840
  182MPD1    C4 2825   3.248   3.710   0.372  0.3346 -0.1661 -0.1715
  182MPD1    C5 2826   3.332   3.820   0.387  0.3213 -0.1020 -0.0689
  182MPD1     H 2827   3.226   3.636   0.709  0.1651 -0.7536 -1.2231
  182MPD1    H1 2828   3.221   3.684   0.270 -1.0643  1.1407 -0.1274
  182MPD1    H2 2829   3.444   3.938   0.522 -0.6984  0.1195  0.1303
  182MPD1    H3 2830   3.366   3.874   0.300  1.4722 -0.6296  0.0517
  182MPD1     N 2831   3.116   3.537   0.480  0.4937  0.6200 -1.0675
  182MPD1    H5 2832   3.065   3.515   0.395 -1.2029  0.3576  0.0204
  182MPD1    N1 2833   3.412   3.831   0.748  0.7007 -0.2224 -0.4264
  182MPD1    H6 2834   3.503   3.873   0.734  0.5427  0.4935  0.6473
  182MPD1    H7 2835   3.428   3.753   0.812  1.5490  1.2319  1.1431
  183MPD1     C 2836   2.795   0.208   8.528 -0.5770 -0.1726 -0.5117
  183MPD1    C1 2837   2.708   0.110   8.571  0.5254  0.2530 -0.8535
  183MPD1    C2 2838   2.745   0.014   8.662 -0.0080 -0.3399  0.5578
  183MPD1    C3 2839   2.881   4.732   8.690  0.0095 -0.0140 -0.0026
  183MPD1    C4 2840   2.970   0.090   8.634  0.0530  0.0628  0.0326
  183MPD1    C5 2841   2.924   0.199   8.573 -0.2166  0.4490  1.1189
  183MPD1     H 2842   2.671   4.681   8.702 -0.9843  0.1520 -0.4129
  183MPD1    H1 2843   3.075   0.094   8.662 -0.1229  1.9838  0.4531
  183MPD1    H2 2844   2.771   0.286   8.457  2.7225  0.8993 -0.4467
  183MPD1    H3 2845   2.985   0.283   8.546  1.1730 -1.0524 -0.4409
  183MPD1     N 2846   2.914   4.605   8.743  0.1799 -0.0730  0.4880
  183MPD1    H5 2847   2.841   4.569   8.803  0.7527  0.5381  1.5510
  183MPD1    N1 2848   2.568   0.130   8.546  0.6280  0.0320 -0.0236
  183MPD1    H6 2849   2.515   0.045   8.530 -0.1910  0.8311 -1.4891
  183MPD1    H7 2850   2.543   0.208   8.486 -1.8112 -2.0849 -1.6985
  184MPD1     C 2851   2.018   1.345  10.528  0.1665  0.1476 -0.2570
  184MPD1    C1 2852   2.152   1.395  10.530  0.1801  0.8100  0.3007
  184MPD1    C2 2853   2.180   1.507  10.453  0.5882  0.0098  0.5270
  184MPD1    C3 2854   2.083   1.573  10.378  0.1099 -0.1231 -0.2382
  184MPD1    C4 2855   1.954   1.518  10.382 -0.8571  0.7477 -0.1270
  184MPD1    C5 2856   1.921   1.412  10.455  0.3316  1.2839 -0.1821
  184MPD1     H 2857   2.286   1.529  10.449  1.1534 -2.6239  1.4030
  184MPD1    H1 2858   1.885   1.533  10.300  0.1407  1.2406 -0.8703
  184MPD1    H2 2859   1.988   1.257  10.583 -0.0147  1.1081  1.1777
  184MPD1    H3 2860   1.819   1.379  10.444  0.8624  0.1000 -1.5997
  184MPD1     N 2861   2.117   1.677  10.286 -0.7061  0.2310 -0.3390
  184MPD1    H5 2862   2.037   1.724  10.246 -0.2673  0.6758 -0.6917
  184MPD1    N1 2863   2.250   1.314  10.593  0.2763  0.1565  0.3917
  184MPD1    H6 2864   2.224   1.261  10.676  1.4681 -0.2023  0.5292
  184MPD1    H7 2865   2.338   1.361  10.612  1.4084 -2.2918  1.1034
  185MPD1     C 2866   1.784   2.569  10.145  0.0881 -0.3050  0.8158
  185MPD1    C1 2867   1.730   2.439  10.133  0.2905 -0.0701 -0.2901
  185MPD1    C2 2868   1.813   2.332  10.102 -0.0874 -0.0934  0.2909
  185MPD1    C3 2869   1.950   2.351  10.094  0.7232 -0.3039  0.4752
  185MPD1    C4 2870   2.004   2.480  10.107 -0.1508  0.1441  0.0887
  185MPD1    C5 2871   1.917   2.593  10.122  0.1280 -1.1510 -0.4198
  185MPD1     H 2872   1.772   2.234  10.084 -0.2204  0.3701 -1.9598
  185MPD1    H1 2873   2.107   2.504  10.083 -0.2515  1.1155  0.6165
  185MPD1    H2 2874   1.721   2.656  10.159 -0.5031 -0.6907  0.6069
  185MPD1    H3 2875   1.949   2.694  10.101  1.1227 -1.0471  1.4989
  185MPD1     N 2876   2.040   2.247  10.064 -0.5755  0.1400 -0.3952
  185MPD1    H5 2877   2.136   2.276  10.053 -0.6032  0.1529 -0.5957
  185MPD1    N1 2878   1.599   2.418  10.121 -0.4243 -0.4910  0.4195
  185MPD1    H6 2879   1.567   2.324  10.144  0.8544 -1.0622 -0.1512
  185MPD1    H7 2880   1.542   2.495  10.155  1.4096  0.1936  1.9158
  186MPD1     C 2881   1.232   1.305  15.332 -0.2622 -0.3948  0.1952
  186MPD1    C1 2882   1.255   1.212  15.427 -0.3502 -0.4035  0.6489
  186MPD1    C2 2883   1.275   1.254  15.554 -0.0261  0.3232  0.6097
  186MPD1    C3 2884   1.311   1.389  15.581  0.5035 -0.4385 -0.3398
  186MPD1    C4 2885   1.308   1.477  15.479 -0.5486 -0.6652  0.0135
  186MPD1    C5 2886   1.266   1.433  15.357 -0.2932 -0.5050  0.1331
  186MPD1     H 2887   1.270   1.192  15.643 -1.8647 -3.2002 -1.9457
  186MPD1    H1 2888   1.340   1.581  15.479 -0.3482 -0.7077 -3.0239
  186MPD1    H2 2889   1.209   1.278  15.230  1.7161 -0.4504 -0.2236
  186MPD1    H3 2890   1.269   1.502  15.274 -0.4220  0.4472  0.9208
  186MPD1     N 2891   1.345   1.447  15.709  0.6139  0.1843  0.1026
  186MPD1    H5 2892   1.361   1.547  15.721  1.3279  0.0854 -0.0769
  186MPD1    N1 2893   1.230   1.076  15.406  0.3102  0.0441 -0.6129
  186MPD1    H6 2894   1.244   1.068  15.306  1.8150  0.3662 -0.4238
  186MPD1    H7 2895   1.299   1.015  15.449  0.6010 -0.1242 -1.3255
  187MPD1     C 2896   0.571   2.923   0.294 -0.4751  0.1582  0.6707
  187MPD1    C1 2897   0.468   2.879   0.224 -0.1410 -0.2607  0.3391
  187MPD1    C2 2898   0.441   2.938   0.103  0.2390  0.0825 -0.0840
  187MPD1    C3 2899   0.511   3.039   0.049 -0.3452  0.0543 -0.7445
  187MPD1    C4 2900   0.618   3.077   0.121  0.1931 -0.7662  0.1837
  187MPD1    C5 2901   0.643   3.025   0.245  0.0388  0.1847 -0.0347
  187MPD1     H 2902   0.366   2.895   0.038  0.4443  1.3171 -1.1281
  187MPD1    H1 2903   0.692   3.148   0.087 -0.5034  0.0654  0.3803
  187MPD1    H2 2904   0.592   2.874   0.389 -0.3135 -0.8057  0.1368
  187MPD1    H3 2905   0.720   3.079   0.299  0.1141  1.2057 -1.1519
  187MPD1     N 2906   0.500   3.093  17.661  0.0216  0.3360 -0.2323
  187MPD1    H5 2907   0.565   3.166  17.636 -1.3410  1.9652  0.9681
  187MPD1    N1 2908   0.366   2.800   0.287 -0.0709 -0.0601  0.0869
  187MPD1    H6 2909   0.322   2.748   0.211 -0.9376  1.1490 -0.2408
  187MPD1    H7 2910   0.394   2.734   0.359  2.3539  1.2992  0.4043
  188MPD1     C 2911   0.001   3.591  10.097  0.6207 -0.2433 -0.3064
  188MPD1    C1 2912   0.082   3.551   9.992 -0.2710  0.1028 -0.5620
  188MPD1    C2 2913   0.055   3.430   9.932  0.1992 -1.1172  0.4619
  188MPD1    C3 2914   4.674   3.358   9.960 -0.0765 -1.0265 -0.3643
  188MPD1    C4 2915   4.572   3.422  10.027  0.7425 -0.2489  0.0399
  188MPD1    C5 2916   4.610   3.531  10.098 -0.0731  0.6217 -0.2355
  188MPD1     H 2917   0.134   3.383   9.875 -0.1913 -0.0396 -0.9729
  188MPD1    H1 2918   4.477   3.380  10.058 -0.0244 -0.7975 -3.0852
  188MPD1    H2 2919   0.018   3.676  10.161  1.5099  0.7407 -1.8572
  188MPD1    H3 2920   4.540   3.568  10.173 -1.1274 -2.0705  0.0996
  188MPD1     N 2921   4.658   3.223   9.921  0.2045 -0.2426 -0.4019
  188MPD1    H5 2922   4.567   3.179   9.927 -0.6039  1.5372  0.3027
  188MPD1    N1 2923   0.207   3.607   9.985  0.1477 -0.3680  0.5995
  188MPD1    H6 2924   0.253   3.587   9.896  0.2616  1.6164  0.2258
  188MPD1    H7 2925   0.195   3.708   9.986  0.6317 -0.3145  0.9050
  189MPD1     C 2926   2.181   3.907   0.301  0.1526  0.4120 -0.8807
  189MPD1    C1 2927   2.058   3.866   0.252 -0.2224 -0.1736 -0.2522
  189MPD1    C2 2928   1.980   3.959   0.180  0.0332 -0.1575 -0.3456
  189MPD1    C3 2929   2.013   4.087   0.174 -0.3666  0.3358 -0.5987
  189MPD1    C4 2930   2.135   4.130   0.227 -0.3255 -0.5081  0.3098
  189MPD1    C5 2931   2.215   4.036   0.293 -0.2889 -0.6410 -0.1259
  189MPD1     H 2932   1.892   3.936   0.121 -0.5894  1.3671  0.0176
  189MPD1    H1 2933   2.170   4.232   0.218 -1.2417 -0.3321 -1.2929
  189MPD1    H2 2934   2.250   3.838   0.347  0.9416  1.7982  0.0034
  189MPD1    H3 2935   2.309   4.060   0.341 -0.2028  1.3003 -1.2416
  189MPD1     N 2936   1.929   4.173   0.098 -0.2029 -0.1944 -0.3127
  189MPD1    H5 2937   1.843   4.129   0.068 -0.0090  0.4387 -1.8168
  189MPD1    N1 2938   2.042   3.724   0.231  0.1497  0.3197 -0.6619
  189MPD1    H6 2939   1.947   3.691   0.245  0.1586  0.0177 -1.3136
  189MPD1    H7 2940   2.098   3.671   0.299 -0.4125  0.7609  0.1445
  190MPD1     C 2941   0.485   2.481  15.624 -0.8020 -0.1497 -0.1286
  190MPD1    C1 2942   0.557   2.488  15.739  0.0521 -0.3872 -0.2577
  190MPD1    C2 2943   0.693   2.509  15.723 -0.3238 -0.2669 -0.0734
  190MPD1    C3 2944   0.747   2.556  15.604 -0.1231  0.1397  0.5715
  190MPD1    C4 2945   0.670   2.550  15.490 -0.8794 -0.4949 -0.1819
  190MPD1    C5 2946   0.545   2.504  15.503  0.1590  0.3017  0.6430
  190MPD1     H 2947   0.762   2.515  15.807 -0.4204  0.4196 -0.0371
  190MPD1    H1 2948   0.714   2.572  15.393  1.0808  0.8933  1.0306
  190MPD1    H2 2949   0.381   2.450  15.619 -0.9763  0.4227 -0.0761
  190MPD1    H3 2950   0.478   2.503  15.417  3.0854 -0.7337 -1.6258
  190MPD1     N 2951   0.886   2.596  15.602  0.3461 -0.3473 -0.5171
  190MPD1    H5 2952   0.930   2.586  15.692  0.0322  2.7423 -0.0234
  190MPD1    N1 2953   0.509   2.436  15.858 -0.1994 -0.2834 -0.2295
  190MPD1    H6 2954   0.408   2.447  15.869 -0.4126 -1.5036 -0.9800
  190MPD1    H7 2955   0.557   2.477  15.938 -0.3576 -0.1828 -0.1861
  191MPD1     C 2956   0.637   4.733  12.773 -0.3108  0.3861 -0.0812
  191MPD1    C1 2957   0.715   0.074  12.692 -0.6467 -0.7605 -0.0989
  191MPD1    C2 2958   0.675   0.093  12.561 -0.1093 -0.3594  0.2072
  191MPD1    C3 2959   0.569   0.031  12.502  0.4836  0.0407  0.5833
  191MPD1    C4 2960   0.498   4.682  12.579  0.0903 -0.6310 -0.5143
  191MPD1    C5 2961   0.526   4.667  12.712 -0.5081  0.0021  0.6962
  191MPD1     H 2962   0.723   0.169  12.500 -0.2365  0.5146  1.1898
  191MPD1    H1 2963   0.401   4.647  12.544 -0.9815  0.7923  0.9968
  191MPD1    H2 2964   0.666   4.720  12.877 -0.2086 -0.0518 -0.1666
  191MPD1    H3 2965   0.463   4.610  12.778 -0.7730 -0.6901 -0.1554
  191MPD1     N 2966   0.539   0.063  12.371 -0.4324  0.5844 -0.7888
  191MPD1    H5 2967   0.580   0.147  12.332 -0.2818  0.8220 -0.1189
  191MPD1    N1 2968   0.840   0.128  12.740 -0.1940 -0.7378 -0.1448
  191MPD1    H6 2969   0.867   0.121  12.838 -1.3907  2.7509  0.4330
  191MPD1    H7 2970   0.849   0.222  12.703  1.7001 -1.1582 -0.7536
  192MPD1     C 2971   0.714   0.827  11.843 -1.2587  0.0741 -0.1764
  192MPD1    C1 2972   0.598   0.806  11.916  0.1010 -0.4229 -0.4635
  192MPD1    C2 2973   0.559   0.673  11.941 -0.3052  0.0649 -0.1193
  192MPD1    C3 2974   0.630   0.564  11.912  0.8152  0.5546  0.6122
  192MPD1    C4 2975   0.731   0.583  11.822  0.3771  0.0847  0.4216
  192MPD1    C5 2976   0.763   0.713  11.788 -0.6842 -0.0952  0.5372
  192MPD1     H 2977   0.467   0.661  11.997  0.4631  2.2179  1.6149
  192MPD1    H1 2978   0.787   0.506  11.770 -2.7096 -0.9309 -1.3797
  192MPD1    H2 2979   0.749   0.924  11.813  1.6824 -1.0593 -0.3992
  192MPD1    H3 2980   0.849   0.728  11.724 -0.2520  0.5294  1.2763
  192MPD1     N 2981   0.599   0.430  11.947 -0.3752  0.9641  0.0853
  192MPD1    H5 2982   0.658   0.354  11.914 -0.8179 -0.5056  2.6630
  192MPD1    N1 2983   0.544   0.916  11.987 -0.1686 -0.4066  1.2213
  192MPD1    H6 2984   0.448   0.897  12.013 -0.1418 -1.9666  0.2365
  192MPD1    H7 2985   0.544   0.989  11.917 -0.5930 -2.1493 -0.5862
  193MPD1     C 2986   0.021   4.255  16.283 -0.8007  0.2196  0.4637
  193MPD1    C1 2987   4.712   4.344  16.372  0.8105  0.1527 -0.5018
  193MPD1    C2 2988   0.032   4.471  16.368  0.2842 -0.8174  0.1166
  193MPD1    C3 2989   0.139   4.496  16.291  0.1027 -0.2870  0.2784
  193MPD1    C4 2990   0.195   4.399  16.211 -0.2819 -0.4044  0.0560
  193MPD1    C5 2991   0.128   4.277  16.209 -0.8741 -0.5636 -0.1485
  193MPD1     H 2992   4.729   4.544  16.438 -0.2134  1.1686 -2.2027
  193MPD1    H1 2993   0.275   4.429  16.144 -0.1695  2.1640  1.3317
  193MPD1    H2 2994   4.709   4.158  16.278  2.2591 -1.4022  2.0432
  193MPD1    H3 2995   0.150   4.202  16.134  2.2084  1.1189 -0.9245
  193MPD1     N 2996   0.212   4.619  16.298  0.0265  0.3038 -0.2438
  193MPD1    H5 2997   0.302   4.614  16.252 -1.6557 -1.3264 -3.3492
  193MPD1    N1 2998   4.598   4.317  16.440  0.0760 -0.4181  0.4246
  193MPD1    H6 2999   4.581   4.219  16.463 -1.8794  0.2535  1.9080
  193MPD1    H7 3000   4.581   4.373  16.524 -1.6321 -1.3767  0.7132
  194MPD1     C 3001   3.280   2.628  17.108  0.0717 -0.8864 -0.1858
  194MPD1    C1 3002   3.192   2.545  17.039 -0.2450 -0.6934 -0.1808
  194MPD1    C2 3003   3.242   2.421  16.991  0.2039 -0.3043 -0.0396
  194MPD1    C3 3004   3.372   2.388  17.010 -1.1326  0.1787 -0.5415
  194MPD1    C4 3005   3.456   2.465  17.079  0.1512 -0.6209  0.2081
  194MPD1    C5 3006   3.410   2.581  17.135 -0.1009 -0.3088  0.0492
  194MPD1     H 3007   3.178   2.351  16.938 -0.4144 -0.1489  0.5061
  194MPD1    H1 3008   3.562   2.441  17.088  0.2049 -0.6871 -0.6049
  194MPD1    H2 3009   3.260   2.729  17.141  1.4160 -1.3101  1.9310
  194MPD1    H3 3010   3.481   2.650  17.178  1.4635 -1.9862  0.1953
  194MPD1     N 3011   3.421   2.261  16.968  0.1893 -0.4247  0.6517
  194MPD1    H5 3012   3.518   2.243  16.993  0.9426  1.0797 -1.0759
  194MPD1    N1 3013   3.056   2.574  17.040  0.4554  0.3146  0.1090
  194MPD1    H6 3014   2.988   2.536  16.974  1.1123 -0.3545 -0.1776
  194MPD1    H7 3015   3.033   2.671  17.060  0.5977  1.1979 -3.9144
  195MPD1     C 3016   4.570   3.989  17.483 -0.3708 -0.3685 -0.1641
  195MPD1    C1 3017   4.686   3.934  17.447  0.0572 -0.2870 -0.0690
  195MPD1    C2 3018   4.708   3.805  17.486 -0.5048 -0.2784  0.1606
  195MPD1    C3 3019   4.622   3.725  17.557 -0.7705 -0.5593  0.0646
  195MPD1    C4 3020   4.504   3.786  17.593 -0.5706 -0.4685  0.1839
  195MPD1    C5 3021   4.485   3.914  17.560  0.4469 -0.3797  0.6738
  195MPD1     H 3022   0.070   3.762  17.469  0.4283  0.8817  2.6310
  195MPD1    H1 3023   4.436   3.724  17.650 -2.0844  0.8418 -0.1961
  195MPD1    H2 3024   4.556   4.095  17.466 -0.5911 -0.0674  2.0153
  195MPD1    H3 3025   4.391   3.951  17.598 -1.1949 -2.0621 -1.7750
  195MPD1     N 3026   4.632   3.583  17.583 -0.2241  0.2947  0.0203
  195MPD1    H5 3027   4.564   3.545  17.648  0.6667  0.1442  0.8692
  195MPD1    N1 3028   0.029   3.993  17.350  0.0200 -0.3691 -0.9001
  195MPD1    H6 3029   0.129   3.975  17.350  0.1967  0.6455  1.1575
  195MPD1    H7 3030   0.012   4.093  17.336  2.0183 -0.0385 -0.8883
  196MPD1     C 3031   3.447   2.600   0.814  0.3256 -0.2891  0.1702
  196MPD1    C1 3032   3.422   2.632   0.683 -0.1257  0.4887 -0.0816
  196MPD1    C2 3033   3.514   2.691   0.602  0.7030 -0.5673 -0.0968
  196MPD1    C3 3034   3.643   2.692   0.653 -0.1389 -1.1052 -0.3424
  196MPD1    C4 3035   3.674   2.647   0.780 -0.1196  0.3110 -0.3487
  196MPD1    C5 3036   3.573   2.609   0.861 -0.6543  0.4647 -0.7256
  196MPD1     H 3037   3.493   2.722   0.501  0.1049  1.2795  0.5941
  196MPD1    H1 3038   3.776   2.642   0.816  0.9145 -1.1996 -3.5448
  196MPD1    H2 3039   3.360   2.577   0.875 -0.1574  1.3776  0.1269
  196MPD1    H3 3040   3.595   2.584   0.964 -0.4318 -0.0648 -0.8975
  196MPD1     N 3041   3.752   2.735   0.572  0.0831 -0.0659 -0.2070
  196MPD1    H5 3042   3.840   2.748   0.622  0.1490 -1.2343 -0.0404
  196MPD1    N1 3043   3.287   2.627   0.643 -0.5482  0.1531 -0.1247
  196MPD1    H6 3044   3.282   2.624   0.541  0.1807 -0.1456 -0.1508
  196MPD1    H7 3045   3.234   2.547   0.675  1.2233 -0.0726  2.2243
  197MPD1     C 3046   3.356   0.524  17.162  0.2893  0.1154 -0.2570
  197MPD1    C1 3047   3.315   0.658  17.177 -0.2947  0.0208  0.6033
  197MPD1    C2 3048   3.304   0.741  17.063  1.1898  0.0242 -0.1859
  197MPD1    C3 3049   3.364   0.698  16.942  0.7373 -0.1503  0.4584
  197MPD1    C4 3050   3.414   0.567  16.928 -0.3720 -0.5568 -0.3094
  197MPD1    C5 3051   3.405   0.481  17.039  0.1189  0.2356  0.1159
  197MPD1     H 3052   3.265   0.841  17.077 -0.7740 -0.6086 -1.1235
  197MPD1    H1 3053   3.457   0.526  16.838 -0.3388  0.5854 -0.8148
  197MPD1    H2 3054   3.373   0.463  17.250 -0.4118 -1.1375 -0.9857
  197MPD1    H3 3055   3.458   0.387  17.036 -1.7136 -0.8701  2.1536
  197MPD1     N 3056   3.391   0.783  16.832 -0.6766 -0.1447 -0.2935
  197MPD1    H5 3057   3.438   0.736  16.756  0.2907 -0.0005  0.2120
  197MPD1    N1 3058   3.307   0.720  17.300  0.7036 -0.4559  0.2670
  197MPD1    H6 3059   3.250   0.804  17.294  1.1877 -0.3348 -2.6557
  197MPD1    H7 3060   3.267   0.657  17.369 -1.6341 -0.8741 -1.4532
  198MPD1     C 3061   0.241   3.212  15.298  0.6070 -0.3724 -0.0001
  198MPD1    C1 3062   0.223   3.340  15.339 -0.6139 -0.2309  0.1118
  198MPD1    C2 3063   0.314   3.392  15.428  0.3842 -0.2484 -0.7515
  198MPD1    C3 3064   0.426   3.330  15.472 -0.4502 -0.3593  0.7221
  198MPD1    C4 3065   0.442   3.203  15.420 -0.1205  0.0631  0.1950
  198MPD1    C5 3066   0.350   3.145  15.340  0.3476  0.8392 -0.3139
  198MPD1     H 3067   0.303   3.497  15.454 -1.4230 -0.8140  0.7311
  198MPD1    H1 3068   0.528   3.141  15.443  0.3127  0.2256 -0.9686
  198MPD1    H2 3069   0.174   3.164  15.227 -0.5169  1.4290 -0.1879
  198MPD1    H3 3070   0.372   3.046  15.300 -2.3869  0.7573 -1.5809
  198MPD1     N 3071   0.516   3.393  15.553  0.1085  0.2474 -0.3227
  198MPD1    H5 3072   0.500   3.491  15.574  0.4332 -0.0048  1.0980
  198MPD1    N1 3073   0.120   3.418  15.275  0.2973  0.1449 -0.3128
  198MPD1    H6 3074   0.085   3.481  15.347  1.5615 -0.0527  0.4791
  198MPD1    H7 3075   0.044   3.358  15.242  0.4227  0.8608 -1.8986
  199MPD1     C 3076   3.134   1.173  10.500  0.2199  0.4768 -0.1360
  199MPD1    C1 3077   3.039   1.119  10.585  0.3427 -0.8823 -0.4274
  199MPD1    C2 3078   2.926   1.050  10.540  0.4638 -0.1754 -0.2195
  199MPD1    C3 3079   2.917   1.035  10.404 -0.1283  0.3382  0.2244
  199MPD1    C4 3080   3.008   1.096  10.318  0.3081 -0.5448 -1.0256
  199MPD1    C5 3081   3.116   1.161  10.365 -0.1027 -0.0645  0.1273
  199MPD1     H 3082   2.850   1.011  10.607 -0.4652  0.6503 -0.7977
  199MPD1    H1 3083   3.003   1.076  10.212 -0.4203  0.2252 -1.1398
  199MPD1    H2 3084   3.224   1.225  10.530  0.1097 -0.4041  1.7398
  199MPD1    H3 3085   3.194   1.203  10.302  0.1668 -1.1350 -0.2590
  199MPD1     N 3086   2.819   0.944  10.351  0.6381  0.6627 -0.1857
  199MPD1    H5 3087   2.782   0.965  10.259 -1.2647  1.5300  0.7782
  199MPD1    N1 3088   3.050   1.161  10.720 -0.0889  0.2403 -0.6059
  199MPD1    H6 3089   3.142   1.139  10.758 -0.1879  0.3190 -0.3223
  199MPD1    H7 3090   2.987   1.104  10.776 -0.7930 -0.7943 -2.4582
  200MPD1     C 3091   2.335   0.158  15.241 -0.8197  0.2466 -0.0003
  200MPD1    C1 3092   2.223   0.112  15.174 -0.4110 -0.1042  0.2904
  200MPD1    C2 3093   2.171   0.183  15.067  0.6141  0.0013 -0.0201
  200MPD1    C3 3094   2.230   0.306  15.028  0.1026 -0.1126 -0.0509
  200MPD1    C4 3095   2.329   0.361  15.106  0.0722 -0.3131 -0.3290
  200MPD1    C5 3096   2.384   0.287  15.209  0.1460 -0.0446 -0.1204
  200MPD1     H 3097   2.092   0.140  15.006 -0.3138  1.7788 -0.0786
  200MPD1    H1 3098   2.369   0.457  15.078  0.6519 -0.1928  0.9011
  200MPD1    H2 3099   2.387   0.098  15.315  0.1216  1.1898  0.1070
  200MPD1    H3 3100   2.463   0.328  15.272 -1.7619  1.2874  1.3917
  200MPD1     N 3101   2.178   0.365  14.910  0.6016  0.4739 -0.1331
  200MPD1    H5 3102   2.108   0.312  14.860 -0.5869  0.3404  1.6743
  200MPD1    N1 3103   2.172   4.721  15.197  0.3254  1.1242 -0.2265
  200MPD1    H6 3104   2.182   4.697  15.296 -2.8035  0.2512 -0.1318
  200MPD1    H7 3105   2.074   4.719  15.173  0.7538 -1.4170 -1.7351
  201MPD1     C 3106   0.005   4.106  12.770 -0.6671  0.0293  0.3306
  201MPD1    C1 3107   4.606   4.094  12.787  0.7872  0.0403 -0.2988
  201MPD1    C2 3108   4.569   3.977  12.856  0.1334 -0.0873 -0.2574
  201MPD1    C3 3109   4.654   3.871  12.885 -0.1874 -0.0283 -0.7409
  201MPD1    C4 3110   0.046   3.880  12.848 -0.5849 -0.1667  0.3833
  201MPD1    C5 3111   0.093   3.998  12.793  0.2344  0.2733 -0.1823
  201MPD1     H 3112   4.466   3.965  12.886 -0.2606  2.5376 -0.5264
  201MPD1    H1 3113   0.111   3.794  12.859  0.5527  0.8001  1.3091
  201MPD1    H2 3114   0.046   4.202  12.739  0.8386 -0.3563  1.1111
  201MPD1    H3 3115   0.198   4.009  12.768  0.8221 -1.0968  1.7270
  201MPD1     N 3116   4.600   3.755  12.947 -0.3399  0.1835 -0.1656
  201MPD1    H5 3117   4.502   3.757  12.970 -0.4805 -1.3442 -0.6300
  201MPD1    N1 3118   4.513   4.202  12.778  0.1756 -0.3686  0.2184
  201MPD1    H6 3119   4.423   4.167  12.746  0.2845  0.4293 -0.9608
  201MPD1    H7 3120   4.546   4.261  12.702 -0.6502  1.1101  1.0170
  202MPD1     C 3121   3.237   3.006   9.018 -0.5022 -0.1146 -0.1936
  202MPD1    C1 3122   3.185   3.125   9.062  0.0095 -0.4005  0.0825
  202MPD1    C2 3123   3.278   3.226   9.092  0.1361 -0.4402  0.2320
  202MPD1    C3 3124   3.407   3.194   9.128 -0.3173  0.0313  0.0968
  202MPD1    C4 3125   3.454   3.067   9.102 -0.2261  0.3308 -0.4656
  202MPD1    C5 3126   3.368   2.982   9.041  0.6141 -0.6994 -0.3640
  202MPD1     H 3127   3.238   3.326   9.108  1.6248  0.4102 -1.3931
  202MPD1    H1 3128   3.556   3.029   9.106 -0.2093  0.2589 -1.7105
  202MPD1    H2 3129   3.183   2.931   8.962 -0.8853 -1.0700  1.4673
  202MPD1    H3 3130   3.405   2.887   9.004 -0.4688 -1.3622  0.2472
  202MPD1     N 3131   3.496   3.281   9.198 -0.3069 -0.6825 -0.0466
  202MPD1    H5 3132   3.579   3.242   9.242 -0.4154 -1.0362 -0.1540
  202MPD1    N1 3133   3.061   3.168   8.999 -0.8354 -0.3170 -0.1258
  202MPD1    H6 3134   2.989   3.096   8.995 -0.8038 -0.3612  0.0906
  202MPD1    H7 3135   3.021   3.243   9.055 -0.0939 -0.4950  0.6512
  203MPD1     C 3136   2.609   3.669  12.291  0.0446  0.1158 -0.1074
  203MPD1    C1 3137   2.695   3.566  12.243  0.0284  0.9551  0.1828
  203MPD1    C2 3138   2.825   3.576  12.295  0.0594  0.7842  0.2250
  203MPD1    C3 3139   2.857   3.651  12.405 -0.6607 -0.6320 -0.1410
  203MPD1    C4 3140   2.759   3.733  12.463 -0.2412 -0.2640 -0.2811
  203MPD1    C5 3141   2.640   3.741  12.401  0.2806  0.2258  0.2138
  203MPD1     H 3142   2.891   3.503  12.249  0.1516  0.4431  0.8964
  203MPD1    H1 3143   2.764   3.798  12.550  0.3770 -1.4660  0.5933
  203MPD1    H2 3144   2.512   3.684  12.245  0.1841 -1.1489 -0.8317
  203MPD1    H3 3145   2.565   3.806  12.446 -1.7552 -0.8248 -1.6360
  203MPD1     N 3146   2.982   3.633  12.475  0.3854  0.6737  0.2311
  203MPD1    H5 3147   3.043   3.559  12.441 -2.4493 -0.8319 -1.5101
  203MPD1    N1 3148   2.664   3.485  12.129  0.0726 -0.0471 -0.2024
  203MPD1    H6 3149   2.718   3.399  12.116 -0.6627 -0.7212  1.1903
  203MPD1    H7 3150   2.564   3.478  12.109  0.1426  0.4370 -0.7111
  204MPD1     C 3151   2.569   0.601  17.567 -0.0506  0.5342  0.0401
  204MPD1    C1 3152   2.631   0.591  17.445 -0.2889 -1.1097  0.9330
  204MPD1    C2 3153   2.661   0.463  17.404 -0.3302 -0.0908  0.0329
  204MPD1    C3 3154   2.616   0.347  17.465 -0.4456  0.1943 -0.0073
  204MPD1    C4 3155   2.549   0.363  17.584 -0.3350  0.3942 -0.1729
  204MPD1    C5 3156   2.530   0.488  17.635  0.2740  0.0899 -0.2674
  204MPD1     H 3157   2.710   0.455  17.307  1.0950 -2.8452  0.9829
  204MPD1    H1 3158   2.520   0.277  17.643 -1.6870 -0.9940 -2.8433
  204MPD1    H2 3159   2.553   0.702  17.603 -2.1512 -0.1086  0.9164
  204MPD1    H3 3160   2.471   0.499  17.726 -0.5899  0.5796 -0.8826
  204MPD1     N 3161   2.620   0.223  17.387 -0.6048  0.4675 -0.4204
  204MPD1    H5 3162   2.638   0.233  17.288  2.2856  0.2123  0.0939
  204MPD1    N1 3163   2.681   0.707  17.389 -0.3041 -0.3181 -0.9250
  204MPD1    H6 3164   2.684   0.708  17.287  0.5060 -0.7259 -0.9011
  204MPD1    H7 3165   2.641   0.795  17.421 -1.2433 -1.1177  0.0797
  205MPD1     C 3166   1.975   3.206  16.726 -0.1201 -0.0039 -0.4888
  205MPD1    C1 3167   2.055   3.312  16.699  0.3465  0.0369 -0.2174
  205MPD1    C2 3168   2.107   3.384  16.805  0.1956  1.2062  0.8574
  205MPD1    C3 3169   2.092   3.331  16.936 -0.0172 -0.5764 -0.0047
  205MPD1    C4 3170   2.005   3.223  16.957  0.2392 -0.3825 -0.2292
  205MPD1    C5 3171   1.950   3.161  16.845  0.1893  0.6942 -0.1529
  205MPD1     H 3172   2.187   3.455  16.791 -0.4919  1.7376 -0.3643
  205MPD1    H1 3173   1.979   3.193  17.057 -2.4586  1.7557 -0.2648
  205MPD1    H2 3174   1.929   3.155  16.642  3.9427 -0.1912 -2.5913
  205MPD1    H3 3175   1.880   3.080  16.857  1.3369 -0.2949 -0.0809
  205MPD1     N 3176   2.146   3.388  17.054  0.2842  0.1512 -0.3089
  205MPD1    H5 3177   2.130   3.330  17.136  2.2776 -1.4794 -1.0610
  205MPD1    N1 3178   2.062   3.355  16.566  0.3548 -0.2927 -0.3137
  205MPD1    H6 3179   2.141   3.413  16.537  2.5836 -1.8843  2.5663
  205MPD1    H7 3180   2.071   3.277  16.502  2.3580 -0.6110  0.3758
  206MPD1     C 3181   3.340   1.952  16.350  0.0905 -0.2887 -0.0948
  206MPD1    C1 3182   3.287   2.030  16.454 -0.7028  0.1896  0.7432
  206MPD1    C2 3183   3.156   2.071  16.445 -0.5235  0.2086 -0.2016
  206MPD1    C3 3184   3.072   2.022  16.342  0.3572  0.0551 -0.2809
  206MPD1    C4 3185   3.129   1.940  16.242 -0.0804 -0.3844  0.0825
  206MPD1    C5 3186   3.268   1.911  16.246 -0.6062 -0.1240 -0.2001
  206MPD1     H 3187   3.106   2.137  16.514  1.8506  1.8911 -0.1074
  206MPD1    H1 3188   3.079   1.903  16.153 -1.2784 -0.4502  0.7850
  206MPD1    H2 3189   3.447   1.942  16.344  0.4153  1.5453  2.3908
  206MPD1    H3 3190   3.303   1.854  16.162 -1.4156 -2.4163  1.0239
  206MPD1     N 3191   2.931   2.058  16.333  0.5392 -0.0837  0.7135
  206MPD1    H5 3192   2.888   2.027  16.246 -0.8569  1.2447  0.9238
  206MPD1    N1 3193   3.373   2.097  16.542  0.2315 -0.1074  0.1262
  206MPD1    H6 3194   3.325   2.137  16.623  3.2983  2.0603  0.8728
  206MPD1    H7 3195   3.456   2.044  16.566 -0.5700 -1.4628 -0.0984
  207MPD1     C 3196   0.034   0.765  10.272  0.0076  0.7827 -0.0911
  207MPD1    C1 3197   0.072   0.668  10.181 -0.2007  0.3541 -0.3338
  207MPD1    C2 3198   0.162   0.571  10.229 -0.0656 -0.0335 -0.1710
  207MPD1    C3 3199   0.218   0.560  10.356 -0.5534  0.5147 -0.3929
  207MPD1    C4 3200   0.171   0.654  10.444 -0.1991 -0.5286  0.1038
  207MPD1    C5 3201   0.078   0.752  10.405  0.0245  0.5045 -0.0892
  207MPD1     H 3202   0.194   0.504  10.150 -1.7377  0.4230 -1.2340
  207MPD1    H1 3203   0.200   0.647  10.548 -2.1635  1.9333  0.8297
  207MPD1    H2 3204   4.700   0.846  10.257 -1.7088 -0.3942  1.3952
  207MPD1    H3 3205   0.059   0.830  10.478  3.3159  0.4032  0.9081
  207MPD1     N 3206   0.309   0.468  10.398 -0.3887  0.3776  0.5762
  207MPD1    H5 3207   0.331   0.468  10.497  3.2640 -0.5349 -0.2178
  207MPD1    N1 3208   0.008   0.655  10.059 -0.4070  0.2490 -0.4221
  207MPD1    H6 3209   0.053   0.603   9.985  0.7299 -0.5976  0.8661
  207MPD1    H7 3210   4.705   0.746  10.037  0.0084  0.7549  0.9064
  208MPD1     C 3211   3.242   3.144  16.572 -0.0773  0.3007 -0.3691
  208MPD1    C1 3212   3.118   3.182  16.613  0.0718  0.2312  0.3748
  208MPD1    C2 3213   3.091   3.182  16.746  0.0130  0.4269 -0.6228
  208MPD1    C3 3214   3.182   3.138  16.843  0.1382 -0.2743 -0.2205
  208MPD1    C4 3215   3.307   3.102  16.800 -0.1035 -0.6655 -0.6402
  208MPD1    C5 3216   3.335   3.105  16.667 -0.1967  0.1378  0.2098
  208MPD1     H 3217   2.996   3.216  16.786 -0.7586  0.0487 -2.1359
  208MPD1    H1 3218   3.377   3.053  16.867 -1.0329 -1.4760 -0.2560
  208MPD1    H2 3219   3.277   3.145  16.469 -0.5583  0.8901 -0.5262
  208MPD1    H3 3220   3.436   3.080  16.635 -0.0376 -0.3084  1.0550
  208MPD1     N 3221   3.140   3.127  16.974  0.3581  0.0754  0.1944
  208MPD1    H5 3222   3.045   3.157  16.992 -0.5993 -1.5098 -2.1382
  208MPD1    N1 3223   3.031   3.236  16.516 -0.0143 -0.1957 -0.5455
  208MPD1    H6 3224   2.936   3.235  16.554  0.0236 -1.0360 -0.4626
  208MPD1    H7 3225   3.040   3.196  16.423  0.8016 -1.5128  0.1037
  209MPD1     C 3226   0.438   3.538  10.530 -0.5844 -0.5565  0.3466
  209MPD1    C1 3227   0.498   3.633  10.454  0.5367 -1.0742 -0.2833
  209MPD1    C2 3228   0.562   3.733  10.519 -0.1324  0.1938  0.5556
  209MPD1    C3 3229   0.574   3.730  10.655 -0.6231 -0.3305 -0.3758
  209MPD1    C4 3230   0.540   3.615  10.725  0.4452  0.3037  0.0034
  209MPD1    C5 3231   0.462   3.524  10.660  0.2033  0.3903  0.7396
  209MPD1     H 3232   0.608   3.814  10.463  1.3136 -0.1566  1.2504
  209MPD1    H1 3233   0.560   3.599  10.830  1.9385 -0.3522 -0.3777
  209MPD1    H2 3234   0.377   3.462  10.484 -0.0281 -0.7448 -0.0717
  209MPD1    H3 3235   0.426   3.437  10.712 -0.6743 -0.1567 -0.7693
  209MPD1     N 3236   0.648   3.839  10.709 -0.4126  0.5954 -0.5111
  209MPD1    H5 3237   0.680   3.912  10.646 -3.0992 -0.3950 -3.0275
  209MPD1    N1 3238   0.476   3.643  10.319 -0.1937 -0.2645 -0.7575
  209MPD1    H6 3239   0.540   3.705  10.270  1.5865 -2.5970 -1.4295
  209MPD1    H7 3240   0.462   3.552  10.275  0.8791 -0.8111  0.0416
  210MPD1     C 3241   1.004   3.891  11.624 -0.2817 -0.2020 -0.2338
  210MPD1    C1 3242   0.983   4.023  11.596  0.2100  0.9851  0.0555
  210MPD1    C2 3243   0.964   4.052  11.462  0.1242 -0.8021 -0.0283
  210MPD1    C3 3244   0.956   3.954  11.365 -0.6666 -0.6745 -0.6051
  210MPD1    C4 3245   0.961   3.822  11.404 -0.2904  0.5665  0.1725
  210MPD1    C5 3246   0.982   3.790  11.532  0.9581  0.4821  0.5997
  210MPD1     H 3247   0.964   4.157  11.434  2.9729 -0.6710  0.5127
  210MPD1    H1 3248   0.952   3.744  11.328 -0.1527 -0.9660  1.7373
  210MPD1    H2 3249   1.040   3.866  11.723 -0.9541 -0.5633 -0.0798
  210MPD1    H3 3250   0.991   3.689  11.570 -0.6070  0.8044  1.8622
  210MPD1     N 3251   0.931   3.984  11.230  0.2594 -0.6385  0.0957
  210MPD1    H5 3252   0.894   3.909  11.172  1.8653 -1.9854  0.8226
  210MPD1    N1 3253   1.006   4.121  11.701 -0.2353  0.6417  0.4365
  210MPD1    H6 3254   0.958   4.088  11.784 -1.2953 -2.1148 -1.2639
  210MPD1    H7 3255   0.961   4.210  11.680  0.7463  0.7841 -1.0670
  211MPD1     C 3256   3.136   3.210  15.818 -0.2169  0.5091  0.3226
  211MPD1    C1 3257   3.002   3.201  15.826 -0.6349  0.1626  0.9281
  211MPD1    C2 3258   2.929   3.313  15.848  0.5068 -0.4807 -0.5112
  211MPD1    C3 3259   2.984   3.431  15.892  0.4511  0.3789 -0.3285
  211MPD1    C4 3260   3.118   3.430  15.909  0.2437 -0.8692 -0.2799
  211MPD1    C5 3261   3.196   3.323  15.866  0.0219 -0.0650 -0.8451
  211MPD1     H 3262   2.821   3.302  15.843  0.4119  0.2746 -0.0583
  211MPD1    H1 3263   3.175   3.519  15.935 -0.4801 -0.8275  1.2120
  211MPD1    H2 3264   3.197   3.126  15.787 -0.7298  0.4058 -0.4031
  211MPD1    H3 3265   3.303   3.322  15.881  0.1128  1.1178 -1.3601
  211MPD1     N 3266   2.898   3.542  15.918  0.5384  0.0821  0.0879
  211MPD1    H5 3267   2.799   3.519  15.921  0.5929 -0.1463  0.1076
  211MPD1    N1 3268   2.945   3.074  15.795 -0.3221 -0.1718 -0.1326
  211MPD1    H6 3269   2.853   3.056  15.835 -0.2359 -0.1543  0.0763
  211MPD1    H7 3270   3.007   2.993  15.798  0.7654  0.5911 -2.2668
  212MPD1     C 3271   2.225   2.334  16.420 -0.1121  0.2703  0.3411
  212MPD1    C1 3272   2.247   2.342  16.551  0.3409 -0.2470 -0.7599
  212MPD1    C2 3273   2.193   2.240  16.622  0.3381 -0.4290  0.0782
  212MPD1    C3 3274   2.136   2.131  16.562  0.7624  0.9764 -0.3159
  212MPD1    C4 3275   2.121   2.127  16.428  0.6874  0.0234  0.1582
  212MPD1    C5 3276   2.158   2.234  16.357  0.1558 -0.0203  0.2632
  212MPD1     H 3277   2.201   2.252  16.730  2.1796  1.6791 -0.2786
  212MPD1    H1 3278   2.075   2.046  16.373 -0.4135  1.0104 -0.3761
  212MPD1    H2 3279   2.238   2.428  16.368 -0.1941 -0.4815 -1.0272
  212MPD1    H3 3280   2.142   2.246  16.251  2.5694 -0.3195 -0.1326
  212MPD1     N 3281   2.093   2.019  16.629 -0.2272 -0.4027 -0.8090
  212MPD1    H5 3282   2.068   1.942  16.568 -1.7061 -0.2621 -0.3910
  212MPD1    N1 3283   2.293   2.461  16.618  0.3488 -0.3018  0.1520
  212MPD1    H6 3284   2.350   2.525  16.563 -0.4832 -0.6725 -1.1537
  212MPD1    H7 3285   2.340   2.437  16.705  2.7806  1.1879 -0.7703
  213MPD1     C 3286   0.151   2.699  15.520 -0.5390 -0.9851  0.4414
  213MPD1    C1 3287   0.049   2.626  15.463  0.0190 -0.4930 -0.6765
  213MPD1    C2 3288   4.718   2.697  15.368  0.6072  0.0134 -0.8433
  213MPD1    C3 3289   4.729   2.830  15.340  0.3857 -1.0082  0.3405
  213MPD1    C4 3290   0.070   2.905  15.427 -0.6111  0.1135  0.4836
  213MPD1    C5 3291   0.151   2.834  15.510  0.0185 -0.0729 -0.1288
  213MPD1     H 3292   4.649   2.636  15.311 -0.3434  0.8873 -0.6149
  213MPD1    H1 3293   0.077   3.012  15.415  1.1655 -0.3812 -2.7723
  213MPD1    H2 3294   0.212   2.659  15.600  0.8469  0.4378  0.0759
  213MPD1    H3 3295   0.222   2.893  15.566  0.9738 -2.3322  1.0256
  213MPD1     N 3296   4.641   2.881  15.245 -0.1811 -0.2426  0.8369
  213MPD1    H5 3297   4.583   2.818  15.191  0.7866  0.2978 -0.8219
  213MPD1    N1 3298   0.074   2.489  15.446 -0.0016  0.6595 -0.0710
  213MPD1    H6 3299   0.092   2.445  15.536 -1.5195  0.3830  0.1086
  213MPD1    H7 3300   0.148   2.470  15.379  0.1102  2.0800 -0.3411
  214MPD1     C 3301   3.723   2.797  14.820 -0.1040  0.2078  0.4980
  214MPD1    C1 3302   3.782   2.767  14.945 -0.3432  0.7098  0.8297
  214MPD1    C2 3303   3.908   2.820  14.974  0.6876 -0.2665 -0.2024
  214MPD1    C3 3304   3.970   2.907  14.888 -0.9290  0.4985 -0.0519
  214MPD1    C4 3305   3.909   2.939  14.771 -0.3011  0.7946  0.1478
  214MPD1    C5 3306   3.795   2.875  14.732 -0.1639 -0.4353  0.6065
  214MPD1     H 3307   3.960   2.788  15.063 -0.2299  0.2578  0.5185
  214MPD1    H1 3308   3.957   3.008  14.703 -0.8187 -0.1217 -1.1484
  214MPD1    H2 3309   3.628   2.755  14.790 -0.1141  0.3876  0.2849
  214MPD1    H3 3310   3.758   2.893  14.632 -0.3721  0.3337  0.8239
  214MPD1     N 3311   4.107   2.946  14.906  0.5161 -0.3703  0.4592
  214MPD1    H5 3312   4.137   3.020  14.843 -0.3971  1.8419  2.6276
  214MPD1    N1 3313   3.739   2.656  15.013 -0.0662  0.2332  0.7514
  214MPD1    H6 3314   3.638   2.649  15.005 -0.1002 -0.2747  1.5374
  214MPD1    H7 3315   3.764   2.661  15.111 -0.2478 -0.6412  0.8427
  215MPD1     C 3316   0.397   3.893  10.043 -0.4950  0.5089 -0.4415
  215MPD1    C1 3317   0.284   3.945  10.096  0.7884 -0.2803  0.7697
  215MPD1    C2 3318   0.289   4.013  10.218 -0.5541 -0.2836  0.4664
  215MPD1    C3 3319   0.405   4.025  10.291  0.6614 -0.5613 -0.1282
  215MPD1    C4 3320   0.516   3.973  10.243 -0.1459 -0.3087 -0.2769
  215MPD1    C5 3321   0.511   3.914  10.118 -0.3257 -0.3591  0.3441
  215MPD1     H 3322   0.192   4.047  10.249 -0.0545  0.1536  1.5457
  215MPD1    H1 3323   0.611   3.967  10.293  0.8378  1.1642 -1.9702
  215MPD1    H2 3324   0.404   3.832   9.954  1.1185  1.3027 -0.8610
  215MPD1    H3 3325   0.602   3.870  10.080  0.0338  0.9059 -0.2635
  215MPD1     N 3326   0.406   4.102  10.407 -0.8866  0.4314 -0.3969
  215MPD1    H5 3327   0.320   4.155  10.418 -0.2326  1.0958  1.4835
  215MPD1    N1 3328   0.166   3.917  10.025  0.1714 -0.0406 -0.3005
  215MPD1    H6 3329   0.181   3.926   9.924 -1.2101  0.7893 -0.4394
  215MPD1    H7 3330   0.096   3.984  10.055 -0.9314 -1.8605  1.1395
  216MPD1     C 3331   1.829   1.973   0.047  0.5230  0.3681 -0.5210
  216MPD1    C1 3332   1.950   2.028   0.006 -0.1628  0.1090 -0.2095
  216MPD1    C2 3333   2.045   1.938  17.697 -0.4859  0.7020 -0.4577
  216MPD1    C3 3334   2.018   1.804  17.685  0.2438  0.1055  0.3574
  216MPD1    C4 3335   1.901   1.751  17.738  0.0442  0.0079 -0.2373
  216MPD1    C5 3336   1.807   1.838   0.044 -0.8371 -0.7395 -0.1091
  216MPD1     H 3337   2.142   1.972  17.662 -0.2720  3.8215  3.1012
  216MPD1    H1 3338   1.881   1.644  17.735  0.7596 -0.0504 -3.2746
  216MPD1    H2 3339   1.750   2.027   0.097  0.6825 -1.1651  1.3888
  216MPD1    H3 3340   1.707   1.809   0.071 -0.4550 -0.2565  1.8178
  216MPD1     N 3341   2.120   1.717  17.631  0.3617  0.2020 -0.1108
  216MPD1    H5 3342   2.212   1.759  17.622 -0.0023  0.6621 -1.7860
  216MPD1    N1 3343   1.972   2.162   0.039  0.2320  0.0355 -0.4665
  216MPD1    H6 3344   1.890   2.222   0.041  0.3543  0.1048  1.8918
  216MPD1    H7 3345   2.041   2.203  17.719  0.2859 -1.0059 -1.0918
  217MPD1     C 3346   3.042   4.074   8.681  0.0010  0.5798 -0.8033
  217MPD1    C1 3347   2.928   4.053   8.606  0.4003  0.0189  0.3985
  217MPD1    C2 3348   2.841   3.946   8.638 -0.2021  0.2069  0.1090
  217MPD1    C3 3349   2.874   3.860   8.739 -0.0969 -0.5306  0.5325
  217MPD1    C4 3350   3.003   3.862   8.782  0.0755  0.0947 -0.0733
  217MPD1    C5 3351   3.078   3.973   8.767  0.5446 -0.1787 -0.1491
  217MPD1     H 3352   2.745   3.952   8.588 -0.5181 -0.7093  0.5931
  217MPD1    H1 3353   3.049   3.776   8.827 -2.9176 -0.3306  2.1126
  217MPD1    H2 3354   3.105   4.162   8.673  0.1752  0.7770  2.6784
  217MPD1    H3 3355   3.171   3.975   8.823  0.2153  0.7964  0.3766
  217MPD1     N 3356   2.797   3.751   8.787  0.2724  0.0268  0.1315
  217MPD1    H5 3357   2.842   3.679   8.843  3.9346  1.4346 -0.9414
  217MPD1    N1 3358   2.893   4.149   8.506 -0.1077  0.0234 -0.2000
  217MPD1    H6 3359   2.978   4.195   8.473  0.7102 -0.2094  1.5880
  217MPD1    H7 3360   2.823   4.119   8.439  0.1788  1.8573 -1.3320
  218MPD1     C 3361   4.293   3.797  12.428 -0.0852 -0.5580  0.1857
  218MPD1    C1 3362   4.406   3.780  12.500  0.0355  0.0426 -0.1356
  218MPD1    C2 3363   4.505   3.871  12.492 -0.0270  0.2779 -0.5264
  218MPD1    C3 3364   4.494   3.980  12.413 -0.5275 -0.1752  0.4394
  218MPD1    C4 3365   4.372   4.006  12.341  0.5575  0.1415 -0.1685
  218MPD1    C5 3366   4.277   3.903  12.344  0.1556 -0.7868  0.0759
  218MPD1     H 3367   4.592   3.853  12.553  1.0809  0.9672 -1.9107
  218MPD1    H1 3368   4.369   4.090  12.273  1.4120  0.9045  0.7438
  218MPD1    H2 3369   4.213   3.724  12.437 -1.3352  1.0004  1.7809
  218MPD1    H3 3370   4.186   3.896  12.286 -0.4400 -0.9237  1.0359
  218MPD1     N 3371   4.612   4.063  12.409  0.7024  0.2424  0.2823
  218MPD1    H5 3372   4.700   4.016  12.428  0.2448 -0.2167  1.2425
  218MPD1    N1 3373   4.404   3.688  12.610 -0.3412  0.0510 -0.3504
  218MPD1    H6 3374   4.495   3.647  12.633 -0.6366 -1.2141 -1.4654
  218MPD1    H7 3375   4.340   3.613  12.583  0.1118 -0.5669  0.2777
  219MPD1     C 3376   0.402   4.573  11.620  0.3600  0.1917 -0.9365
  219MPD1    C1 3377   0.279   4.616  11.681  0.0246 -0.4465  0.3485
  219MPD1    C2 3378   0.246   4.553  11.803 -0.3480  0.6744 -0.4868
  219MPD1    C3 3379   0.322   4.445  11.851 -0.3990 -0.1958 -0.2170
  219MPD1    C4 3380   0.435   4.406  11.783  0.0844  0.1545  0.2158
  219MPD1    C5 3381   0.469   4.470  11.668  0.2294 -0.0703 -0.4966
  219MPD1     H 3382   0.158   4.593  11.852 -0.5953 -0.5650  0.0741
  219MPD1    H1 3383   0.498   4.328  11.824  0.4888  0.8862  0.9963
  219MPD1    H2 3384   0.451   4.622  11.538  2.5201 -1.6568 -0.7475
  219MPD1    H3 3385   0.556   4.444  11.609  0.5820 -0.2093  0.0812
  219MPD1     N 3386   0.288   4.368  11.965 -0.1822 -0.2299 -0.3796
  219MPD1    H5 3387   0.356   4.305  12.007 -0.0846  0.0400 -0.1269
  219MPD1    N1 3388   0.216   4.736  11.640 -0.0205  0.2818  0.4184
  219MPD1    H6 3389   0.119   0.008  11.670 -0.2257 -1.6274  0.2874
  219MPD1    H7 3390   0.218   0.027  11.542  0.6016  0.7993  0.5799
  220MPD1     C 3391   4.170   3.520  10.102  0.6949  0.1969 -0.4753
  220MPD1    C1 3392   4.079   3.544  10.196 -0.1447  0.6883 -0.5217
  220MPD1    C2 3393   4.083   3.657  10.277  0.4560 -0.1502  0.1049
  220MPD1    C3 3394   4.171   3.753  10.242  0.7052 -0.5231  0.1791
  220MPD1    C4 3395   4.255   3.733  10.134 -0.0304 -0.3812  0.7346
  220MPD1    C5 3396   4.259   3.619  10.065  0.1169 -0.2725  0.6375
  220MPD1     H 3397   4.017   3.686  10.357  4.1960  0.0909  3.1415
  220MPD1    H1 3398   4.331   3.804  10.103  0.4426 -1.7111 -1.1394
  220MPD1    H2 3399   4.176   3.421  10.058  2.5318  0.2484 -0.3598
  220MPD1    H3 3400   4.323   3.599   9.980 -0.9552  1.8765 -0.6712
  220MPD1     N 3401   4.172   3.878  10.309  0.7281 -0.2293  0.0232
  220MPD1    H5 3402   4.112   3.878  10.391  0.2164  0.1916 -0.3514
  220MPD1    N1 3403   4.008   3.435  10.237 -0.1052  0.1542 -0.7777
  220MPD1    H6 3404   3.994   3.372  10.158  0.2375  1.9942 -2.3011
  220MPD1    H7 3405   3.923   3.452  10.291  0.2985 -1.4348  0.3554
  221MPD1     C 3406   2.656   3.560  16.285  0.1895 -0.1167  0.5948
  221MPD1    C1 3407   2.560   3.498  16.205  0.5366 -0.1816 -0.3249
  221MPD1    C2 3408   2.600   3.379  16.144 -0.0061 -0.1092 -0.3487
  221MPD1    C3 3409   2.726   3.321  16.151 -0.0893  1.1951  0.2767
  221MPD1    C4 3410   2.819   3.395  16.228  0.6172  1.0135  0.1322
  221MPD1    C5 3411   2.785   3.515  16.292 -0.5149  1.0174  0.0325
  221MPD1     H 3412   2.522   3.332  16.086  0.8444 -0.7918 -0.9455
  221MPD1    H1 3413   2.918   3.351  16.232  0.5228  0.5730 -2.8883
  221MPD1    H2 3414   2.642   3.653  16.338 -0.8377 -0.4940  0.9917
  221MPD1    H3 3415   2.856   3.566  16.357  0.0909  1.6745 -1.1608
  221MPD1     N 3416   2.760   3.191  16.115  0.4028  0.9991  0.1163
  221MPD1    H5 3417   2.855   3.159  16.134 -0.1700 -0.6954  0.1568
  221MPD1    N1 3418   2.431   3.555  16.188  0.2515 -0.4985 -0.1334
  221MPD1    H6 3419   2.428   3.656  16.175 -1.6776 -0.6988 -1.2971
  221MPD1    H7 3420   2.388   3.527  16.100  1.8720  2.1751 -1.7881
  222MPD1     C 3421   2.394   1.686  16.940 -0.3867  0.1079  0.5962
  222MPD1    C1 3422   2.309   1.582  16.967 -0.1248 -0.1134  0.6216
  222MPD1    C2 3423   2.206   1.597  17.055 -0.4996  0.0314  0.2829
  222MPD1    C3 3424   2.183   1.719  17.105  0.5579  0.2267 -0.3001
  222MPD1    C4 3425   2.267   1.825  17.074 -0.6606 -0.4709 -0.3206
  222MPD1    C5 3426   2.377   1.809  16.995  0.1314 -0.1822 -0.1492
  222MPD1     H 3427   2.134   1.520  17.080 -1.3446  0.9923  0.8357
  222MPD1    H1 3428   2.240   1.913  17.132 -0.1964 -1.0009  0.7069
  222MPD1    H2 3429   2.485   1.669  16.885  1.6427  0.4125  3.8355
  222MPD1    H3 3430   2.446   1.892  16.985 -0.0469 -0.1704 -1.2705
  222MPD1     N 3431   2.073   1.746  17.182  0.1842 -0.1512 -0.7916
  222MPD1    H5 3432   2.079   1.832  17.235 -0.9004 -0.5718  0.0342
  222MPD1    N1 3433   2.352   1.457  16.933 -0.5023 -0.0876  0.1075
  222MPD1    H6 3434   2.406   1.460  16.847  0.7203 -0.9804  0.8279
  222MPD1    H7 3435   2.279   1.386  16.937  0.5465 -1.1430  0.7415
  223MPD1     C 3436   1.535   1.231   0.050  0.3530  1.0275  0.4710
  223MPD1    C1 3437   1.671   1.264   0.035 -0.6391 -0.4496 -0.0301
  223MPD1    C2 3438   1.708   1.373  17.716 -0.4222 -0.3577 -0.5190
  223MPD1    C3 3439   1.618   1.451  17.649 -0.5840  0.6098 -0.1777
  223MPD1    C4 3440   1.485   1.430  17.666 -0.2507 -0.2812 -0.1789
  223MPD1    C5 3441   1.444   1.318  17.732 -1.2693 -0.4694  0.1823
  223MPD1     H 3442   1.809   1.412  17.707 -0.4823 -0.0302  0.2346
  223MPD1    H1 3443   1.402   1.482  17.621  1.2850  0.5835 -1.9869
  223MPD1    H2 3444   1.496   1.143   0.100 -1.2266  1.3937 -0.1280
  223MPD1    H3 3445   1.339   1.292  17.731 -1.4704  0.4450 -2.1687
  223MPD1     N 3446   1.661   1.549  17.558  0.1239  0.0424 -0.0103
  223MPD1    H5 3447   1.757   1.559  17.527  1.0125  0.7176  2.8930
  223MPD1    N1 3448   1.772   1.188   0.093 -0.2030  0.0250  0.3286
  223MPD1    H6 3449   1.868   1.217   0.076  0.2077  0.0050  2.5938
  223MPD1    H7 3450   1.760   1.087   0.097  1.4222 -0.2054 -0.7017
  224MPD1     C 3451   2.732   4.636   9.032 -0.6371  0.0815  0.6733
  224MPD1    C1 3452   2.702   4.504   9.057  0.5280 -0.0636  0.3813
  224MPD1    C2 3453   2.775   4.433   9.145 -0.2280 -0.1657 -1.1931
  224MPD1    C3 3454   2.889   4.490   9.208  0.2564  0.5581 -0.0712
  224MPD1    C4 3455   2.922   4.620   9.178 -0.2534 -0.1313 -0.5992
  224MPD1    C5 3456   2.831   4.698   9.102  0.1520 -0.3238 -0.7769
  224MPD1     H 3457   2.762   4.330   9.176  1.1902  0.1834  0.5714
  224MPD1    H1 3458   3.008   4.675   9.214 -0.2881 -0.9938  0.8472
  224MPD1    H2 3459   2.667   4.698   8.972 -1.2742 -0.8563  0.3942
  224MPD1    H3 3460   2.856   0.066   9.087  1.1462 -0.4369  0.1206
  224MPD1     N 3461   2.957   4.433   9.319  0.3650  0.4721 -0.1571
  224MPD1    H5 3462   3.014   4.500   9.371 -0.6825  1.5071 -0.3441
  224MPD1    N1 3463   2.577   4.459   9.007 -0.0900 -0.1105  0.3010
  224MPD1    H6 3464   2.567   4.482   8.908 -0.7085 -1.5855  0.0235
  224MPD1    H7 3465   2.569   4.357   9.008  2.5119 -0.3076  1.2673
  225MPD1     C 3466   0.009   0.154  12.225 -0.1233 -0.5618  0.0251
  225MPD1    C1 3467   4.722   0.030  12.174  0.3559  0.2800 -0.1566
  225MPD1    C2 3468   4.602   4.701  12.187 -0.0614 -0.3903  0.5134
  225MPD1    C3 3469   4.501   0.026  12.256  0.6363 -1.3899  1.1332
  225MPD1    C4 3470   4.529   0.148  12.315 -0.1491  0.3316  0.4817
  225MPD1    C5 3471   4.646   0.212  12.298  0.1250 -0.0881  0.7978
  225MPD1     H 3472   4.585   4.601  12.149 -2.7385 -0.4895  1.9271
  225MPD1    H1 3473   4.456   0.202  12.375 -0.7050  1.3986 -1.1533
  225MPD1    H2 3474   0.113   0.182  12.227 -0.8020  1.9325  0.3008
  225MPD1    H3 3475   4.665   0.312  12.335 -1.6288  0.0198  1.3913
  225MPD1     N 3476   4.377   4.694  12.280 -0.0012 -0.3400  0.1158
  225MPD1    H5 3477   4.322   4.736  12.354 -1.3719 -0.2694 -0.9509
  225MPD1    N1 3478   0.099   4.700  12.117 -0.1278  0.2620  0.2517
  225MPD1    H6 3479   0.144   0.024  12.048  1.1825 -2.5566 -1.3521
  225MPD1    H7 3480   0.076   4.616  12.065 -1.1685  0.7283 -0.0422
  226MPD1     C 3481   1.635   3.591   9.689  0.8569  0.0716  0.1652
  226MPD1    C1 3482   1.722   3.500   9.628  0.8171  0.5755 -0.3106
  226MPD1    C2 3483   1.798   3.551   9.522 -0.0831  0.5959 -0.0808
  226MPD1    C3 3484   1.807   3.690   9.492 -0.2358  0.1416 -0.2062
  226MPD1    C4 3485   1.721   3.777   9.558 -0.3943  0.1570 -0.3149
  226MPD1    C5 3486   1.632   3.721   9.649  0.4831  0.2888 -0.6573
  226MPD1     H 3487   1.867   3.482   9.475 -0.6514  0.3523 -0.5561
  226MPD1    H1 3488   1.716   3.884   9.541  2.2435  0.0345 -1.6949
  226MPD1    H2 3489   1.577   3.548   9.770 -1.5017  1.2437 -0.9081
  226MPD1    H3 3490   1.555   3.774   9.705  0.3090 -0.7752  0.1188
  226MPD1     N 3491   1.892   3.731   9.386  0.0666  0.0027 -0.1852
  226MPD1    H5 3492   1.948   3.655   9.349  0.3331  0.1590 -0.1066
  226MPD1    N1 3493   1.717   3.358   9.648  0.1963 -0.5504  0.3257
  226MPD1    H6 3494   1.727   3.330   9.745  2.4400 -0.0959  0.2143
  226MPD1    H7 3495   1.794   3.309   9.604  0.7505 -1.2724  2.1165
  227MPD1     C 3496   1.997   4.224   8.423 -0.5238 -0.4004 -0.1611
  227MPD1    C1 3497   2.094   4.127   8.436  0.0600  1.0786 -0.0847
  227MPD1    C2 3498   2.115   4.082   8.569 -1.0535 -0.3498 -0.3926
  227MPD1    C3 3499   2.038   4.104   8.679  0.0768  0.4611  0.2560
  227MPD1    C4 3500   1.931   4.192   8.649  0.3336 -0.1547  1.1449
  227MPD1    C5 3501   1.922   4.262   8.533 -0.2376 -0.1423 -0.3162
  227MPD1     H 3502   2.197   4.015   8.590 -1.0556  0.2670  1.5980
  227MPD1    H1 3503   1.873   4.221   8.736 -0.6236 -1.4709  0.9540
  227MPD1    H2 3504   1.981   4.274   8.328 -1.6074  2.1571  1.3703
  227MPD1    H3 3505   1.845   4.334   8.510  1.1808  1.2411 -0.7592
  227MPD1     N 3506   2.059   4.046   8.806  0.0204  1.0182  0.2974
  227MPD1    H5 3507   2.147   3.995   8.811  0.3129  1.3489 -1.3301
  227MPD1    N1 3508   2.184   4.091   8.332  0.2744 -0.0789  0.3336
  227MPD1    H6 3509   2.227   4.001   8.348  0.9580  0.3286  0.7839
  227MPD1    H7 3510   2.152   4.094   8.235  1.3107  1.4012  0.0282
  228MPD1     C 3511   1.186   2.139  12.867  0.1913 -1.1897  0.2404
  228MPD1    C1 3512   1.126   2.249  12.810  0.3024  0.3996  0.1841
  228MPD1    C2 3513   0.987   2.268  12.835  0.0993  0.0584 -0.6731
  228MPD1    C3 3514   0.912   2.177  12.906 -0.0339  0.3485  0.2484
  228MPD1    C4 3515   0.970   2.062  12.957  0.4298 -0.6672  0.0454
  228MPD1    C5 3516   1.110   2.054  12.940  0.5779 -0.6062  0.3816
  228MPD1     H 3517   0.934   2.350  12.789 -0.5342 -0.5140 -0.9708
  228MPD1    H1 3518   0.919   1.983  13.011  0.5971 -0.2964  0.7428
  228MPD1    H2 3519   1.293   2.125  12.852 -0.0051 -2.2057 -0.2062
  228MPD1    H3 3520   1.160   1.974  12.994 -0.7261 -2.7529 -1.6054
  228MPD1     N 3521   0.769   2.202  12.911 -0.3323 -0.2610  0.4684
  228MPD1    H5 3522   0.733   2.285  12.866  0.9086 -1.1108 -2.0829
  228MPD1    N1 3523   1.211   2.352  12.766  0.0330 -0.3017 -0.5466
  228MPD1    H6 3524   1.158   2.422  12.716 -0.1147  0.0637  0.1166
  228MPD1    H7 3525   1.285   2.319  12.705  0.1405 -1.5126  0.2241
  229MPD1     C 3526   0.802   1.707  14.189 -0.5505 -0.5159  0.5077
  229MPD1    C1 3527   0.776   1.740  14.320  0.0239 -0.5442 -0.7563
  229MPD1    C2 3528   0.864   1.685  14.411 -0.0463 -0.0715  0.2717
  229MPD1    C3 3529   0.984   1.628  14.374  0.4935 -0.4668  0.3658
  229MPD1    C4 3530   1.010   1.612  14.245 -0.0960  0.0879  0.1097
  229MPD1    C5 3531   0.910   1.637  14.157  0.2082  0.0823 -0.7671
  229MPD1     H 3532   0.848   1.708  14.516 -1.7258  0.0111 -0.0045
  229MPD1    H1 3533   1.102   1.574  14.204 -0.2909 -0.4623  0.1762
  229MPD1    H2 3534   0.724   1.728  14.116 -1.4050  1.8929  2.1199
  229MPD1    H3 3535   0.945   1.634  14.055  1.0917 -0.0438 -0.4611
  229MPD1     N 3536   1.070   1.573  14.467  0.0307  0.0965 -0.3182
  229MPD1    H5 3537   1.156   1.527  14.440 -0.1377  0.1412 -0.9273
  229MPD1    N1 3538   0.644   1.786  14.362  0.0278 -0.6910 -0.4554
  229MPD1    H6 3539   0.589   1.845  14.300  1.6882  0.0079 -1.2681
  229MPD1    H7 3540   0.659   1.837  14.448  0.0334  1.1789 -1.5515
  230MPD1     C 3541   1.717   1.468  15.350 -0.1276 -0.3632 -0.3776
  230MPD1    C1 3542   1.718   1.345  15.281 -0.0451 -0.1468 -0.1174
  230MPD1    C2 3543   1.618   1.328  15.186 -0.5011  0.1923  0.1696
  230MPD1    C3 3544   1.533   1.435  15.146  0.1187 -0.4326  0.1939
  230MPD1    C4 3545   1.543   1.552  15.211 -0.0099 -1.3428 -0.3047
  230MPD1    C5 3546   1.630   1.564  15.313 -0.3856 -0.0579  0.2661
  230MPD1     H 3547   1.609   1.227  15.146  0.3004 -0.1970  0.9867
  230MPD1    H1 3548   1.478   1.638  15.204 -0.6633 -1.9870 -1.9973
  230MPD1    H2 3549   1.769   1.482  15.444 -2.1049 -2.2597  1.0119
  230MPD1    H3 3550   1.628   1.659  15.366 -1.9860 -0.1559  0.3787
  230MPD1     N 3551   1.458   1.425  15.025 -0.6712  1.0028 -0.0489
  230MPD1    H5 3552   1.465   1.340  14.970 -0.5297  0.3044  1.0540
  230MPD1    N1 3553   1.789   1.230  15.333  0.3171 -0.3133  0.4823
  230MPD1    H6 3554   1.797   1.157  15.261 -2.0344 -1.7218  1.6262
  230MPD1    H7 3555   1.878   1.251  15.376  1.3680  0.7962 -2.2210
  231MPD1     C 3556   3.940   3.141  15.160 -0.5051 -0.5166 -0.0030
  231MPD1    C1 3557   3.872   3.206  15.056 -0.3751  0.0829  0.0264
  231MPD1    C2 3558   3.939   3.300  14.975 -0.0508  0.0532 -0.3343
  231MPD1    C3 3559   4.070   3.327  15.000 -0.1976 -0.2522 -1.0753
  231MPD1    C4 3560   4.141   3.255  15.093 -0.9382  0.1597 -0.5805
  231MPD1    C5 3561   4.070   3.169  15.173  0.1821 -0.3193 -0.3003
  231MPD1     H 3562   3.890   3.350  14.892  2.6999 -0.3242 -2.1696
  231MPD1    H1 3563   4.247   3.265  15.117 -0.8672  0.9287 -1.2082
  231MPD1    H2 3564   3.894   3.059  15.213 -3.3210  1.1971  0.2253
  231MPD1    H3 3565   4.126   3.113  15.247 -0.0598 -2.3174 -1.6323
  231MPD1     N 3566   4.142   3.420  14.913  0.5957  0.2697 -0.5503
  231MPD1    H5 3567   4.081   3.456  14.841  0.5674  0.9161 -0.1954
  231MPD1    N1 3568   3.732   3.189  15.032  0.2265 -0.2954 -0.3275
  231MPD1    H6 3569   3.720   3.088  15.036  0.7555 -0.3911 -1.1483
  231MPD1    H7 3570   3.703   3.232  14.944  0.7741  1.0103  0.1293
  232MPD1     C 3571   1.285   1.150   0.356  0.4469 -0.5373  0.2727
  232MPD1    C1 3572   1.157   1.185   0.318  0.1526 -0.1800  0.1429
  232MPD1    C2 3573   1.103   1.114   0.216 -0.5478  0.1688  0.4904
  232MPD1    C3 3574   1.166   0.998   0.171  0.1012 -0.5602 -0.4056
  232MPD1    C4 3575   1.284   0.956   0.225 -0.4421  0.4784  0.1050
  232MPD1    C5 3576   1.343   1.032   0.319  0.5148  0.4129  0.7014
  232MPD1     H 3577   1.004   1.146   0.188 -1.0991 -1.8220  0.1504
  232MPD1    H1 3578   1.346   0.878   0.183 -2.6728 -1.1284 -0.2473
  232MPD1    H2 3579   1.338   1.207   0.432 -1.5083 -1.2180  2.1401
  232MPD1    H3 3580   1.444   1.009   0.351  1.5403  0.5567 -2.4275
  232MPD1     N 3581   1.106   0.928   0.061 -0.9281 -0.6094  0.6132
  232MPD1    H5 3582   1.016   0.961   0.027 -0.3451 -0.0770 -0.4190
  232MPD1    N1 3583   1.098   1.302   0.373  0.3956  0.4095 -0.4484
  232MPD1    H6 3584   0.996   1.298   0.369  0.4881 -2.0104 -0.7927
  232MPD1    H7 3585   1.135   1.331   0.463 -0.0257 -1.7298  0.4114
  233MPD1     C 3586   1.493   2.402   0.544 -0.2319  0.1126 -0.1034
  233MPD1    C1 3587   1.540   2.530   0.537 -0.5241 -0.4158  0.4711
  233MPD1    C2 3588   1.671   2.546   0.582 -0.1759 -0.4439 -0.0943
  233MPD1    C3 3589   1.746   2.444   0.641 -0.1689 -0.2528  0.1624
  233MPD1    C4 3590   1.689   2.317   0.654  1.2323 -0.1595 -0.3246
  233MPD1    C5 3591   1.557   2.299   0.609 -0.4742  0.4972 -0.4620
  233MPD1     H 3592   1.703   2.649   0.570 -1.6469  0.2409  1.7924
  233MPD1    H1 3593   1.745   2.229   0.683  0.8442 -0.2195  0.2495
  233MPD1    H2 3594   1.395   2.378   0.503  0.6323 -2.9878 -0.3918
  233MPD1    H3 3595   1.521   2.197   0.607  1.0601 -0.0460 -0.8155
  233MPD1     N 3596   1.868   2.466   0.708  0.5112 -0.5721  0.0919
  233MPD1    H5 3597   1.898   2.378   0.749  0.4093 -0.8495 -0.4202
  233MPD1    N1 3598   1.474   2.630   0.468 -0.1030  0.4743  0.5431
  233MPD1    H6 3599   1.375   2.623   0.491 -0.5386  2.2164 -0.8656
  233MPD1    H7 3600   1.517   2.719   0.491  2.2530 -0.1766 -1.3601
  234MPD1     C 3601   3.512   2.428   9.636 -0.3566 -0.4587 -0.1955
  234MPD1    C1 3602   3.376   2.456   9.604  0.1045  0.6804  0.2528
  234MPD1    C2 3603   3.342   2.583   9.571  0.7342 -0.1327  0.5624
  234MPD1    C3 3604   3.440   2.681   9.552  0.6777  0.3190 -0.3083
  234MPD1    C4 3605   3.571   2.649   9.576 -0.9046 -0.8547 -0.1114
  234MPD1    C5 3606   3.607   2.524   9.609 -0.5803 -0.3602  0.4885
  234MPD1     H 3607   3.236   2.600   9.559  0.6274 -0.9981  0.2320
  234MPD1    H1 3608   3.646   2.723   9.551 -0.4105 -1.0078  0.9103
  234MPD1    H2 3609   3.537   2.332   9.680  0.6065 -0.2636 -0.3133
  234MPD1    H3 3610   3.708   2.493   9.636 -1.0431  0.0631  2.6535
  234MPD1     N 3611   3.403   2.814   9.520  0.1544  0.0520  0.1114
  234MPD1    H5 3612   3.302   2.827   9.516  0.3631  0.8902 -2.0426
  234MPD1    N1 3613   3.281   2.351   9.605 -0.5489 -0.8053 -0.3238
  234MPD1    H6 3614   3.194   2.383   9.649 -0.6843  0.4547 -1.5036
  234MPD1    H7 3615   3.314   2.266   9.650 -0.5672 -0.5283  0.2201
  235MPD1     C 3616   1.283   4.534  10.052 -0.0067  0.2336 -0.8909
  235MPD1    C1 3617   1.152   4.558  10.087  0.1439  0.8967  0.0391
  235MPD1    C2 3618   1.123   4.668  10.165  0.0140 -0.2155 -0.3079
  235MPD1    C3 3619   1.213   0.021  10.194  0.1156  0.1727  0.0421
  235MPD1    C4 3620   1.341   0.009  10.150  0.1775 -0.5258 -0.5490
  235MPD1    C5 3621   1.380   4.631  10.091  0.3013  0.0217 -0.0701
  235MPD1     H 3622   1.026   4.687  10.211  0.4898 -0.6403  0.8740
  235MPD1    H1 3623   1.421   0.081  10.164 -1.2324  0.5887  1.7213
  235MPD1    H2 3624   1.315   4.440  10.008 -0.7103  0.2545 -1.4503
  235MPD1    H3 3625   1.483   4.615  10.064  0.7128 -0.3617  1.7028
  235MPD1     N 3626   1.171   0.129  10.276 -0.1510 -0.0095 -0.1454
  235MPD1    H5 3627   1.071   0.138  10.289 -0.3864 -2.8438  0.0374
  235MPD1    N1 3628   1.043   4.476  10.059 -0.0924 -0.0055  0.4350
  235MPD1    H6 3629   1.057   4.412   9.981 -0.1559 -1.1404  1.3483
  235MPD1    H7 3630   0.971   4.545  10.041 -0.8057 -0.8219  0.1568
  236MPD1     C 3631   3.800   1.397   9.570  0.5087  0.0089  0.4594
  236MPD1    C1 3632   3.879   1.510   9.578  0.0029  0.3713 -0.0111
  236MPD1    C2 3633   3.978   1.518   9.670 -0.0628  0.5885 -0.3848
  236MPD1    C3 3634   4.016   1.411   9.740 -0.6085  0.2972  0.1909
  236MPD1    C4 3635   3.953   1.294   9.723  0.5669  0.8263  0.1628
  236MPD1    C5 3636   3.846   1.287   9.644 -1.0169 -0.0823  0.4324
  236MPD1     H 3637   4.039   1.607   9.679 -1.1534  1.4516 -1.5265
  236MPD1    H1 3638   3.986   1.210   9.783 -0.1592  1.4847  1.4603
  236MPD1    H2 3639   3.718   1.388   9.501  0.4717 -2.1656  0.7769
  236MPD1    H3 3640   3.790   1.194   9.648 -0.9309 -0.1465  0.2076
  236MPD1     N 3641   4.123   1.408   9.830 -0.1110  0.5249 -0.0417
  236MPD1    H5 3642   4.132   1.321   9.882 -0.0300 -0.4898 -1.7395
  236MPD1    N1 3643   3.833   1.634   9.528 -0.1258 -0.9758  0.2170
  236MPD1    H6 3644   3.918   1.686   9.506  0.3588 -2.2546 -0.9859
  236MPD1    H7 3645   3.782   1.625   9.440 -0.2606  1.4123  0.0543
  237MPD1     C 3646   0.112   4.246  15.082 -0.3768  0.3011  0.2376
  237MPD1    C1 3647   0.055   4.351  15.134 -0.2793  0.2463  0.2905
  237MPD1    C2 3648   4.653   4.356  15.153  0.0454  0.7027 -0.3169
  237MPD1    C3 3649   4.571   4.248  15.111 -0.5926 -0.0778 -0.2351
  237MPD1    C4 3650   4.641   4.139  15.056  0.0455  0.0300  0.1527
  237MPD1    C5 3651   0.040   4.132  15.049  0.2775  0.1281 -0.0273
  237MPD1     H 3652   4.618   4.454  15.185  0.6903  0.6899  0.4186
  237MPD1    H1 3653   4.589   4.054  15.015  1.8760 -0.0601 -1.9315
  237MPD1    H2 3654   0.220   4.241  15.071 -0.3833  0.7836 -0.0764
  237MPD1    H3 3655   0.084   4.051  14.991  2.0784  0.2393  1.2094
  237MPD1     N 3656   4.430   4.253  15.097  0.1815 -0.2843  0.1880
  237MPD1    H5 3657   4.387   4.180  15.041 -0.9280 -1.6211  2.7747
  237MPD1    N1 3658   0.127   4.468  15.160 -0.2954  0.5246 -0.1955
  237MPD1    H6 3659   0.087   4.519  15.238 -0.8273  0.7693 -0.6351
  237MPD1    H7 3660   0.225   4.459  15.186  0.0527  1.4755 -1.1536
  238MPD1     C 3661   1.083   3.429  15.497 -0.3857 -0.5092 -0.0642
  238MPD1    C1 3662   1.075   3.515  15.388 -0.4467 -0.3854 -0.3346
  238MPD1    C2 3663   1.049   3.444  15.270  0.0734  0.4459  0.2536
  238MPD1    C3 3664   0.992   3.319  15.266 -0.4370 -0.5932 -0.2564
  238MPD1    C4 3665   0.987   3.240  15.378  0.6009  0.1350 -0.3370
  238MPD1    C5 3666   1.029   3.301  15.495  0.1108 -0.1505 -0.0683
  238MPD1     H 3667   1.062   3.495  15.175 -1.4196 -1.1898 -0.8316
  238MPD1    H1 3668   0.950   3.139  15.371  0.8723  0.0005  0.1340
  238MPD1    H2 3669   1.125   3.457  15.593  2.4352  0.2259 -1.5132
  238MPD1    H3 3670   1.010   3.248  15.587 -0.2259  0.8458  0.4421
  238MPD1     N 3671   0.957   3.254  15.145  0.2597 -0.0442  0.2008
  238MPD1    H5 3672   0.921   3.159  15.155  0.7800 -0.5489 -2.6423
  238MPD1    N1 3673   1.141   3.644  15.391 -0.0520 -0.3125 -0.8286
  238MPD1    H6 3674   1.134   3.690  15.481 -1.6700 -2.5856  0.2097
  238MPD1    H7 3675   1.108   3.703  15.314  1.0712  0.5847 -0.6267
  239MPD1     C 3676   1.310   3.639  15.073 -0.0050 -0.3630  0.2158
  239MPD1    C1 3677   1.440   3.640  15.016  0.5685  0.2034  0.0042
  239MPD1    C2 3678   1.459   3.708  14.896  0.2763  0.2433 -0.2599
  239MPD1    C3 3679   1.350   3.774  14.834 -0.5576  0.5375  0.7116
  239MPD1    C4 3680   1.227   3.777  14.899 -0.0847 -0.3728 -0.8619
  239MPD1    C5 3681   1.208   3.718  15.024  0.4206 -0.5638 -0.5790
  239MPD1     H 3682   1.556   3.695  14.849  0.5805  1.8118 -0.0896
  239MPD1    H1 3683   1.140   3.820  14.852 -0.5655 -1.8748 -1.3299
  239MPD1    H2 3684   1.289   3.591  15.168 -1.6274 -3.2854 -1.6323
  239MPD1    H3 3685   1.109   3.713  15.067  0.4937  0.0481 -0.3485
  239MPD1     N 3686   1.354   3.838  14.703  0.0384  0.1194 -0.1682
  239MPD1    H5 3687   1.269   3.882  14.669 -0.7917 -0.3903  1.2406
  239MPD1    N1 3688   1.537   3.549  15.062  0.1820 -0.8130 -0.2354
  239MPD1    H6 3689   1.635   3.576  15.052 -0.0232 -0.6035 -1.6751
  239MPD1    H7 3690   1.521   3.522  15.159 -0.5967 -0.5883 -0.3062
  240MPD1     C 3691   0.412   3.756  13.679  0.8773 -0.4292 -0.4954
  240MPD1    C1 3692   0.293   3.705  13.738  0.0078 -0.1436  0.3943
  240MPD1    C2 3693   0.301   3.641  13.862  0.2948 -0.2957  0.3013
  240MPD1    C3 3694   0.419   3.635  13.933 -0.0633 -0.4370 -0.1734
  240MPD1    C4 3695   0.522   3.714  13.882  0.3569 -0.2699 -0.3990
  240MPD1    C5 3696   0.523   3.764  13.753  0.6384  1.0665  0.6243
  240MPD1     H 3697   0.213   3.588  13.899  0.7169 -2.1744 -1.3558
  240MPD1    H1 3698   0.611   3.726  13.942 -0.7665 -0.0699  1.2549
  240MPD1    H2 3699   0.416   3.806  13.583 -0.3830 -0.2067 -0.4300
  240MPD1    H3 3700   0.605   3.826  13.720  0.3297  1.3521  0.3980
  240MPD1     N 3701   0.415   3.575  14.063  0.3017  0.4603  0.2426
  240MPD1    H5 3702   0.335   3.518  14.087  1.5446 -1.1098  0.7206
  240MPD1    N1 3703   0.183   3.678  13.655  0.2429  0.1903  0.2594
  240MPD1    H6 3704   0.092   3.679  13.699  0.6994 -1.1203  1.2397
  240MPD1    H7 3705   0.160   3.751  13.588  0.8709 -0.0194 -0.1843
  241MPD1     C 3706   0.719   3.587  15.037  1.1612 -0.2417  0.3355
  241MPD1    C1 3707   0.615   3.493  15.018 -0.4703 -0.3654  0.0595
  241MPD1    C2 3708   0.570   3.479  14.889  0.2927 -0.7562 -0.0171
  241MPD1    C3 3709   0.617   3.552  14.780 -0.1043 -0.1835 -0.1638
  241MPD1    C4 3710   0.710   3.644  14.799  0.1905  0.0393 -0.2502
  241MPD1    C5 3711   0.758   3.662  14.927  0.0767 -0.3922  0.3347
  241MPD1     H 3712   0.479   3.421  14.882 -0.2699  0.3168 -1.4890
  241MPD1    H1 3713   0.727   3.717  14.721 -0.5469  0.0309 -0.4200
  241MPD1    H2 3714   0.763   3.613  15.132  2.1071 -0.7617  0.0368
  241MPD1    H3 3715   0.838   3.732  14.948  0.2697 -1.2545  2.3856
  241MPD1     N 3716   0.566   3.533  14.649  0.0458  0.0261 -0.1044
  241MPD1    H5 3717   0.573   3.610  14.582 -2.1164  0.1736 -0.1649
  241MPD1    N1 3718   0.547   3.447  15.135  0.0783  0.4446 -0.2244
  241MPD1    H6 3719   0.614   3.457  15.210 -0.7720 -0.3432  0.6334
  241MPD1    H7 3720   0.511   3.352  15.126 -0.3554  0.6044 -0.1826
  242MPD1     C 3721   0.731   2.028  15.814 -0.0533 -0.2412 -0.4329
  242MPD1    C1 3722   0.771   2.145  15.756 -0.2666  0.0172 -0.5373
  242MPD1    C2 3723   0.776   2.148  15.621 -0.0655  0.4362 -0.1664
  242MPD1    C3 3724   0.741   2.042  15.537  0.6816  0.4024 -0.4090
  242MPD1    C4 3725   0.698   1.929  15.599  0.4747 -0.1906  0.2226
  242MPD1    C5 3726   0.696   1.920  15.730  0.4784 -0.3828 -0.2067
  242MPD1     H 3727   0.813   2.233  15.564  0.2015 -0.1693 -0.9105
  242MPD1    H1 3728   0.676   1.835  15.549  0.7083  0.9828 -2.1063
  242MPD1    H2 3729   0.728   2.013  15.922 -1.4481 -0.1474 -0.4469
  242MPD1    H3 3730   0.656   1.827  15.770 -1.7763  0.9894  0.6877
  242MPD1     N 3731   0.754   2.049  15.397 -0.0080 -0.7071 -0.2243
  242MPD1    H5 3732   0.797   2.132  15.357  0.1880 -0.2927  0.8627
  242MPD1    N1 3733   0.852   2.231  15.834 -0.4806  0.0637 -0.3216
  242MPD1    H6 3734   0.853   2.324  15.793  1.6344 -0.3794 -1.2394
  242MPD1    H7 3735   0.799   2.250  15.919 -0.4795  3.2765 -1.0424
  243MPD1     C 3736   2.221   1.128   0.051  0.1414 -0.1343  0.5041
  243MPD1    C1 3737   2.326   1.129  17.706 -0.4064  1.0062 -0.4064
  243MPD1    C2 3738   2.345   1.023  17.616  0.3110  0.2856  0.6104
  243MPD1    C3 3739   2.252   0.923  17.605  0.6624 -0.9127  0.2981
  243MPD1    C4 3740   2.137   0.934  17.683  0.0648  0.2681  0.0620
  243MPD1    C5 3741   2.128   1.041   0.024 -0.2049  0.3818  0.5083
  243MPD1     H 3742   2.433   1.018  17.553  0.5986  0.9849  0.9615
  243MPD1    H1 3743   2.059   0.860  17.695  0.1982  0.1907  0.4630
  243MPD1    H2 3744   2.206   1.205   0.126 -3.1266 -1.0359  0.7934
  243MPD1    H3 3745   2.050   1.042   0.100 -0.2977  0.3473  0.4140
  243MPD1     N 3746   2.281   0.825  17.504 -0.0713 -0.0159  0.0984
  243MPD1    H5 3747   2.367   0.831  17.451 -0.6760 -0.1135 -0.9001
  243MPD1    N1 3748   2.436   1.211  17.742  0.1997 -0.0802 -0.1518
  243MPD1    H6 3749   2.407   1.295   0.049 -0.9060 -1.0157  0.7753
  243MPD1    H7 3750   2.490   1.241  17.661 -0.4700  2.2336  0.2476
  244MPD1     C 3751   2.152   4.560  17.510  0.0747 -0.1890  0.1458
  244MPD1    C1 3752   2.182   4.649  17.612  0.2927  0.6286  0.1588
  244MPD1    C2 3753   2.213   0.046  17.578  0.1910 -0.0574  0.3871
  244MPD1    C3 3754   2.193   0.086  17.441 -0.8634 -0.2292  0.4939
  244MPD1    C4 3755   2.151   4.731  17.349  0.5982  0.1072  0.3468
  244MPD1    C5 3756   2.133   4.602  17.380 -0.5379 -0.9635 -0.6350
  244MPD1     H 3757   2.234   0.119  17.655 -0.4094 -1.0732  1.5063
  244MPD1    H1 3758   2.124   0.029  17.249 -1.5939  0.5332  1.0721
  244MPD1    H2 3759   2.134   4.457  17.540  1.3179 -0.6040 -0.5211
  244MPD1    H3 3760   2.094   4.536  17.303  1.0232  0.5537 -2.7028
  244MPD1     N 3761   2.227   0.220  17.409 -0.3397  0.3772  0.2591
  244MPD1    H5 3762   2.256   0.284  17.483  2.3792 -0.1366 -0.3654
  244MPD1    N1 3763   2.203   4.612   0.010  0.0784  0.0090 -0.4397
  244MPD1    H6 3764   2.156   4.526   0.036  0.2980  0.7970  2.4897
  244MPD1    H7 3765   2.195   4.689   0.076  0.3860 -1.4698  1.2890
  245MPD1     C 3766   3.520   0.951  12.789 -0.8709 -0.0190 -0.3267
  245MPD1    C1 3767   3.617   0.911  12.876 -0.3388  0.5274  0.7062
  245MPD1    C2 3768   3.659   0.989  12.981  0.1024 -0.5955  0.4605
  245MPD1    C3 3769   3.616   1.127  12.979 -0.1050  0.1229  0.8319
  245MPD1    C4 3770   3.527   1.166  12.886 -0.2891 -0.2063  0.3792
  245MPD1    C5 3771   3.474   1.077  12.793  0.0788  0.0376 -0.3406
  245MPD1     H 3772   3.720   0.945  13.060  1.3684 -0.6222 -0.5321
  245MPD1    H1 3773   3.488   1.267  12.881 -3.6003 -1.5131 -0.0456
  245MPD1    H2 3774   3.473   0.883  12.720  1.2133 -2.4042  0.5851
  245MPD1    H3 3775   3.389   1.105  12.731  2.0803  3.5497 -1.4723
  245MPD1     N 3776   3.667   1.216  13.078  0.0756  0.6378 -0.2270
  245MPD1    H5 3777   3.716   1.181  13.160 -0.4321  0.4715  0.0087
  245MPD1    N1 3778   3.651   0.777  12.886 -0.5719  0.8508 -0.1813
  245MPD1    H6 3779   3.732   0.761  12.945 -3.6499 -1.7379  3.4167
  245MPD1    H7 3780   3.664   0.740  12.792 -2.3807  0.5265 -0.3144
  246MPD1     C 3781   1.997   1.523   9.125  0.6306 -0.7144  0.3082
  246MPD1    C1 3782   2.071   1.635   9.113 -0.6763 -0.0093  0.7062
  246MPD1    C2 3783   2.209   1.631   9.134  0.4688  0.3221  0.2200
  246MPD1    C3 3784   2.266   1.511   9.183 -0.1635  0.2466  0.0689
  246MPD1    C4 3785   2.185   1.397   9.197  0.3336  0.1474  0.3384
  246MPD1    C5 3786   2.055   1.407   9.161  0.1055  0.3630  0.3431
  246MPD1     H 3787   2.267   1.722   9.121 -0.0321  0.3915 -1.4314
  246MPD1    H1 3788   2.222   1.308   9.247 -0.4867  0.1531  0.9797
  246MPD1    H2 3789   1.890   1.515   9.105  0.8375  1.6658 -1.7580
  246MPD1    H3 3790   1.983   1.328   9.179 -0.1813  0.8814  1.5146
  246MPD1     N 3791   2.406   1.495   9.198  0.0850 -0.4634 -0.2400
  246MPD1    H5 3792   2.458   1.581   9.205 -0.4668 -0.3221  2.1318
  246MPD1    N1 3793   2.022   1.757   9.052 -0.0756  0.1576  0.7452
  246MPD1    H6 3794   2.080   1.838   9.071 -0.6164  0.4202  1.2525
  246MPD1    H7 3795   1.926   1.779   9.076 -0.0102  0.1658  0.9994
  247MPD1     C 3796   3.112   0.718  15.288  0.2769  0.1254 -0.5747
  247MPD1    C1 3797   3.159   0.599  15.340  0.4218 -0.1089  0.2929
  247MPD1    C2 3798   3.248   0.606  15.448  0.2555  0.0633 -0.7585
  247MPD1    C3 3799   3.271   0.724  15.518  0.3498 -0.0673  0.2288
  247MPD1    C4 3800   3.211   0.837  15.472  0.5212 -0.0190  0.5537
  247MPD1    C5 3801   3.132   0.834  15.357 -0.2890  0.2517 -0.3291
  247MPD1     H 3802   3.300   0.514  15.473  2.1412  1.0207 -1.1774
  247MPD1    H1 3803   3.219   0.934  15.518  0.0570 -0.3149  1.2609
  247MPD1    H2 3804   3.049   0.711  15.200 -1.0374 -1.5898  0.4939
  247MPD1    H3 3805   3.073   0.920  15.328 -0.5479 -0.3726 -1.6531
  247MPD1     N 3806   3.364   0.742  15.619  0.5235 -0.4405  0.4248
  247MPD1    H5 3807   3.389   0.832  15.659 -2.7858  0.9226 -0.5737
  247MPD1    N1 3808   3.144   0.476  15.266 -0.6404 -0.4458 -0.2474
  247MPD1    H6 3809   3.165   0.388  15.313 -2.4457 -0.5967  0.2714
  247MPD1    H7 3810   3.066   0.474  15.202 -2.2871  1.1581  1.7108
  248MPD1     C 3811   0.002   4.500   0.312  0.0105  1.2567  0.2162
  248MPD1    C1 3812   0.108   4.575   0.359 -0.5083  1.0869  0.4854
  248MPD1    C2 3813   0.082   4.674   0.450  0.2652 -0.3815  0.6202
  248MPD1    C3 3814   4.694   4.686   0.505  0.1143 -0.4236 -0.1405
  248MPD1    C4 3815   4.592   4.602   0.467 -0.1482  0.1584 -0.7095
  248MPD1    C5 3816   4.616   4.502   0.374  0.0378  0.4011  0.4693
  248MPD1     H 3817   0.148   0.020   0.476 -1.4901  1.0144  0.7211
  248MPD1    H1 3818   4.498   4.602   0.522 -0.3818  1.0125 -1.1230
  248MPD1    H2 3819   0.004   4.434   0.226  1.9864  0.0641  1.1787
  248MPD1    H3 3820   4.537   4.436   0.339  1.6352 -1.9257  1.2544
  248MPD1     N 3821   4.676   0.037   0.612  0.0212  0.1293 -0.1659
  248MPD1    H5 3822   0.025   0.090   0.629 -0.3540  0.4872  0.5556
  248MPD1    N1 3823   0.226   4.596   0.282  0.3608 -0.0309  0.2951
  248MPD1    H6 3824   0.305   4.627   0.338  1.2517 -0.9998 -0.4339
  248MPD1    H7 3825   0.250   4.505   0.242 -0.9549 -1.4067  2.6358
  249MPD1     C 3826   2.466   1.092   9.592  0.2491 -0.5645 -0.1520
  249MPD1    C1 3827   2.515   1.038   9.710 -0.3574 -0.2304  0.2359
  249MPD1    C2 3828   2.450   0.926   9.756 -0.4829  0.2540 -0.4496
  249MPD1    C3 3829   2.347   0.866   9.681 -0.9341  0.1453 -1.0005
  249MPD1    C4 3830   2.302   0.925   9.558 -0.2619 -0.6065 -0.8410
  249MPD1    C5 3831   2.370   1.035   9.514  0.3440  0.1663  0.0360
  249MPD1     H 3832   2.477   0.870   9.845  1.9554  1.7655 -0.2514
  249MPD1    H1 3833   2.222   0.890   9.494 -2.6268  1.3041  1.0479
  249MPD1    H2 3834   2.517   1.178   9.550  1.6592 -0.7935  1.0670
  249MPD1    H3 3835   2.346   1.075   9.416 -0.5189  2.2807  1.1146
  249MPD1     N 3836   2.308   0.744   9.734 -0.0344 -0.3261  0.2801
  249MPD1    H5 3837   2.351   0.717   9.822 -2.0200 -0.4030  1.2282
  249MPD1    N1 3838   2.605   1.113   9.787 -0.4999  0.1359  0.3796
  249MPD1    H6 3839   2.675   1.161   9.729 -0.4392  0.4135  0.6827
  249MPD1    H7 3840   2.658   1.066   9.860  0.2270  1.5786  0.7746
  250MPD2     C 3841   2.244   4.035  13.168  0.0223 -0.3101 -0.2206
  250MPD2    C1 3842   2.361   4.039  13.098  0.0468  0.3026 -0.0174
  250MPD2    C2 3843   2.388   3.953  12.994 -0.3213 -0.3834  0.3550
  250MPD2    C3 3844   2.286   3.865  12.952 -0.5511  0.0382  0.5409
  250MPD2    C4 3845   2.159   3.875  13.018  0.3659 -0.2313  0.5086
  250MPD2    C5 3846   2.141   3.955  13.129  0.5176 -0.7915 -0.9215
  250MPD2     H 3847   2.488   3.949  12.952 -0.5618 -1.2897 -0.1184
  250MPD2    H1 3848   2.084   3.799  12.996  3.2921 -3.2429  0.9642
  250MPD2    H2 3849   2.237   4.100  13.254  0.1309 -0.4680 -0.0916
  250MPD2    H3 3850   2.042   3.949  13.173  0.4955  2.4539 -0.4823
  250MPD2     N 3851   2.305   3.775  12.845 -0.3617 -0.4598  0.0149
  250MPD2    H5 3852   2.221   3.725  12.821  1.7655 -3.1148 -1.8570
  250MPD2    N1 3853   2.455   4.136  13.134  0.5437 -0.4157 -0.3035
  250MPD2    H7 3854   2.445   4.192  13.218 -1.3386 -1.3468  0.0939
  251TMC3    C1 3855   2.640   4.277  13.127 -0.3802 -0.1083  0.2704
  251TMC3    C2 3856   2.561   4.374  13.191 -0.7487  0.2710  0.7063
  251TMC3    C3 3857   2.611   4.499  13.213  0.0376  0.0887  0.4179
  251TMC3    C4 3858   2.763   4.303  13.079 -0.0015  0.7576 -0.3143
  251TMC3    C5 3859   2.812   4.434  13.106  0.2015 -0.1387  0.4621
  251TMC3    C6 3860   2.737   4.532  13.175  0.0870  0.0108 -0.0975
  251TMC3     C 3861   2.571   4.171  13.067  0.0314 -0.1454 -0.3095
  251TMC3     O 3862   2.623   4.136  12.962 -0.0885  0.2119 -0.2315
  251TMC3     H 3863   2.453   4.364  13.199 -0.7334  0.7249  1.4284
  251TMC3    H1 3864   2.820   4.227  13.028 -0.0968  0.7369 -0.3900
  251TMC3    H2 3865   2.778   4.631  13.195  0.0376  0.0359 -0.1213
  251TMC3    C7 3866   2.953   4.459  13.079  0.5845  0.1825 -0.5736
  251TMC3    C8 3867   2.521   4.596  13.271  0.2688  0.1110  0.0051
  251TMC3    O1 3868   3.022   4.359  13.068  0.2819 -0.3989 -0.0996
  251TMC3    O2 3869   2.434   4.549  13.342 -0.4111 -0.8248  0.5901
  252TMC3    C1 3870   2.001   1.506   9.508 -0.8315 -1.0689  0.1769
  252TMC3    C2 3871   2.132   1.543   9.499 -0.4769 -0.1737  0.4783
  252TMC3    C3 3872   2.216   1.454   9.559  0.4361 -0.3235  0.0239
  252TMC3    C4 3873   1.956   1.405   9.590 -0.1105 -0.2280  0.1441
  252TMC3    C5 3874   2.049   1.322   9.652  0.1166 -0.0195  0.1086
  252TMC3    C6 3875   2.178   1.342   9.634  0.0181 -0.6620 -0.4727
  252TMC3     C 3876   1.904   1.603   9.465 -0.2244 -0.2905 -0.5739
  252TMC3     O 3877   1.786   1.566   9.451  0.0121 -0.2357 -0.2517
  252TMC3     H 3878   2.160   1.609   9.418  0.2652 -0.6322  0.3623
  252TMC3    H1 3879   1.852   1.374   9.588 -0.0571 -0.4880  2.0042
  252TMC3    H2 3880   2.242   1.268   9.681 -0.0879 -0.0562  0.6250
  252TMC3    C7 3881   1.993   1.210   9.720 -0.6858  0.0994  0.5518
  252TMC3    C8 3882   2.353   1.491   9.558 -0.3748  0.1545 -0.9704
  252TMC3    O1 3883   1.873   1.194   9.717 -0.1029  0.0232  0.2593
  252TMC3    O2 3884   2.371   1.589   9.486  0.3828  0.2235 -0.1463
  253MPD2     C 3885   3.969   4.642  15.142  0.0758  0.3731 -0.1951
  253MPD2    C1 3886   3.839   4.619  15.103 -0.1527 -0.4943  0.1290
  253MPD2    C2 3887   3.751   4.594  15.210  0.2540 -0.0720 -0.0556
  253MPD2    C3 3888   3.795   4.616  15.342 -0.3566 -0.0674 -0.4198
  253MPD2    C4 3889   3.923   4.641  15.368  0.7434  0.2299 -0.6062
  253MPD2    C5 3890   4.011   4.656  15.273  0.1509 -0.0963  0.0564
  253MPD2     H 3891   3.651   4.557  15.189  0.0363  0.2098  0.4820
  253MPD2    H1 3892   3.953   4.653  15.472  1.3357 -5.3782 -0.1739
  253MPD2    H2 3893   4.044   4.655  15.066 -2.0317  2.2685 -1.9493
  253MPD2    H3 3894   4.118   4.662  15.286 -0.1112  0.2582  2.0353
  253MPD2     N 3895   3.705   4.611  15.452  0.0490  0.1174  0.0881
  253MPD2    H5 3896   3.740   4.603  15.547  2.6173  0.3548 -0.8603
  253MPD2    N1 3897   3.792   4.598  14.972 -0.0752 -0.3000  0.4228
  253MPD2    H7 3898   3.696   4.568  14.963 -0.2365  0.2180  0.4298
  254TMC3    C1 3899   3.492   4.604  15.557 -0.4953 -0.2153 -0.4508
  254TMC3    C2 3900   3.379   4.679  15.562  1.0007 -0.0409  0.1749
  254TMC3    C3 3901   3.310   4.684  15.678  0.3243  0.0488 -0.6734
  254TMC3    C4 3902   3.539   4.537  15.665  0.0610 -0.5809  0.7323
  254TMC3    C5 3903   3.469   4.546  15.775 -0.3953 -0.3582 -0.2593
  254TMC3    C6 3904   3.354   4.618  15.785  0.4600  0.3608 -0.2804
  254TMC3     C 3905   3.570   4.616  15.433 -0.4590 -0.7437 -0.0115
  254TMC3     O 3906   3.506   4.640  15.329 -0.6460  0.1660  0.3337
  254TMC3     H 3907   3.337   4.729  15.475  0.6602 -0.1311  0.2899
  254TMC3    H1 3908   3.623   4.470  15.646 -0.2095 -0.1291 -2.1530
  254TMC3    H2 3909   3.297   4.624  15.877 -0.5467 -0.7811 -0.8296
  254TMC3    C7 3910   3.512   4.475  15.894 -0.5852 -0.4799 -0.2617
  254TMC3    C8 3911   3.169   4.712  15.676 -0.1573  0.4937  0.5050
  254TMC3    O1 3912   3.424   4.429  15.962 -0.4467  0.4768 -0.1167
  254TMC3    O2 3913   3.099   4.626  15.735  0.3512 -0.2909 -0.5842
  255MPD2     C 3914   1.151   3.175  10.776 -0.3084  0.2459 -0.5310
  255MPD2    C1 3915   1.203   3.227  10.660  0.4784  0.9189 -0.0542
  255MPD2    C2 3916   1.334   3.259  10.650  1.3786  0.2389  0.0594
  255MPD2    C3 3917   1.417   3.243  10.759 -0.1516 -0.0430  0.6240
  255MPD2    C4 3918   1.358   3.226  10.883 -0.6745 -0.2384  0.4616
  255MPD2    C5 3919   1.227   3.190  10.892 -0.2921  0.4660 -0.8829
  255MPD2     H 3920   1.377   3.302  10.560  1.9174 -1.5020 -0.5282
  255MPD2    H1 3921   1.411   3.231  10.978  2.6752 -0.9048 -1.3666
  255MPD2    H2 3922   1.058   3.120  10.785 -0.3333  0.2765 -0.5998
  255MPD2    H3 3923   1.194   3.150  10.987  0.2419 -1.3139 -1.4469
  255MPD2     N 3924   1.549   3.291  10.742  0.0582 -0.3632  0.2615
  255MPD2    H5 3925   1.579   3.317  10.648  0.1097 -1.1637  0.0507
  255MPD2    N1 3926   1.119   3.236  10.547 -0.0532 -0.0101 -0.2968
  255MPD2    H7 3927   1.032   3.185  10.553  1.6053 -3.0860 -2.3852
  256TMC3    C1 3928   1.066   3.259  10.324  0.5630 -0.2560  0.7077
  256TMC3    C2 3929   1.062   3.339  10.215  0.6820 -0.3197 -0.1179
  256TMC3    C3 3930   1.050   3.277  10.086  0.7037  0.1220  0.1858
  256TMC3    C4 3931   1.063   3.118  10.310 -0.3699  0.1436 -0.6084
  256TMC3    C5 3932   1.048   3.062  10.182 -0.1443  0.1326 -0.5893
  256TMC3    C6 3933   1.044   3.141  10.072  0.4742 -1.2363 -0.1798
  256TMC3     C 3934   1.145   3.302  10.435  0.6418 -0.0240 -1.3066
  256TMC3     O 3935   1.214   3.399  10.407 -0.5297  0.0049 -0.4030
  256TMC3     H 3936   1.069   3.447  10.226  0.1718 -0.1340 -1.6477
  256TMC3    H1 3937   1.078   3.047  10.390  2.3498  2.9163  1.2830
  256TMC3    H2 3938   1.034   3.097   9.974  1.5088  1.4406 -1.4895
  256TMC3    C7 3939   1.046   2.911  10.161 -0.4462  0.0963 -0.3029
  256TMC3    C8 3940   1.091   3.348   9.965 -0.9404 -0.0291  0.0784
  256TMC3    O1 3941   1.041   2.874  10.042  0.9689 -1.1563 -0.6912
  256TMC3    O2 3942   1.125   3.282   9.870  0.1302 -0.1950  0.2163
  257MPD2     C 3943   0.821   4.035  12.765 -0.0467  0.7759  0.6864
  257MPD2    C1 3944   0.954   4.019  12.728  0.8213  0.4651 -0.4003
  257MPD2    C2 3945   1.041   3.964  12.826 -0.1202 -0.2046  0.5789
  257MPD2    C3 3946   1.000   3.950  12.955  0.1903  0.1319 -0.1937
  257MPD2    C4 3947   0.870   3.984  12.992  0.4471  0.1880  0.0728
  257MPD2    C5 3948   0.782   4.019  12.891  0.1824  0.0459 -0.4163
  257MPD2     H 3949   1.143   3.934  12.801  0.4732  0.9449  1.6656
  257MPD2    H1 3950   0.820   3.963  13.086 -1.6917  1.2557 -0.8104
  257MPD2    H2 3951   0.757   4.079  12.689 -1.3101  1.5374  2.1983
  257MPD2    H3 3952   0.677   4.032  12.915  0.1552  2.5023 -1.8045
  257MPD2     N 3953   1.096   3.893  13.045 -0.0131  0.1513 -0.1261
  257MPD2    H5 3954   1.174   3.838  13.010  1.7449  1.7017  1.3659
  257MPD2    N1 3955   0.990   4.066  12.596  0.0416  0.1116  0.2774
  257MPD2    H7 3956   0.919   4.110  12.539  0.2851 -1.0450 -0.9310
  258TMC3    C1 3957   1.173   3.810  13.260  0.6230  0.4220 -0.1979
  258TMC3    C2 3958   1.269   3.733  13.197 -0.2852 -0.1885  0.6514
  258TMC3    C3 3959   1.346   3.649  13.275  0.0976 -0.3187 -0.1965
  258TMC3    C4 3960   1.155   3.793  13.399  0.0709 -0.4221 -0.7844
  258TMC3    C5 3961   1.235   3.713  13.469 -0.2357  0.2997  0.1408
  258TMC3    C6 3962   1.329   3.630  13.411 -0.6597  0.2326  0.4732
  258TMC3     C 3963   1.078   3.894  13.181  0.1835 -0.6242 -0.5841
  258TMC3     O 3964   1.006   3.967  13.252  0.8583  0.0715  0.0782
  258TMC3     H 3965   1.297   3.755  13.094 -0.3780 -2.5012  0.1491
  258TMC3    H1 3966   1.083   3.849  13.458  0.6505  0.6865 -1.1322
  258TMC3    H2 3967   1.376   3.558  13.478 -0.8502 -0.1456  0.1979
  258TMC3    C7 3968   1.196   3.684  13.604 -0.5181 -0.2628 -0.1337
  258TMC3    C8 3969   1.445   3.568  13.204  0.1194  0.0947  0.8318
  258TMC3    O1 3970   1.078   3.700  13.629 -0.1038  0.1278  0.6011
  258TMC3    O2 3971   1.444   3.582  13.080 -0.4223 -0.2497  0.6158
  259MPD2     C 3972   0.110   0.917   0.795 -0.9869  0.3491 -0.1324
  259MPD2    C1 3973   0.218   0.857   0.730  0.7810 -0.0845 -0.2739
  259MPD2    C2 3974   0.219   0.859   0.587 -0.5525  0.2637 -0.0079
  259MPD2    C3 3975   0.129   0.931   0.516  0.5122  0.9431 -0.3113
  259MPD2    C4 3976   0.022   0.992   0.587  0.0415  0.3803 -0.1267
  259MPD2    C5 3977   0.008   0.974   0.723  0.3448  0.1103 -0.6109
  259MPD2     H 3978   0.304   0.813   0.537 -0.5493  0.8331 -0.5165
  259MPD2    H1 3979   4.683   1.049   0.533  0.0167  0.5466  0.0836
  259MPD2    H2 3980   0.092   0.909   0.901 -0.4109  1.4409  0.0441
  259MPD2    H3 3981   4.655   1.002   0.777  0.4213  2.1495 -1.5606
  259MPD2     N 3982   0.147   0.932   0.377 -0.3662 -0.1881 -0.2569
  259MPD2    H5 3983   0.217   0.863   0.352 -0.1305 -0.0716  0.0859
  259MPD2    N1 3984   0.322   0.804   0.807  0.0536  0.6474 -0.2560
  259MPD2    H7 3985   0.299   0.804   0.906 -1.3271 -0.6989 -0.5726
  260TMC3    C1 3986   0.124   1.010   0.150  0.3451  0.1916  0.6669
  260TMC3    C2 3987   0.131   1.122   0.065 -0.9707  0.0870  0.5680
  260TMC3    C3 3988   0.163   1.099  17.679  0.5018 -0.0719  0.3462
  260TMC3    C4 3989   0.157   0.882   0.107  0.0341 -0.3099  0.0893
  260TMC3    C5 3990   0.161   0.865  17.712 -0.8067 -0.2454  0.4796
  260TMC3    C6 3991   0.157   0.966  17.623 -0.6454 -0.5584  0.2992
  260TMC3     C 3992   0.088   1.027   0.294 -0.8775 -0.5790  0.2480
  260TMC3     O 3993   0.026   1.127   0.327 -0.2379 -0.4581 -0.1092
  260TMC3     H 3994   0.119   1.223   0.102 -0.6967  0.2245  0.2812
  260TMC3    H1 3995   0.146   0.793   0.168 -0.0585 -0.1248  0.3433
  260TMC3    H2 3996   0.186   0.955  17.519  3.3455  0.5538  1.2876
  260TMC3    C7 3997   0.210   0.741  17.658 -0.6392 -0.3811 -0.6012
  260TMC3    C8 3998   0.266   1.185  17.623  0.7059  0.5958  0.9200
  260TMC3    O1 3999   0.218   0.735  17.536  0.5668 -0.3384  0.3827
  260TMC3    O2 4000   0.257   1.303  17.654 -0.0051 -0.6313  0.3202
  261MPD2     C 4001   2.029   3.736  12.179 -0.4614 -0.2353 -1.0419
  261MPD2    C1 4002   2.118   3.808  12.261  0.2475  0.0821 -0.2840
  261MPD2    C2 4003   2.136   3.938  12.245 -0.5381  0.4222  0.0030
  261MPD2    C3 4004   2.066   4.015  12.156  1.0196 -0.4795  0.2961
  261MPD2    C4 4005   1.975   3.947  12.073  0.2507  0.0923  0.1875
  261MPD2    C5 4006   1.966   3.811  12.084 -0.3467 -0.4400  0.1026
  261MPD2     H 4007   2.200   3.989  12.315  2.1179 -1.6532 -0.9035
  261MPD2    H1 4008   1.918   3.986  11.989 -0.7967 -1.1373  0.3243
  261MPD2    H2 4009   2.005   3.632  12.196  0.6312  0.1364  2.7248
  261MPD2    H3 4010   1.901   3.754  12.019  0.6640 -1.5698  0.0833
  261MPD2     N 4011   2.093   4.154  12.143  0.5228 -0.0850 -0.1007
  261MPD2    H5 4012   2.169   4.202  12.191 -0.5653  1.3140  0.2191
  261MPD2    N1 4013   2.187   3.747  12.366 -0.0623 -0.3513  0.5645
  261MPD2    H7 4014   2.249   3.808  12.418  3.1520 -2.4507 -0.7865
  262TMC3    C1 4015   2.062   4.380  12.095  0.1726 -0.1407  0.0658
  262TMC3    C2 4016   1.979   4.481  12.116  0.4714 -0.6962  0.3890
  262TMC3    C3 4017   2.007   4.606  12.076  0.1084 -0.5251 -0.0818
  262TMC3    C4 4018   2.190   4.394  12.046 -0.0399 -0.2598  0.5018
  262TMC3    C5 4019   2.218   4.524  12.002 -0.5173 -0.4098 -0.3302
  262TMC3    C6 4020   2.131   4.632  12.021 -0.5833  0.3240 -0.3667
  262TMC3     C 4021   2.002   4.248  12.101 -0.5603  0.2116  0.6015
  262TMC3     O 4022   1.886   4.242  12.065  0.4993 -0.0664  0.5150
  262TMC3     H 4023   1.887   4.458  12.170  0.4878  0.2290  0.8168
  262TMC3    H1 4024   2.263   4.316  12.030  2.2222  2.1124 -0.9072
  262TMC3    H2 4025   2.155   4.728  11.977 -0.0318  0.5453  0.4112
  262TMC3    C7 4026   2.349   4.540  11.954  0.6597  0.2375  0.2958
  262TMC3    C8 4027   1.894   4.694  12.033  0.2859 -0.0616  0.5636
  262TMC3    O1 4028   2.433   4.457  11.981  0.1782 -0.5236 -0.1201
  262TMC3    O2 4029   1.933   0.046  11.957  0.0018  0.0905 -0.5355
  263MPD2     C 4030   2.975   3.651  11.898  0.5535  0.3001 -0.1728
  263MPD2    C1 4031   3.059   3.618  11.798  0.7619  0.9473  0.1351
  263MPD2    C2 4032   3.088   3.721  11.708 -0.0504  1.0324 -0.1340
  263MPD2    C3 4033   3.017   3.840  11.713 -0.1796 -0.0944 -0.1793
  263MPD2    C4 4034   2.921   3.872  11.811  0.8729 -0.1461  0.7965
  263MPD2    C5 4035   2.908   3.770  11.905  0.9963 -0.2771  0.0062
  263MPD2     H 4036   3.165   3.706  11.633  0.2587  0.9054  0.2082
  263MPD2    H1 4037   2.874   3.969  11.820 -0.8815 -1.0427  1.2950
  263MPD2    H2 4038   2.968   3.579  11.979  2.5310 -0.4738 -0.6978
  263MPD2    H3 4039   2.842   3.797  11.986 -0.2813  1.6391 -1.6710
  263MPD2     N 4040   3.042   3.938  11.612  0.2732  0.0179 -0.4336
  263MPD2    H5 4041   3.098   3.890  11.542  0.4509 -0.8540  0.2998
  263MPD2    N1 4042   3.124   3.491  11.797 -0.5092  0.4474 -0.4240
  263MPD2    H7 4043   3.125   3.432  11.880  0.4837  0.9508 -0.0735
  264TMC3    C1 4044   3.073   4.140  11.514  0.0782 -0.0066 -0.8488
  264TMC3    C2 4045   3.095   4.272  11.542  0.0889  0.1723 -0.2360
  264TMC3    C3 4046   3.117   4.356  11.438 -0.4912  0.0953 -0.4738
  264TMC3    C4 4047   3.076   4.091  11.381 -0.2915  0.4616 -0.1043
  264TMC3    C5 4048   3.095   4.179  11.279 -0.0607 -0.3313  0.1308
  264TMC3    C6 4049   3.124   4.313  11.311  1.1308 -0.3525 -0.5248
  264TMC3     C 4050   3.003   4.063  11.611  0.2024 -0.2231 -0.7949
  264TMC3     O 4051   2.922   4.125  11.683 -0.2246  0.8387 -0.6847
  264TMC3     H 4052   3.083   4.310  11.643 -0.6484 -0.5583 -0.0436
  264TMC3    H1 4053   3.035   3.992  11.365 -1.3321  1.2052 -2.0578
  264TMC3    H2 4054   3.132   4.387  11.232 -0.5089  1.3059  0.8497
  264TMC3    C7 4055   3.091   4.138  11.137 -0.7169 -0.3150 -0.0260
  264TMC3    C8 4056   3.171   4.489  11.453 -0.0417 -0.1951 -0.0493
  264TMC3    O1 4057   3.128   4.215  11.053  0.0607  0.0884  0.4074
  264TMC3    O2 4058   3.219   4.549  11.355  0.2326 -0.0575 -0.5587
  265MPD2     C 4059   0.136   3.936  15.577  0.2793  0.5479 -0.3725
  265MPD2    C1 4060   0.188   4.043  15.501  0.0844 -0.2279 -0.6023
  265MPD2    C2 4061   0.232   4.030  15.368  0.9622  0.6817 -0.3752
  265MPD2    C3 4062   0.240   3.909  15.311 -0.3100  0.8221  0.0654
  265MPD2    C4 4063   0.206   3.802  15.389  0.4484  0.2547 -0.0493
  265MPD2    C5 4064   0.150   3.810  15.516 -0.1064  0.2428 -0.5466
  265MPD2     H 4065   0.260   4.115  15.306  0.6558  0.7502 -0.4201
  265MPD2    H1 4066   0.230   3.702  15.355  1.9276  0.7055 -0.3262
  265MPD2    H2 4067   0.111   3.938  15.682 -0.5341  1.6294 -0.5920
  265MPD2    H3 4068   0.115   3.723  15.571 -2.3524  1.6277  0.1946
  265MPD2     N 4069   0.306   3.883  15.187  0.7532  0.0113 -0.1103
  265MPD2    H5 4070   0.304   3.787  15.154 -1.9039 -0.2099  0.7344
  265MPD2    N1 4071   0.189   4.176  15.549  0.4436 -0.2645 -0.7577
  265MPD2    H7 4072   0.219   4.247  15.483  0.6464  0.0245 -0.3573
  266TMC3    C1 4073   0.159   4.371  15.684 -0.5263  0.7786 -0.2411
  266TMC3    C2 4074   0.198   4.421  15.800  0.0809 -0.1945  0.1047
  266TMC3    C3 4075   0.193   4.560  15.820  0.3770 -0.0194 -0.1281
  266TMC3    C4 4076   0.104   4.442  15.585  0.5222 -0.0272 -0.2980
  266TMC3    C5 4077   0.095   4.582  15.613  0.4147  0.0417  0.3994
  266TMC3    C6 4078   0.146   4.644  15.724 -0.0223  0.7175 -0.1187
  266TMC3     C 4079   0.162   4.224  15.670 -1.1045  0.2288  0.3959
  266TMC3     O 4080   0.151   4.153  15.766 -0.2214 -0.5560  0.1028
  266TMC3     H 4081   0.236   4.353  15.875  0.0053 -0.4644 -0.1013
  266TMC3    H1 4082   0.061   4.419  15.488  0.2076  1.7328 -0.5734
  266TMC3    H2 4083   0.146   0.015  15.740  0.6338  0.6596  0.2738
  266TMC3    C7 4084   0.018   4.657  15.521  0.0075 -0.5691 -0.1680
  266TMC3    C8 4085   0.308   4.607  15.900 -0.2024  0.0966 -0.2129
  266TMC3    O1 4086   4.698   4.597  15.426 -0.4467  0.3794 -0.5258
  266TMC3    O2 4087   0.428   4.577  15.877 -0.1492  0.0111 -0.0048
  267MPD2     C 4088   2.936   1.700   0.130 -0.2982 -0.9027  0.1126
  267MPD2    C1 4089   2.909   1.574   0.085  0.7008  0.2602  0.4848
  267MPD2    C2 4090   2.801   1.546  17.741 -0.5734  0.4875  0.3485
  267MPD2    C3 4091   2.716   1.649  17.711  0.4582 -0.0598 -0.0129
  267MPD2    C4 4092   2.740   1.778   0.013  0.8327  0.3690  1.3857
  267MPD2    C5 4093   2.849   1.799   0.095 -0.3464 -0.3256  0.4829
  267MPD2     H 4094   2.780   1.450  17.695  1.7246 -0.9577  2.2958
  267MPD2    H1 4095   2.677   1.860  17.724  1.2162  0.0218 -0.2640
  267MPD2    H2 4096   3.028   1.723   0.182 -1.3748  1.1205  1.1240
  267MPD2    H3 4097   2.875   1.899   0.128  0.8187 -0.2231 -0.7598
  267MPD2     N 4098   2.598   1.630  17.629  0.6112 -0.1859  0.0977
  267MPD2    H5 4099   2.533   1.707  17.618 -0.6420 -0.5932  4.6489
  267MPD2    N1 4100   3.014   1.476   0.109 -0.1232 -0.3446 -0.2443
  267MPD2    H7 4101   3.106   1.507   0.138 -1.0187  1.9271  0.1565
  268TMC3    C1 4102   3.117   1.273   0.120  0.0950  0.0303  0.1100
  268TMC3    C2 4103   3.228   1.321   0.060  0.1112  0.0614  0.1947
  268TMC3    C3 4104   3.328   1.235   0.035  0.8429  0.2647  0.2879
  268TMC3    C4 4105   3.102   1.137   0.148 -0.2062  0.2222  0.3759
  268TMC3    C5 4106   3.198   1.045   0.117  0.3912 -0.5160 -0.6716
  268TMC3    C6 4107   3.317   1.099   0.064 -0.3966 -0.0925  0.1964
  268TMC3     C 4108   2.994   1.345   0.091 -0.1451  0.3797  0.4530
  268TMC3     O 4109   2.890   1.279   0.072 -0.5369 -0.4986  0.4506
  268TMC3     H 4110   3.246   1.424   0.031  2.7619  0.0354  1.7397
  268TMC3    H1 4111   3.010   1.105   0.196 -0.7172  2.5718  0.9479
  268TMC3    H2 4112   3.394   1.031   0.029 -1.3175  0.8346 -3.6266
  268TMC3    C7 4113   3.175   0.899   0.147 -0.0738  0.7254  0.3801
  268TMC3    C8 4114   3.453   1.275  17.705 -0.0160 -0.8025  0.0037
  268TMC3    O1 4115   3.096   0.871   0.235 -0.0402  0.6285 -0.3095
  268TMC3    O2 4116   3.554   1.200  17.711 -0.2488 -0.0213  0.0302
  269MPD2     C 4117   2.800   0.019  15.376 -0.3516 -0.0052  0.4951
  269MPD2    C1 4118   2.701   0.087  15.446 -0.4766  0.4560  1.0737
  269MPD2    C2 4119   2.689   0.222  15.426 -0.1303  1.2174  0.1654
  269MPD2    C3 4120   2.766   0.288  15.333  0.7735  0.3989  0.6423
  269MPD2    C4 4121   2.869   0.227  15.263 -0.1961 -0.3374 -0.4411
  269MPD2    C5 4122   2.881   0.090  15.286 -0.2695  0.1575 -1.5651
  269MPD2     H 4123   2.618   0.284  15.482 -0.8625 -0.8580  1.5229
  269MPD2    H1 4124   2.929   0.273  15.186 -1.5007  2.1187  0.0160
  269MPD2    H2 4125   2.811   4.648  15.387  0.4957 -0.1861 -1.9502
  269MPD2    H3 4126   2.958   0.038  15.230  0.9018  1.3811 -1.0856
  269MPD2     N 4127   2.725   0.422  15.310 -0.3193  0.2159 -0.1340
  269MPD2    H5 4128   2.651   0.460  15.368 -0.7507 -2.8583  1.3227
  269MPD2    N1 4129   2.619   0.013  15.532 -0.2673 -0.2254  0.5753
  269MPD2    H7 4130   2.636   4.649  15.529 -2.6681 -0.6420  1.2124
  270TMC3    C1 4131   2.445   4.688  15.666  0.1696 -0.5001 -0.2952
  270TMC3    C2 4132   2.314   4.683  15.638  0.2102 -0.7433  0.2849
  270TMC3    C3 4133   2.254   4.559  15.629  0.1571  0.6125 -0.0837
  270TMC3    C4 4134   2.521   4.575  15.689  0.5897 -1.1388 -0.5771
  270TMC3    C5 4135   2.460   4.455  15.689  1.2494 -0.4356  0.2028
  270TMC3    C6 4136   2.325   4.449  15.661  0.7295 -0.2774  0.1830
  270TMC3     C 4137   2.520   0.062  15.611 -0.1543 -0.3331 -1.2249
  270TMC3     O 4138   2.461   0.169  15.608 -0.3017  0.0906  0.3631
  270TMC3     H 4139   2.263   0.034  15.599  2.1276  0.5066  0.5955
  270TMC3    H1 4140   2.625   4.586  15.719  0.2729  0.3161 -0.0575
  270TMC3    H2 4141   2.283   4.351  15.640 -2.2129  0.5022  2.4876
  270TMC3    C7 4142   2.549   4.342  15.662  0.1305 -0.1699  0.4673
  270TMC3    C8 4143   2.159   4.539  15.531 -0.2679  0.2508 -0.2170
  270TMC3    O1 4144   2.658   4.374  15.617 -0.0067  0.4213  0.0618
  270TMC3    O2 4145   2.057   4.608  15.524  0.0742  0.1490  0.2917
  271MPD2     C 4146   1.970   4.140  13.749 -0.0522 -0.3054  0.4309
  271MPD2    C1 4147   1.899   4.206  13.853  0.0989 -0.4729  0.8248
  271MPD2    C2 4148   1.790   4.280  13.824  0.2245  0.4944  0.8160
  271MPD2    C3 4149   1.730   4.284  13.693 -0.3278  0.4321  0.6655
  271MPD2    C4 4150   1.794   4.212  13.594 -0.4678  0.0026 -0.1073
  271MPD2    C5 4151   1.908   4.145  13.622 -0.3544 -0.0506  0.3533
  271MPD2     H 4152   1.741   4.336  13.903  0.2933 -1.1816  2.0481
  271MPD2    H1 4153   1.759   4.203  13.491  0.0054 -1.4312 -0.1356
  271MPD2    H2 4154   2.058   4.078  13.765  0.4285  0.0484 -0.8398
  271MPD2    H3 4155   1.943   4.095  13.533  2.2634 -0.1651  1.4460
  271MPD2     N 4156   1.622   4.363  13.661 -0.6069 -0.0668  0.0300
  271MPD2    H5 4157   1.603   4.363  13.561 -0.9642  0.1100  0.0970
  271MPD2    N1 4158   1.936   4.187  13.991 -0.0119  0.1936 -0.1672
  271MPD2    H7 4159   1.870   4.228  14.056 -0.0644  0.6082 -0.4850
  272TMC3    C1 4160   2.034   4.082  14.181 -0.0354 -0.1790 -0.2829
  272TMC3    C2 4161   2.117   3.985  14.228  0.0163 -0.0500 -0.3548
  272TMC3    C3 4162   2.130   3.965  14.365  0.2277  0.2612  0.1205
  272TMC3    C4 4163   1.956   4.157  14.272  0.0346  0.4190 -0.5221
  272TMC3    C5 4164   1.985   4.134  14.406 -0.0098  0.2461 -0.0162
  272TMC3    C6 4165   2.075   4.042  14.461 -0.2546  0.3085  0.2131
  272TMC3     C 4166   2.038   4.107  14.035 -0.5960  0.3627 -0.5212
  272TMC3     O 4167   2.142   4.085  13.978  0.3404  0.3443 -0.0353
  272TMC3     H 4168   2.189   3.938  14.161 -1.9441  0.0130 -2.5289
  272TMC3    H1 4169   1.894   4.238  14.235 -1.5586 -1.1091 -1.1521
  272TMC3    H2 4170   2.076   4.020  14.567  0.8904 -0.8668 -0.0431
  272TMC3    C7 4171   1.925   4.228  14.496  0.4694 -0.8798 -0.3174
  272TMC3    C8 4172   2.248   3.892  14.398 -0.3227  0.1779 -0.6438
  272TMC3    O1 4173   1.828   4.289  14.453  0.0414  0.2343  0.8629
  272TMC3    O2 4174   2.302   3.824  14.310  0.1657  0.2899 -0.0503
  273MPD2     C 4175   3.423   2.463  11.537  0.2549 -0.0851 -0.1568
  273MPD2    C1 4176   3.499   2.579  11.524  0.4833  0.5527 -0.3112
  273MPD2    C2 4177   3.512   2.636  11.396  0.3174  0.4188  0.2874
  273MPD2    C3 4178   3.450   2.582  11.285 -0.0539  0.0052 -0.3349
  273MPD2    C4 4179   3.366   2.470  11.303  0.7391 -0.4177 -0.0509
  273MPD2    C5 4180   3.364   2.414  11.425 -0.7749 -0.7387  0.4543
  273MPD2     H 4181   3.549   2.738  11.396  3.2601 -0.6637  2.0983
  273MPD2    H1 4182   3.303   2.420  11.230 -4.2870  3.3660  1.6799
  273MPD2    H2 4183   3.390   2.420  11.631 -0.7867  1.1292  0.0291
  273MPD2    H3 4184   3.304   2.325  11.444 -0.7558 -1.0661 -1.0329
  273MPD2     N 4185   3.457   2.643  11.148  0.6660  0.0645 -0.8289
  273MPD2    H5 4186   3.404   2.592  11.078  0.6347  0.7229 -1.2766
  273MPD2    N1 4187   3.549   2.634  11.641  0.1007  0.5169  0.7248
  273MPD2    H7 4188   3.536   2.575  11.723 -0.4985 -1.0586 -0.5254
  274TMC3    C1 4189   3.539   2.786  10.974 -0.0140 -0.0166  0.1434
  274TMC3    C2 4190   3.415   2.805  10.923  0.3593 -0.7415 -0.0132
  274TMC3    C3 4191   3.407   2.914  10.836 -0.3372 -0.0349  0.1120
  274TMC3    C4 4192   3.642   2.881  10.960 -0.2411 -0.7375 -0.5920
  274TMC3    C5 4193   3.618   2.996  10.880  0.5530  0.4119 -0.8111
  274TMC3    C6 4194   3.504   3.002  10.814  0.0438  0.2331 -0.2317
  274TMC3     C 4195   3.535   2.755  11.109  0.0310  0.0588 -0.0761
  274TMC3     O 4196   3.606   2.815  11.193  0.3152 -0.3299  0.3656
  274TMC3     H 4197   3.328   2.741  10.939  0.8704 -0.9205  2.0976
  274TMC3    H1 4198   3.734   2.865  11.015 -0.4196 -1.7965 -0.6012
  274TMC3    H2 4199   3.478   3.103  10.785 -2.0427 -0.6560 -1.4777
  274TMC3    C7 4200   3.654   3.118  10.950  0.5576  0.5934 -0.4294
  274TMC3    C8 4201   3.278   2.935  10.776 -0.0278 -0.2499  0.5879
  274TMC3    O1 4202   3.648   3.223  10.885 -0.3240 -0.3792 -0.0513
  274TMC3    O2 4203   3.179   2.878  10.814  0.4731  0.1590 -0.5025
  275MPD2     C 4204   3.459   0.316  14.349 -0.1614 -1.0647  0.0416
  275MPD2    C1 4205   3.389   0.433  14.323 -1.1138  0.0218  0.1528
  275MPD2    C2 4206   3.252   0.428  14.311  0.1850  0.1043  0.4470
  275MPD2    C3 4207   3.190   0.303  14.317 -0.0357  0.1751 -0.0519
  275MPD2    C4 4208   3.258   0.192  14.355  0.5664 -0.0629  1.2425
  275MPD2    C5 4209   3.395   0.193  14.363 -0.0662 -0.1599 -0.2326
  275MPD2     H 4210   3.197   0.520  14.292 -0.5209 -0.4877 -0.3690
  275MPD2    H1 4211   3.216   0.092  14.350 -0.9993  0.6054  0.9123
  275MPD2    H2 4212   3.566   0.317  14.366  0.1851 -0.4102 -2.1218
  275MPD2    H3 4213   3.452   0.103  14.382  0.8029  0.2161 -1.0503
  275MPD2     N 4214   3.049   0.291  14.296 -0.0666 -0.4049 -0.4687
  275MPD2    H5 4215   3.016   0.196  14.312  0.8114 -0.3865  1.4577
  275MPD2    N1 4216   3.454   0.559  14.301  0.1916 -0.0866 -0.2549
  275MPD2    H7 4217   3.395   0.641  14.310 -1.4523 -1.3398  0.4455
  276TMC3    C1 4218   3.621   0.707  14.349 -0.0358 -0.3427 -0.9346
  276TMC3    C2 4219   3.540   0.776  14.430  0.3488 -0.1720  0.9176
  276TMC3    C3 4220   3.577   0.872  14.518 -0.4649 -1.0552  0.0910
  276TMC3    C4 4221   3.761   0.737  14.364  1.0289 -0.2196  0.0078
  276TMC3    C5 4222   3.794   0.837  14.452  0.7761  0.2472  0.4429
  276TMC3    C6 4223   3.710   0.910  14.532  0.2613 -0.0778 -0.0501
  276TMC3     C 4224   3.591   0.580  14.290  0.1624  0.3005  0.5316
  276TMC3     O 4225   3.685   0.500  14.271 -0.5749 -0.0397  0.2442
  276TMC3     H 4226   3.435   0.750  14.433  0.3928 -0.4704 -0.4222
  276TMC3    H1 4227   3.843   0.683  14.317 -0.1953 -1.9371 -0.1744
  276TMC3    H2 4228   3.747   0.985  14.601  1.1096  1.1400 -1.8226
  276TMC3    C7 4229   3.929   0.886  14.451  0.1387  0.0136 -0.9689
  276TMC3    C8 4230   3.502   0.856  14.642  0.0192  0.3334  0.5920
  276TMC3    O1 4231   3.977   0.908  14.337  0.1790  0.2037 -0.0787
  276TMC3    O2 4232   3.491   0.951  14.724  0.1852  0.0711  0.0874
  277MPD2     C 4233   0.206   4.354  12.964  0.0243  0.0204 -0.1664
  277MPD2    C1 4234   0.086   4.408  12.994 -0.1684 -0.1830  0.1965
  277MPD2    C2 4235   0.034   4.396  13.128 -0.1672  0.0526 -0.4590
  277MPD2    C3 4236   0.112   4.325  13.217 -0.8215 -0.1289  1.2129
  277MPD2    C4 4237   0.236   4.273  13.186  0.7475 -0.1198 -1.1510
  277MPD2    C5 4238   0.280   4.290  13.061  0.7789  0.3320 -0.0161
  277MPD2     H 4239   4.686   4.452  13.168  0.7607  1.8367 -1.0367
  277MPD2    H1 4240   0.313   4.230  13.249 -1.9215 -0.4967  1.8402
  277MPD2    H2 4241   0.242   4.356  12.862  0.3658  2.0684 -0.0147
  277MPD2    H3 4242   0.377   4.251  13.033  0.1785 -0.9770 -0.2710
  277MPD2     N 4243   0.071   4.340  13.354 -0.5273 -0.6832  0.3904
  277MPD2    H5 4244   4.712   4.373  13.364 -0.7930 -0.3921 -2.9207
  277MPD2    N1 4245   0.023   4.488  12.901  0.6081 -0.0181 -0.4606
  277MPD2    H7 4246   0.070   4.505  12.813  1.2879 -0.6267 -0.2214
  278TMC3    C1 4247   0.067   4.322  13.590 -0.3662  0.7153 -0.4084
  278TMC3    C2 4248   0.068   4.222  13.682  0.7372 -0.5442 -0.2194
  278TMC3    C3 4249   4.711   4.225  13.782 -0.9359 -0.6374 -0.0560
  278TMC3    C4 4250   4.710   4.420  13.589 -0.0947  0.0233  0.2397
  278TMC3    C5 4251   4.622   4.416  13.682 -0.0998  0.0878 -0.6789
  278TMC3    C6 4252   4.608   4.311  13.771  0.4792 -0.0470  0.1992
  278TMC3     C 4253   0.148   4.302  13.467  0.2938  0.2109  0.2814
  278TMC3     O 4254   0.238   4.217  13.464  0.0573 -0.0659  0.4241
  278TMC3     H 4255   0.144   4.144  13.677  0.3200 -0.9689 -0.0131
  278TMC3    H1 4256   4.719   4.504  13.521 -0.6876 -0.4563 -0.4454
  278TMC3    H2 4257   4.533   4.299  13.848 -0.8767  0.2940 -1.0661
  278TMC3    C7 4258   4.503   4.483  13.643  0.0159 -0.5883 -0.4432
  278TMC3    C8 4259   4.672   4.094  13.830 -0.0675 -0.0988  0.4155
  278TMC3    O1 4260   4.510   4.580  13.571  0.6517 -0.2983 -0.3886
  278TMC3    O2 4261   4.683   4.073  13.951 -0.3925 -0.1144 -0.3651
  279MPD2     C 4262   4.460   4.403   0.027 -0.5146  0.0101  0.2572
  279MPD2    C1 4263   4.377   4.316  17.710  0.5418 -0.2906  0.3350
  279MPD2    C2 4264   4.383   4.293  17.577  0.5188  0.2767  0.5061
  279MPD2    C3 4265   4.477   4.357  17.494  0.3091  0.0792  0.5617
  279MPD2    C4 4266   4.559   4.449  17.553  0.0798 -0.3513  0.0196
  279MPD2    C5 4267   4.554   4.466  17.689  0.6747 -0.0901  0.6769
  279MPD2     H 4268   4.314   4.221  17.535 -0.7098  2.5539 -1.4264
  279MPD2    H1 4269   4.622   4.511  17.490 -0.8058  1.1434  0.5984
  279MPD2    H2 4270   4.449   4.426   0.132 -1.9884  2.1094 -0.3376
  279MPD2    H3 4271   4.615   4.547  17.725 -1.0052  1.9851 -1.1446
  279MPD2     N 4272   4.482   4.347  17.350  0.2621  0.0786  0.0701
  279MPD2    H5 4273   4.537   4.421  17.308 -0.4530  0.2320 -0.5857
  279MPD2    N1 4274   4.263   4.280   0.038 -0.0516 -0.4492 -0.3875
  279MPD2    H7 4275   4.242   4.326   0.126  2.0749  1.0560 -0.6669
  280TMC3    C1 4276   4.043   4.184   0.031  0.5678 -0.0746  0.8007
  280TMC3    C2 4277   3.971   4.074  17.727  0.2738  0.0597 -0.5330
  280TMC3    C3 4278   3.844   4.096  17.672 -0.5667  0.7507  0.5149
  280TMC3    C4 4279   3.998   4.313   0.009 -0.0295  0.1697 -0.1084
  280TMC3    C5 4280   3.876   4.329  17.695  0.0275 -0.2718  0.4725
  280TMC3    C6 4281   3.801   4.225  17.648  0.3356 -0.3011 -0.6693
  280TMC3     C 4282   4.180   4.174  17.741 -0.0670  0.3495  0.1072
  280TMC3     O 4283   4.205   4.083  17.663 -0.3437  0.5231 -0.9016
  280TMC3     H 4284   4.009   3.973  17.720  0.5029  0.3055 -2.8504
  280TMC3    H1 4285   4.063   4.394   0.039  2.0659 -0.9368 -1.6612
  280TMC3    H2 4286   3.700   4.250  17.617  0.5190  0.5055 -0.6135
  280TMC3    C7 4287   3.847   4.457  17.635  0.2028 -0.5758 -0.1537
  280TMC3    C8 4288   3.771   3.975  17.630  0.1440 -0.0094 -1.3477
  280TMC3    O1 4289   3.912   4.551  17.680 -0.0340  0.3875  0.1283
  280TMC3    O2 4290   3.777   3.879  17.707  0.2391  1.4494 -0.3881
  281TMC3    C1 4291   3.314   4.281  13.272  1.0349 -0.1029  0.7076
  281TMC3    C2 4292   3.383   4.361  13.194  0.0959 -0.2308 -1.0183
  281TMC3    C3 4293   3.407   4.334  13.060  0.1155  0.4648  0.3152
  281TMC3    C4 4294   3.259   4.163  13.215  0.6334  0.8268 -0.3019
  281TMC3    C5 4295   3.284   4.140  13.081  0.5222  0.1985  0.3704
  281TMC3    C6 4296   3.362   4.223  13.002  0.0965  0.9044 -0.3856
  281TMC3     C 4297   3.216   4.338  13.365 -0.1395 -0.1434  0.1638
  281TMC3     O 4298   3.160   4.246  13.425  0.1644  0.2597 -0.3127
  281TMC3     H 4299   3.427   4.446  13.245  2.5538 -1.5630 -0.9026
  281TMC3    H1 4300   3.203   4.091  13.274  0.9182 -1.0592 -2.3139
  281TMC3    H2 4301   3.388   4.208  12.898  1.2063 -1.1386  0.1929
  281TMC3    C7 4302   3.186   4.064  13.010 -0.2774  0.7053 -0.5505
  281TMC3    C8 4303   3.499   4.427  12.994 -0.4842 -0.3719  0.5636
  281TMC3    O1 4304   3.229   3.992  12.918 -0.4748 -0.1262  0.0375
  281TMC3    O2 4305   3.601   4.369  12.960 -0.6933  0.3914 -0.6043
  282MPD2     C 4306   0.449   1.337  14.668 -0.9476  0.3371 -0.3618
  282MPD2    C1 4307   0.308   1.349  14.682  0.0488  0.4804 -0.1204
  282MPD2    C2 4308   0.231   1.332  14.567 -0.3602  0.1628 -0.8393
  282MPD2    C3 4309   0.287   1.308  14.441  0.3643 -0.9703 -0.0975
  282MPD2    C4 4310   0.420   1.280  14.435  0.9735  0.4188 -0.0682
  282MPD2    C5 4311   0.502   1.292  14.548  0.0155  0.4131  0.7174
  282MPD2     H 4312   0.124   1.350  14.571 -0.1903  0.9130  0.2612
  282MPD2    H1 4313   0.477   1.250  14.348  0.3739  5.1288 -2.1008
  282MPD2    H2 4314   0.512   1.344  14.755 -0.1404 -0.4070 -0.8931
  282MPD2    H3 4315   0.607   1.268  14.541 -0.0062  1.0186 -1.7476
  282MPD2     N 4316   0.204   1.306  14.327 -0.4907  0.0842 -0.7073
  282MPD2    H5 4317   0.103   1.312  14.332 -0.4824 -0.4660  0.2902
  282MPD2    N1 4318   0.241   1.363  14.808 -0.3134  0.4515 -0.4196
  282MPD2    H7 4319   0.140   1.369  14.795 -0.2060 -1.4022 -2.2955
  283TMC3    C1 4320   0.198   1.413  15.037  0.7325 -0.6199  0.0499
  283TMC3    C2 4321   0.249   1.523  15.106  0.6483 -0.7351 -0.2080
  283TMC3    C3 4322   0.229   1.521  15.238 -0.5484  0.0175  0.2004
  283TMC3    C4 4323   0.157   1.299  15.105  0.0057  0.6522 -0.0513
  283TMC3    C5 4324   0.158   1.302  15.242  0.4988  0.3492  0.5925
  283TMC3    C6 4325   0.187   1.417  15.315  0.0008  0.0805  0.0735
  283TMC3     C 4326   0.295   1.387  14.929  0.1394 -0.1172 -0.0789
  283TMC3     O 4327   0.409   1.409  14.959 -0.2689 -0.0067 -0.3064
  283TMC3     H 4328   0.302   1.599  15.049  0.4131  0.5713  1.3164
  283TMC3    H1 4329   0.135   1.211  15.046 -0.6066  1.0407 -0.4062
  283TMC3    H2 4330   0.213   1.417  15.420 -0.4969 -0.9511  0.1994
  283TMC3    C7 4331   0.110   1.186  15.318  0.5025  0.3172 -0.2116
  283TMC3    C8 4332   0.262   1.641  15.311  0.6477  0.5384 -0.1091
  283TMC3    O1 4333   0.121   1.207  15.434  0.4328 -0.3114 -0.4347
  283TMC3    O2 4334   0.313   1.626  15.418 -0.2359  0.4530 -0.2875
  284MPD2     C 4335   2.810   0.637  12.213 -0.4369  0.1168  0.0798
  284MPD2    C1 4336   2.925   0.666  12.150 -0.3913 -0.6132  0.0528
  284MPD2    C2 4337   3.029   0.579  12.174  0.3394  0.0948  0.5751
  284MPD2    C3 4338   3.022   0.471  12.260 -0.2826 -0.6276 -0.3792
  284MPD2    C4 4339   2.902   0.440  12.318 -0.1837 -0.1874 -0.7839
  284MPD2    C5 4340   2.798   0.533  12.300 -0.0301 -0.0382 -0.9850
  284MPD2     H 4341   3.127   0.602  12.134 -0.7823  1.3060 -1.5116
  284MPD2    H1 4342   2.888   0.350  12.376  0.8555  0.6519  0.7602
  284MPD2    H2 4343   2.729   0.706  12.188 -1.9298 -2.0474 -1.0404
  284MPD2    H3 4344   2.705   0.507  12.348  1.1342  0.5632  1.5716
  284MPD2     N 4345   3.141   0.406  12.280 -0.5570  0.0593 -0.5765
  284MPD2    H5 4346   3.218   0.440  12.223 -0.5916  1.2366  0.0961
  284MPD2    N1 4347   2.952   0.776  12.067 -0.3931  0.2891  0.0245
  284MPD2    H7 4348   3.047   0.788  12.033  0.1337  2.4260  2.2413
  285TMC3    C1 4349   2.929   0.964  11.946  0.4901 -0.3892 -0.7861
  285TMC3    C2 4350   3.041   0.923  11.875 -0.5007  1.0384  0.2280
  285TMC3    C3 4351   3.095   1.001  11.783 -0.1756  0.1347  0.4700
  285TMC3    C4 4352   2.862   1.078  11.910  0.1760  0.4734 -0.2817
  285TMC3    C5 4353   2.921   1.159  11.823 -0.2137 -0.0013 -0.3648
  285TMC3    C6 4354   3.035   1.120  11.753 -0.6962  0.1737  0.2861
  285TMC3     C 4355   2.870   0.879  12.040 -0.7976 -0.1585  0.3353
  285TMC3     O 4356   2.757   0.908  12.077 -0.2982  0.3436  0.0337
  285TMC3     H 4357   3.086   0.825  11.884  0.0412  0.9995 -2.6646
  285TMC3    H1 4358   2.774   1.099  11.969  0.3847 -2.0009  0.9380
  285TMC3    H2 4359   3.069   1.187  11.675  1.1369 -0.7473  0.2742
  285TMC3    C7 4360   2.837   1.259  11.760  0.0095 -0.4548 -0.4616
  285TMC3    C8 4361   3.200   0.940  11.709  0.6448  0.1958 -0.5898
  285TMC3    O1 4362   2.893   1.322  11.669 -0.0421  0.2910  0.3449
  285TMC3    O2 4363   3.250   0.829  11.738  0.4393  0.0755  0.1903
  286MPD2     C 4364   3.550   3.994   1.241  0.3318  0.5307  0.0144
  286MPD2    C1 4365   3.491   3.938   1.134 -0.1256 -0.5224  0.4522
  286MPD2    C2 4366   3.521   3.805   1.114 -0.3725 -0.0525  0.3834
  286MPD2    C3 4367   3.627   3.742   1.180  0.1643  0.2990  0.4508
  286MPD2    C4 4368   3.684   3.798   1.293 -0.6888 -0.0334 -0.9205
  286MPD2    C5 4369   3.646   3.927   1.311  1.0913  0.0742 -0.1889
  286MPD2     H 4370   3.469   3.756   1.032 -0.6825  1.5581 -0.3721
  286MPD2    H1 4371   3.754   3.756   1.364 -0.9032 -0.1433 -0.7745
  286MPD2    H2 4372   3.542   4.097   1.273 -2.5964  0.0100  0.9395
  286MPD2    H3 4373   3.685   3.991   1.389  1.8804 -1.1421  0.4143
  286MPD2     N 4374   3.684   3.621   1.137  0.0215 -0.3842  0.5780
  286MPD2    H5 4375   3.746   3.563   1.191 -0.7320 -0.7622  1.0349
  286MPD2    N1 4376   3.395   3.996   1.045  0.4989 -0.3722 -0.4500
  286MPD2    H7 4377   3.372   3.945   0.960 -1.9114  0.2989 -0.2026
  287TMC3    C1 4378   3.712   3.426   1.002  0.5810  0.1347 -0.0140
  287TMC3    C2 4379   3.645   3.343   0.920  0.1983 -0.4371 -0.1186
  287TMC3    C3 4380   3.709   3.235   0.859  0.4110  0.7968 -1.0162
  287TMC3    C4 4381   3.852   3.419   1.025  0.5034 -0.0259  0.0222
  287TMC3    C5 4382   3.912   3.307   0.968  0.0544 -0.0697 -0.2313
  287TMC3    C6 4383   3.843   3.215   0.890 -0.2069  0.0679 -0.2708
  287TMC3     C 4384   3.649   3.559   1.018 -0.1829 -0.3739  0.2359
  287TMC3     O 4385   3.565   3.589   0.933  0.1619 -0.4691 -0.2346
  287TMC3     H 4386   3.538   3.358   0.910  0.2424  0.5364  0.8905
  287TMC3    H1 4387   3.897   3.490   1.093  0.6682  0.1711 -0.2931
  287TMC3    H2 4388   3.894   3.133   0.842 -1.3018  0.0237 -1.3710
  287TMC3    C7 4389   4.044   3.293   1.017 -0.0387  1.5446 -0.1993
  287TMC3    C8 4390   3.655   3.178   0.742 -0.4528  0.3065  0.8626
  287TMC3    O1 4391   4.061   3.318   1.134 -0.9402  0.6389 -0.2414
  287TMC3    O2 4392   3.708   3.087   0.679 -0.2664  0.3437 -0.1163
  288TMC3    C1 4393   0.652   3.916  14.294 -0.1827  0.0750  0.8234
  288TMC3    C2 4394   0.526   3.942  14.326 -0.7398 -0.2807  0.2681
  288TMC3    C3 4395   0.454   4.040  14.259  0.1423 -0.3203  0.1448
  288TMC3    C4 4396   0.712   3.993  14.201 -0.6442 -0.6238  0.7112
  288TMC3    C5 4397   0.646   4.105  14.145 -0.2194 -0.4838  0.1180
  288TMC3    C6 4398   0.510   4.130  14.179  0.1422 -0.2140 -0.1279
  288TMC3     C 4399   0.735   3.828  14.390  0.8356  0.1057  0.6080
  288TMC3     O 4400   0.675   3.783  14.488 -0.3016 -0.1398 -0.4516
  288TMC3     H 4401   0.494   3.909  14.424 -3.3400 -0.4182 -0.6224
  288TMC3    H1 4402   0.817   3.980  14.174 -0.2179  2.8510  0.5623
  288TMC3    H2 4403   0.446   4.202  14.131  0.3106 -0.5957 -0.9219
  288TMC3    C7 4404   0.714   4.174  14.037 -0.4353  0.1932 -0.4411
  288TMC3    C8 4405   0.341   4.095  14.332 -0.9800 -0.7872 -0.8588
  288TMC3    O1 4406   0.794   4.109  13.964  0.2019 -0.0352 -0.1235
  288TMC3    O2 4407   0.332   4.215  14.343  0.4561 -0.2661  0.0998
  289MPD2     C 4408   0.015   2.959  14.416 -0.8039 -0.5189 -0.0680
  289MPD2    C1 4409   0.060   3.043  14.319 -1.1764  0.0585  0.1883
  289MPD2    C2 4410   4.728   3.043  14.199 -0.3201 -0.0342  0.1201
  289MPD2    C3 4411   4.608   2.968  14.182  0.1056 -0.2880  0.3566
  289MPD2    C4 4412   4.576   2.873  14.277 -0.3236  0.0505  0.8442
  289MPD2    C5 4413   4.649   2.868  14.392  0.5500  0.4822  0.2277
  289MPD2     H 4414   0.016   3.120  14.127 -2.1830 -0.7753 -1.3113
  289MPD2    H1 4415   4.498   2.798  14.270 -1.2753  0.9957  1.2930
  289MPD2    H2 4416   0.068   2.947  14.510 -1.7894  0.0537  0.5611
  289MPD2    H3 4417   4.641   2.782  14.458 -1.2139  1.3986  1.1886
  289MPD2     N 4418   4.519   2.983  14.074 -0.0991  0.3539 -0.1059
  289MPD2    H5 4419   4.431   2.932  14.074  0.0289  0.1379  0.2960
  289MPD2    N1 4420   0.176   3.127  14.351  0.4897 -0.0345  0.1901
  289MPD2    H7 4421   0.211   3.123  14.446 -0.6601 -0.5182  0.5901
  290TMC3    C1 4422   4.421   3.103  13.885 -0.0145  0.6365 -0.3690
  290TMC3    C2 4423   4.401   3.225  13.836  0.2148  0.2541 -0.4150
  290TMC3    C3 4424   4.279   3.246  13.771  1.2267 -0.2471  0.0671
  290TMC3    C4 4425   4.331   3.003  13.881  0.3349  0.0287 -0.0181
  290TMC3    C5 4426   4.214   3.030  13.811 -0.1071 -0.2294 -1.1008
  290TMC3    C6 4427   4.185   3.151  13.760 -0.2043 -0.2697 -0.1167
  290TMC3     C 4428   4.537   3.078  13.969  0.3793  0.0149 -0.5695
  290TMC3     O 4429   4.630   3.156  13.951 -0.3319  0.0790  0.2796
  290TMC3     H 4430   4.482   3.296  13.853  1.2450 -0.7121 -1.3271
  290TMC3    H1 4431   4.356   2.899  13.895 -3.1405 -0.8243 -0.0348
  290TMC3    H2 4432   4.093   3.166  13.705 -0.6117 -1.4145  0.2575
  290TMC3    C7 4433   4.112   2.925  13.791 -0.3098 -0.1991 -0.1765
  290TMC3    C8 4434   4.259   3.376  13.710 -0.2651 -0.0893 -0.0530
  290TMC3    O1 4435   4.013   2.964  13.727  0.2059 -0.4436 -0.2245
  290TMC3    O2 4436   4.197   3.366  13.605  0.3288 -0.1888  0.3199
  291MPD2     C 4437   4.133   2.952   0.119 -0.0258  0.7681 -0.3451
  291MPD2    C1 4438   4.253   2.891   0.153 -0.4372  0.2519 -0.3481
  291MPD2    C2 4439   4.374   2.955   0.138 -0.4199 -0.6986 -0.0361
  291MPD2    C3 4440   4.373   3.089   0.086 -0.0043 -0.1980  0.4944
  291MPD2    C4 4441   4.252   3.148   0.060 -0.1577  0.0556 -0.5895
  291MPD2    C5 4442   4.135   3.080   0.073  0.0829  0.4448 -0.1580
  291MPD2     H 4443   4.468   2.908   0.167 -1.0848 -2.2675 -0.4280
  291MPD2    H1 4444   4.238   3.254   0.041  0.5097  0.0226 -1.2779
  291MPD2    H2 4445   4.036   2.903   0.109 -0.1638  1.0202 -0.2439
  291MPD2    H3 4446   4.041   3.128   0.046  0.2781  2.3818  2.4917
  291MPD2     N 4447   4.485   3.171   0.063 -0.1951  0.1605  0.3984
  291MPD2    H5 4448   4.468   3.252   0.003  0.6061 -0.8270 -1.1589
  291MPD2    N1 4449   4.262   2.757   0.188  0.5102  0.0933 -0.3020
  291MPD2    H7 4450   4.359   2.726   0.186  1.2317  2.3869 -0.7641
  292TMC3    C1 4451   4.218   2.535   0.245 -0.7678 -0.6055 -0.2322
  292TMC3    C2 4452   4.300   2.535   0.356  0.4368  0.7412  0.2649
  292TMC3    C3 4453   4.333   2.415   0.413  0.3731  0.1095  0.0312
  292TMC3    C4 4454   4.171   2.419   0.195  0.0411 -0.3009 -0.0273
  292TMC3    C5 4455   4.220   2.305   0.247 -0.1195  0.0996 -0.3227
  292TMC3    C6 4456   4.307   2.297   0.354 -0.5705 -0.3792  0.1490
  292TMC3     C 4457   4.168   2.661   0.194 -0.2028  0.2379 -0.1242
  292TMC3     O 4458   4.059   2.664   0.145  0.3091 -0.0539 -0.2173
  292TMC3     H 4459   4.328   2.621   0.416 -0.7742  0.4200  1.2869
  292TMC3    H1 4460   4.120   2.416   0.099  0.5975 -0.3164 -0.3213
  292TMC3    H2 4461   4.343   2.208   0.404 -1.2054 -0.7173 -0.0038
  292TMC3    C7 4462   4.208   2.171   0.185 -0.2224 -0.3899  0.5954
  292TMC3    C8 4463   4.352   2.428   0.559  0.5308 -0.0748 -0.2429
  292TMC3    O1 4464   4.296   2.091   0.214  0.0341  0.1098 -0.0008
  292TMC3    O2 4465   4.402   2.529   0.609  0.1789 -0.3063 -0.0851
  293MPD2     C 4466   1.881   3.894  12.535 -0.0114 -0.4663  0.1735
  293MPD2    C1 4467   1.747   3.927  12.519 -0.7424 -0.0975 -0.1351
  293MPD2    C2 4468   1.672   3.943  12.637 -0.2720 -0.3030  0.5613
  293MPD2    C3 4469   1.737   3.944  12.761  0.1459  0.0806  0.1002
  293MPD2    C4 4470   1.869   3.928  12.774 -0.2841 -0.0899  0.1896
  293MPD2    C5 4471   1.939   3.902  12.658  0.0509  0.3967 -0.0326
  293MPD2     H 4472   1.565   3.962  12.638 -0.3727 -0.8958  1.0134
  293MPD2    H1 4473   1.919   3.934  12.870  0.7313 -1.8354 -0.2212
  293MPD2    H2 4474   1.929   3.851  12.447  4.2692  1.6269  1.4654
  293MPD2    H3 4475   2.043   3.879  12.681 -0.0858  1.1329  1.3372
  293MPD2     N 4476   1.653   3.967  12.873  0.2118 -0.1589  0.2774
  293MPD2    H5 4477   1.557   3.994  12.857  0.3243  0.6733  0.9941
  293MPD2    N1 4478   1.690   3.915  12.395 -0.1178 -0.5734  0.3163
  293MPD2    H7 4479   1.736   3.864  12.321  0.3635  1.2479 -0.6392
  294TMC3    C1 4480   1.518   3.937  12.236 -0.2659 -0.3737  0.0813
  294TMC3    C2 4481   1.381   3.948  12.219 -0.5262  0.2440  1.2500
  294TMC3    C3 4482   1.327   3.930  12.095  0.6091  0.1369 -0.6689
  294TMC3    C4 4483   1.600   3.879  12.142 -0.4705 -0.3294  0.1887
  294TMC3    C5 4484   1.542   3.861  12.019  0.2807 -0.3727  0.9241
  294TMC3    C6 4485   1.412   3.898  11.994 -0.6628 -0.0438  0.2162
  294TMC3     C 4486   1.570   3.977  12.364 -0.1956  0.4445 -0.5195
  294TMC3     O 4487   1.502   4.053  12.431  0.6868  0.2641  0.5070
  294TMC3     H 4488   1.319   3.983  12.301  2.0031  0.9122  2.8850
  294TMC3    H1 4489   1.700   3.841  12.161  0.6024  3.0429  1.2925
  294TMC3    H2 4490   1.377   3.886  11.892  1.8536 -2.0272 -0.4102
  294TMC3    C7 4491   1.603   3.771  11.924  0.4013  0.1256 -0.5433
  294TMC3    C8 4492   1.189   3.890  12.083 -0.3880  0.5426  1.0045
  294TMC3    O1 4493   1.574   3.781  11.807 -0.4365 -0.2556  0.2243
  294TMC3    O2 4494   1.115   3.932  12.172 -0.3561  0.6237 -0.2430
  295MPD2     C 4495   2.311   2.477   0.454 -0.2944 -0.2315  0.1593
  295MPD2    C1 4496   2.187   2.422   0.473  0.5365 -0.1563 -0.6500
  295MPD2    C2 4497   2.170   2.305   0.544 -0.7912 -1.0340  0.0578
  295MPD2    C3 4498   2.287   2.250   0.600 -0.2099  0.3625  0.4728
  295MPD2    C4 4499   2.412   2.311   0.585  0.7130 -0.3136  0.5148
  295MPD2    C5 4500   2.422   2.422   0.508  0.8646 -0.0581 -0.2870
  295MPD2     H 4501   2.067   2.276   0.558  0.2333 -3.8943  1.8535
  295MPD2    H1 4502   2.497   2.263   0.631  0.8511 -0.5905 -0.0300
  295MPD2    H2 4503   2.318   2.567   0.392 -1.0931 -0.0921  0.2753
  295MPD2    H3 4504   2.519   2.467   0.488  1.3787 -1.0666 -0.0694
  295MPD2     N 4505   2.276   2.130   0.682  0.3009  0.7644 -0.2962
  295MPD2    H5 4506   2.364   2.096   0.719 -0.8510 -1.5737  0.3009
  295MPD2    N1 4507   2.061   2.474   0.418  0.1393  0.1419  0.1269
  295MPD2    H7 4508   1.980   2.413   0.421  0.0981  0.2445  1.3742
  296TMC3    C1 4509   2.187   1.968   0.819 -0.0622 -0.1357 -0.2586
  296TMC3    C2 4510   2.082   1.935   0.903 -0.1458 -0.3680 -0.0124
  296TMC3    C3 4511   2.117   1.874   1.021  0.2265  0.2791 -0.6042
  296TMC3    C4 4512   2.315   1.916   0.831 -0.3343 -0.2414  0.5380
  296TMC3    C5 4513   2.340   1.836   0.943 -0.1323 -0.9243  0.4634
  296TMC3    C6 4514   2.242   1.810   1.035  0.9656 -0.0280  0.4926
  296TMC3     C 4515   2.158   2.077   0.724 -0.4645  0.5742 -0.1461
  296TMC3     O 4516   2.046   2.124   0.719 -0.1013  0.3656 -0.0891
  296TMC3     H 4517   1.987   1.986   0.905  0.0283 -0.1126  1.9286
  296TMC3    H1 4518   2.382   1.928   0.747 -0.6747  0.3079  0.3452
  296TMC3    H2 4519   2.266   1.769   1.132  1.2633 -0.7509  0.1149
  296TMC3    C7 4520   2.472   1.772   0.952  0.4857  0.2460  0.2022
  296TMC3    C8 4521   2.081   1.938   1.148  0.3631 -0.2714 -0.6626
  296TMC3    O1 4522   2.556   1.801   0.869  0.0682 -0.1647  0.7164
  296TMC3    O2 4523   2.098   1.877   1.251  0.6800  0.2967 -0.6733
  297MPD2     C 4524   3.875   0.009  16.282  0.2627 -0.2527 -0.1631
  297MPD2    C1 4525   3.862   0.106  16.178 -0.7802 -0.8148 -0.1915
  297MPD2    C2 4526   3.965   0.192  16.155  0.7441 -0.3008 -0.3796
  297MPD2    C3 4527   4.084   0.194  16.226  0.1048 -0.5868  0.1306
  297MPD2    C4 4528   4.104   0.101  16.329 -0.3037 -0.0673 -0.5250
  297MPD2    C5 4529   3.992   0.020  16.353 -0.2035  0.0383  0.2459
  297MPD2     H 4530   3.951   0.278  16.090 -2.2673  0.3554  1.1303
  297MPD2    H1 4531   4.194   0.096  16.388 -1.0936  3.5535  1.0378
  297MPD2    H2 4532   3.801   4.676  16.319 -0.3168 -0.8949 -2.5449
  297MPD2    H3 4533   3.998   4.688  16.437  0.0311  1.3061  1.2525
  297MPD2     N 4534   4.185   0.292  16.189  0.7533  0.3570  0.2281
  297MPD2    H5 4535   4.172   0.347  16.106  0.8497 -1.5657 -1.0676
  297MPD2    N1 4536   3.754   0.126  16.089  0.0147  0.4252  0.2207
  297MPD2    H7 4537   3.761   0.204  16.024  0.1313 -0.1225 -0.4218
  298TMC3    C1 4538   3.546   0.108  15.984 -0.0857  0.8243 -0.2176
  298TMC3    C2 4539   3.604   0.138  15.867  0.0381 -0.0037 -0.3220
  298TMC3    C3 4540   3.527   0.205  15.778 -0.2588 -0.1089  0.1358
  298TMC3    C4 4541   3.429   0.153  16.019 -0.0020 -0.3099 -0.5290
  298TMC3    C5 4542   3.353   0.225  15.928 -0.0096  0.2343  0.1250
  298TMC3    C6 4543   3.405   0.258  15.805 -0.5819  0.5951 -0.4110
  298TMC3     C 4544   3.624   0.073  16.102  0.3306  0.1625  0.4853
  298TMC3     O 4545   3.568   4.727  16.169  0.2855  0.7232 -0.4402
  298TMC3     H 4546   3.706   0.110  15.843 -0.7730 -3.0339 -0.2142
  298TMC3    H1 4547   3.389   0.136  16.119 -0.4920 -1.7719 -0.9729
  298TMC3    H2 4548   3.349   0.308  15.727 -1.6798 -2.7942 -1.8344
  298TMC3    C7 4549   3.253   0.304  15.981  0.3835  0.5940 -0.0199
  298TMC3    C8 4550   3.582   0.211  15.647 -0.3641  0.1508 -0.1800
  298TMC3    O1 4551   3.233   0.294  16.101  0.2865 -0.2296  0.3214
  298TMC3    O2 4552   3.667   0.124  15.628  0.3103  0.4641  0.0346
  299MPD2     C 4553   3.852   4.529  10.159 -0.4116 -0.3210 -0.3675
  299MPD2    C1 4554   3.820   4.660  10.140 -0.0828  0.4332  0.9331
  299MPD2    C2 4555   3.688   4.696  10.142 -0.1554 -0.1470 -0.0182
  299MPD2    C3 4556   3.597   4.596  10.167 -0.5806  0.8676  1.3516
  299MPD2    C4 4557   3.630   4.472  10.209 -0.0229 -0.3663 -0.0721
  299MPD2    C5 4558   3.756   4.434  10.199 -0.0669 -0.8344  0.0055
  299MPD2     H 4559   3.652   0.060  10.122  1.1976 -0.0022 -1.7084
  299MPD2    H1 4560   3.557   4.394  10.222 -0.5477 -0.0734 -1.2573
  299MPD2    H2 4561   3.955   4.501  10.144  0.0891  0.3975  1.7289
  299MPD2    H3 4562   3.789   4.333  10.221  2.2399 -0.3566 -1.2629
  299MPD2     N 4563   3.462   4.619  10.160 -0.7103  0.1847 -0.2546
  299MPD2    H5 4564   3.402   4.541  10.180 -0.7454 -0.3542 -2.4674
  299MPD2    N1 4565   3.928   0.010  10.135 -0.2948  0.5922  0.8728
  299MPD2    H7 4566   4.020   4.710  10.159  0.4436  0.9561 -1.4244
  300TMC3    C1 4567   3.281   0.031  10.206  0.2230 -0.3685  0.8985
  300TMC3    C2 4568   3.235   0.157  10.192 -0.1677 -0.2453  0.5250
  300TMC3    C3 4569   3.190   0.230  10.296  0.9173  0.1730 -0.0789
  300TMC3    C4 4570   3.278   4.704  10.326 -0.1413  0.2644  0.7598
  300TMC3    C5 4571   3.224   0.047  10.433 -0.1868  0.1129  0.0969
  300TMC3    C6 4572   3.188   0.176  10.425  0.3627 -0.3185  0.3669
  300TMC3     C 4573   3.392   4.728  10.120  0.1350 -0.6638 -0.8421
  300TMC3     O 4574   3.435   0.074  10.045  0.1706  0.2358 -0.1281
  300TMC3     H 4575   3.231   0.203  10.094  2.9539 -0.7248  0.1585
  300TMC3    H1 4576   3.302   4.600  10.344  0.3253  0.5643  1.8214
  300TMC3    H2 4577   3.153   0.232  10.511  0.7672  0.4794  0.0069
  300TMC3    C7 4578   3.225   4.712  10.561  0.2686 -0.6221 -0.3516
  300TMC3    C8 4579   3.178   0.373  10.285  0.2006 -0.1721  1.0194
  300TMC3    O1 4580   3.163   4.606  10.556 -0.0338  0.5877  0.0512
  300TMC3    O2 4581   3.126   0.418  10.186 -0.3021  0.1307  0.3369
  301MPD2     C 4582   2.220   1.177   1.059 -0.7613  0.0603  0.2648
  301MPD2    C1 4583   2.093   1.131   1.035 -0.2102  0.5248  0.0908
  301MPD2    C2 4584   2.073   1.000   1.008  0.2927  0.2912  0.4075
  301MPD2    C3 4585   2.184   0.908   1.021 -0.7960  0.0779  0.8877
  301MPD2    C4 4586   2.309   0.958   1.055 -0.8454  0.3362 -0.5901
  301MPD2    C5 4587   2.322   1.091   1.071  0.0571  0.4183 -0.8456
  301MPD2     H 4588   1.967   0.984   1.000  0.2621 -0.8156  2.9865
  301MPD2    H1 4589   2.395   0.893   1.072 -2.5161 -1.4351  0.9925
  301MPD2    H2 4590   2.242   1.280   1.086 -0.5255  0.1716 -0.3628
  301MPD2    H3 4591   2.418   1.125   1.110  0.3619 -0.1986 -1.0661
  301MPD2     N 4592   2.166   0.768   0.996 -0.5233 -0.0216  0.5508
  301MPD2    H5 4593   2.253   0.716   1.004 -0.0736  0.6581  0.0647
  301MPD2    N1 4594   1.977   1.214   1.020 -0.3731 -0.4534  0.1603
  301MPD2    H7 4595   1.887   1.168   1.030  0.5220 -2.2065  0.2699
  302TMC3    C1 4596   2.065   0.571   0.934 -0.3408 -0.3964  0.0714
  302TMC3    C2 4597   2.126   0.494   1.031 -0.4519  0.0547  0.3278
  302TMC3    C3 4598   2.123   0.362   1.024 -0.4634  0.1953  0.1532
  302TMC3    C4 4599   1.977   0.519   0.846  0.3165  0.5687  0.3140
  302TMC3    C5 4600   1.970   0.386   0.841 -0.2009  0.7054  0.2643
  302TMC3    C6 4601   2.050   0.305   0.919 -0.3346 -0.4270 -0.8459
  302TMC3     C 4602   2.059   0.715   0.940  0.2562  0.0468  0.5288
  302TMC3     O 4603   1.974   0.770   0.874  0.1892  0.1505  0.5089
  302TMC3     H 4604   2.181   0.540   1.112  1.0333 -1.0857 -0.0201
  302TMC3    H1 4605   1.968   0.580   0.757  0.3625 -0.1373 -0.1786
  302TMC3    H2 4606   2.035   0.197   0.922  1.0528 -0.6026 -0.2273
  302TMC3    C7 4607   1.900   0.325   0.729 -0.4544  0.4622  1.3246
  302TMC3    C8 4608   2.206   0.274   1.101 -0.4573  0.2978 -0.4709
  302TMC3    O1 4609   1.935   0.213   0.695 -0.1133 -0.1044  0.2189
  302TMC3    O2 4610   2.186   0.155   1.090 -0.0589 -0.2203  0.0380
  303MPD2     C 4611   2.232   4.712  11.367 -0.0516  0.4133  0.0824
  303MPD2    C1 4612   2.104   4.665  11.363  0.4347  0.7043  0.1164
  303MPD2    C2 4613   2.053   4.624  11.240 -0.0514 -1.3461 -0.7181
  303MPD2    C3 4614   2.132   4.628  11.125  0.0599 -0.1780 -0.0513
  303MPD2    C4 4615   2.264   4.666  11.137 -0.3062  0.0418 -0.2637
  303MPD2    C5 4616   2.315   4.716  11.258 -0.4681 -0.0165 -0.5985
  303MPD2     H 4617   1.950   4.593  11.224 -0.7152  0.2482  0.4667
  303MPD2    H1 4618   2.338   4.667  11.058 -0.7996 -0.5843 -0.7242
  303MPD2    H2 4619   2.273   0.015  11.460 -0.1358  0.0013  0.2917
  303MPD2    H3 4620   2.422   4.735  11.256 -0.5153  0.1812 -1.1375
  303MPD2     N 4621   2.087   4.596  10.999 -0.7047 -0.4097 -0.4802
  303MPD2    H5 4622   2.160   4.591  10.928  0.4520 -0.4778  0.7105
  303MPD2    N1 4623   2.036   4.657  11.487  0.0243 -0.7277  0.6160
  303MPD2    H7 4624   2.080   4.700  11.568 -2.4317  0.7352  1.1722
  304TMC3    C1 4625   1.873   4.602  11.641 -0.2184 -0.0850  0.7955
  304TMC3    C2 4626   1.761   4.673  11.678  1.1575 -0.7990 -0.2683
  304TMC3    C3 4627   1.670   4.609  11.761 -0.8655  0.2424 -0.7287
  304TMC3    C4 4628   1.905   4.481  11.694 -0.5442 -0.5711  0.3229
  304TMC3    C5 4629   1.821   4.425  11.791 -0.0909 -0.9926  1.0717
  304TMC3    C6 4630   1.706   4.492  11.823  0.1295  0.0405  0.2982
  304TMC3     C 4631   1.907   4.610  11.498 -0.9077 -0.3265 -0.2857
  304TMC3     O 4632   1.849   4.528  11.426  0.2339  0.7025  0.5396
  304TMC3     H 4633   1.719   0.018  11.619 -0.6427 -0.9666  0.7892
  304TMC3    H1 4634   1.986   4.424  11.648  0.1966  1.7736 -1.3001
  304TMC3    H2 4635   1.648   4.448  11.903 -2.9633  0.9309 -1.4391
  304TMC3    C7 4636   1.796   4.288  11.769 -0.2486  0.0095 -0.4293
  304TMC3    C8 4637   1.528   4.618  11.719 -0.4726 -0.3457 -0.2792
  304TMC3    O1 4638   1.673   4.261  11.764 -1.0191  0.2981 -0.6191
  304TMC3    O2 4639   1.495   4.719  11.657 -0.0394 -0.0409 -0.0821
  305MPD2     C 4640   4.724   1.868  13.753  0.1738  0.2257 -0.1788
  305MPD2    C1 4641   0.061   1.755  13.774 -0.3493 -0.2072  0.1423
  305MPD2    C2 4642   0.034   1.649  13.690  0.7478  1.1511  0.3288
  305MPD2    C3 4643   4.676   1.657  13.586  0.0496 -0.2156 -0.2943
  305MPD2    C4 4644   4.615   1.780  13.563 -0.3373 -0.5551  0.2979
  305MPD2    C5 4645   4.641   1.886  13.652 -0.9087 -0.1984 -0.5067
  305MPD2     H 4646   0.083   1.554  13.704 -2.6872 -0.7806 -0.6097
  305MPD2    H1 4647   4.537   1.800  13.489  1.9918 -3.2232 -2.8996
  305MPD2    H2 4648   0.001   1.956  13.815  2.2576 -1.0090  1.1268
  305MPD2    H3 4649   4.593   1.983  13.641  0.8008  0.8421  1.1405
  305MPD2     N 4650   4.646   1.551  13.499  0.4312  1.0148 -0.4526
  305MPD2    H5 4651   4.595   1.577  13.416  1.8862  1.3997 -1.2206
  305MPD2    N1 4652   0.153   1.752  13.876  0.4835 -0.7468  0.2397
  305MPD2    H7 4653   0.164   1.840  13.925 -2.9006  0.2359 -0.8145
  306TMC3    C1 4654   0.345   1.668  13.995  0.0222  0.1131  0.4280
  306TMC3    C2 4655   0.455   1.593  13.984 -0.1304  0.0693 -0.8492
  306TMC3    C3 4656   0.512   1.538  14.095  0.5283 -0.3357  0.3072
  306TMC3    C4 4657   0.296   1.707  14.119 -0.4465 -0.3733 -0.1667
  306TMC3    C5 4658   0.360   1.649  14.226 -0.0601 -0.1238 -0.0244
  306TMC3    C6 4659   0.476   1.576  14.220 -0.2457  0.6417 -0.4664
  306TMC3     C 4660   0.247   1.648  13.894 -0.3352 -0.6346 -0.1206
  306TMC3     O 4661   0.258   1.546  13.827 -0.1840  0.3917 -0.1484
  306TMC3     H 4662   0.496   1.554  13.892  0.5630 -1.2257  0.0043
  306TMC3    H1 4663   0.198   1.752  14.127 -0.9576 -1.7728  1.3620
  306TMC3    H2 4664   0.525   1.535  14.307  0.1482  1.4009 -0.3413
  306TMC3    C7 4665   0.293   1.670  14.353  0.3319 -0.2147 -1.2547
  306TMC3    C8 4666   0.607   1.430  14.074 -0.6754  0.0585 -0.2964
  306TMC3    O1 4667   0.179   1.702  14.352  0.2413 -0.0660 -0.4205
  306TMC3    O2 4668   0.624   1.383  13.957  0.2066  0.0450 -0.0903
  307MPD2     C 4669   2.840   4.478  17.710 -0.5040 -0.2675 -0.2808
  307MPD2    C1 4670   2.830   4.584   0.054 -0.1503 -0.0592 -0.1548
  307MPD2    C2 4671   2.778   4.566   0.180  0.3304 -0.0736  0.3064
  307MPD2    C3 4672   2.728   4.442   0.221 -0.4978  0.0396  0.4488
  307MPD2    C4 4673   2.736   4.336   0.132 -0.3085  0.4524 -0.0477
  307MPD2    C5 4674   2.788   4.358   0.003 -0.2060 -0.1432  0.7714
  307MPD2     H 4675   2.761   4.653   0.242  0.8577 -0.9624  1.7019
  307MPD2    H1 4676   2.711   4.232   0.150 -1.9552  0.7781 -0.4944
  307MPD2    H2 4677   2.868   4.493  17.606 -1.2273  0.6595 -0.3454
  307MPD2    H3 4678   2.783   4.287  17.664 -1.5363  0.8189  0.0351
  307MPD2     N 4679   2.689   4.416   0.357 -0.1801  0.0578 -0.1014
  307MPD2    H5 4680   2.706   4.498   0.414 -3.7375  0.5366  0.2884
  307MPD2    N1 4681   2.864   4.718   0.019 -0.1205  0.1829  0.1558
  307MPD2    H7 4682   2.844   0.051   0.090  2.4703 -1.5545  2.6179
  308TMC3    C1 4683   2.382   4.230   0.665 -0.5194  0.1031  0.0457
  308TMC3    C2 4684   2.376   4.343   0.734 -0.6070 -0.2998  0.6944
  308TMC3    C3 4685   2.458   4.442   0.697 -0.4694  0.1683 -0.6699
  308TMC3    C4 4686   2.467   4.216   0.560 -0.2909  0.5683  0.1424
  308TMC3    C5 4687   2.544   4.322   0.519  0.3751 -0.3137  0.1962
  308TMC3    C6 4688   2.538   4.442   0.588  0.5763 -0.3917  0.5358
  308TMC3     C 4689   2.256   4.164   0.655 -1.0599 -0.1849 -0.1870
  308TMC3     O 4690   2.251   4.043   0.683  0.2480  0.3668 -0.1947
  308TMC3     H 4691   2.306   4.346   0.817 -1.6674 -0.0511 -0.2105
  308TMC3    H1 4692   2.484   4.125   0.504 -0.1916  0.2515  0.6909
  308TMC3    H2 4693   2.603   4.527   0.570 -3.4369  3.1674  2.9519
  308TMC3    C7 4694   2.623   4.307   0.397 -0.4995  0.6402  0.0125
  308TMC3    C8 4695   2.442   4.564   0.774 -0.6802 -0.7598 -0.2264
  308TMC3    O1 4696   2.596   4.202   0.336  0.4350 -0.3175  0.4387
  308TMC3    O2 4697   2.429   4.557   0.891 -0.1039  0.2929 -0.1767
  309MPD2     C 4698   2.148   4.679  16.820  0.1993  0.6143 -0.5576
  309MPD2    C1 4699   2.069   0.004  16.724 -0.5677 -0.1637  0.3134
  309MPD2    C2 4700   1.942   0.044  16.762 -0.3630 -0.4149  0.2392
  309MPD2    C3 4701   1.900   0.040  16.885 -1.4589  0.2019  0.3734
  309MPD2    C4 4702   1.974   4.717  16.987 -0.4992 -0.0060  0.4013
  309MPD2    C5 4703   2.099   4.680  16.949 -1.1742 -0.5826  0.1508
  309MPD2     H 4704   1.896   0.100  16.681 -0.4849  0.2362  0.7567
  309MPD2    H1 4705   1.941   4.702  17.089 -0.3596 -0.6479  0.3559
  309MPD2    H2 4706   2.252   4.661  16.796  0.2928  1.2185 -0.6181
  309MPD2    H3 4707   2.170   4.648  17.024  0.4071  0.4898 -0.8824
  309MPD2     N 4708   1.767   0.060  16.915  0.1569 -0.3153 -0.3127
  309MPD2    H5 4709   1.746   0.030  17.010  2.0639 -0.4342  0.0748
  309MPD2    N1 4710   2.115   0.030  16.597  0.2937 -0.9278 -0.4337
  309MPD2    H7 4711   2.045   0.066  16.533  1.2233  0.7877 -0.4841
  310TMC3    C1 4712   2.247   0.044  16.404 -0.0950  0.2095  0.0527
  310TMC3    C2 4713   2.160   0.149  16.374  0.1787  0.3747  0.1934
  310TMC3    C3 4714   2.180   0.200  16.250  0.6962  0.2164  0.2203
  310TMC3    C4 4715   2.334   4.721  16.313  0.5871 -0.2303  0.2908
  310TMC3    C5 4716   2.352   0.050  16.196  0.1175 -0.1362  0.4466
  310TMC3    C6 4717   2.276   0.158  16.163  0.0288  1.3116 -0.0793
  310TMC3     C 4718   2.230   4.718  16.532 -0.1390  0.0407 -0.6012
  310TMC3     O 4719   2.309   4.629  16.571  0.0132  0.4112 -0.0816
  310TMC3     H 4720   2.105   0.204  16.450 -0.0963 -0.3060  0.4984
  310TMC3    H1 4721   2.392   4.638  16.352  0.2136 -1.5917 -2.0246
  310TMC3    H2 4722   2.286   0.204  16.066  0.4462  0.3614 -0.4933
  310TMC3    C7 4723   2.446   0.016  16.096  0.4323 -0.5325  0.1761
  310TMC3    C8 4724   2.078   0.292  16.200 -0.2961 -0.3147 -0.4083
  310TMC3    O1 4725   2.486   0.107  16.025 -0.4836  0.4646  0.1383
  310TMC3    O2 4726   1.960   0.256  16.219  0.0269  0.3647  0.3505
  311MPD2     C 4727   3.671   1.643  12.480  0.2265 -0.1976 -0.0921
  311MPD2    C1 4728   3.712   1.637  12.607  0.0388 -0.2050 -0.3131
  311MPD2    C2 4729   3.634   1.576  12.705  0.5846 -0.1077 -0.0912
  311MPD2    C3 4730   3.507   1.535  12.672 -0.6103 -0.2909 -0.1431
  311MPD2    C4 4731   3.459   1.556  12.545  0.1586 -0.2049 -0.7176
  311MPD2    C5 4732   3.542   1.610  12.446 -1.0304  0.4348  0.1409
  311MPD2     H 4733   3.672   1.565  12.806 -0.2004  0.3108  0.2438
  311MPD2    H1 4734   3.360   1.528  12.510  0.0214  0.1317 -0.6000
  311MPD2    H2 4735   3.741   1.693  12.415  0.7374 -0.2806  0.3926
  311MPD2    H3 4736   3.513   1.642  12.346  1.2029  0.0099 -0.6532
  311MPD2     N 4737   3.425   1.477  12.766 -0.6104  0.1128 -0.2410
  311MPD2    H5 4738   3.471   1.454  12.854  0.0162 -0.1977 -0.6508
  311MPD2    N1 4739   3.840   1.692  12.654 -0.0212  0.1663 -0.8028
  311MPD2    H7 4740   3.852   1.706  12.754 -1.6828 -0.4923 -0.5131
  312TMC3    C1 4741   3.236   1.372  12.860  0.3106 -0.3266  0.3288
  312TMC3    C2 4742   3.149   1.273  12.835 -0.5691 -0.2516  0.1217
  312TMC3    C3 4743   3.112   1.196  12.940 -0.1997  0.1993  0.1023
  312TMC3    C4 4744   3.283   1.404  12.983  0.1283  0.5972 -0.3989
  312TMC3    C5 4745   3.237   1.333  13.087  0.1660 -0.6129 -0.2353
  312TMC3    C6 4746   3.153   1.227  13.071 -0.0332  0.5056 -0.5679
  312TMC3     C 4747   3.289   1.449  12.752 -0.0682 -1.1862 -0.6309
  312TMC3     O 4748   3.213   1.490  12.664 -0.1822 -0.4996 -0.0896
  312TMC3     H 4749   3.119   1.242  12.735 -0.8783 -1.1648  0.4953
  312TMC3    H1 4750   3.333   1.497  13.004  1.1791 -0.0809  0.1101
  312TMC3    H2 4751   3.133   1.163  13.156  1.2793  0.4718 -0.2836
  312TMC3    C7 4752   3.257   1.388  13.223  0.1029  0.0556 -0.0142
  312TMC3    C8 4753   2.972   1.154  12.933 -0.6799  0.8715 -0.2066
  312TMC3    O1 4754   3.253   1.510  13.241  0.5748 -0.6301  0.3420
  312TMC3    O2 4755   2.953   1.044  12.983 -0.0040 -0.1536  0.3339
  313MPD2     C 4756   2.704   0.896  11.641 -0.1991  0.8105 -0.0122
  313MPD2    C1 4757   2.781   0.923  11.533 -0.1942  0.7515 -0.0392
  313MPD2    C2 4758   2.885   0.836  11.508  0.6041  0.3415  0.0450
  313MPD2    C3 4759   2.914   0.725  11.579  0.6090 -0.7294  0.3883
  313MPD2    C4 4760   2.834   0.708  11.692  0.5539 -0.6348 -0.5172
  313MPD2    C5 4761   2.732   0.789  11.724 -0.1587 -0.0309  0.2691
  313MPD2     H 4762   2.925   0.852  11.409  1.2357 -2.6490 -0.1830
  313MPD2    H1 4763   2.855   0.630  11.764  0.5530  1.1116  1.3657
  313MPD2    H2 4764   2.622   0.958  11.675 -0.7332 -0.3621  0.8538
  313MPD2    H3 4765   2.680   0.781  11.819  2.0008 -2.5062  1.2545
  313MPD2     N 4766   3.017   0.634  11.537 -0.1032 -0.2912  0.1693
  313MPD2    H5 4767   3.070   0.665  11.456 -0.8256 -0.5203 -0.3901
  313MPD2    N1 4768   2.761   1.038  11.450  0.2227  0.4598  0.1222
  313MPD2    H7 4769   2.830   1.066  11.381  0.5891 -1.3926 -0.2659
  314TMC3    C1 4770   2.667   1.238  11.371 -0.2611 -0.3356 -0.1895
  314TMC3    C2 4771   2.798   1.287  11.389  0.5783  0.1167  1.0493
  314TMC3    C3 4772   2.825   1.395  11.311 -0.0159  0.1423  0.3673
  314TMC3    C4 4773   2.566   1.293  11.297  0.1332  0.0632  0.1794
  314TMC3    C5 4774   2.614   1.397  11.219 -0.5722 -0.8296  0.9073
  314TMC3    C6 4775   2.739   1.441  11.213  0.5640 -0.1993 -0.4272
  314TMC3     C 4776   2.638   1.110  11.441 -0.7910 -0.7403 -0.1171
  314TMC3     O 4777   2.526   1.088  11.481  0.5468  0.3140  0.3942
  314TMC3     H 4778   2.868   1.249  11.463  0.7121 -0.6081  0.5434
  314TMC3    H1 4779   2.471   1.244  11.286  0.2212 -0.5358  2.0661
  314TMC3    H2 4780   2.777   1.513  11.142 -1.2456  3.1347  1.9740
  314TMC3    C7 4781   2.529   1.420  11.105  0.2157 -0.2071 -0.3900
  314TMC3    C8 4782   2.962   1.455  11.320  0.1952 -0.1579 -0.0961
  314TMC3    O1 4783   2.408   1.414  11.125 -0.2713 -0.5297 -0.1834
  314TMC3    O2 4784   2.991   1.532  11.229  0.4796  0.2345 -0.0584
  315MPD2     C 4785   2.856   4.164  17.435  0.1534 -0.8657 -0.5657
  315MPD2    C1 4786   2.985   4.198  17.467 -0.0920  0.0677 -0.5159
  315MPD2    C2 4787   3.038   4.306  17.396 -0.2751 -0.5722  0.3866
  315MPD2    C3 4788   2.960   4.380  17.312  0.1137  0.4037  0.3896
  315MPD2    C4 4789   2.831   4.341  17.285 -0.2516  0.1349 -0.1827
  315MPD2    C5 4790   2.783   4.235  17.354  0.6692  0.0771  0.6689
  315MPD2     H 4791   3.138   4.340  17.419 -0.6235  0.6313  0.1242
  315MPD2    H1 4792   2.762   4.400  17.226 -1.0721 -0.5778  0.0701
  315MPD2    H2 4793   2.800   4.080  17.476 -0.9467  0.0701 -0.1485
  315MPD2    H3 4794   2.684   4.199  17.329  0.4102 -0.0417  1.8617
  315MPD2     N 4795   3.021   4.496  17.272  0.2072  0.5234 -0.0981
  315MPD2    H5 4796   3.110   4.519  17.315  0.1282  3.2637 -1.4455
  315MPD2    N1 4797   3.063   4.128  17.562 -0.0627  0.2555  0.1154
  315MPD2    H7 4798   3.157   4.164  17.577  1.0390 -2.1566 -0.9611
  316TMC3    C1 4799   3.043   4.710  17.179  0.3607 -0.1967 -0.5964
  316TMC3    C2 4800   3.178   4.693  17.172  1.3234  0.9277  0.0523
  316TMC3    C3 4801   3.248   0.068  17.140  0.3948 -0.9531  0.7219
  316TMC3    C4 4802   2.980   0.090  17.143 -0.5018  0.1586 -0.0148
  316TMC3    C5 4803   3.058   0.186  17.088  0.6622  0.4145  0.4152
  316TMC3    C6 4804   3.194   0.184  17.093 -1.0296 -0.7941 -0.5549
  316TMC3     C 4805   2.957   4.599  17.212  0.1263  0.2521  0.0518
  316TMC3     O 4806   2.838   4.615  17.189  0.1869 -0.0467  0.3923
  316TMC3     H 4807   3.222   4.594  17.166 -0.9987 -0.1535  1.0071
  316TMC3    H1 4808   2.872   0.100  17.140 -0.6894 -1.7486  0.3053
  316TMC3    H2 4809   3.252   0.275  17.082 -1.4935 -0.3155  0.9074
  316TMC3    C7 4810   2.997   0.318  17.094  0.4273  0.0343 -0.2723
  316TMC3    C8 4811   3.389   0.079  17.172  0.0185  0.3532 -0.4393
  316TMC3    O1 4812   2.932   0.327  17.195  0.0982 -0.6065  0.2537
  316TMC3    O2 4813   3.448   0.175  17.127 -0.2212  0.3681  0.1852
  317MPD2     C 4814   0.224   3.361  12.668  0.3012 -0.2132  0.3657
  317MPD2    C1 4815   0.250   3.225  12.671 -0.5850  0.6530  0.4981
  317MPD2    C2 4816   0.242   3.165  12.797  0.0150  0.6822  0.6576
  317MPD2    C3 4817   0.232   3.241  12.912  0.3723  0.4043  0.0260
  317MPD2    C4 4818   0.228   3.375  12.902  0.3281  0.7111  0.0241
  317MPD2    C5 4819   0.221   3.433  12.788 -0.2729 -0.3411 -0.1602
  317MPD2     H 4820   0.251   3.057  12.812  1.9618  0.8436  0.6499
  317MPD2    H1 4821   0.217   3.434  12.992 -2.1166  0.4222 -0.0732
  317MPD2    H2 4822   0.220   3.422  12.578  1.2731  0.0842  0.5273
  317MPD2    H3 4823   0.206   3.540  12.783 -1.1606 -0.5360 -1.6480
  317MPD2     N 4824   0.234   3.172  13.035 -0.2753 -0.3254 -0.2645
  317MPD2    H5 4825   0.234   3.071  13.036  0.4365 -0.3061  1.4192
  317MPD2    N1 4826   0.280   3.149  12.554 -0.5920 -0.6254 -0.3430
  317MPD2    H7 4827   0.306   3.052  12.568 -0.5747 -0.7368 -1.1785
  318TMC3    C1 4828   0.259   3.138  13.264  0.4816 -0.4857  0.1679
  318TMC3    C2 4829   0.183   3.027  13.244 -0.1566 -0.0785  0.4026
  318TMC3    C3 4830   0.232   2.912  13.297 -0.3607 -0.1128  0.0748
  318TMC3    C4 4831   0.376   3.141  13.334 -0.3133 -0.4397  0.5967
  318TMC3    C5 4832   0.422   3.023  13.387 -0.3366  0.4087 -0.7564
  318TMC3    C6 4833   0.348   2.908  13.364 -0.2019  0.0578 -0.4476
  318TMC3     C 4834   0.262   3.230  13.155 -0.0122 -0.1604  0.3736
  318TMC3     O 4835   0.288   3.344  13.194 -0.7682 -0.2502  0.1243
  318TMC3     H 4836   0.088   3.028  13.191  1.0556 -1.0598 -1.7865
  318TMC3    H1 4837   0.443   3.226  13.332 -1.2646  0.2564 -1.8794
  318TMC3    H2 4838   0.357   2.821  13.427  0.6413  1.3084  1.1561
  318TMC3    C7 4839   0.551   3.019  13.456 -0.2382  0.1166 -0.1362
  318TMC3    C8 4840   0.160   2.789  13.312 -0.7319  1.1540 -0.0393
  318TMC3    O1 4841   0.604   3.127  13.467  0.0996 -0.2831 -0.5272
  318TMC3    O2 4842   0.218   2.683  13.325 -0.1048 -0.1033 -0.2708
  319MPD2     C 4843   1.586   4.386  16.364  0.1435  0.1784  0.1664
  319MPD2    C1 4844   1.473   4.345  16.432 -0.0797 -0.4445 -0.8614
  319MPD2    C2 4845   1.368   4.286  16.362 -0.3938  0.4083 -0.4251
  319MPD2    C3 4846   1.369   4.279  16.224  0.4606 -0.3213  0.2095
  319MPD2    C4 4847   1.470   4.337  16.165 -0.6173 -0.2771  0.0959
  319MPD2    C5 4848   1.584   4.388  16.232 -0.8734  0.0839  0.0226
  319MPD2     H 4849   1.287   4.235  16.414  0.1654  0.4465  0.4722
  319MPD2    H1 4850   1.466   4.337  16.057 -0.0379  0.9881  0.0767
  319MPD2    H2 4851   1.680   4.419  16.408  0.6435  0.4081 -1.1002
  319MPD2    H3 4852   1.670   4.417  16.174  0.5963 -1.3540  1.4538
  319MPD2     N 4853   1.259   4.228  16.148  0.4074 -0.4473  0.1624
  319MPD2    H5 4854   1.258   4.247  16.049  0.9084 -1.8549 -0.1173
  319MPD2    N1 4855   1.457   4.345  16.567 -0.0228 -0.3549  0.0247
  319MPD2    H7 4856   1.377   4.293  16.600 -0.1084 -0.4920 -0.4037
  320TMC3    C1 4857   1.064   4.101  16.097  0.0216 -0.6583 -1.1211
  320TMC3    C2 4858   1.033   4.183  15.986 -0.7048  0.7060 -0.2925
  320TMC3    C3 4859   0.931   4.134  15.902  0.0101  1.1028 -0.4538
  320TMC3    C4 4860   1.000   3.984  16.120  0.5596 -0.2469 -0.2176
  320TMC3    C5 4861   0.902   3.949  16.035  0.2171  0.0625  0.6419
  320TMC3    C6 4862   0.865   4.012  15.922 -1.3344  0.1191  0.1517
  320TMC3     C 4863   1.163   4.149  16.200 -0.7947 -0.0212  1.3155
  320TMC3     O 4864   1.139   4.108  16.313 -0.0220 -0.6154 -0.3541
  320TMC3     H 4865   1.100   4.263  15.956  1.1401 -0.7816 -0.0862
  320TMC3    H1 4866   1.037   3.922  16.202  0.0878 -2.4064 -1.6402
  320TMC3    H2 4867   0.786   3.971  15.860 -1.0612 -2.7661  1.7048
  320TMC3    C7 4868   0.829   3.828  16.063 -1.1145  0.4762  0.3326
  320TMC3    C8 4869   0.883   4.226  15.800  0.0014 -0.0068  0.4065
  320TMC3    O1 4870   0.756   3.785  15.974  0.4808 -0.5539 -0.0219
  320TMC3    O2 4871   0.904   4.346  15.809  0.0153 -1.0865  0.0221
  321TMC3    C1 4872   1.524   4.372  16.795  0.2326 -0.5841  0.7720
  321TMC3    C2 4873   1.433   4.274  16.835  0.2972  0.1561  0.1761
  321TMC3    C3 4874   1.407   4.263  16.970 -0.2941 -0.2131  0.3384
  321TMC3    C4 4875   1.594   4.450  16.882 -0.0840 -0.1911 -0.3983
  321TMC3    C5 4876   1.552   4.444  17.010 -0.0086  0.0847  0.4388
  321TMC3    C6 4877   1.457   4.360  17.054 -0.2087  0.2491 -0.4746
  321TMC3     C 4878   1.553   4.401  16.657  0.2241 -0.0500 -0.6358
  321TMC3     O 4879   1.635   4.488  16.632 -0.0955  0.0952  0.2635
  321TMC3     H 4880   1.414   4.189  16.770  3.1366 -1.3250  1.2743
  321TMC3    H1 4881   1.685   4.501  16.855  0.9792 -2.0740 -0.3364
  321TMC3    H2 4882   1.418   4.371  17.154  1.2529  2.1466 -0.1139
  321TMC3    C7 4883   1.664   4.451  17.102  0.7131 -0.5913 -0.1377
  321TMC3    C8 4884   1.425   4.138  17.041  0.0699 -0.2704  0.2663
  321TMC3    O1 4885   1.736   4.551  17.095 -0.4562 -0.2614  0.2340
  321TMC3    O2 4886   1.478   4.150  17.151 -0.2194  0.1975 -0.0869
  322MPD2     C 4887   0.316   0.578  12.983 -0.0374  0.0515  1.1960
  322MPD2    C1 4888   0.253   0.576  13.105 -0.0029 -0.2549  0.1705
  322MPD2    C2 4889   0.207   0.451  13.154 -0.0276  0.0050 -0.6160
  322MPD2    C3 4890   0.231   0.336  13.074 -0.5171 -0.0382 -0.0016
  322MPD2    C4 4891   0.286   0.349  12.948  0.7055  0.1020 -0.0686
  322MPD2    C5 4892   0.328   0.466  12.907 -0.0878  0.0860  0.3420
  322MPD2     H 4893   0.167   0.432  13.253  0.0715  0.2614 -0.5268
  322MPD2    H1 4894   0.313   0.265  12.885 -0.6796 -1.6834  1.7240
  322MPD2    H2 4895   0.349   0.676  12.949 -0.8018 -0.0854  0.0615
  322MPD2    H3 4896   0.367   0.469  12.806  1.8363 -1.1729  1.0547
  322MPD2     N 4897   0.198   0.205  13.131 -0.0961  1.0677 -0.2942
  322MPD2    H5 4898   0.168   0.198  13.228  2.3044  0.3612  0.4219
  322MPD2    N1 4899   0.272   0.692  13.184 -1.1020  0.2851 -0.6110
  322MPD2    H7 4900   0.321   0.773  13.149  2.1339 -1.2098  0.4345
  323TMC3    C1 4901   0.277   0.814  13.388  0.5079  0.3552 -0.6404
  323TMC3    C2 4902   0.391   0.867  13.346  0.3299  0.1372 -0.3442
  323TMC3    C3 4903   0.464   0.942  13.437  0.5454  0.8952  0.4645
  323TMC3    C4 4904   0.233   0.839  13.516  0.2420  0.1557 -0.5446
  323TMC3    C5 4905   0.308   0.912  13.607  0.2814  0.5041 -0.8114
  323TMC3    C6 4906   0.425   0.962  13.564  0.1477  0.3239  0.2560
  323TMC3     C 4907   0.220   0.709  13.309  0.1750 -0.9625 -0.4524
  323TMC3     O 4908   0.133   0.637  13.361 -0.4586 -0.1787  0.3443
  323TMC3     H 4909   0.422   0.855  13.243  1.0310  0.1658 -0.1350
  323TMC3    H1 4910   0.134   0.809  13.549  0.7206 -1.9568 -0.9746
  323TMC3    H2 4911   0.494   1.007  13.635  0.1466  0.5162  0.1331
  323TMC3    C7 4912   0.298   0.868  13.745 -0.3902  0.0748  0.6627
  323TMC3    C8 4913   0.606   0.961  13.405  0.9286  0.1629  0.4363
  323TMC3    O1 4914   0.235   0.765  13.770 -0.0478  0.2503 -0.3823
  323TMC3    O2 4915   0.676   1.033  13.477  0.5461  0.2830 -0.2366
  324MPD2     C 4916   1.315   1.726  13.954  0.0914  1.0876 -0.0319
  324MPD2    C1 4917   1.299   1.839  14.028  0.7319 -0.7606  0.6160
  324MPD2    C2 4918   1.175   1.895  14.027 -0.4444 -0.7926 -0.2589
  324MPD2    C3 4919   1.076   1.848  13.939 -0.1084 -0.2335  0.0566
  324MPD2    C4 4920   1.098   1.733  13.870  0.0315  0.2362  0.0288
  324MPD2    C5 4921   1.224   1.680  13.871  0.2378  0.6249 -0.2529
  324MPD2     H 4922   1.163   1.989  14.080  0.7136 -0.3323 -0.8113
  324MPD2    H1 4923   1.021   1.680  13.816  1.6559  0.3123 -2.4023
  324MPD2    H2 4924   1.412   1.679  13.940  0.1898  1.2839 -0.0156
  324MPD2    H3 4925   1.253   1.601  13.802 -0.0595  1.4658 -1.3439
  324MPD2     N 4926   0.950   1.909  13.925  0.1298  0.3052  0.2906
  324MPD2    H5 4927   0.876   1.862  13.873  1.6138  1.5770 -2.9531
  324MPD2    N1 4928   1.409   1.905  14.099  0.2464  0.1382  0.9480
  324MPD2    H7 4929   1.376   1.986  14.151 -1.5348  0.2217 -0.3239
  325TMC3    C1 4930   0.776   2.063  13.952  0.1419 -0.7256 -0.4541
  325TMC3    C2 4931   0.698   1.969  13.891 -0.5489 -0.9760 -0.5340
  325TMC3    C3 4932   0.604   2.010  13.795  0.6635  0.3261 -0.2053
  325TMC3    C4 4933   0.754   2.197  13.923  0.3410  0.5810 -0.4238
  325TMC3    C5 4934   0.645   2.233  13.846  0.2647 -0.4456  0.1954
  325TMC3    C6 4935   0.571   2.145  13.772 -0.0471 -0.2068 -0.2325
  325TMC3     C 4936   0.915   2.027  13.977  0.4871  0.1226 -0.0987
  325TMC3     O 4937   0.988   2.117  14.008 -0.3521 -0.0516 -0.2639
  325TMC3     H 4938   0.709   1.863  13.912  0.5487 -0.7751 -0.0788
  325TMC3    H1 4939   0.809   2.264  13.987 -0.4252 -0.1680  1.0300
  325TMC3    H2 4940   0.500   2.187  13.702  0.3491  2.6594  1.1145
  325TMC3    C7 4941   0.604   2.377  13.840 -0.0074 -0.8036  0.4972
  325TMC3    C8 4942   0.539   1.908  13.717  0.7921  0.6943  0.3064
  325TMC3    O1 4943   0.504   2.403  13.773  0.0291 -0.5583  0.0070
  325TMC3    O2 4944   0.578   1.795  13.744  0.6260 -0.3177 -0.0326
  326MPD2     C 4945   2.571   3.201  11.117  0.5857 -0.0605 -0.5779
  326MPD2    C1 4946   2.652   3.177  11.014 -0.4948  0.4161  0.6540
  326MPD2    C2 4947   2.785   3.208  11.021 -0.0358  0.0716 -0.7270
  326MPD2    C3 4948   2.838   3.291  11.111  0.2182  0.1217  0.1737
  326MPD2    C4 4949   2.752   3.327  11.211  0.1709  0.5312 -1.0004
  326MPD2    C5 4950   2.623   3.277  11.219 -0.0032 -0.0088 -0.3341
  326MPD2     H 4951   2.831   3.195  10.923 -0.0848 -0.3589 -0.6923
  326MPD2    H1 4952   2.779   3.399  11.287  0.4173 -1.3540  0.7139
  326MPD2    H2 4953   2.468   3.167  11.121  0.3896  0.7232  1.2683
  326MPD2    H3 4954   2.560   3.310  11.301 -1.0223 -4.4026  0.6670
  326MPD2     N 4955   2.970   3.331  11.119  0.3880 -0.0716  0.7516
  326MPD2    H5 4956   2.995   3.394  11.194  1.7420  1.6520 -1.1574
  326MPD2    N1 4957   2.608   3.110  10.893  0.0474  0.6241  0.2441
  326MPD2    H7 4958   2.680   3.083  10.828  0.4550  1.9800  0.1190
  327TMC3    C1 4959   2.476   3.095  10.699 -0.0315 -0.3606  0.4208
  327TMC3    C2 4960   2.376   3.176  10.640  0.3863 -0.4086  0.2699
  327TMC3    C3 4961   2.394   3.197  10.504  0.9052  0.6655 -0.2201
  327TMC3    C4 4962   2.587   3.056  10.636 -0.1018  0.9102 -0.3701
  327TMC3    C5 4963   2.589   3.066  10.500  0.2024  0.0800  0.0788
  327TMC3    C6 4964   2.489   3.130  10.435 -0.3300  0.2351 -0.5113
  327TMC3     C 4965   2.481   3.122  10.845  0.2319 -0.0354  0.3991
  327TMC3     O 4966   2.394   3.187  10.899 -0.0916  0.7402  0.3184
  327TMC3     H 4967   2.290   3.223  10.686  0.8526  0.6674  0.0304
  327TMC3    H1 4968   2.648   2.981  10.686  0.3805  1.1517 -0.6053
  327TMC3    H2 4969   2.493   3.145  10.327  1.1384 -3.2780 -0.9569
  327TMC3    C7 4970   2.723   3.084  10.442  0.2412 -0.4392  0.0935
  327TMC3    C8 4971   2.404   3.331  10.473 -0.2556 -0.5467  0.5214
  327TMC3    O1 4972   2.729   3.145  10.340 -0.7854 -0.3055 -0.8181
  327TMC3    O2 4973   2.338   3.407  10.541 -0.3083 -0.6834 -0.1358
  328MPD2     C 4974   0.743   2.630  16.951 -0.1249  0.2553 -0.7828
  328MPD2    C1 4975   0.624   2.594  16.904 -1.2070 -0.1804  0.3785
  328MPD2    C2 4976   0.549   2.684  16.831  0.3944 -0.5071 -0.1461
  328MPD2    C3 4977   0.595   2.813  16.813 -0.4767 -0.4650  0.1645
  328MPD2    C4 4978   0.713   2.852  16.860 -0.0765  0.4938 -0.3318
  328MPD2    C5 4979   0.784   2.755  16.933  0.6106  0.1312 -0.8704
  328MPD2     H 4980   0.459   2.650  16.781 -0.5742 -1.4100  2.2059
  328MPD2    H1 4981   0.738   2.957  16.865 -0.8761  0.6775 -0.2687
  328MPD2    H2 4982   0.808   2.566  17.010  0.4047  0.6316 -0.9583
  328MPD2    H3 4983   0.882   2.783  16.970  0.0264  1.2337 -0.1315
  328MPD2     N 4984   0.505   2.917  16.778  0.3321  0.4084 -0.1913
  328MPD2    H5 4985   0.532   3.012  16.802  2.6024 -0.5159  1.0267
  328MPD2    N1 4986   0.565   2.472  16.935  0.3219  0.1436  0.5841
  328MPD2    H7 4987   0.475   2.450  16.894  0.0609  2.7155 -0.2295
  329TMC3    C1 4988   0.494   2.313  17.087 -0.5666  0.1174  0.1678
  329TMC3    C2 4989   0.374   2.367  17.116 -0.1459  0.5448 -0.0616
  329TMC3    C3 4990   0.284   2.288  17.181 -0.4276 -0.0812  0.0160
  329TMC3    C4 4991   0.532   2.188  17.127  0.3305 -0.3001  0.8011
  329TMC3    C5 4992   0.437   2.112  17.192 -0.0801  0.1410  0.2200
  329TMC3    C6 4993   0.312   2.159  17.213 -0.0177  0.0143  0.0539
  329TMC3     C 4994   0.607   2.385  17.028  0.0677 -0.8153  0.4518
  329TMC3     O 4995   0.710   2.382  17.091  0.4717  0.5872 -0.0823
  329TMC3     H 4996   0.354   2.468  17.082 -1.0977 -0.6096 -2.9433
  329TMC3    H1 4997   0.635   2.159  17.107  0.6741  1.0712  0.5958
  329TMC3    H2 4998   0.241   2.095  17.265  0.1590 -0.3417 -0.1402
  329TMC3    C7 4999   0.484   1.995  17.263  1.3067 -0.3809 -0.1064
  329TMC3    C8 5000   0.167   2.351  17.225 -0.5301 -0.3745 -0.3431
  329TMC3    O1 5001   0.578   1.935  17.205  0.3673 -0.6035 -0.3916
  329TMC3    O2 5002   0.065   2.293  17.193  0.1602  0.1074  0.3432
  330TMC3    C1 5003   2.666   3.053   9.649 -0.1607  0.7637  0.4501
  330TMC3    C2 5004   2.575   2.972   9.583 -0.2361  0.2267  0.0554
  330TMC3    C3 5005   2.598   2.838   9.578  0.4407  0.6066 -0.8602
  330TMC3    C4 5006   2.768   3.007   9.720 -0.1346 -0.0643 -0.5021
  330TMC3    C5 5007   2.784   2.875   9.714 -1.1727  0.3041 -1.1369
  330TMC3    C6 5008   2.707   2.791   9.644 -0.8006  0.3565  0.0063
  330TMC3     C 5009   2.665   3.191   9.618 -0.6124  0.2760 -0.0830
  330TMC3     O 5010   2.772   3.250   9.617  0.4428  0.1491  0.3591
  330TMC3     H 5011   2.498   3.021   9.525 -0.9297  0.3077  1.0500
  330TMC3    H1 5012   2.824   3.075   9.784  1.2671 -0.3379 -1.4383
  330TMC3    H2 5013   2.737   2.687   9.635 -3.7799 -0.8278  3.6876
  330TMC3    C7 5014   2.907   2.816   9.761  0.8408 -0.6015  0.6153
  330TMC3    C8 5015   2.500   2.754   9.510 -0.1752  0.0560 -0.0289
  330TMC3    O1 5016   2.934   2.699   9.740 -0.0184  0.6489  0.5620
  330TMC3    O2 5017   2.407   2.813   9.465 -0.7060  0.1610  0.4507
  331MPD2     C 5018   1.077   1.218  12.865 -0.3714  0.0498  0.4466
  331MPD2    C1 5019   1.186   1.196  12.784  0.0361  0.2492 -0.1649
  331MPD2    C2 5020   1.218   1.070  12.741  0.0557 -0.3178  0.2750
  331MPD2    C3 5021   1.132   0.963  12.774 -0.0070 -0.0072 -0.2240
  331MPD2    C4 5022   1.018   0.980  12.847 -1.2803  0.1044  0.0249
  331MPD2    C5 5023   1.005   1.107  12.902 -0.7287 -0.3788 -0.7109
  331MPD2     H 5024   1.304   1.045  12.680 -0.2594 -0.6069 -0.0518
  331MPD2    H1 5025   0.954   0.897  12.872 -1.8806  1.0034  1.4371
  331MPD2    H2 5026   1.053   1.316  12.904 -0.0724 -0.2469  1.3807
  331MPD2    H3 5027   0.928   1.119  12.978 -0.1374 -0.5011 -0.0904
  331MPD2     N 5028   1.151   0.840  12.707  0.0600 -0.5367  0.8511
  331MPD2    H5 5029   1.236   0.836  12.652 -0.3570  1.6378  0.0439
  331MPD2    N1 5030   1.267   1.311  12.753 -0.3426 -0.0240  0.0111
  331MPD2    H7 5031   1.228   1.400  12.781  2.1752  0.4697  1.8917
  332TMC3    C1 5032   1.108   0.641  12.585 -0.2155 -0.7767  0.2143
  332TMC3    C2 5033   1.152   0.704  12.472 -0.0840  0.7033 -0.0820
  332TMC3    C3 5034   1.254   0.647  12.401  0.1959 -0.2636  0.1110
  332TMC3    C4 5035   1.168   0.530  12.632  0.3578 -0.2465 -0.2672
  332TMC3    C5 5036   1.275   0.483  12.561 -0.6212 -0.2043  0.1386
  332TMC3    C6 5037   1.323   0.537  12.447 -0.3694  0.0515  0.0338
  332TMC3     C 5038   1.065   0.731  12.700  0.5076  0.2276  0.1110
  332TMC3     O 5039   0.972   0.698  12.767 -0.0270 -0.2618  0.5693
  332TMC3     H 5040   1.122   0.804  12.445  0.6278  0.9410 -0.0058
  332TMC3    H1 5041   1.148   0.486  12.729  3.1044 -2.3097 -0.6530
  332TMC3    H2 5042   1.399   0.496  12.381  1.8562  1.5392  1.7129
  332TMC3    C7 5043   1.367   0.410  12.644 -0.0572 -0.2809 -0.5100
  332TMC3    C8 5044   1.315   0.712  12.286  0.2248  0.4772 -0.9018
  332TMC3    O1 5045   1.336   0.299  12.673  0.3946  0.2482  0.3549
  332TMC3    O2 5046   1.435   0.695  12.264  0.2024  0.6032  0.1358
  333MPD2     C 5047   0.949   1.909  11.174 -0.0008  0.4450  0.3213
  333MPD2    C1 5048   1.048   1.812  11.200  0.7527 -0.1154  0.0443
  333MPD2    C2 5049   1.006   1.697  11.268  0.0332  0.1071  0.9380
  333MPD2    C3 5050   0.880   1.677  11.320  0.3734  0.5843 -0.7393
  333MPD2    C4 5051   0.795   1.777  11.299 -0.4852 -0.1624  0.8817
  333MPD2    C5 5052   0.828   1.894  11.233 -0.1171 -0.0369 -0.2930
  333MPD2     H 5053   1.067   1.607  11.269  0.7153  0.5700  1.0183
  333MPD2    H1 5054   0.692   1.763  11.332 -0.9497  3.0439  0.8026
  333MPD2    H2 5055   0.974   2.002  11.125 -1.1676 -0.0847 -1.2851
  333MPD2    H3 5056   0.763   1.978  11.211 -0.6385 -0.4129 -0.1944
  333MPD2     N 5057   0.848   1.551  11.375  0.2998 -0.4014  0.5968
  333MPD2    H5 5058   0.915   1.476  11.362 -0.3317 -0.9544  0.5661
  333MPD2    N1 5059   1.177   1.829  11.159  0.9537 -0.2336  0.1806
  333MPD2    H7 5060   1.204   1.919  11.122  0.0818 -0.0038  0.1024
  334TMC3    C1 5061   1.409   1.788  11.127 -0.6602 -0.0110  1.1271
  334TMC3    C2 5062   1.527   1.762  11.194  0.1433 -0.0526  0.2538
  334TMC3    C3 5063   1.640   1.813  11.144 -0.8003 -0.0840  0.5702
  334TMC3    C4 5064   1.405   1.874  11.019 -0.5122 -0.5788 -0.7472
  334TMC3    C5 5065   1.528   1.935  10.978 -0.1539  0.3333  0.9579
  334TMC3    C6 5066   1.647   1.896  11.033  0.2255 -0.3897  0.6253
  334TMC3     C 5067   1.280   1.733  11.175 -0.2294 -0.1005 -0.0412
  334TMC3     O 5068   1.280   1.636  11.247 -0.1816 -0.1234  0.2824
  334TMC3     H 5069   1.516   1.690  11.274  1.4522  1.3649  1.7043
  334TMC3    H1 5070   1.322   1.865  10.950 -0.0121  0.1455 -1.4416
  334TMC3    H2 5071   1.742   1.931  10.995 -0.5343  0.3134 -0.6044
  334TMC3    C7 5072   1.547   2.009  10.859  0.1918 -0.1021  0.3590
  334TMC3    C8 5073   1.756   1.770  11.212 -0.1706 -0.4400 -0.0651
  334TMC3    O1 5074   1.657   2.054  10.829 -0.1903 -0.5707 -0.6099
  334TMC3    O2 5075   1.750   1.717  11.319 -0.0273  0.0380  0.2658
  335TMC3    C1 5076   1.429   2.758  17.406  0.0818 -0.0654  0.6597
  335TMC3    C2 5077   1.364   2.695  17.303  0.0774 -0.2822  0.1931
  335TMC3    C3 5078   1.390   2.741  17.177  0.1642 -0.5447 -0.9037
  335TMC3    C4 5079   1.526   2.852  17.380  0.5634  1.4241  0.9288
  335TMC3    C5 5080   1.564   2.868  17.246 -0.5785 -0.4136  0.4607
  335TMC3    C6 5081   1.494   2.812  17.144 -0.1477  0.6460 -0.9815
  335TMC3     C 5082   1.364   2.743  17.534 -0.0156  0.3409 -0.0243
  335TMC3     O 5083   1.293   2.648  17.551  0.0008  0.2949 -0.2520
  335TMC3     H 5084   1.265   2.655  17.322 -0.8048  1.4809 -0.6984
  335TMC3    H1 5085   1.577   2.913  17.453  0.7044  1.7646  0.5509
  335TMC3    H2 5086   1.502   2.828  17.038 -0.3097  1.1617 -0.9168
  335TMC3    C7 5087   1.693   2.928  17.206  0.6924  0.1964  0.0991
  335TMC3    C8 5088   1.304   2.700  17.068  0.5773 -0.3082  0.4647
  335TMC3    O1 5089   1.725   2.936  17.091 -0.2824 -0.1788  0.3687
  335TMC3    O2 5090   1.289   2.778  16.974  0.5976 -0.8845  0.2025
  336MPD2     C 5091   1.109   0.643  16.018 -0.1109 -0.0915 -0.2427
  336MPD2    C1 5092   1.068   0.617  15.886  0.2285 -0.1320  0.1560
  336MPD2    C2 5093   1.079   0.487  15.836  0.0119 -0.4110 -0.1322
  336MPD2    C3 5094   1.130   0.381  15.915 -0.8257 -0.3913  0.0530
  336MPD2    C4 5095   1.171   0.412  16.042 -0.1642 -0.9276 -0.4214
  336MPD2    C5 5096   1.160   0.546  16.091 -0.4667  0.0125  0.2675
  336MPD2     H 5097   1.031   0.452  15.746 -0.4688 -0.1083  0.0070
  336MPD2    H1 5098   1.216   0.335  16.104  1.4209  0.5853  0.3104
  336MPD2    H2 5099   1.102   0.740  16.066 -1.1796 -0.8793  1.1852
  336MPD2    H3 5100   1.205   0.562  16.189  1.4477  1.2610 -0.8171
  336MPD2     N 5101   1.140   0.248  15.876  0.6410 -0.5350  0.2714
  336MPD2    H5 5102   1.168   0.188  15.952  3.6397  2.6762  1.7535
  336MPD2    N1 5103   1.016   0.711  15.799  0.7504 -0.6174  0.1517
  336MPD2    H7 5104   0.993   0.679  15.706  0.6585  1.1593 -0.4423
  337TMC3    C1 5105   0.931   0.932  15.749 -0.5844 -0.0714  0.1356
  337TMC3    C2 5106   0.833   0.872  15.675 -0.3750  0.3170  0.1115
  337TMC3    C3 5107   0.785   0.949  15.573  0.4345  0.0716  0.2118
  337TMC3    C4 5108   0.975   1.062  15.731  0.0839  0.3461  0.2688
  337TMC3    C5 5109   0.912   1.136  15.637  0.1843 -0.0251 -0.4467
  337TMC3    C6 5110   0.806   1.084  15.554 -0.2075  0.3353  0.2061
  337TMC3     C 5111   1.015   0.850  15.832  0.1574  0.0333  0.0076
  337TMC3     O 5112   1.095   0.908  15.906  0.3299 -0.4705 -0.1305
  337TMC3     H 5113   0.799   0.771  15.694  2.1450 -0.2829  1.4227
  337TMC3    H1 5114   1.068   1.091  15.777  0.2209 -1.4714  1.1389
  337TMC3    H2 5115   0.740   1.149  15.497  0.6651  2.5206  1.6890
  337TMC3    C7 5116   0.916   1.279  15.650 -0.1939  0.3486  0.2586
  337TMC3    C8 5117   0.662   0.904  15.517  0.8267  0.0069 -0.3407
  337TMC3    O1 5118   0.881   1.346  15.554 -0.1420  0.4544  0.5684
  337TMC3    O2 5119   0.616   0.801  15.568  0.3971  0.4931  0.1108
  338MPD2     C 5120   1.357   0.124   0.734 -0.4781 -0.2034 -0.2024
  338MPD2    C1 5121   1.301   0.099   0.606 -0.9819  0.6113 -0.0224
  338MPD2    C2 5122   1.164   0.093   0.604  0.4618 -0.3102 -0.2296
  338MPD2    C3 5123   1.084   0.109   0.714 -0.3970  0.3864 -0.3196
  338MPD2    C4 5124   1.142   0.135   0.836  0.0548  0.1893 -0.2559
  338MPD2    C5 5125   1.276   0.153   0.843 -0.1284 -0.0627  0.1431
  338MPD2     H 5126   1.118   0.065   0.509  0.7091  2.1906 -1.0872
  338MPD2    H1 5127   1.087   0.150   0.928  2.6709 -0.5840  1.4221
  338MPD2    H2 5128   1.463   0.138   0.752 -0.4494 -1.1200  0.3494
  338MPD2    H3 5129   1.319   0.194   0.933 -2.4007 -2.8414  2.4923
  338MPD2     N 5130   0.951   0.125   0.696 -0.4799  0.1833  0.6456
  338MPD2    H5 5131   0.926   0.107   0.600  0.8561  3.4717 -0.3079
  338MPD2    N1 5132   1.378   0.065   0.490  0.3764  0.1742  0.6702
  338MPD2    H7 5133   1.333   0.053   0.399 -3.4114  1.3895  2.3651
  339TMC3    C1 5134   0.719   0.149   0.726  0.6104  0.6108 -0.1487
  339TMC3    C2 5135   0.632   0.042   0.733  0.6846 -0.2801 -0.3899
  339TMC3    C3 5136   0.544   0.018   0.630  0.0503 -0.8291  0.0281
  339TMC3    C4 5137   0.720   0.229   0.615  0.6884 -0.7778 -0.9481
  339TMC3    C5 5138   0.626   0.202   0.515 -0.2802 -0.0760  1.0646
  339TMC3    C6 5139   0.541   0.096   0.520 -0.6923 -0.9772  0.3466
  339TMC3     C 5140   0.850   0.129   0.790 -0.3541 -0.0879  0.0656
  339TMC3     O 5141   0.859   0.135   0.909 -0.3521 -0.0725 -0.0602
  339TMC3     H 5142   0.653   4.703   0.808  1.9487  2.1788  1.7155
  339TMC3    H1 5143   0.800   0.301   0.603 -1.1576  1.1619 -1.5960
  339TMC3    H2 5144   0.468   0.084   0.441  0.0361 -4.5910  0.2647
  339TMC3    C7 5145   0.669   0.255   0.388  0.2016  0.3103  0.7809
  339TMC3    C8 5146   0.476   4.626   0.618 -0.2444 -1.0103 -0.0993
  339TMC3    O1 5147   0.730   0.357   0.396 -0.0177 -0.0280 -0.0143
  339TMC3    O2 5148   0.395   4.610   0.522  0.2782 -0.5121  0.3917
  340MPD2     C 5149   1.084   2.433  10.321  0.1838 -0.3654  0.2653
  340MPD2    C1 5150   1.123   2.486  10.198 -0.3085  0.0742 -0.4234
  340MPD2    C2 5151   1.093   2.619  10.181 -0.3175  0.1697 -0.6595
  340MPD2    C3 5152   1.058   2.699  10.289 -0.1675 -0.3140 -0.1903
  340MPD2    C4 5153   1.043   2.643  10.418 -0.0707  0.0748  0.5306
  340MPD2    C5 5154   1.045   2.505  10.433 -0.3241  0.0607 -0.4463
  340MPD2     H 5155   1.103   2.658  10.080  1.2122  1.7179  0.0868
  340MPD2    H1 5156   1.017   2.700  10.506  1.3741 -1.9104  2.2442
  340MPD2    H2 5157   1.080   2.325  10.329  1.8958 -0.3555  1.3459
  340MPD2    H3 5158   1.000   2.461  10.521  1.3671  2.2123  1.5130
  340MPD2     N 5159   1.047   2.836  10.274  0.0351 -0.3383 -0.5003
  340MPD2    H5 5160   1.031   2.888  10.360  1.6281 -0.7710  0.0639
  340MPD2    N1 5161   1.181   2.402  10.103  0.4884 -0.2191 -0.3216
  340MPD2    H7 5162   1.202   2.305  10.125 -1.8460 -0.8533 -0.8317
  341TMC3    C1 5163   1.303   2.333   9.915 -0.4783 -0.2898 -0.3077
  341TMC3    C2 5164   1.275   2.200   9.952 -0.0327  0.6073  0.4289
  341TMC3    C3 5165   1.366   2.105   9.908  0.0781  0.2671  1.0086
  341TMC3    C4 5166   1.416   2.361   9.839  0.6359  0.4631  0.1164
  341TMC3    C5 5167   1.510   2.270   9.804  0.0475  0.3819  0.6329
  341TMC3    C6 5168   1.484   2.137   9.837  0.2640  0.4850  0.7178
  341TMC3     C 5169   1.227   2.442   9.980 -0.6422 -0.4944  0.2759
  341TMC3     O 5170   1.224   2.549   9.930 -0.1654  0.2059  0.2535
  341TMC3     H 5171   1.172   2.191   9.984 -0.3382  0.2894 -0.6318
  341TMC3    H1 5172   1.444   2.465   9.822  1.1553  0.5634  1.5948
  341TMC3    H2 5173   1.546   2.060   9.794 -0.8365 -0.5744  1.0263
  341TMC3    C7 5174   1.638   2.324   9.760 -0.2089  0.4128 -0.1559
  341TMC3    C8 5175   1.302   1.981   9.888 -0.2668 -1.1117 -0.8948
  341TMC3    O1 5176   1.644   2.446   9.740 -0.1393  0.1943 -0.0593
  341TMC3    O2 5177   1.180   1.974   9.894 -0.1232 -0.7540  0.4134
  342MPD2     C 5178   4.539   0.694   0.093 -0.9420 -0.4858  0.3569
  342MPD2    C1 5179   4.498   0.751  17.709  0.0399 -0.5784  0.0731
  342MPD2    C2 5180   4.479   0.883  17.699 -1.1148  0.7477 -0.1521
  342MPD2    C3 5181   4.496   0.971   0.061  0.6270  0.7774  0.2103
  342MPD2    C4 5182   4.542   0.919   0.177 -0.5403  0.4502 -0.4826
  342MPD2    C5 5183   4.561   0.786   0.195 -0.3076 -0.6160  0.6470
  342MPD2     H 5184   4.439   0.927  17.608  0.9011  0.4596 -1.1716
  342MPD2    H1 5185   4.573   0.981   0.261 -1.0731 -1.8643  1.4187
  342MPD2    H2 5186   4.571   0.593   0.114  0.7468 -0.2491 -1.1037
  342MPD2    H3 5187   4.600   0.744   0.287  1.6113  0.4190  0.3014
  342MPD2     N 5188   4.466   1.112   0.056 -0.8109  0.1299 -0.1041
  342MPD2    H5 5189   4.499   1.165   0.136 -0.0121 -1.1928  0.4290
  342MPD2    N1 5190   4.472   0.675  17.598 -0.0886  0.4546 -0.1140
  342MPD2    H7 5191   4.455   0.731  17.515  0.3413  2.1997  0.9878
  343TMC3    C1 5192   4.426   0.494  17.454 -0.1824 -0.1262 -0.3056
  343TMC3    C2 5193   4.472   0.571  17.348  0.5376 -0.5304  0.5943
  343TMC3    C3 5194   4.488   0.503  17.231  0.2746 -0.3539  0.1324
  343TMC3    C4 5195   4.386   0.364  17.435  0.5906  0.6597  0.0061
  343TMC3    C5 5196   4.400   0.305  17.313 -0.5189  0.2458  0.3123
  343TMC3    C6 5197   4.447   0.380  17.208  0.2736  0.2811  0.6369
  343TMC3     C 5198   4.442   0.538  17.592  0.2612  0.2629  0.0349
  343TMC3     O 5199   4.422   0.457  17.680  0.1813 -0.3125 -0.0630
  343TMC3     H 5200   4.524   0.665  17.366  2.0845 -0.8459 -2.1843
  343TMC3    H1 5201   4.335   0.315  17.517  1.4301  1.0443  0.7539
  343TMC3    H2 5202   4.430   0.335  17.111  2.4801  1.1601 -0.1463
  343TMC3    C7 5203   4.312   0.197  17.272 -0.3136 -0.3243 -0.2787
  343TMC3    C8 5204   4.565   0.572  17.131  0.1601  0.0993  0.5784
  343TMC3    O1 5205   4.266   0.205  17.160 -0.7125  0.1237 -0.5658
  343TMC3    O2 5206   4.586   0.693  17.151 -0.3226 -0.4274 -0.4008
  344MPD2     C 5207   4.323   0.611   9.712  0.1611 -0.4498 -0.0855
  344MPD2    C1 5208   4.371   0.644   9.838  0.1776 -0.0082 -0.8207
  344MPD2    C2 5209   4.453   0.753   9.860 -0.9291 -0.4172 -0.0305
  344MPD2    C3 5210   4.488   0.829   9.749 -0.3470 -0.1279  0.0705
  344MPD2    C4 5211   4.448   0.796   9.624 -0.2128  0.0862 -0.6783
  344MPD2    C5 5212   4.372   0.684   9.608  0.5885 -0.1602  0.0525
  344MPD2     H 5213   4.490   0.775   9.960  0.2806  2.4220 -1.0978
  344MPD2    H1 5214   4.464   0.852   9.533  0.1517  0.0710 -0.6243
  344MPD2    H2 5215   4.269   0.519   9.693  2.1963 -1.2200 -2.2304
  344MPD2    H3 5216   4.350   0.648   9.508  0.8105  0.8421 -0.3565
  344MPD2     N 5217   4.558   0.945   9.763  0.0959 -0.5781  0.0057
  344MPD2    H5 5218   4.554   1.014   9.689  0.2002 -0.1029  0.4474
  344MPD2    N1 5219   4.321   0.570   9.951 -0.5560 -0.3259 -0.4446
  344MPD2    H7 5220   4.380   0.576  10.033  0.0893  1.0209 -1.0173
  345TMC3    C1 5221   4.684   1.108   9.865 -0.4132  0.1728  0.4697
  345TMC3    C2 5222   0.036   1.147   9.962  0.4898 -1.0091  0.3173
  345TMC3    C3 5223   0.067   1.281   9.966  0.1200  0.5246 -0.5965
  345TMC3    C4 5224   4.615   1.199   9.793  0.3679 -0.2731 -0.5478
  345TMC3    C5 5225   4.663   1.323   9.785  0.2904  0.2759  0.0593
  345TMC3    C6 5226   0.013   1.370   9.876  0.9859  0.7616 -0.0570
  345TMC3     C 5227   4.638   0.970   9.871  0.3322  0.9398 -0.3058
  345TMC3     O 5228   4.671   0.900   9.960 -0.6787  0.0286  0.8279
  345TMC3     H 5229   0.068   1.076  10.038 -0.4895 -0.1176  1.5725
  345TMC3    H1 5230   4.520   1.181   9.744  0.0852 -0.9039  0.2268
  345TMC3    H2 5231   0.041   1.474   9.861 -0.9753  1.0867 -1.4212
  345TMC3    C7 5232   4.600   1.424   9.704  0.3856  0.5748  0.0607
  345TMC3    C8 5233   0.134   1.340  10.075  0.1293 -0.3904  0.9034
  345TMC3    O1 5234   4.598   1.534   9.761  0.0691 -0.8902 -0.0997
  345TMC3    O2 5235   0.155   1.457  10.065  0.3093 -0.0572 -0.2119
  346MPD2     C 5236   0.059   2.528  14.333  0.1398 -0.6771 -0.4729
  346MPD2    C1 5237   0.128   2.584  14.232  0.1358  0.7269  0.4672
  346MPD2    C2 5238   0.232   2.672  14.256  0.0195 -0.1049  0.1544
  346MPD2    C3 5239   0.274   2.705  14.384 -0.6760  0.2132  0.5500
  346MPD2    C4 5240   0.201   2.648  14.489 -0.8300  0.0612 -1.1012
  346MPD2    C5 5241   0.101   2.558  14.460 -0.0811 -1.0130 -1.2475
  346MPD2     H 5242   0.284   2.721  14.174  1.0025 -0.1269  0.7581
  346MPD2    H1 5243   0.236   2.650  14.592  0.8964  2.7654 -1.7372
  346MPD2    H2 5244   4.711   2.460  14.325  0.0624 -0.6041 -0.2713
  346MPD2    H3 5245   0.056   2.506  14.544  1.7876  1.4185  1.2748
  346MPD2     N 5246   0.389   2.779  14.409 -0.0132 -0.0910  0.7009
  346MPD2    H5 5247   0.424   2.824  14.325  0.0884  2.9456  2.3273
  346MPD2    N1 5248   0.085   2.564  14.096  0.2956 -0.5770 -0.6010
  346MPD2    H7 5249   0.119   2.622  14.020  2.3512 -2.4495 -1.1313
  347TMC3    C1 5250   0.590   2.875  14.504  0.6903 -0.0395  0.2946
  347TMC3    C2 5251   0.627   2.907  14.379 -0.5215 -0.2004  0.0735
  347TMC3    C3 5252   0.760   2.918  14.350  0.3715 -0.3779  0.3731
  347TMC3    C4 5253   0.681   2.855  14.601 -0.2021 -0.1575  0.1771
  347TMC3    C5 5254   0.816   2.867  14.569  0.6259 -0.1539 -0.4526
  347TMC3    C6 5255   0.858   2.898  14.439 -0.2130  0.2585 -0.0049
  347TMC3     C 5256   0.460   2.818  14.526  0.3111  1.1104  0.0291
  347TMC3     O 5257   0.430   2.789  14.643 -0.2141 -0.2609  0.5816
  347TMC3     H 5258   0.547   2.922  14.308  0.7061 -0.4665 -1.3492
  347TMC3    H1 5259   0.649   2.837  14.703 -0.1349  3.0042  0.7684
  347TMC3    H2 5260   0.959   2.897  14.399 -0.2723 -0.4076 -0.1303
  347TMC3    C7 5261   0.905   2.887  14.672  0.1019  0.0177 -0.0746
  347TMC3    C8 5262   0.788   2.837  14.239 -0.6465  0.1947  0.9775
  347TMC3    O1 5263   0.864   2.862  14.785 -0.1115 -0.0053  0.1288
  347TMC3    O2 5264   0.869   2.750  14.244  0.5668  0.2230 -0.2417
  348MPD2     C 5265   3.793   2.308  12.029 -0.1682  0.2961  0.3641
  348MPD2    C1 5266   3.717   2.252  11.930 -0.2158 -0.5725 -0.1786
  348MPD2    C2 5267   3.728   2.292  11.797 -0.0135  0.0444  0.4764
  348MPD2    C3 5268   3.822   2.388  11.761  0.3081 -0.8795 -0.2012
  348MPD2    C4 5269   3.906   2.439  11.861  0.4275 -0.1750 -0.1002
  348MPD2    C5 5270   3.892   2.390  11.987  0.4396  0.0545 -0.2474
  348MPD2     H 5271   3.652   2.260  11.728  1.2680 -1.5594 -0.2058
  348MPD2    H1 5272   3.982   2.512  11.837 -0.5333  0.1225 -2.2567
  348MPD2    H2 5273   3.786   2.284  12.134 -0.0031 -1.5869 -0.0493
  348MPD2    H3 5274   3.955   2.438  12.060  1.9596 -0.0389 -1.4953
  348MPD2     N 5275   3.831   2.426  11.626 -0.0599 -0.3632  0.3526
  348MPD2    H5 5276   3.764   2.375  11.570 -0.4008  0.1378  0.3079
  348MPD2    N1 5277   3.622   2.157  11.954 -0.6949 -0.4601 -0.2135
  348MPD2    H7 5278   3.570   2.131  11.871 -0.8481  0.1076 -0.2931
  349TMC3    C1 5279   3.519   1.965  12.042  0.1072 -1.1873 -0.0924
  349TMC3    C2 5280   3.539   1.843  12.098  0.2433  0.1196 -0.2364
  349TMC3    C3 5281   3.455   1.745  12.054 -0.4236 -0.4178 -0.2693
  349TMC3    C4 5282   3.428   1.995  11.945 -0.0424 -0.0734 -1.0496
  349TMC3    C5 5283   3.347   1.895  11.909 -0.2320  0.2955 -0.5395
  349TMC3    C6 5284   3.365   1.766  11.956  0.0353 -0.1939  0.9450
  349TMC3     C 5285   3.618   2.073  12.065 -0.4364 -0.5569  0.1697
  349TMC3     O 5286   3.691   2.071  12.166  0.1875 -0.3012  0.3280
  349TMC3     H 5287   3.618   1.835  12.173  0.0092  0.9779  0.0979
  349TMC3    H1 5288   3.406   2.097  11.917 -0.2681  0.2342  0.2473
  349TMC3    H2 5289   3.312   1.685  11.906  0.4099 -0.2944  0.7059
  349TMC3    C7 5290   3.240   1.924  11.810 -0.6691 -0.1980  0.3731
  349TMC3    C8 5291   3.496   1.608  12.077 -0.3195 -0.5035  0.1642
  349TMC3    O1 5292   3.182   1.823  11.765  0.9531  0.0541 -0.2329
  349TMC3    O2 5293   3.609   1.591  12.120  0.3252  0.1353  0.0083
  350MPD2     C 5294   3.059   0.499  10.701 -0.0278  0.2269 -0.0206
  350MPD2    C1 5295   2.997   0.383  10.744 -0.5308 -0.7593  0.1340
  350MPD2    C2 5296   3.024   0.345  10.873 -0.3884  0.1021  0.5183
  350MPD2    C3 5297   3.120   0.402  10.945 -0.5108 -0.0821 -0.7348
  350MPD2    C4 5298   3.190   0.500  10.892 -0.2243  0.5772 -0.7714
  350MPD2    C5 5299   3.169   0.544  10.769  0.2893 -0.7010  0.0299
  350MPD2     H 5300   2.974   0.259  10.918 -0.5416 -0.6455 -1.0787
  350MPD2    H1 5301   3.275   0.550  10.938 -0.5163  0.4075 -0.0522
  350MPD2    H2 5302   3.045   0.539  10.602 -2.0770  0.9834  0.5819
  350MPD2    H3 5303   3.233   0.625  10.735 -0.8220  0.1022 -0.1888
  350MPD2     N 5304   3.135   0.372  11.082  0.9017  0.7280 -0.3514
  350MPD2    H5 5305   3.077   0.293  11.106  1.2886  0.8662  1.0103
  350MPD2    N1 5306   2.914   0.303  10.659 -0.1975 -0.9488  0.1935
  350MPD2    H7 5307   2.878   0.217  10.699  0.0464 -0.9401  0.4377
  351TMC3    C1 5308   2.781   0.237  10.468  0.0723 -0.2560  0.5959
  351TMC3    C2 5309   2.833   0.191  10.354  0.0216  0.2724 -0.7800
  351TMC3    C3 5310   2.796   0.070  10.305  0.0401 -0.0428 -0.7113
  351TMC3    C4 5311   2.700   0.163  10.549 -0.0903 -1.0110  0.4175
  351TMC3    C5 5312   2.667   0.036  10.499 -0.0673 -0.9694  0.4014
  351TMC3    C6 5313   2.716   4.722  10.385  0.0840 -0.6531  0.2699
  351TMC3     C 5314   2.867   0.332  10.527 -0.7644 -0.2199 -0.2141
  351TMC3     O 5315   2.904   0.422  10.456  0.7104  0.3892 -0.0334
  351TMC3     H 5316   2.907   0.246  10.298  0.7029  0.4526  0.3029
  351TMC3    H1 5317   2.654   0.210  10.635  1.1532 -0.7097  0.9217
  351TMC3    H2 5318   2.699   4.620  10.352  1.3468 -0.7927  0.0407
  351TMC3    C7 5319   2.577   4.695  10.586 -0.4105  0.3713 -0.6324
  351TMC3    C8 5320   2.850   0.013  10.174  0.6219  0.6163 -0.6813
  351TMC3    O1 5321   2.565   0.004  10.698  0.1626 -0.5880 -0.0906
  351TMC3    O2 5322   2.882   4.633  10.177 -0.7895 -0.6032 -0.0692
  352MPD2     C 5323   1.597   2.149   1.319  0.3577  0.2899 -0.1275
  352MPD2    C1 5324   1.550   2.108   1.196 -0.2581  0.5866 -0.2563
  352MPD2    C2 5325   1.578   1.983   1.150 -0.0660  0.0679 -0.5718
  352MPD2    C3 5326   1.665   1.895   1.221  0.0048 -0.2994 -0.1095
  352MPD2    C4 5327   1.706   1.932   1.344  0.2344 -0.5119  0.8138
  352MPD2    C5 5328   1.666   2.055   1.392  0.4239  0.3469  0.1721
  352MPD2     H 5329   1.532   1.951   1.058 -1.8093 -0.5938  0.5335
  352MPD2    H1 5330   1.770   1.863   1.398 -1.3895 -1.4111  1.6064
  352MPD2    H2 5331   1.569   2.243   1.365 -2.3267 -0.3917 -0.4091
  352MPD2    H3 5332   1.697   2.077   1.494 -0.9327  3.4778 -0.0731
  352MPD2     N 5333   1.709   1.769   1.168 -0.3136 -0.4187  0.2685
  352MPD2    H5 5334   1.766   1.706   1.224 -1.3567  0.6237  2.4851
  352MPD2    N1 5335   1.468   2.201   1.132 -0.5571 -0.1301  0.4796
  352MPD2    H7 5336   1.458   2.289   1.181 -0.7857  1.4755 -2.5086
  353TMC3    C1 5337   1.696   1.581   1.025 -0.3846  0.6276  0.2988
  353TMC3    C2 5338   1.823   1.533   1.051  0.0641  0.4555 -0.0008
  353TMC3    C3 5339   1.855   1.415   0.992 -0.9444 -0.0017 -0.3475
  353TMC3    C4 5340   1.604   1.515   0.950  0.4883 -0.3281  0.1579
  353TMC3    C5 5341   1.638   1.394   0.898 -0.5999  0.2109 -0.6711
  353TMC3    C6 5342   1.768   1.343   0.916  0.1329 -0.0718  0.7812
  353TMC3     C 5343   1.669   1.720   1.037  0.8024  0.4262  0.7140
  353TMC3     O 5344   1.595   1.770   0.954  0.5125 -0.1184  0.2536
  353TMC3     H 5345   1.889   1.574   1.126  1.0843 -4.1968  1.6598
  353TMC3    H1 5346   1.507   1.563   0.944  0.4059 -0.6206 -1.0233
  353TMC3    H2 5347   1.803   1.266   0.848  0.8858  1.5623 -0.7022
  353TMC3    C7 5348   1.547   1.308   0.817 -0.0585 -0.0004 -0.0490
  353TMC3    C8 5349   1.979   1.353   1.026 -0.1666 -0.1228 -0.9644
  353TMC3    O1 5350   1.602   1.226   0.743 -0.0248 -0.0397  0.0672
  353TMC3    O2 5351   2.077   1.425   1.046 -0.0710  0.0829 -0.1113
  354TMC3    C1 5352   2.590   2.755  13.262 -0.0076  0.2112  0.1650
  354TMC3    C2 5353   2.602   2.892  13.281  0.7782  0.0677  0.2502
  354TMC3    C3 5354   2.719   2.947  13.250 -0.4382  0.4768  0.1587
  354TMC3    C4 5355   2.700   2.681  13.232 -0.7928 -0.0917  0.7595
  354TMC3    C5 5356   2.817   2.746  13.205 -0.5901 -0.1710  0.3768
  354TMC3    C6 5357   2.823   2.880  13.194 -0.0590 -0.1478 -0.4630
  354TMC3     C 5358   2.508   2.693  13.349  0.1864  0.3535  0.1214
  354TMC3     O 5359   2.403   2.647  13.303  0.0050  0.1172 -0.1289
  354TMC3     H 5360   2.527   2.959  13.322  1.0864 -0.0379  0.9998
  354TMC3    H1 5361   2.702   2.578  13.267  0.2644 -1.2004 -2.5248
  354TMC3    H2 5362   2.918   2.933  13.186 -1.2251  2.0273  0.2851
  354TMC3    C7 5363   2.941   2.660  13.211  0.2838  0.3494 -0.8430
  354TMC3    C8 5364   2.735   3.094  13.265  0.1792 -0.2793 -0.0794
  354TMC3    O1 5365   2.945   2.545  13.241  0.1058  0.2396 -0.4219
  354TMC3    O2 5366   2.652   3.148  13.338  0.2750 -0.6360  0.5041
  355MPD2     C 5367   3.126   3.925  12.071  0.0149 -1.1471 -0.4393
  355MPD2    C1 5368   3.242   3.919  11.997  0.1789 -0.1913  0.4670
  355MPD2    C2 5369   3.316   3.803  12.007 -0.4228 -0.4063 -0.0955
  355MPD2    C3 5370   3.280   3.703  12.100 -0.9455  0.4723 -0.3605
  355MPD2    C4 5371   3.178   3.721  12.189 -0.0577 -0.1914 -0.1371
  355MPD2    C5 5372   3.098   3.834  12.169 -0.0016  0.0454 -0.6097
  355MPD2     H 5373   3.399   3.793  11.939  0.2274 -1.8733  0.9223
  355MPD2    H1 5374   3.154   3.646  12.263  1.3992 -0.6287 -0.1141
  355MPD2    H2 5375   3.059   4.009  12.061  2.0201  0.4162 -0.8009
  355MPD2    H3 5376   3.007   3.840  12.228 -0.2079  0.3110 -0.9580
  355MPD2     N 5377   3.370   3.589  12.112  0.0650 -0.8863  0.2409
  355MPD2    H5 5378   3.347   3.527  12.189  0.3835 -0.1166  0.9593
  355MPD2    N1 5379   3.272   4.013  11.897 -0.5832 -0.1508 -0.0708
  355MPD2    H7 5380   3.216   4.097  11.896  0.2448  0.3888 -0.8779
  356TMC3    C1 5381   3.567   3.473  12.043 -0.4872 -0.3726 -0.2293
  356TMC3    C2 5382   3.647   3.458  11.933 -0.1100 -0.0279  0.2316
  356TMC3    C3 5383   3.762   3.532  11.921  0.5438  0.2450 -0.6128
  356TMC3    C4 5384   3.614   3.543  12.151 -0.2057 -0.4285  0.4796
  356TMC3    C5 5385   3.739   3.600  12.141 -0.0152 -0.2715 -0.0539
  356TMC3    C6 5386   3.816   3.605  12.025  0.5760 -0.0926 -0.3779
  356TMC3     C 5387   3.451   3.553  12.003 -0.2403 -1.1007 -0.3302
  356TMC3     O 5388   3.433   3.563  11.884  0.4941  0.1804 -0.3057
  356TMC3     H 5389   3.610   3.413  11.842  0.7093  0.1436 -0.1928
  356TMC3    H1 5390   3.573   3.546  12.251  2.5598 -1.6975  1.6589
  356TMC3    H2 5391   3.920   3.632  12.018  0.3532  0.8829  0.2157
  356TMC3    C7 5392   3.799   3.616  12.264 -0.3549 -0.4245  0.3895
  356TMC3    C8 5393   3.777   3.586  11.788 -0.4036  0.2427 -0.0074
  356TMC3    O1 5394   3.809   3.528  12.346 -0.8215  0.5491  0.3970
  356TMC3    O2 5395   3.744   3.505  11.700 -0.4538 -0.2846 -0.2193
  357MPD2     C 5396   2.788   3.011   0.973  0.0362 -0.1501  0.0486
  357MPD2    C1 5397   2.731   3.026   0.848 -0.1930 -0.1580 -0.4635
  357MPD2    C2 5398   2.606   2.965   0.825 -0.5960  0.0311  0.1017
  357MPD2    C3 5399   2.546   2.894   0.924 -0.7710 -0.6486  0.4393
  357MPD2    C4 5400   2.603   2.882   1.046 -0.1674  0.1942 -0.6520
  357MPD2    C5 5401   2.729   2.943   1.067  0.1111 -0.3914  0.1389
  357MPD2     H 5402   2.550   2.966   0.732  0.3783  2.2731 -0.4547
  357MPD2    H1 5403   2.550   2.830   1.126 -1.0382  1.1521 -0.6099
  357MPD2    H2 5404   2.889   3.039   0.999  0.6104 -1.5652 -0.6557
  357MPD2    H3 5405   2.782   2.925   1.161 -0.2221  1.7316  0.7437
  357MPD2     N 5406   2.428   2.822   0.905 -0.0465 -0.2942 -0.0118
  357MPD2    H5 5407   2.389   2.791   0.993 -1.8919  0.8309 -0.4476
  357MPD2    N1 5408   2.797   3.106   0.756  0.1766  0.0285 -0.3790
  357MPD2    H7 5409   2.869   3.170   0.790  0.4105 -0.4110 -0.0470
  358TMC3    C1 5410   2.848   3.183   0.540  1.0045 -0.0285 -0.2111
  358TMC3    C2 5411   2.882   3.133   0.417 -1.0222 -0.1112  0.2692
  358TMC3    C3 5412   2.980   3.199   0.349  0.2062  0.8673  0.1265
  358TMC3    C4 5413   2.932   3.270   0.605 -0.3692  0.4089 -0.4625
  358TMC3    C5 5414   3.020   3.332   0.522 -0.5206  0.0618  0.1820
  358TMC3    C6 5415   3.038   3.305   0.390 -0.6258 -0.3679  0.5443
  358TMC3     C 5416   2.757   3.099   0.621  0.0996 -0.0876 -0.7159
  358TMC3     O 5417   2.680   3.025   0.557  0.2319  0.1655 -0.5563
  358TMC3     H 5418   2.831   3.045   0.379 -1.0628 -0.5906  1.4241
  358TMC3    H1 5419   2.903   3.314   0.700 -1.3892 -0.2735 -0.4545
  358TMC3    H2 5420   3.137   3.330   0.354 -0.4171 -2.1372 -0.0857
  358TMC3    C7 5421   3.085   3.449   0.580 -0.0211 -0.1776 -1.1549
  358TMC3    C8 5422   3.049   3.121   0.251 -0.1650  0.1310  0.0505
  358TMC3    O1 5423   3.109   3.451   0.699 -0.0623 -0.3237 -0.3676
  358TMC3    O2 5424   3.082   3.174   0.142  0.1598 -0.1513  0.2106
  359MPD2     C 5425   3.424   2.643  12.349  0.0645 -0.2563  0.1579
  359MPD2    C1 5426   3.396   2.619  12.219  0.3222 -0.0337  0.4370
  359MPD2    C2 5427   3.281   2.545  12.192 -0.3351  0.4566  0.2156
  359MPD2    C3 5428   3.204   2.484  12.295 -0.6890 -0.3238 -0.3826
  359MPD2    C4 5429   3.240   2.514  12.422 -0.3826  0.8762  0.2596
  359MPD2    C5 5430   3.344   2.600  12.454  0.3606 -1.0860 -0.2657
  359MPD2     H 5431   3.250   2.533  12.089  0.5312 -0.1541  0.0211
  359MPD2    H1 5432   3.167   2.491  12.499  0.4064 -0.7493  0.5189
  359MPD2    H2 5433   3.511   2.701  12.378  0.8755  0.2973 -3.4755
  359MPD2    H3 5434   3.360   2.625  12.558  0.6979  2.8099 -1.2392
  359MPD2     N 5435   3.095   2.398  12.275  1.0066 -0.7518  0.1215
  359MPD2    H5 5436   3.048   2.354  12.354  0.7268 -2.1781 -0.8543
  359MPD2    N1 5437   3.463   2.677  12.106  0.3641 -0.2470 -0.1675
  359MPD2    H7 5438   3.416   2.658  12.019  0.5394 -1.0183 -0.0945
  360TMC3    C1 5439   3.663   2.777  12.004 -0.0143 -0.6983  0.2455
  360TMC3    C2 5440   3.795   2.801  12.023 -0.3585 -0.4328 -0.1259
  360TMC3    C3 5441   3.875   2.813  11.913  0.1732  1.2217 -0.0226
  360TMC3    C4 5442   3.608   2.747  11.883  0.6072  0.6904 -0.1731
  360TMC3    C5 5443   3.693   2.758  11.779  0.3306  0.2578 -0.0920
  360TMC3    C6 5444   3.825   2.791  11.787 -0.5930  0.1043  0.4221
  360TMC3     C 5445   3.582   2.756  12.124 -0.5688 -0.0653 -0.6443
  360TMC3     O 5446   3.652   2.778  12.223  0.0787 -0.1257 -0.1258
  360TMC3     H 5447   3.829   2.849  12.114  0.3433 -2.4994  0.7142
  360TMC3    H1 5448   3.501   2.734  11.871  0.8260 -0.6944 -0.6412
  360TMC3    H2 5449   3.874   2.817  11.693 -2.6644 -0.3709 -0.7884
  360TMC3    C7 5450   3.642   2.735  11.648 -0.1087  0.3812 -0.4574
  360TMC3    C8 5451   4.013   2.855  11.921 -0.5391  0.0747  0.9591
  360TMC3    O1 5452   3.694   2.797  11.557  0.2862  0.1668  0.1600
  360TMC3    O2 5453   4.039   2.915  12.021  0.5467  0.4491  0.4702
  361MPD2     C 5454   0.666   1.629  16.217  0.8417  0.4851  0.3295
  361MPD2    C1 5455   0.614   1.636  16.340 -0.3450  0.6040 -0.3075
  361MPD2    C2 5456   0.664   1.552  16.442 -0.2269 -0.8013 -0.7994
  361MPD2    C3 5457   0.769   1.465  16.417  0.3576  0.2360  0.6286
  361MPD2    C4 5458   0.820   1.453  16.295  0.1237  0.4475 -0.0662
  361MPD2    C5 5459   0.768   1.538  16.194  0.2949  0.2121  0.3130
  361MPD2     H 5460   0.619   1.552  16.541  1.6062 -1.7127  0.0309
  361MPD2    H1 5461   0.902   1.385  16.276 -0.5075 -0.9213  2.2213
  361MPD2    H2 5462   0.634   1.696  16.138  0.9566 -0.5078 -0.5695
  361MPD2    H3 5463   0.815   1.533  16.097 -1.5879 -2.1033 -0.4689
  361MPD2     N 5464   0.824   1.368  16.509  0.2630 -0.1701 -0.0207
  361MPD2    H5 5465   0.875   1.289  16.470 -0.3977 -0.3236 -0.5723
  361MPD2    N1 5466   0.490   1.704  16.363 -0.5108  0.4403  0.1989
  361MPD2    H7 5467   0.447   1.685  16.453  0.5437  3.4028  1.3131
  362TMC3    C1 5468   0.293   1.835  16.321  0.5385 -0.1214  0.3730
  362TMC3    C2 5469   0.251   1.811  16.446 -0.2723  0.1067  0.2422
  362TMC3    C3 5470   0.117   1.831  16.475  0.1335 -0.4519 -0.0494
  362TMC3    C4 5471   0.198   1.850  16.225  0.4084 -0.3177  0.5958
  362TMC3    C5 5472   0.065   1.861  16.257  0.1386 -0.8922 -0.4917
  362TMC3    C6 5473   0.015   1.858  16.384 -0.4357 -0.0999  0.2296
  362TMC3     C 5474   0.414   1.778  16.271 -0.6108 -0.2407  1.3239
  362TMC3     O 5475   0.428   1.785  16.148 -0.1498  0.1402  0.4992
  362TMC3     H 5476   0.323   1.793  16.526 -0.1776  1.0254  0.3637
  362TMC3    H1 5477   0.229   1.872  16.123  0.3601 -0.3553  0.5732
  362TMC3    H2 5478   4.646   1.847  16.408 -0.3900 -0.5832  0.2207
  362TMC3    C7 5479   4.710   1.913  16.160  0.2411  0.4801  0.1609
  362TMC3    C8 5480   0.082   1.793  16.612 -0.0965 -0.2329  0.9609
  362TMC3    O1 5481   4.641   2.009  16.199  0.2408 -0.6626  0.3417
  362TMC3    O2 5482   0.163   1.724  16.673 -0.1386 -0.3719  0.7287
  363TMC3    C1 5483   3.041   4.456   8.857  1.0216  0.1086  0.3257
  363TMC3    C2 5484   3.154   4.450   8.933 -0.4359 -0.3851 -0.4236
  363TMC3    C3 5485   3.165   4.345   9.022  0.2342  0.2819  0.2496
  363TMC3    C4 5486   2.939   4.362   8.857  0.2611 -0.6751  0.5549
  363TMC3    C5 5487   2.950   4.259   8.943 -0.1160 -0.7815 -0.6776
  363TMC3    C6 5488   3.066   4.248   9.025  0.1706  0.2966  0.0012
  363TMC3     C 5489   3.041   4.567   8.768  0.2791 -0.7757 -0.1336
  363TMC3     O 5490   3.152   4.615   8.741 -0.2281  0.5782 -0.2606
  363TMC3     H 5491   3.234   4.524   8.929 -0.3586 -0.4504 -0.0592
  363TMC3    H1 5492   2.855   4.372   8.788  0.2583 -0.7624  0.5464
  363TMC3    H2 5493   3.056   4.192   9.118 -1.2784 -1.6563 -1.3144
  363TMC3    C7 5494   2.838   4.163   8.961  0.1061  0.5126 -0.4084
  363TMC3    C8 5495   3.259   4.348   9.130 -0.0896 -0.2723  1.0705
  363TMC3    O1 5496   2.739   4.190   8.894 -0.5138  0.3665  0.6625
  363TMC3    O2 5497   3.286   4.461   9.164  0.2487 -0.0071  0.2211
  364MPD2     C 5498   2.714   3.711  10.336 -0.0091 -0.1292  0.6311
  364MPD2    C1 5499   2.613   3.718  10.429 -0.1212  0.1896  0.0110
  364MPD2    C2 5500   2.539   3.600  10.449 -0.4474  0.7787  0.8035
  364MPD2    C3 5501   2.571   3.488  10.376 -1.2105  0.3329  0.1955
  364MPD2    C4 5502   2.688   3.489  10.292  0.5873 -0.6353  0.2201
  364MPD2    C5 5503   2.762   3.601  10.275 -0.0635 -0.3938 -0.1509
  364MPD2     H 5504   2.453   3.605  10.515 -0.4882 -0.3451  0.8342
  364MPD2    H1 5505   2.725   3.395  10.253  0.1074 -0.4680 -0.6200
  364MPD2    H2 5506   2.760   3.806  10.313  0.0055  0.0233  1.3088
  364MPD2    H3 5507   2.853   3.606  10.215 -0.4483  1.5563 -0.5925
  364MPD2     N 5508   2.513   3.361  10.389 -0.2775 -0.5264  0.0290
  364MPD2    H5 5509   2.556   3.282  10.342 -0.2045 -1.5234  1.7453
  364MPD2    N1 5510   2.584   3.842  10.489  0.0050 -0.2413 -0.4766
  364MPD2    H7 5511   2.644   3.916  10.453  1.1318  0.0453  1.9274
  365TMC3    C1 5512   2.497   4.007  10.622  0.4505  0.0942 -0.5867
  365TMC3    C2 5513   2.526   4.092  10.508 -0.5166  0.2482 -0.7230
  365TMC3    C3 5514   2.595   4.206  10.542  0.0376  0.7371  0.9569
  365TMC3    C4 5515   2.537   4.039  10.755  0.3261 -0.0926 -0.6857
  365TMC3    C5 5516   2.605   4.151  10.772 -0.6864 -0.1082  0.5633
  365TMC3    C6 5517   2.642   4.230  10.668 -0.2192 -0.0844  0.3379
  365TMC3     C 5518   2.500   3.867  10.592 -0.6076 -0.1585 -0.5918
  365TMC3     O 5519   2.420   3.791  10.647 -0.2508  0.0086 -0.0154
  365TMC3     H 5520   2.480   4.062  10.415  0.4562 -2.6560 -0.2633
  365TMC3    H1 5521   2.535   3.961  10.830  3.2169  1.5767  1.1530
  365TMC3    H2 5522   2.692   4.323  10.693  0.0769 -0.5773  1.5885
  365TMC3    C7 5523   2.650   4.192  10.900 -0.0692 -0.8473  0.5335
  365TMC3    C8 5524   2.678   4.260  10.435 -0.1720 -0.0838 -0.5801
  365TMC3    O1 5525   2.753   4.254  10.896 -0.6591 -0.3778  0.0380
  365TMC3    O2 5526   2.789   4.300  10.474 -0.2363  0.0595 -0.0826
  366MPD2     C 5527   0.742   4.397  15.045  0.1917 -0.3351 -0.7581
  366MPD2    C1 5528   0.779   4.519  14.987  0.3291 -0.0839 -0.4934
  366MPD2    C2 5529   0.863   4.513  14.881 -0.3932  0.0317  0.3983
  366MPD2    C3 5530   0.914   4.395  14.832  0.0511  0.6883  0.1182
  366MPD2    C4 5531   0.882   4.277  14.889 -0.3245 -0.4586 -0.2036
  366MPD2    C5 5532   0.788   4.286  14.993 -0.1227 -0.5337 -0.3738
  366MPD2     H 5533   0.890   4.608  14.837 -1.2472  0.2913  0.4277
  366MPD2    H1 5534   0.910   4.175  14.865  3.1905  0.9092 -1.9850
  366MPD2    H2 5535   0.679   4.392  15.132  0.6487 -0.0005 -0.4090
  366MPD2    H3 5536   0.760   4.193  15.040  3.3800 -0.7774  1.2989
  366MPD2     N 5537   1.004   4.402  14.726 -0.7050  0.4791  0.5409
  366MPD2    H5 5538   1.021   4.495  14.689 -0.5944  0.1074 -0.3211
  366MPD2    N1 5539   0.738   4.644  15.037  0.1527  0.6630 -0.6670
  366MPD2    H7 5540   0.764   4.725  14.982 -2.7752  1.8272 -0.2879
  367TMC3    C1 5541   0.636   0.065  15.158  0.2797  0.0761  0.0133
  367TMC3    C2 5542   0.687   0.139  15.254 -0.5849 -0.3812 -0.5828
  367TMC3    C3 5543   0.707   0.270  15.237 -0.2082  0.2819  0.2720
  367TMC3    C4 5544   0.611   0.118  15.036 -0.6111  0.5833 -0.3592
  367TMC3    C5 5545   0.636   0.252  15.015  0.6718  0.2126  0.0078
  367TMC3    C6 5546   0.690   0.326  15.113  0.1163  0.2035  0.0085
  367TMC3     C 5547   0.670   4.668  15.154 -0.2668  0.7309 -0.1164
  367TMC3     O 5548   0.630   4.597  15.243 -0.3193 -0.2869  0.1436
  367TMC3     H 5549   0.696   0.091  15.351  1.7439  0.3610 -0.4441
  367TMC3    H1 5550   0.559   0.055  14.965  0.8517 -1.5045  0.4216
  367TMC3    H2 5551   0.708   0.429  15.086  1.6876  0.1704  0.9371
  367TMC3    C7 5552   0.602   0.323  14.889 -0.3741  0.1331  0.7833
  367TMC3    C8 5553   0.801   0.338  15.326  0.0408  0.3872 -0.8651
  367TMC3    O1 5554   0.674   0.411  14.847 -0.0839 -0.0324 -0.3557
  367TMC3    O2 5555   0.856   0.275  15.416 -0.3715  0.9438 -0.4507
  368MPD2     C 5556   1.443   1.793  12.892  0.3672  0.3801 -0.1927
  368MPD2    C1 5557   1.426   1.856  12.771  0.9132  0.0170  0.6875
  368MPD2    C2 5558   1.536   1.934  12.724 -0.1409 -0.7493  0.1394
  368MPD2    C3 5559   1.648   1.950  12.796  0.0808 -0.0605 -0.3299
  368MPD2    C4 5560   1.667   1.875  12.907 -0.1615 -0.1204  0.8232
  368MPD2    C5 5561   1.563   1.794  12.955  0.7256  0.5114  0.1598
  368MPD2     H 5562   1.531   1.979  12.625 -2.4716  1.0621  1.0922
  368MPD2    H1 5563   1.767   1.849  12.940  0.4420  0.5006 -0.5076
  368MPD2    H2 5564   1.360   1.729  12.922  1.3763 -1.5272 -1.4582
  368MPD2    H3 5565   1.581   1.720  13.032  0.3165  1.6003  1.2991
  368MPD2     N 5566   1.756   2.029  12.756  0.0812 -0.1469 -1.0166
  368MPD2    H5 5567   1.840   2.019  12.812 -0.7011 -0.4404  0.0910
  368MPD2    N1 5568   1.299   1.850  12.713  0.2624 -0.1260 -0.2947
  368MPD2    H7 5569   1.232   1.799  12.770  1.2951  0.0317  1.0734
  369TMC3    C1 5570   1.115   1.906  12.593 -0.1045  0.1386  0.1164
  369TMC3    C2 5571   1.050   2.015  12.538  0.1242 -0.4317  0.1805
  369TMC3    C3 5572   0.918   2.038  12.574 -0.4802 -0.7739  0.3540
  369TMC3    C4 5573   1.043   1.808  12.658  0.0730  0.1400  0.3977
  369TMC3    C5 5574   0.914   1.831  12.685  0.5096  0.2611 -0.1179
  369TMC3    C6 5575   0.846   1.951  12.654 -0.3516  0.1851  0.4321
  369TMC3     C 5576   1.257   1.918  12.603 -0.8718  0.0931 -0.1035
  369TMC3     O 5577   1.319   1.979  12.514  0.6818 -0.0937 -0.4707
  369TMC3     H 5578   1.112   2.086  12.484 -1.0759  0.3078 -0.2201
  369TMC3    H1 5579   1.086   1.711  12.683 -0.3300  0.0622  0.7952
  369TMC3    H2 5580   0.740   1.950  12.677 -0.5000 -2.3740 -0.3437
  369TMC3    C7 5581   0.833   1.722  12.738  0.0693  0.3154 -0.2631
  369TMC3    C8 5582   0.848   2.119  12.483  0.0863 -0.3044  0.0299
  369TMC3    O1 5583   0.757   1.742  12.830  0.3424 -0.6209 -0.2558
  369TMC3    O2 5584   0.743   2.166  12.521 -0.1543 -0.9870  1.0760
  370TMC3    C1 5585   1.524   2.532  16.067 -0.7047  0.3628  0.5633
  370TMC3    C2 5586   1.477   2.450  16.168  0.1709 -0.3702 -0.0218
  370TMC3    C3 5587   1.414   2.337  16.132  0.3572 -0.0842  0.7370
  370TMC3    C4 5588   1.500   2.493  15.933  0.6518 -1.0238 -0.2959
  370TMC3    C5 5589   1.447   2.370  15.902  0.2979  0.9147 -0.6469
  370TMC3    C6 5590   1.392   2.295  16.002  0.5346 -0.1287 -1.0792
  370TMC3     C 5591   1.636   2.621  16.101 -0.7916  0.3900 -0.6989
  370TMC3     O 5592   1.679   2.621  16.214 -0.6588 -0.1628  0.4361
  370TMC3     H 5593   1.497   2.480  16.270  0.4218  1.6612 -0.6741
  370TMC3    H1 5594   1.548   2.546  15.851 -0.1538  0.7217  0.3639
  370TMC3    H2 5595   1.356   2.198  15.970  2.7216 -0.7701 -1.6070
  370TMC3    C7 5596   1.477   2.316  15.773 -0.2979 -0.3143  0.0273
  370TMC3    C8 5597   1.364   2.241  16.232 -0.1286 -0.5352  0.1591
  370TMC3    O1 5598   1.510   2.396  15.690 -0.0268 -0.3164 -0.0130
  370TMC3    O2 5599   1.337   2.128  16.195  0.4631  0.1249 -0.9039
  371TMC3    C1 5600   2.696   0.625  15.181  1.0943  0.3898  0.3183
  371TMC3    C2 5601   2.570   0.636  15.228  1.0730  0.0864 -0.1492
  371TMC3    C3 5602   2.516   0.759  15.237 -1.1519  0.1197  0.5179
  371TMC3    C4 5603   2.759   0.733  15.136  0.0867  0.0179  0.3956
  371TMC3    C5 5604   2.701   0.863  15.150  0.1483  0.2508 -0.8718
  371TMC3    C6 5605   2.576   0.875  15.202 -0.7881 -0.2319  0.3926
  371TMC3     C 5606   2.778   0.499  15.203 -0.4305  0.0018  0.2153
  371TMC3     O 5607   2.888   0.495  15.147  0.0711  0.4529  0.2161
  371TMC3     H 5608   2.524   0.543  15.259  1.4478 -0.2272 -0.5351
  371TMC3    H1 5609   2.860   0.712  15.103  0.0511  0.3863  0.0486
  371TMC3    H2 5610   2.528   0.972  15.197 -2.1000 -0.8517  0.8605
  371TMC3    C7 5611   2.762   0.980  15.082  0.6381 -0.0570  0.6032
  371TMC3    C8 5612   2.383   0.769  15.285  0.3120 -0.2930  0.4186
  371TMC3    O1 5613   2.705   1.089  15.102 -0.5638  0.4166 -0.0372
  371TMC3    O2 5614   2.312   0.668  15.265 -0.0415  0.1258 -0.1149
  372MPD2     C 5615   2.026   1.532  13.170  0.0717  0.1119  0.3998
  372MPD2    C1 5616   2.139   1.457  13.208 -0.2369  0.0054 -0.2561
  372MPD2    C2 5617   2.123   1.361  13.304  0.4368  0.7339 -0.2163
  372MPD2    C3 5618   2.004   1.339  13.367 -0.3305  0.0124 -0.3842
  372MPD2    C4 5619   1.894   1.413  13.325  0.3809  0.3290 -0.5610
  372MPD2    C5 5620   1.900   1.504  13.222  0.9098  0.4445  0.2087
  372MPD2     H 5621   2.212   1.307  13.333  0.1204  0.2450 -0.1687
  372MPD2    H1 5622   1.798   1.386  13.368  0.9136  0.3556  0.6429
  372MPD2    H2 5623   2.036   1.621  13.109 -1.0325 -0.4712 -0.6309
  372MPD2    H3 5624   1.808   1.545  13.182  0.6689  1.4428  1.8382
  372MPD2     N 5625   1.998   1.240  13.465 -0.6740 -0.3057  0.4766
  372MPD2    H5 5626   2.082   1.185  13.481 -0.3099 -0.2319 -1.1432
  372MPD2    N1 5627   2.267   1.480  13.150 -0.6830 -0.3851 -0.1356
  372MPD2    H7 5628   2.347   1.423  13.176 -1.1694  0.3214  2.9632
  373TMC3    C1 5629   1.917   1.080  13.614 -0.0579 -0.0093 -0.0868
  373TMC3    C2 5630   1.875   1.082  13.742  0.4200  0.3609 -0.6558
  373TMC3    C3 5631   1.913   0.968  13.814 -0.7073  0.5019  0.2077
  373TMC3    C4 5632   1.993   0.982  13.555 -0.2546 -0.0217 -0.1669
  373TMC3    C5 5633   2.007   0.868  13.628  0.3487 -0.2784  0.1362
  373TMC3    C6 5634   1.970   0.861  13.753  0.9669  0.3525 -0.4622
  373TMC3     C 5635   1.887   1.189  13.528  0.2563 -0.0415  0.5929
  373TMC3     O 5636   1.777   1.242  13.539 -0.1374 -0.2045  0.4222
  373TMC3     H 5637   1.822   1.163  13.792 -1.2750  0.2869 -2.3403
  373TMC3    H1 5638   2.016   0.988  13.449  1.6988 -0.7738  0.2143
  373TMC3    H2 5639   1.997   0.775  13.814  0.1015  0.6133  0.2865
  373TMC3    C7 5640   2.094   0.768  13.570 -0.4612  0.0459 -1.2066
  373TMC3    C8 5641   1.948   0.974  13.950  0.2737 -0.1923  0.1437
  373TMC3    O1 5642   2.155   0.804  13.471 -0.7788  0.0269 -0.0280
  373TMC3    O2 5643   1.868   1.007  14.037 -0.4331  0.8624  0.1548
  374TMC3    C1 5644   2.240   1.845  10.163 -0.6856  0.3333  0.0017
  374TMC3    C2 5645   2.358   1.899  10.117  0.5777  0.4359  0.3827
  374TMC3    C3 5646   2.353   2.014  10.042 -0.1360 -0.4363  0.3627
  374TMC3    C4 5647   2.120   1.911  10.131 -0.4234  0.5370 -0.9296
  374TMC3    C5 5648   2.122   2.027  10.056  0.4663 -0.6056  0.5035
  374TMC3    C6 5649   2.238   2.082  10.009 -0.1965 -0.0352 -0.5665
  374TMC3     C 5650   2.242   1.721  10.248  1.1869 -0.0028 -0.3530
  374TMC3     O 5651   2.355   1.670  10.271  0.1976 -0.2563  0.0413
  374TMC3     H 5652   2.449   1.842  10.130  0.4815  0.1353 -0.2835
  374TMC3    H1 5653   2.025   1.877  10.169 -0.0006  0.5386  0.1097
  374TMC3    H2 5654   2.248   2.170   9.947  0.7243  0.0465 -0.3092
  374TMC3    C7 5655   2.012   2.116  10.078  0.1936 -0.2938  0.0176
  374TMC3    C8 5656   2.473   2.078   9.981 -0.6105  0.1330 -0.0222
  374TMC3    O1 5657   1.903   2.059  10.090  0.7722  0.0451  0.6734
  374TMC3    O2 5658   2.466   2.129   9.870 -0.7031  0.7375  0.3093
  375MPD2     C 5659   3.017   2.826  16.796 -0.1065 -0.9836  0.8882
  375MPD2    C1 5660   2.915   2.759  16.727 -0.2583  0.0935  0.2621
  375MPD2    C2 5661   2.958   2.674  16.621 -0.2130 -0.3618 -0.4460
  375MPD2    C3 5662   3.096   2.655  16.592 -0.9482  0.0409  0.4937
  375MPD2    C4 5663   3.184   2.705  16.675  0.6634 -0.0958 -0.2518
  375MPD2    C5 5664   3.147   2.793  16.775  0.6718 -0.0010  0.0720
  375MPD2     H 5665   2.872   2.627  16.574 -1.2350 -1.2398  2.3284
  375MPD2    H1 5666   3.291   2.696  16.656  0.5650 -3.0386  0.5389
  375MPD2    H2 5667   2.994   2.883  16.885 -1.2731  0.9630 -0.6597
  375MPD2    H3 5668   3.226   2.837  16.834  1.2671 -3.1907  1.6800
  375MPD2     N 5669   3.137   2.563  16.492  0.2275 -0.0569 -0.7139
  375MPD2    H5 5670   3.236   2.562  16.469  0.8101  0.4156  1.8511
  375MPD2    N1 5671   2.776   2.758  16.749  0.6741  0.3986  0.0680
  375MPD2    H7 5672   2.719   2.710  16.679  1.4529  0.7026 -0.7714
  376TMC3    C1 5673   3.124   2.393  16.316  0.7259 -0.7543  0.3624
  376TMC3    C2 5674   3.254   2.365  16.337  0.6388  0.3860 -0.5062
  376TMC3    C3 5675   3.316   2.299  16.239 -0.0567  0.4093 -0.7052
  376TMC3    C4 5676   3.054   2.349  16.208  0.0072  0.5543  0.3110
  376TMC3    C5 5677   3.118   2.264  16.121  0.2225 -0.1500  0.0025
  376TMC3    C6 5678   3.255   2.244  16.134 -0.1025 -0.3458 -1.4853
  376TMC3     C 5679   3.052   2.492  16.404  0.0487  0.0538 -0.1372
  376TMC3     O 5680   2.931   2.498  16.394 -0.3957 -0.2203  0.1656
  376TMC3     H 5681   3.301   2.407  16.425  0.4214  0.2194 -0.3079
  376TMC3    H1 5682   2.953   2.382  16.185  0.3383  1.0618 -0.4177
  376TMC3    H2 5683   3.313   2.187  16.063  2.5917  0.4911  0.0269
  376TMC3    C7 5684   3.061   2.262  15.987 -0.0459 -0.5240  0.5985
  376TMC3    C8 5685   3.459   2.318  16.234  0.6544 -0.3834  0.3832
  376TMC3    O1 5686   2.993   2.361  15.959  0.3859 -0.5057  0.2753
  376TMC3    O2 5687   3.494   2.350  16.123 -0.2072  0.0525 -0.5315
  377MPD2     C 5688   0.786   1.375  12.008  0.2025  0.0913 -0.2691
  377MPD2    C1 5689   0.753   1.505  12.034 -0.3307  0.5328 -0.1526
  377MPD2    C2 5690   0.699   1.548  12.158  0.2902 -0.7008 -0.1937
  377MPD2    C3 5691   0.683   1.459  12.256 -0.5911 -0.2987  0.9442
  377MPD2    C4 5692   0.693   1.329  12.225  0.0901  0.3511  0.2866
  377MPD2    C5 5693   0.746   1.283  12.105  0.4274  0.5307  1.5473
  377MPD2     H 5694   0.681   1.654  12.178  0.2244 -0.8034  0.2996
  377MPD2    H1 5695   0.667   1.249  12.293 -1.2846 -1.6336 -2.5637
  377MPD2    H2 5696   0.825   1.338  11.914  1.9530 -0.7842  0.7993
  377MPD2    H3 5697   0.742   1.178  12.079 -2.2323  0.6925  1.3024
  377MPD2     N 5698   0.634   1.498  12.383  0.2276  0.2424  0.3146
  377MPD2    H5 5699   0.587   1.428  12.439 -0.2237  0.6191  0.4071
  377MPD2    N1 5700   0.789   1.596  11.935 -0.0280 -0.6592 -0.0794
  377MPD2    H7 5701   0.847   1.559  11.860  1.7786 -0.5552  1.2665
  378TMC3    C1 5702   0.757   1.983  11.668  0.5274 -0.0424 -0.0772
  378TMC3    C2 5703   0.695   1.910  11.767  0.0628  0.4757 -0.9937
  378TMC3    C3 5704   0.768   1.797  11.803  0.1384  0.2270 -0.3820
  378TMC3    C4 5705   0.861   1.945  11.589  0.0462 -0.2620  0.1761
  378TMC3    C5 5706   0.930   1.836  11.626 -0.1181 -0.6465 -0.6258
  378TMC3    C6 5707   0.883   1.765  11.735 -0.6656 -0.3499 -0.1342
  378TMC3     C 5708   0.735   2.126  11.645  0.5980 -0.2435  0.1814
  378TMC3     O 5709   0.805   2.183  11.563  0.3416 -0.3280  0.1022
  378TMC3     H 5710   0.602   1.932  11.818 -0.1783 -0.1447 -1.1605
  378TMC3    H1 5711   0.872   1.988  11.490 -1.3213 -0.7224 -0.1821
  378TMC3    H2 5712   0.947   1.687  11.775 -0.9824 -0.1550  0.7493
  378TMC3    C7 5713   1.071   1.823  11.599  0.2977 -0.4891  0.2524
  378TMC3    C8 5714   0.726   1.721  11.927 -0.6398  0.2767  0.8090
  378TMC3    O1 5715   1.128   1.746  11.672 -0.2487  0.3951  0.4915
  378TMC3    O2 5716   0.626   1.762  11.984 -1.2065  0.2093  0.1547
  379MPD2     C 5717   1.948   0.649  15.851  0.1051  0.7842  0.3635
  379MPD2    C1 5718   1.866   0.576  15.938 -0.5560 -0.1164  0.0803
  379MPD2    C2 5719   1.923   0.480  16.019 -0.3680  0.6372  0.4144
  379MPD2    C3 5720   2.061   0.470  16.026  0.7771 -0.1230  0.0956
  379MPD2    C4 5721   2.140   0.547  15.947 -0.4333 -0.0478  0.4455
  379MPD2    C5 5722   2.082   0.623  15.851  0.4709 -0.1143 -0.0455
  379MPD2     H 5723   1.858   0.421  16.082  2.0252 -2.3102  0.0597
  379MPD2    H1 5724   2.248   0.545  15.956 -0.5672  0.7125  2.2055
  379MPD2    H2 5725   1.913   0.729  15.787 -0.3799  1.3319  1.3106
  379MPD2    H3 5726   2.151   0.686  15.797 -0.9308 -0.3070 -2.0771
  379MPD2     N 5727   2.133   0.386  16.111  0.0228 -0.2930  0.6824
  379MPD2    H5 5728   2.233   0.393  16.099 -0.1849 -0.1967 -0.9670
  379MPD2    N1 5729   1.731   0.600  15.922 -0.0528 -0.3163 -0.1398
  379MPD2    H7 5730   1.701   0.660  15.846  2.1166  2.3442  1.0834
  380TMC3    C1 5731   1.539   0.480  15.893  0.0442 -0.0196  0.4472
  380TMC3    C2 5732   1.593   0.372  15.832 -0.0015 -0.2780  0.3847
  380TMC3    C3 5733   1.547   0.335  15.705  0.3542 -0.3856 -0.3890
  380TMC3    C4 5734   1.435   0.552  15.839 -0.4963  0.3135  0.3332
  380TMC3    C5 5735   1.386   0.503  15.719 -0.4175 -0.0907 -0.1317
  380TMC3    C6 5736   1.429   0.382  15.656  0.0946  0.2213  0.3472
  380TMC3     C 5737   1.634   0.539  15.991 -0.4051  0.3432  0.5330
  380TMC3     O 5738   1.631   0.491  16.102  0.0854  0.4483 -0.2053
  380TMC3     H 5739   1.676   0.326  15.885  0.0491 -0.8594 -0.2019
  380TMC3    H1 5740   1.392   0.631  15.900 -0.0245  0.3542  0.6145
  380TMC3    H2 5741   1.387   0.344  15.563  2.2436 -2.5547  0.4887
  380TMC3    C7 5742   1.290   0.592  15.655  0.2977 -0.2634 -0.5614
  380TMC3    C8 5743   1.641   0.353  15.602  0.3262  0.4510 -0.5065
  380TMC3    O1 5744   1.296   0.710  15.683  0.2520 -0.2064 -0.2202
  380TMC3    O2 5745   1.604   0.382  15.488 -0.0729  0.3131 -0.4169
  381TMC3    C1 5746   1.380   1.454  15.942 -0.0470 -0.3783 -0.4697
  381TMC3    C2 5747   1.459   1.568  15.931  0.4459  0.0859  0.9331
  381TMC3    C3 5748   1.472   1.649  16.049 -0.1512 -0.0020  0.0293
  381TMC3    C4 5749   1.322   1.413  16.062 -0.1901 -0.0305 -0.0583
  381TMC3    C5 5750   1.348   1.497  16.171  0.2943  0.4941 -0.0698
  381TMC3    C6 5751   1.410   1.617  16.170 -0.2163  0.5531  0.2146
  381TMC3     C 5752   1.342   1.380  15.828 -1.0926  0.1757 -0.1967
  381TMC3     O 5753   1.301   1.266  15.842  0.0169  0.0656 -0.0473
  381TMC3     H 5754   1.518   1.598  15.846 -1.4809  0.6854 -0.2092
  381TMC3    H1 5755   1.265   1.323  16.081  1.2481 -0.5374  1.8978
  381TMC3    H2 5756   1.427   1.669  16.264  2.0132  1.9795 -0.9599
  381TMC3    C7 5757   1.325   1.434  16.298 -0.2218 -0.2899  0.7461
  381TMC3    C8 5758   1.591   1.746  16.039 -1.0804  0.5502 -0.4363
  381TMC3    O1 5759   1.343   1.312  16.311 -0.3304  0.2881 -0.3482
  381TMC3    O2 5760   1.679   1.717  15.962  0.6750 -0.9115 -0.0879
  382MPD2     C 5761   0.700   3.880  17.208 -0.1427 -0.0127 -0.3655
  382MPD2    C1 5762   0.664   3.851  17.339  0.2714  0.3410 -0.1555
  382MPD2    C2 5763   0.578   3.744  17.359 -0.5371 -0.0395 -0.2569
  382MPD2    C3 5764   0.549   3.654  17.257 -0.0588  0.7486  0.1642
  382MPD2    C4 5765   0.597   3.675  17.130  0.3487  0.3223  0.0761
  382MPD2    C5 5766   0.670   3.793  17.107  0.0778  0.6417  0.4526
  382MPD2     H 5767   0.543   3.730  17.460 -0.6891 -0.4908 -0.3748
  382MPD2    H1 5768   0.582   3.609  17.045  0.2486  0.2682  0.1352
  382MPD2    H2 5769   0.769   3.961  17.188  0.3252 -0.6978 -1.4928
  382MPD2    H3 5770   0.712   3.815  17.009 -0.1357  0.2220  0.2655
  382MPD2     N 5771   0.480   3.533  17.273 -0.4959 -0.0453 -0.0800
  382MPD2    H5 5772   0.471   3.476  17.189  1.2072  1.6953 -1.4478
  382MPD2    N1 5773   0.712   3.920  17.452 -0.1087  0.1888  0.1547
  382MPD2    H7 5774   0.682   3.886  17.543  1.4930  0.4926  0.8086
  383TMC3    C1 5775   0.379   3.355  17.370  0.3252  0.1556  0.3310
  383TMC3    C2 5776   0.313   3.309  17.254 -0.4204  0.5910 -0.1109
  383TMC3    C3 5777   0.308   3.176  17.232  1.1072 -0.3932 -0.1998
  383TMC3    C4 5778   0.422   3.264  17.466 -0.1477  0.2340 -0.5152
  383TMC3    C5 5779   0.413   3.132  17.444 -1.1363  0.2081 -0.8956
  383TMC3    C6 5780   0.352   3.086  17.330  0.8184  1.0171  0.2563
  383TMC3     C 5781   0.427   3.488  17.390  0.4857 -0.2599  0.1194
  383TMC3     O 5782   0.447   3.522  17.506 -0.2609  0.0060 -0.1012
  383TMC3     H 5783   0.284   3.388  17.186  1.3198  1.2024 -0.1566
  383TMC3    H1 5784   0.490   3.299  17.542  0.7621 -1.8744 -0.3559
  383TMC3    H2 5785   0.347   2.979  17.319  1.7257  0.7583  2.1673
  383TMC3    C7 5786   0.413   3.045  17.561 -0.3032 -0.1697  0.3881
  383TMC3    C8 5787   0.227   3.125  17.124 -0.3156  0.5879  0.1781
  383TMC3    O1 5788   0.339   2.946  17.557  0.0073 -0.0555  0.0815
  383TMC3    O2 5789   0.154   3.206  17.069  0.0640 -0.3238 -0.3356
  384MPD2     C 5790   2.123   0.385  11.963 -0.3379  0.5654 -0.8662
  384MPD2    C1 5791   2.147   0.344  12.092  0.0810  0.0181  0.1598
  384MPD2    C2 5792   2.265   0.270  12.114  0.0962 -0.1422 -0.1479
  384MPD2    C3 5793   2.365   0.253  12.018  0.5624  0.9050  0.2557
  384MPD2    C4 5794   2.347   0.314  11.899 -0.5184  0.3693  0.1686
  384MPD2    C5 5795   2.225   0.375  11.869  0.3923  0.3406 -0.5759
  384MPD2     H 5796   2.276   0.242  12.218 -3.7511  0.3424  0.3857
  384MPD2    H1 5797   2.420   0.315  11.819 -1.4216 -0.9966 -0.6750
  384MPD2    H2 5798   2.031   0.434  11.930 -0.0174  2.2882  0.7668
  384MPD2    H3 5799   2.222   0.427  11.774 -1.0783  0.6751 -0.3417
  384MPD2     N 5800   2.477   0.178  12.045  0.0225  0.5019 -0.3049
  384MPD2    H5 5801   2.565   0.194  11.998 -0.1855  0.7400 -0.6068
  384MPD2    N1 5802   2.056   0.353  12.201  0.5092  0.5903 -0.0928
  384MPD2    H7 5803   2.085   0.321  12.293  2.9092  1.8426 -0.4123
  385TMC3    C1 5804   2.605   0.043  12.169 -0.0741 -0.1887  0.4386
  385TMC3    C2 5805   2.603   4.644  12.191  0.3961  0.4341 -0.5123
  385TMC3    C3 5806   2.684   4.601  12.299  1.2219 -0.4042 -0.7709
  385TMC3    C4 5807   2.668   0.131  12.255 -0.7428 -1.3152 -0.7654
  385TMC3    C5 5808   2.724   0.085  12.370 -0.6680 -0.0487  0.3013
  385TMC3    C6 5809   2.737   4.687  12.384 -0.0835 -0.2133 -0.0456
  385TMC3     C 5810   2.471   0.082  12.137 -0.3369  0.3515 -0.7479
  385TMC3     O 5811   2.378   0.029  12.197  0.5921 -0.0709 -0.2245
  385TMC3     H 5812   2.555   4.577  12.120 -0.3654  0.3563  0.0668
  385TMC3    H1 5813   2.643   0.236  12.247  2.2867 -0.5153  0.3805
  385TMC3    H2 5814   2.783   4.649  12.474 -1.2863  0.5422  0.8923
  385TMC3    C7 5815   2.648   0.146  12.479 -0.4380 -1.0870 -0.6595
  385TMC3    C8 5816   2.704   4.457  12.319  0.1973 -0.2294  0.5033
  385TMC3    O1 5817   2.635   0.266  12.466 -0.1783 -0.4920 -0.2829
  385TMC3    O2 5818   2.780   4.416  12.408  0.1331 -0.5753  0.2606
  386TMC3    C1 5819   2.402   2.394  11.592  0.7858 -0.0370  0.2883
  386TMC3    C2 5820   2.404   2.448  11.467  0.5717  0.5567 -0.4519
  386TMC3    C3 5821   2.281   2.453  11.407  0.3330  0.3681 -0.0110
  386TMC3    C4 5822   2.284   2.369  11.655  0.7690  0.2780 -0.1358
  386TMC3    C5 5823   2.166   2.372  11.584 -0.1664  0.0378 -0.4643
  386TMC3    C6 5824   2.159   2.418  11.458  0.0494  0.5063 -0.3674
  386TMC3     C 5825   2.523   2.316  11.636  0.1837 -0.0223  0.2455
  386TMC3     O 5826   2.627   2.372  11.609  0.3105 -0.5780  0.1791
  386TMC3     H 5827   2.495   2.466  11.409  1.2191 -0.5612  0.2188
  386TMC3    H1 5828   2.290   2.327  11.755  1.3495  2.6558  0.8458
  386TMC3    H2 5829   2.075   2.420  11.390  0.6809  3.3577 -1.0861
  386TMC3    C7 5830   2.038   2.362  11.649  0.3834  0.7816 -0.4030
  386TMC3    C8 5831   2.275   2.487  11.269  0.1502 -0.8782  0.5579
  386TMC3    O1 5832   1.941   2.376  11.575 -0.4127 -0.0863  0.1377
  386TMC3    O2 5833   2.179   2.555  11.231  0.2177 -0.2982 -0.2912
  387MPD2     C 5834   4.154   2.787   9.563  0.4270 -0.0040  0.0784
  387MPD2    C1 5835   4.275   2.720   9.550  0.4490  0.4426  0.3057
  387MPD2    C2 5836   4.270   2.587   9.537  0.0526  0.0830 -0.0830
  387MPD2    C3 5837   4.152   2.519   9.536 -0.2467 -0.2655 -0.1308
  387MPD2    C4 5838   4.033   2.585   9.559 -0.2931 -0.5178 -0.2476
  387MPD2    C5 5839   4.041   2.717   9.577 -0.1260 -0.3874  0.4257
  387MPD2     H 5840   4.360   2.526   9.534 -0.1135 -0.1176 -0.9969
  387MPD2    H1 5841   3.942   2.534   9.586  0.9069 -1.9359  1.1140
  387MPD2    H2 5842   4.141   2.893   9.585 -0.5511 -0.2503  0.6952
  387MPD2    H3 5843   3.948   2.770   9.594  0.4270  1.0210 -0.8697
  387MPD2     N 5844   4.153   2.378   9.543  1.1241  0.0660 -0.8566
  387MPD2    H5 5845   4.239   2.330   9.565  1.0187  0.9412  1.4428
  387MPD2    N1 5846   4.401   2.781   9.573 -0.0506  0.0224 -0.0708
  387MPD2    H7 5847   4.480   2.718   9.578  0.8790  1.0494 -1.8694
  388TMC3    C1 5848   4.563   2.913   9.677 -0.3607  0.5817  0.1715
  388TMC3    C2 5849   4.600   3.021   9.759 -0.1907  0.2552 -0.6748
  388TMC3    C3 5850   4.715   3.022   9.827 -0.3145 -0.0137  0.1961
  388TMC3    C4 5851   4.649   2.802   9.675 -0.5037 -0.1158 -0.2340
  388TMC3    C5 5852   0.027   2.802   9.754 -0.4222 -0.2090 -0.7332
  388TMC3    C6 5853   0.055   2.909   9.827 -0.3672 -0.2785  0.6439
  388TMC3     C 5854   4.429   2.908   9.616 -0.5996 -0.3280  0.1456
  388TMC3     O 5855   4.363   3.012   9.620 -0.2168  0.2567  0.2045
  388TMC3     H 5856   4.545   3.114   9.745  0.7435  0.5539 -2.4168
  388TMC3    H1 5857   4.656   2.730   9.594 -0.2445 -0.3731  0.0178
  388TMC3    H2 5858   0.152   2.907   9.874  0.2875 -0.6130 -0.7138
  388TMC3    C7 5859   0.050   2.672   9.808  0.0097  0.0921 -0.6171
  388TMC3    C8 5860   0.026   3.144   9.880 -0.4105 -0.5874  0.2340
  388TMC3    O1 5861   0.131   2.665   9.899 -0.6484 -0.5585  0.2594
  388TMC3    O2 5862   0.147   3.157   9.908  0.0115  0.0798 -0.1407
  389MPD2     C 5863   4.200   0.882  10.998  0.4564 -0.5070 -0.0645
  389MPD2    C1 5864   4.093   0.795  10.990 -0.8371 -0.2052 -0.8642
  389MPD2    C2 5865   4.057   0.726  11.097 -0.0512  0.4886  0.8132
  389MPD2    C3 5866   4.124   0.744  11.215 -0.0393 -0.5985  0.5798
  389MPD2    C4 5867   4.226   0.840  11.223  0.2968 -0.3633  0.1063
  389MPD2    C5 5868   4.260   0.912  11.113  0.3357  0.1150  0.0601
  389MPD2     H 5869   3.983   0.646  11.093  2.2345 -1.6161  0.5296
  389MPD2    H1 5870   4.279   0.862  11.315  0.8170  1.2555 -0.5977
  389MPD2    H2 5871   4.233   0.935  10.909 -2.0452 -0.4167 -0.9399
  389MPD2    H3 5872   4.344   0.980  11.115  1.0787 -0.7996  0.0633
  389MPD2     N 5873   4.093   0.668  11.326  0.7316 -0.2314 -0.1575
  389MPD2    H5 5874   4.140   0.695  11.412 -0.7243  1.7742  0.0005
  389MPD2    N1 5875   4.027   0.787  10.864  0.2618 -0.2841 -0.1057
  389MPD2    H7 5876   4.062   0.851  10.794 -1.0745  1.5457  0.8879
  390TMC3    C1 5877   4.018   0.482  11.462 -0.2056  0.8654  0.1963
  390TMC3    C2 5878   3.980   0.352  11.456  0.2627 -0.5542  0.3190
  390TMC3    C3 5879   4.001   0.275  11.567  0.2031  1.2721 -0.0451
  390TMC3    C4 5880   4.079   0.533  11.574 -0.3893  1.0455  0.1442
  390TMC3    C5 5881   4.078   0.455  11.687  0.6819 -0.2226 -0.1688
  390TMC3    C6 5882   4.043   0.322  11.683 -0.1386  0.2643 -0.0778
  390TMC3     C 5883   4.027   0.545  11.331  0.3252 -0.2021 -0.7573
  390TMC3     O 5884   3.982   0.474  11.243  0.0033 -0.0840 -0.0576
  390TMC3     H 5885   3.945   0.300  11.367 -0.7886 -0.0593  0.4475
  390TMC3    H1 5886   4.101   0.638  11.585 -1.9547  1.6170 -2.3421
  390TMC3    H2 5887   4.083   0.253  11.757 -0.9174 -0.4438 -0.3274
  390TMC3    C7 5888   4.067   0.518  11.817 -0.3009 -0.3172 -0.5702
  390TMC3    C8 5889   3.893   0.177  11.596 -0.3268 -0.9151 -0.1120
  390TMC3    O1 5890   4.100   0.637  11.819  0.4685  0.7503 -0.3183
  390TMC3    O2 5891   3.871   0.087  11.514 -0.1809 -0.2470  0.4336
  391MPD2     C 5892   3.417   2.143  11.241 -0.7794  0.3585 -0.4898
  391MPD2    C1 5893   3.498   2.215  11.153 -0.3953  0.0572 -0.2376
  391MPD2    C2 5894   3.449   2.244  11.031  0.6342 -0.2102  0.0835
  391MPD2    C3 5895   3.338   2.176  10.978 -0.4003  0.1830  0.6583
  391MPD2    C4 5896   3.263   2.091  11.053  0.2368 -0.0164 -0.4025
  391MPD2    C5 5897   3.306   2.077  11.187  0.1564 -0.2469 -0.4928
  391MPD2     H 5898   3.502   2.303  10.957  0.0445  0.2468  0.0286
  391MPD2    H1 5899   3.175   2.046  11.009  0.4579 -0.3552 -0.4986
  391MPD2    H2 5900   3.449   2.133  11.344  0.6256  1.2632 -0.8201
  391MPD2    H3 5901   3.247   2.023  11.259  2.2037 -2.2497 -0.3111
  391MPD2     N 5902   3.309   2.209  10.844  0.0156  0.2938  0.2476
  391MPD2    H5 5903   3.375   2.270  10.797 -0.2520  1.4091  1.3373
  391MPD2    N1 5904   3.612   2.280  11.217  0.3970  0.0120  0.6847
  391MPD2    H7 5905   3.637   2.272  11.315  0.3406 -0.3826  0.6675
  392TMC3    C1 5906   3.214   2.220  10.631 -0.6394  0.0221 -0.0192
  392TMC3    C2 5907   3.109   2.184  10.552 -0.2146 -0.0592  0.3215
  392TMC3    C3 5908   3.131   2.193  10.415 -0.8753 -0.0608  0.4781
  392TMC3    C4 5909   3.320   2.278  10.577  1.0279 -0.1259  0.2516
  392TMC3    C5 5910   3.325   2.309  10.444 -0.0940 -0.1946 -0.2570
  392TMC3    C6 5911   3.239   2.251  10.358 -0.4452  0.6903 -0.4677
  392TMC3     C 5912   3.202   2.176  10.771 -0.9255 -0.7261 -0.3739
  392TMC3     O 5913   3.091   2.136  10.815 -0.1954  0.3074 -0.4310
  392TMC3     H 5914   3.026   2.123  10.587 -0.2318 -0.1372  0.1410
  392TMC3    H1 5915   3.402   2.314  10.638  0.5045  1.1165  0.2256
  392TMC3    H2 5916   3.250   2.234  10.252  0.1636  1.5920 -0.5470
  392TMC3    C7 5917   3.437   2.392  10.400  0.3978 -0.1663  0.2693
  392TMC3    C8 5918   3.008   2.165  10.346  0.4868  0.6071 -0.1384
  392TMC3    O1 5919   3.497   2.454  10.485  0.3054  0.9630 -0.5677
  392TMC3    O2 5920   2.924   2.103  10.406 -0.1666  0.2781  0.1399
  393TMC3    C1 5921   2.407   0.473  10.849 -0.3235  0.4527  0.1556
  393TMC3    C2 5922   2.289   0.405  10.838  0.3803  0.0509  0.6704
  393TMC3    C3 5923   2.279   0.274  10.876 -0.5286  0.3262 -0.2361
  393TMC3    C4 5924   2.522   0.408  10.887 -0.3061  0.0685 -0.4481
  393TMC3    C5 5925   2.516   0.270  10.910 -0.1933  0.6272 -0.1266
  393TMC3    C6 5926   2.397   0.202  10.907  0.3622 -0.8566 -0.6064
  393TMC3     C 5927   2.411   0.573  10.751 -0.4124 -0.5061  0.8842
  393TMC3     O 5928   2.341   0.551  10.654 -0.3795  0.7574 -0.1054
  393TMC3     H 5929   2.196   0.456  10.818  0.3111 -0.1868  0.3928
  393TMC3    H1 5930   2.615   0.462  10.902 -0.0054 -0.2803 -1.0868
  393TMC3    H2 5931   2.401   0.101  10.946  0.1127  0.2375  2.2664
  393TMC3    C7 5932   2.618   0.215  11.000 -0.4410 -0.3839 -0.1627
  393TMC3    C8 5933   2.153   0.232  10.937 -0.1382  0.3239 -0.4416
  393TMC3    O1 5934   2.648   0.288  11.097 -0.4269  0.1137 -0.3445
  393TMC3    O2 5935   2.109   0.120  10.901 -0.0268  0.7976  0.2262
  394TMC3    C1 5936   3.846   0.758  10.715  0.1138  0.5780  0.2102
  394TMC3    C2 5937   3.719   0.807  10.719 -0.8383 -0.5371 -0.6019
  394TMC3    C3 5938   3.679   0.881  10.613 -0.2539  0.3120  0.6978
  394TMC3    C4 5939   3.929   0.774  10.607 -0.0894 -0.3536 -0.7173
  394TMC3    C5 5940   3.884   0.851  10.508 -0.1970  0.3008 -0.3894
  394TMC3    C6 5941   3.763   0.912  10.512  0.2279  0.0470 -0.2187
  394TMC3     C 5942   3.907   0.725  10.842  0.3666  0.3736 -0.1455
  394TMC3     O 5943   3.846   0.658  10.927  0.0439  0.1496 -0.3334
  394TMC3     H 5944   3.655   0.797  10.806 -2.0035 -0.5881 -1.4660
  394TMC3    H1 5945   4.031   0.737  10.608  0.4280  1.2681  3.6684
  394TMC3    H2 5946   3.735   0.985  10.437  0.2804  1.5842  1.2669
  394TMC3    C7 5947   3.970   0.870  10.391 -0.7924 -0.2873  0.8835
  394TMC3    C8 5948   3.543   0.892  10.580 -0.6878  0.4065 -0.6557
  394TMC3    O1 5949   3.932   0.955  10.315  0.3816 -0.5607  0.0659
  394TMC3    O2 5950   3.510   0.983  10.506  0.9552 -0.7353  0.6704
  395TMC3    C1 5951   4.005   2.579  14.682 -0.5776 -0.0895 -0.1121
  395TMC3    C2 5952   3.886   2.568  14.613  0.3286  0.1343 -0.6885
  395TMC3    C3 5953   3.868   2.657  14.504  0.1434 -0.2171  0.1154
  395TMC3    C4 5954   4.108   2.662  14.645  0.0455 -0.8627  0.0955
  395TMC3    C5 5955   4.083   2.740  14.533  0.1668  0.2637  0.2195
  395TMC3    C6 5956   3.961   2.747  14.466  0.2614 -0.1182 -0.0178
  395TMC3     C 5957   4.001   2.508  14.811  0.3504 -0.0904  0.1665
  395TMC3     O 5958   4.090   2.532  14.891  0.7745  0.4356 -0.2570
  395TMC3     H 5959   3.792   2.549  14.664  0.9581 -0.1161  0.3691
  395TMC3    H1 5960   4.198   2.661  14.706 -0.4579  1.4199  0.8623
  395TMC3    H2 5961   3.943   2.823  14.391  1.8547 -0.9356 -1.2341
  395TMC3    C7 5962   4.162   2.855  14.522 -0.3144 -0.3744 -0.2800
  395TMC3    C8 5963   3.740   2.678  14.446  0.3114  0.3069  0.3115
  395TMC3    O1 5964   4.225   2.898  14.615 -0.4214  0.0640  0.5752
  395TMC3    O2 5965   3.705   2.788  14.412 -0.0374 -0.0743 -0.5841
  396MPD2     C 5966   3.437   3.404  16.879  0.4668  0.0620 -0.5922
  396MPD2    C1 5967   3.554   3.478  16.900  0.1027  0.0392  0.0784
  396MPD2    C2 5968   3.559   3.599  16.840  0.2793  0.0888  0.2715
  396MPD2    C3 5969   3.455   3.655  16.768  0.3944  0.2930 -0.9064
  396MPD2    C4 5970   3.340   3.576  16.750  0.2427  0.0738  1.1718
  396MPD2    C5 5971   3.337   3.449  16.799 -0.6131  0.1066  0.3101
  396MPD2     H 5972   3.645   3.663  16.856 -0.8997  1.8709 -0.4197
  396MPD2    H1 5973   3.256   3.612  16.692  0.4620  1.3218  1.6308
  396MPD2    H2 5974   3.444   3.299  16.905  1.4684 -0.3650 -2.6140
  396MPD2    H3 5975   3.248   3.386  16.795 -1.0488  0.6167  2.0430
  396MPD2     N 5976   3.473   3.790  16.724 -0.6257  0.5071  0.1485
  396MPD2    H5 5977   3.562   3.836  16.744 -0.3739  0.2533 -0.3784
  396MPD2    N1 5978   3.651   3.414  16.980 -0.5512 -0.1768 -0.5127
  396MPD2    H7 5979   3.627   3.327  17.026  0.6408  0.5870  1.5434
  397TMC3    C1 5980   3.871   3.367  17.059  0.2325 -0.6950  0.0719
  397TMC3    C2 5981   4.001   3.397  17.021  0.7978 -0.2333  0.2826
  397TMC3    C3 5982   4.090   3.300  16.977 -0.1574 -0.2960  0.1520
  397TMC3    C4 5983   3.837   3.227  17.051  0.8498 -0.2672 -0.5350
  397TMC3    C5 5984   3.936   3.134  17.017  0.1192  0.1278 -0.6138
  397TMC3    C6 5985   4.061   3.170  16.974 -0.3471  0.6573 -0.2558
  397TMC3     C 5986   3.777   3.457  16.993 -0.0366 -0.4823 -0.2447
  397TMC3     O 5987   3.827   3.557  16.942  0.1323 -0.0544  0.1072
  397TMC3     H 5988   4.033   3.501  17.013 -0.1435  0.0934  0.7924
  397TMC3    H1 5989   3.738   3.188  17.072  0.1913  2.9188  2.2900
  397TMC3    H2 5990   4.135   3.096  16.949  0.2357  0.8111  1.0086
  397TMC3    C7 5991   3.917   3.001  17.067  0.8833  0.9943  0.0218
  397TMC3    C8 5992   4.231   3.335  16.947 -0.1372 -0.4264 -0.0175
  397TMC3    O1 5993   4.015   2.931  17.055  0.3113  0.6942 -0.3422
  397TMC3    O2 5994   4.309   3.293  17.027 -0.6154  0.0978 -0.4219
  398MPD2     C 5995   1.749   0.264  17.580  0.1731 -0.2224 -0.5064
  398MPD2    C1 5996   1.816   0.195  17.677 -0.1056  0.8738 -0.0519
  398MPD2    C2 5997   1.863   0.264   0.041  0.2203 -0.0297  0.4533
  398MPD2    C3 5998   1.860   0.396   0.053 -0.5297  1.3749 -0.3117
  398MPD2    C4 5999   1.790   0.473  17.704  0.8145 -0.2116  0.3133
  398MPD2    C5 6000   1.743   0.405  17.590 -0.0176 -0.5126 -0.2215
  398MPD2     H 6001   1.910   0.202   0.117 -1.0202 -0.9722  0.4624
  398MPD2    H1 6002   1.788   0.581  17.709 -1.7715 -0.2640  0.2217
  398MPD2    H2 6003   1.710   0.214  17.492 -0.5214  0.8378 -0.8033
  398MPD2    H3 6004   1.695   0.460  17.510 -2.2312 -1.1293  0.6951
  398MPD2     N 6005   1.932   0.457   0.168 -0.0598 -0.2014  0.1025
  398MPD2    H5 6006   1.976   0.391   0.231 -2.0324 -0.6865  0.9974
  398MPD2    N1 6007   1.826   0.051  17.680 -0.2539  0.0582  0.8244
  398MPD2    H7 6008   1.848   0.017   0.030  4.2544  2.2762  0.5745
  399TMC3    C1 6009   1.783   4.560  17.613  0.7296 -0.5045 -0.7847
  399TMC3    C2 6010   1.850   4.503  17.714  0.3333 -0.5500  0.1046
  399TMC3    C3 6011   1.843   4.369  17.734 -0.0926 -0.0326 -0.5795
  399TMC3    C4 6012   1.705   4.496  17.529 -0.2991 -0.1162 -0.1746
  399TMC3    C5 6013   1.696   4.361  17.547 -0.0544 -0.1665 -0.2667
  399TMC3    C6 6014   1.768   4.294  17.645 -0.4413 -0.4166  0.5043
  399TMC3     C 6015   1.801   4.703  17.573  0.0944  0.6346 -0.2869
  399TMC3     O 6016   1.782   4.733  17.455  0.1636 -0.0276  0.5295
  399TMC3     H 6017   1.917   4.567   0.027 -0.8724  0.4783  0.3980
  399TMC3    H1 6018   1.664   4.551  17.445  0.1872 -1.3850 -1.2567
  399TMC3    H2 6019   1.759   4.187  17.660  0.6165 -0.3722  1.4177
  399TMC3    C7 6020   1.560   4.305  17.532 -0.8459 -0.9260 -0.1853
  399TMC3    C8 6021   1.953   4.304   0.062 -0.5192  0.3867  0.6222
  399TMC3    O1 6022   1.554   4.188  17.565  0.0307 -0.1662  0.0753
  399TMC3    O2 6023   2.043   4.380   0.103  0.0483  0.0278  0.3628
  400TMC3    C1 6024   0.304   3.013  16.702 -0.5596 -0.0653 -0.0283
  400TMC3    C2 6025   0.176   2.988  16.652  0.0620  0.8001 -0.2915
  400TMC3    C3 6026   0.090   3.090  16.654 -0.6306 -0.9520  0.4564
  400TMC3    C4 6027   0.344   3.128  16.753  0.1188  0.0404 -0.3978
  400TMC3    C5 6028   0.255   3.229  16.746 -0.0599  0.0026  0.0125
  400TMC3    C6 6029   0.127   3.215  16.697  0.0591  0.1672 -0.2586
  400TMC3     C 6030   0.385   2.894  16.715 -0.8244 -0.3476  0.5421
  400TMC3     O 6031   0.360   2.796  16.643 -0.1718 -0.2150 -0.3284
  400TMC3     H 6032   0.157   2.887  16.619 -0.1680  0.5275  0.6928
  400TMC3    H1 6033   0.446   3.148  16.782 -1.3038  3.5861  2.1479
  400TMC3    H2 6034   0.049   3.290  16.697 -1.4401 -1.3825 -1.6303
  400TMC3    C7 6035   0.295   3.360  16.793  0.1587 -0.5120  0.3159
  400TMC3    C8 6036   4.718   3.090  16.552 -0.4698  0.4442  0.1594
  400TMC3    O1 6037   0.413   3.389  16.783  0.2004 -0.2445 -0.4754
  400TMC3    O2 6038   4.633   3.182  16.564  0.0915  0.0392 -0.1276
  401MPD2     C 6039   3.981   1.549   1.577  0.4932 -0.4562 -0.2150
  401MPD2    C1 6040   3.973   1.515   1.443  0.2641  0.6494 -0.3094
  401MPD2    C2 6041   3.964   1.381   1.408  0.1741  0.3695 -0.2350
  401MPD2    C3 6042   3.971   1.279   1.500 -0.9772 -0.3808  0.2744
  401MPD2    C4 6043   4.001   1.313   1.628 -0.1095 -0.5113 -0.2853
  401MPD2    C5 6044   4.001   1.447   1.662 -0.0484 -0.3263  0.0740
  401MPD2     H 6045   3.943   1.349   1.307  0.6155  1.5729 -0.7076
  401MPD2    H1 6046   4.012   1.241   1.708  2.2351 -0.4862 -0.5798
  401MPD2    H2 6047   3.991   1.650   1.614 -0.8967  0.4905 -2.4266
  401MPD2    H3 6048   4.005   1.473   1.768  0.8144 -2.0788  0.4680
  401MPD2     N 6049   3.940   1.149   1.459  0.1725  0.2627  0.8379
  401MPD2    H5 6050   3.918   1.138   1.360  1.2933 -1.7876  0.8252
  401MPD2    N1 6051   3.958   1.611   1.341 -0.0022 -0.2185 -0.3847
  401MPD2    H7 6052   3.933   1.576   1.249 -0.9809 -0.6374  0.0401
  402TMC3    C1 6053   3.908   0.921   1.474 -0.1377 -0.4707  0.3493
  402TMC3    C2 6054   3.935   0.804   1.531 -0.0241  0.1592 -0.0019
  402TMC3    C3 6055   3.896   0.684   1.474  0.5350  0.3340 -0.5800
  402TMC3    C4 6056   3.870   0.927   1.344  0.5802  0.3955 -0.2464
  402TMC3    C5 6057   3.834   0.808   1.278 -0.3302  0.0052 -0.6508
  402TMC3    C6 6058   3.861   0.686   1.342 -0.4513  0.1950  0.0018
  402TMC3     C 6059   3.929   1.038   1.545  0.1458 -0.8644 -0.5224
  402TMC3     O 6060   3.941   1.038   1.663 -0.0936 -0.3184  0.0951
  402TMC3     H 6061   3.979   0.809   1.630  1.2663 -1.1118 -0.5255
  402TMC3    H1 6062   3.864   1.019   1.287  0.4244 -0.0607 -0.9708
  402TMC3    H2 6063   3.837   0.595   1.288  3.5494 -0.1715 -1.1779
  402TMC3    C7 6064   3.860   0.806   1.135 -0.1226  0.1826 -0.0479
  402TMC3    C8 6065   3.988   0.572   1.509  0.2221 -0.1711  0.0504
  402TMC3    O1 6066   3.818   0.896   1.069 -0.1133 -0.0759 -0.1652
  402TMC3    O2 6067   4.013   0.490   1.422  0.2569  0.0349 -0.6285
  403MPD2     C 6068   1.932   4.292  13.037 -0.9622 -0.3766  0.0826
  403MPD2    C1 6069   1.855   4.309  13.149  0.2233  0.8773 -0.3394
  403MPD2    C2 6070   1.920   4.358  13.265 -0.0139  0.2788  0.1295
  403MPD2    C3 6071   2.058   4.373  13.271 -0.3853  0.0368 -0.3699
  403MPD2    C4 6072   2.138   4.352  13.157  0.1781 -0.3136  0.0170
  403MPD2    C5 6073   2.071   4.310  13.045 -0.5375  0.6738 -0.2960
  403MPD2     H 6074   1.864   4.354  13.358  1.3533 -1.4348  0.8815
  403MPD2    H1 6075   2.246   4.352  13.156  0.1840 -2.6394 -1.1461
  403MPD2    H2 6076   1.899   4.258  12.939  2.4486  0.3117 -1.3067
  403MPD2    H3 6077   2.139   4.301  12.961  1.6927 -1.9806  1.7953
  403MPD2     N 6078   2.110   4.379  13.401  0.3645 -0.1498 -0.1926
  403MPD2    H5 6079   2.047   4.409  13.474  1.0802  0.2818  0.2459
  403MPD2    N1 6080   1.723   4.267  13.138 -0.3639  0.9275  0.1922
  403MPD2    H7 6081   1.689   4.235  13.048  1.3657  0.2778 -0.2350
  404TMC3    C1 6082   1.525   4.173  13.208  0.1635 -0.1986 -0.0347
  404TMC3    C2 6083   1.495   4.102  13.325  0.2176 -0.2669 -0.1168
  404TMC3    C3 6084   1.535   3.965  13.326  0.6009  0.0613  0.6752
  404TMC3    C4 6085   1.543   4.111  13.089 -0.1454  0.2406  0.1833
  404TMC3    C5 6086   1.570   3.971  13.092  0.1975  0.1703 -0.0382
  404TMC3    C6 6087   1.573   3.902  13.212  0.9156 -0.6996  0.2538
  404TMC3     C 6088   1.626   4.275  13.235  0.4131  0.4472 -0.5556
  404TMC3     O 6089   1.626   4.326  13.345  0.3394  0.3256 -0.3624
  404TMC3     H 6090   1.460   4.152  13.414 -1.2622 -0.9647 -0.2941
  404TMC3    H1 6091   1.550   4.157  12.992 -4.1419 -0.5229 -0.4616
  404TMC3    H2 6092   1.616   3.802  13.214  0.4680 -0.8977  0.0231
  404TMC3    C7 6093   1.683   3.939  13.004 -0.0154 -0.3717  0.1997
  404TMC3    C8 6094   1.570   3.890  13.451  0.0546  0.3123 -0.1871
  404TMC3    O1 6095   1.779   3.882  13.060 -0.0392  0.2259 -0.5716
  404TMC3    O2 6096   1.646   3.791  13.442 -0.0336  0.5676  0.3588
  405MPD2     C 6097   2.058   1.109  14.645  0.9304 -0.3080 -0.0753
  405MPD2    C1 6098   2.017   0.990  14.588 -0.1681  0.0753  0.1008
  405MPD2    C2 6099   1.887   0.984  14.547 -0.2503  0.0848 -0.5438
  405MPD2    C3 6100   1.799   1.091  14.553 -0.6173  0.2781  0.1115
  405MPD2    C4 6101   1.843   1.208  14.605 -0.6238 -0.3236 -0.3058
  405MPD2    C5 6102   1.971   1.217  14.655 -0.6983 -0.1487  0.4977
  405MPD2     H 6103   1.859   0.892  14.498  0.7216 -1.2766  1.4409
  405MPD2    H1 6104   1.776   1.293  14.600 -2.1276 -1.3902  1.9192
  405MPD2    H2 6105   2.156   1.124  14.689  0.1307  1.3643  1.1226
  405MPD2    H3 6106   2.005   1.310  14.700 -2.3207  0.7222 -0.0938
  405MPD2     N 6107   1.682   1.079  14.477 -0.6878 -0.0634  0.0238
  405MPD2    H5 6108   1.676   1.000  14.413 -0.6727  0.1196 -0.2027
  405MPD2    N1 6109   2.107   0.883  14.580 -0.0515 -0.4221  0.0007
  405MPD2    H7 6110   2.198   0.896  14.623 -0.6081 -1.1293  1.4127
  406TMC3    C1 6111   1.265   1.109  14.273 -0.0574 -0.1158  0.1949
  406TMC3    C2 6112   1.280   0.978  14.232 -0.4013 -0.2371  0.0380
  406TMC3    C3 6113   1.380   0.901  14.292  0.3546  0.1537 -0.4782
  406TMC3    C4 6114   1.354   1.164  14.368  0.6105  0.1485 -0.1653
  406TMC3    C5 6115   1.458   1.090  14.407 -0.2136 -0.0994  0.3429
  406TMC3    C6 6116   1.475   0.959  14.377 -0.4798  0.1241 -0.3265
  406TMC3     C 6117   1.221   1.206  14.174 -0.2043 -0.4677 -0.7361
  406TMC3     O 6118   1.216   1.327  14.210  0.2119 -0.3155 -0.1283
  406TMC3     H 6119   1.206   0.925  14.173  0.1431 -2.1784  1.0951
  406TMC3    H1 6120   1.342   1.268  14.397 -3.0835 -0.6188  1.1376
  406TMC3    H2 6121   1.515   0.901  14.460  0.1201  0.9876 -0.0152
  406TMC3    C7 6122   1.569   1.153  14.480 -0.2169  0.5356  0.1192
  406TMC3    C8 6123   1.406   0.760  14.264  0.5684  0.0454  1.0882
  406TMC3    O1 6124   1.548   1.242  14.562 -0.3664  0.1358 -0.7313
  406TMC3    O2 6125   1.323   0.696  14.198  0.2808 -0.0043  0.6025
  407MPD2     C 6126   3.765   2.062   9.907  0.4914  0.1552 -0.2977
  407MPD2    C1 6127   3.770   2.158   9.812  0.2188  0.2290 -0.2489
  407MPD2    C2 6128   3.823   2.280   9.834 -0.3115  0.0534 -0.1296
  407MPD2    C3 6129   3.886   2.311   9.950 -0.2086 -0.8446  0.4490
  407MPD2    C4 6130   3.891   2.208  10.046 -0.0988  0.7566 -0.2075
  407MPD2    C5 6131   3.824   2.087  10.026  0.1862  0.2964  0.4176
  407MPD2     H 6132   3.817   2.349   9.751 -0.2044  1.3955  0.9792
  407MPD2    H1 6133   3.934   2.233  10.142 -3.8060  0.3624  1.5326
  407MPD2    H2 6134   3.718   1.964   9.900 -2.7490  1.7406 -0.4775
  407MPD2    H3 6135   3.820   2.015  10.107  0.5006  1.3293  1.3513
  407MPD2     N 6136   3.973   2.421   9.971  0.2450 -0.5577  0.1091
  407MPD2    H5 6137   4.036   2.425  10.051 -0.2764 -1.3840  0.5581
  407MPD2    N1 6138   3.719   2.135   9.680  0.2424  0.2009 -0.0753
  407MPD2    H7 6139   3.720   2.217   9.619  0.4651  1.4998  1.6786
  408TMC3    C1 6140   3.592   2.053   9.503 -0.1321  0.4503 -0.0489
  408TMC3    C2 6141   3.626   2.161   9.424 -0.1608  0.0257  0.2937
  408TMC3    C3 6142   3.527   2.208   9.345  0.8408  0.3711  0.1874
  408TMC3    C4 6143   3.474   1.991   9.491 -0.6456  0.0449 -0.1535
  408TMC3    C5 6144   3.381   2.040   9.410  0.1385 -0.8837 -0.0319
  408TMC3    C6 6145   3.407   2.151   9.340 -0.4044  0.1038 -0.4836
  408TMC3     C 6146   3.672   2.021   9.623  0.2009 -0.1201  0.8907
  408TMC3     O 6147   3.653   1.913   9.676 -0.0487  0.0785  0.1152
  408TMC3     H 6148   3.727   2.198   9.416 -0.5570  1.2800  0.9863
  408TMC3    H1 6149   3.455   1.903   9.552  1.1187 -1.2347 -1.4513
  408TMC3    H2 6150   3.342   2.173   9.256  0.9481  0.7363 -1.3769
  408TMC3    C7 6151   3.253   1.972   9.412 -0.4560  0.8405 -0.4242
  408TMC3    C8 6152   3.529   2.349   9.289 -0.2364 -0.6011 -0.1122
  408TMC3    O1 6153   3.240   1.867   9.467  0.7465 -0.4847  0.5441
  408TMC3    O2 6154   3.421   2.398   9.254  0.1824 -0.4668  0.0330
  409MPD2     C 6155   3.705   2.463  16.866 -0.0932 -0.0068 -0.2359
  409MPD2    C1 6156   3.831   2.423  16.858 -0.0442 -0.7654  0.0245
  409MPD2    C2 6157   3.927   2.518  16.819 -0.1697 -0.2534 -0.0130
  409MPD2    C3 6158   3.885   2.648  16.799 -0.0108 -0.0103 -0.0193
  409MPD2    C4 6159   3.751   2.683  16.811  0.2220 -0.6545  0.9158
  409MPD2    C5 6160   3.660   2.590  16.847 -0.2870 -1.0290 -0.8616
  409MPD2     H 6161   4.031   2.488  16.817  1.1481  4.4571 -0.7674
  409MPD2    H1 6162   3.715   2.783  16.791  1.6066 -0.1452  0.9550
  409MPD2    H2 6163   3.632   2.383  16.878  0.0252  0.0227  0.6907
  409MPD2    H3 6164   3.555   2.599  16.868 -0.2608 -0.7166 -0.8646
  409MPD2     N 6165   3.979   2.759  16.783 -0.1614 -0.9205 -0.2584
  409MPD2    H5 6166   3.940   2.853  16.773  0.5372 -0.4703  1.2129
  409MPD2    N1 6167   3.877   2.289  16.866 -0.0375  0.0487 -0.3209
  409MPD2    H7 6168   3.975   2.274  16.844 -0.0471 -1.7376  0.8511
  410TMC3    C1 6169   4.173   2.884  16.776  0.7401 -0.3767 -0.6415
  410TMC3    C2 6170   4.305   2.896  16.810 -0.0771 -0.0449  0.2164
  410TMC3    C3 6171   4.381   2.996  16.762 -0.3459  0.4322  0.3261
  410TMC3    C4 6172   4.122   2.965  16.676 -0.1537  0.1247  0.0717
  410TMC3    C5 6173   4.200   3.067  16.627  0.5481 -0.2108 -0.1066
  410TMC3    C6 6174   4.328   3.094  16.680  0.4183 -0.5229  0.4824
  410TMC3     C 6175   4.111   2.757  16.815 -0.0472 -0.4864  0.1647
  410TMC3     O 6176   4.175   2.673  16.881  0.1876  0.1914  0.3039
  410TMC3     H 6177   4.345   2.824  16.881  1.5513  2.1167  1.4873
  410TMC3    H1 6178   4.038   2.921  16.624  1.6470 -1.5125 -1.4269
  410TMC3    H2 6179   4.396   3.170  16.644  1.8155 -0.9519  2.1717
  410TMC3    C7 6180   4.158   3.120  16.499  0.1555 -0.9760  0.0274
  410TMC3    C8 6181   4.517   3.022  16.821 -0.7069  0.4251  0.5134
  410TMC3    O1 6182   4.050   3.069  16.468  0.0498 -0.1141  0.0860
  410TMC3    O2 6183   4.555   3.138  16.849 -0.5179  0.1169  0.2291
  411MPD2     C 6184   3.944   3.286  14.324 -0.8793  0.0284  0.0529
  411MPD2    C1 6185   3.946   3.335  14.452 -0.5786 -0.4938 -0.0664
  411MPD2    C2 6186   3.855   3.285  14.540  0.0621 -0.8613 -0.1993
  411MPD2    C3 6187   3.765   3.192  14.511  0.2971 -0.2949 -1.1087
  411MPD2    C4 6188   3.767   3.131  14.387 -0.9258  0.1362  0.4524
  411MPD2    C5 6189   3.853   3.185  14.293 -0.4104  0.0875  0.0330
  411MPD2     H 6190   3.861   3.324  14.641 -0.4915  0.7515 -0.7863
  411MPD2    H1 6191   3.690   3.060  14.361 -0.2033 -0.5913  0.2795
  411MPD2    H2 6192   3.984   3.340  14.238 -0.5639 -0.4957 -0.1350
  411MPD2    H3 6193   3.841   3.155  14.189  0.4274  0.9329 -0.3129
  411MPD2     N 6194   3.657   3.148  14.596 -0.1308  0.2794  0.8190
  411MPD2    H5 6195   3.600   3.069  14.569  0.5646  0.5904 -1.5228
  411MPD2    N1 6196   4.006   3.463  14.473 -0.0911  0.1718 -0.1599
  411MPD2    H7 6197   4.048   3.500  14.389  1.4425 -1.3747 -0.0931
  412TMC3    C1 6198   3.520   3.112  14.763 -0.3127  0.1209  0.3647
  412TMC3    C2 6199   3.447   3.157  14.869  0.0858  0.0384 -0.1352
  412TMC3    C3 6200   3.331   3.096  14.908 -0.3719 -0.0254  0.0979
  412TMC3    C4 6201   3.479   3.002  14.692 -0.5801 -0.0510 -0.2435
  412TMC3    C5 6202   3.356   2.944  14.719  0.0376 -0.5293 -0.0402
  412TMC3    C6 6203   3.278   2.990  14.833  0.0343 -0.1033  0.4340
  412TMC3     C 6204   3.618   3.197  14.710 -0.6460  1.1566 -0.3009
  412TMC3     O 6205   3.649   3.303  14.763 -0.4138 -0.7752 -0.4661
  412TMC3     H 6206   3.484   3.245  14.921  0.7136 -0.2079 -0.1638
  412TMC3    H1 6207   3.539   2.951  14.618  0.0763  0.9973 -0.4167
  412TMC3    H2 6208   3.178   2.957  14.859 -0.0941  0.6810  0.9280
  412TMC3    C7 6209   3.287   2.913  14.597  0.3393  0.3226  0.3270
  412TMC3    C8 6210   3.258   3.165  15.011  0.7882 -0.7423 -0.2280
  412TMC3    O1 6211   3.339   2.940  14.493  0.4153 -0.1806 -0.4611
  412TMC3    O2 6212   3.321   3.186  15.111  0.7883  0.2738  0.1765
  413MPD2     C 6213   1.293   2.256  15.179  0.6097 -0.8160  0.2787
  413MPD2    C1 6214   1.236   2.168  15.094  0.5478 -0.0997 -0.0036
  413MPD2    C2 6215   1.306   2.063  15.046  0.1047 -0.1954  0.5916
  413MPD2    C3 6216   1.435   2.055  15.081  0.4691  0.3466  0.2384
  413MPD2    C4 6217   1.498   2.150  15.162  0.2047 -0.0929  0.5113
  413MPD2    C5 6218   1.421   2.255  15.212  0.6173  0.7157  0.5985
  413MPD2     H 6219   1.269   2.007  14.961  0.6313 -0.7798  0.7414
  413MPD2    H1 6220   1.605   2.162  15.165  0.0760  0.6007  2.3754
  413MPD2    H2 6221   1.236   2.344  15.204 -0.4168 -1.3053 -0.3188
  413MPD2    H3 6222   1.467   2.339  15.262  1.9257  0.4199 -0.0939
  413MPD2     N 6223   1.507   1.941  15.029  0.0266 -0.0586  0.0894
  413MPD2    H5 6224   1.454   1.881  14.966  1.0217 -0.8990  0.0512
  413MPD2    N1 6225   1.098   2.179  15.075 -0.6410  0.0462 -0.0459
  413MPD2    H7 6226   1.053   2.257  15.122 -0.7045  0.7294 -1.2514
  414TMC3    C1 6227   1.678   1.811  14.959  0.3584  0.2091 -0.0801
  414TMC3    C2 6228   1.754   1.708  14.993 -0.5921 -0.1751  0.3877
  414TMC3    C3 6229   1.739   1.601  14.914  0.4237 -0.0665 -0.0619
  414TMC3    C4 6230   1.607   1.812  14.843  0.0394 -0.6825  0.2119
  414TMC3    C5 6231   1.611   1.709  14.754  0.3840  0.1049 -0.2818
  414TMC3    C6 6232   1.663   1.591  14.800 -0.1897  0.2626  0.3900
  414TMC3     C 6233   1.630   1.897  15.071 -0.3262 -0.4109 -0.1212
  414TMC3     O 6234   1.697   1.919  15.170 -0.3362 -0.0129 -0.5192
  414TMC3     H 6235   1.776   1.690  15.098 -0.5366 -1.0753  0.2206
  414TMC3    H1 6236   1.547   1.896  14.810  1.1963  0.8570  2.0160
  414TMC3    H2 6237   1.644   1.504  14.738 -0.4220  2.5327 -2.6758
  414TMC3    C7 6238   1.513   1.698  14.650  0.1816 -0.5443 -0.4273
  414TMC3    C8 6239   1.813   1.490  14.945 -0.1473  0.1096 -0.1587
  414TMC3    O1 6240   1.409   1.754  14.682  0.5832  0.3011  0.1749
  414TMC3    O2 6241   1.785   1.388  14.883  0.8150 -0.2836 -0.6024
  415TMC3    C1 6242   1.952   4.530  10.821  0.2089 -0.0837  0.5561
  415TMC3    C2 6243   2.019   4.604  10.730 -0.3158  0.2205  0.9140
  415TMC3    C3 6244   1.969   4.603  10.602 -0.8664  0.0247 -0.1681
  415TMC3    C4 6245   1.843   4.457  10.783  0.3375  0.5156 -0.0718
  415TMC3    C5 6246   1.809   4.450  10.651  0.2864 -0.1147 -0.5217
  415TMC3    C6 6247   1.875   4.522  10.563 -0.2925  0.1181  0.1661
  415TMC3     C 6248   1.964   4.559  10.958  0.4876 -0.1110 -0.2810
  415TMC3     O 6249   1.861   4.547  11.023 -0.1219 -0.4367 -0.1066
  415TMC3     H 6250   2.095   4.674  10.760  0.1037  1.4590 -2.9971
  415TMC3    H1 6251   1.776   4.412  10.856  3.3640 -0.0956  2.3190
  415TMC3    H2 6252   1.836   4.545  10.465 -1.1064  1.6294  0.8427
  415TMC3    C7 6253   1.694   4.374  10.609 -0.0351  0.3745  0.3715
  415TMC3    C8 6254   2.046   4.657  10.486  1.0077 -0.0775  0.1185
  415TMC3    O1 6255   1.655   4.394  10.495  0.7548  0.0594  0.0284
  415TMC3    O2 6256   2.039   4.602  10.378  0.2063  0.4492  0.3143
  416MPD2     C 6257   3.792   3.393  11.347  0.0189 -0.1793  0.1256
  416MPD2    C1 6258   3.712   3.287  11.390 -0.0276 -0.7033 -0.3029
  416MPD2    C2 6259   3.683   3.185  11.300  0.2479 -0.5273 -0.6769
  416MPD2    C3 6260   3.723   3.195  11.168  0.5832 -0.3259 -0.1808
  416MPD2    C4 6261   3.792   3.309  11.122  0.6276 -0.3960 -0.0488
  416MPD2    C5 6262   3.825   3.411  11.209 -0.2606 -0.0760 -0.0799
  416MPD2     H 6263   3.613   3.109  11.330  1.1508 -0.3160  1.9017
  416MPD2    H1 6264   3.833   3.309  11.022  1.1602  1.5232  0.1755
  416MPD2    H2 6265   3.828   3.472  11.412  0.9868 -0.1863 -0.3888
  416MPD2    H3 6266   3.886   3.497  11.183  4.4312 -2.5944  2.7860
  416MPD2     N 6267   3.676   3.099  11.085  0.1254  0.0367  0.2658
  416MPD2    H5 6268   3.633   3.016  11.123  3.4224 -1.3669  0.9325
  416MPD2    N1 6269   3.655   3.290  11.520 -1.0934  0.7143 -0.4633
  416MPD2    H7 6270   3.654   3.378  11.571 -0.6154  0.3245  0.2271
  417TMC3    C1 6271   3.505   3.231  11.688 -0.2907 -0.0978  0.2153
  417TMC3    C2 6272   3.493   3.148  11.796  0.2211 -0.4356 -0.1564
  417TMC3    C3 6273   3.387   3.179  11.878  0.1421  0.6289 -0.1233
  417TMC3    C4 6274   3.415   3.324  11.649 -0.4431 -0.3628  0.9712
  417TMC3    C5 6275   3.293   3.331  11.716  0.7085 -0.2528  0.0170
  417TMC3    C6 6276   3.287   3.265  11.839 -0.2442 -0.2099 -0.6310
  417TMC3     C 6277   3.604   3.182  11.586 -0.3246 -0.5573 -0.4033
  417TMC3     O 6278   3.643   3.069  11.589  0.1063 -0.0058  0.3276
  417TMC3     H 6279   3.570   3.074  11.813 -0.0232 -0.8035 -0.6228
  417TMC3    H1 6280   3.423   3.381  11.556 -0.3984 -0.3727  0.9686
  417TMC3    H2 6281   3.212   3.280  11.915 -0.1647 -0.1217 -0.5701
  417TMC3    C7 6282   3.216   3.453  11.692 -0.2154  0.4468 -0.6385
  417TMC3    C8 6283   3.390   3.146  12.018  0.1200  0.3910 -0.0757
  417TMC3    O1 6284   3.222   3.496  11.578  0.1952 -0.2905  0.2106
  417TMC3    O2 6285   3.286   3.150  12.079  0.0670  0.4633 -0.1904
  418TMC3    C1 6286   2.229   0.724   0.375  0.1007 -0.1781  0.1893
  418TMC3    C2 6287   2.108   0.721   0.310 -0.3880 -0.4571  0.4064
  418TMC3    C3 6288   2.031   0.603   0.309  0.5973  0.0988 -0.6659
  418TMC3    C4 6289   2.268   0.616   0.442 -0.7153 -0.0680  0.1810
  418TMC3    C5 6290   2.184   0.501   0.450  0.5603  0.0588  0.4114
  418TMC3    C6 6291   2.069   0.493   0.378  0.5882  0.3114  0.3251
  418TMC3     C 6292   2.336   0.810   0.322  0.1270  0.7941 -0.5712
  418TMC3     O 6293   2.303   0.923   0.289 -0.3319 -0.3249 -0.0541
  418TMC3     H 6294   2.077   0.802   0.244  2.2273  0.6037  0.4749
  418TMC3    H1 6295   2.362   0.623   0.495 -0.3662 -1.9672 -0.2016
  418TMC3    H2 6296   1.998   0.412   0.391 -0.5437  1.4052  0.9403
  418TMC3    C7 6297   2.234   0.378   0.508 -0.4416 -0.9453  0.6714
  418TMC3    C8 6298   1.945   0.591   0.196  0.3192  0.5736  1.0526
  418TMC3    O1 6299   2.216   0.273   0.445  0.0513  0.1324  0.7813
  418TMC3    O2 6300   1.913   0.692   0.137  0.1767  0.4948 -0.3586
  419MPD2     C 6301   0.733   2.891  12.131  0.2230  0.4261  0.0803
  419MPD2    C1 6302   0.805   3.005  12.131 -0.3502 -0.4692  0.0374
  419MPD2    C2 6303   0.802   3.090  12.240  0.0574  0.1169  0.0324
  419MPD2    C3 6304   0.729   3.054  12.355 -0.0146 -0.1252 -0.0320
  419MPD2    C4 6305   0.669   2.925  12.352 -0.6939  1.0937  0.1832
  419MPD2    C5 6306   0.672   2.849  12.243 -0.2733 -0.5965 -0.9191
  419MPD2     H 6307   0.868   3.175  12.226 -2.4015  2.3080  1.9244
  419MPD2    H1 6308   0.626   2.875  12.438  0.2956  2.4846  1.4902
  419MPD2    H2 6309   0.728   2.824  12.046 -2.4258 -1.8766  2.0589
  419MPD2    H3 6310   0.630   2.749  12.249 -1.9393  0.0778 -1.2934
  419MPD2     N 6311   0.726   3.137  12.467 -0.3309  0.3067  0.7171
  419MPD2    H5 6312   0.777   3.225  12.461 -0.6103  0.3760 -0.6076
  419MPD2    N1 6313   0.883   3.041  12.023  0.0097 -0.4187 -0.0457
  419MPD2    H7 6314   0.941   3.124  12.033  0.1971 -0.4624 -0.7711
  420TMC3    C1 6315   0.621   3.228  12.654  0.2084 -1.0726  0.3942
  420TMC3    C2 6316   0.605   3.350  12.587  0.2067  0.5416 -0.3096
  420TMC3    C3 6317   0.560   3.451  12.664 -0.4397  0.0336 -0.4545
  420TMC3    C4 6318   0.597   3.208  12.789  0.7619 -0.5801  0.3050
  420TMC3    C5 6319   0.558   3.320  12.858  0.2327 -0.6998 -0.1470
  420TMC3    C6 6320   0.533   3.440  12.795  0.5720 -0.0374  0.2267
  420TMC3     C 6321   0.658   3.108  12.578  0.5333 -0.1417 -0.0835
  420TMC3     O 6322   0.604   3.003  12.609  0.4656  0.0809  0.8388
  420TMC3     H 6323   0.622   3.362  12.481  2.1061  1.1763  0.0616
  420TMC3    H1 6324   0.636   3.114  12.827  2.3151 -0.3654 -0.7476
  420TMC3    H2 6325   0.474   3.520  12.838 -1.2640 -2.0059  1.3912
  420TMC3    C7 6326   0.607   3.327  12.990 -0.0980 -0.1597  0.0702
  420TMC3    C8 6327   0.514   3.565  12.583  0.3573  0.5843 -0.1338
  420TMC3    O1 6328   0.596   3.221  13.055  0.3307 -0.0135  0.0610
  420TMC3    O2 6329   0.407   3.623  12.600  0.4659  0.3788 -0.5069
  421TMC3    C1 6330   2.254   4.383  13.578 -0.4518 -0.1894  0.1977
  421TMC3    C2 6331   2.181   4.484  13.637  0.6782 -0.3572  0.0586
  421TMC3    C3 6332   2.178   4.498  13.774 -0.0599 -0.4299  0.0758
  421TMC3    C4 6333   2.333   4.297  13.653  0.3580 -0.3034  0.5856
  421TMC3    C5 6334   2.333   4.322  13.782 -0.1242  0.7244  0.1556
  421TMC3    C6 6335   2.259   4.415  13.846 -0.2671  0.3516  0.5067
  421TMC3     C 6336   2.238   4.351  13.437  0.7548  0.7650  0.2243
  421TMC3     O 6337   2.323   4.277  13.394  0.2911 -0.2872  0.7101
  421TMC3     H 6338   2.134   4.560  13.575 -0.7493 -1.2085  0.1190
  421TMC3    H1 6339   2.396   4.222  13.607 -0.0220  0.2484 -0.8504
  421TMC3    H2 6340   2.279   4.444  13.948  0.4649  1.8470 -0.0775
  421TMC3    C7 6341   2.454   4.289  13.854 -0.6251  0.0458 -0.6230
  421TMC3    C8 6342   2.186   4.637  13.814  0.1179 -0.0651 -0.5222
  421TMC3    O1 6343   2.563   4.317  13.805 -0.3756 -0.6316  0.3223
  421TMC3    O2 6344   2.239   4.707  13.732  0.1761 -0.0611 -0.4473
  422TMC3    C1 6345   4.246   1.935  12.641 -0.8659 -0.0693 -0.2871
  422TMC3    C2 6346   4.207   2.009  12.756 -0.5045  0.1935 -0.8431
  422TMC3    C3 6347   4.081   1.987  12.805  0.3468  0.1891  0.0289
  422TMC3    C4 6348   4.161   1.844  12.578  0.2087 -0.2931  0.3614
  422TMC3    C5 6349   4.038   1.829  12.635 -0.6467  0.6763 -0.3529
  422TMC3    C6 6350   4.001   1.899  12.743 -0.0901 -0.9836 -0.3084
  422TMC3     C 6351   4.347   1.990  12.559  0.4267 -0.1961  0.0351
  422TMC3     O 6352   4.372   2.110  12.551  0.1805  0.4759 -0.3089
  422TMC3     H 6353   4.264   2.096  12.786  0.3539 -0.7853  0.4033
  422TMC3    H1 6354   4.186   1.802  12.481 -1.0530 -0.5158  0.1324
  422TMC3    H2 6355   3.898   1.916  12.771  0.6952  3.2900 -0.1055
  422TMC3    C7 6356   3.940   1.740  12.571  0.4929  0.1686  0.5942
  422TMC3    C8 6357   4.031   2.074  12.912 -0.2633  0.1261 -0.3725
  422TMC3    O1 6358   3.965   1.717  12.451 -0.8503  1.1022  0.1845
  422TMC3    O2 6359   4.086   2.187  12.928  0.3403 -0.2222 -0.3352
  423MPD2     C 6360   1.023   2.389   0.414  0.2551  0.0782 -0.0076
  423MPD2    C1 6361   1.078   2.270   0.452  0.6791 -0.2460  0.5738
  423MPD2    C2 6362   1.091   2.167   0.360 -0.4738  0.2044 -0.3330
  423MPD2    C3 6363   1.052   2.190   0.227  0.9758  0.5998  0.5425
  423MPD2    C4 6364   0.998   2.312   0.189  0.4510  0.0184  0.0970
  423MPD2    C5 6365   0.982   2.411   0.283 -0.1395  0.0159 -0.8673
  423MPD2     H 6366   1.132   2.071   0.388 -0.2761  0.5416  0.5352
  423MPD2    H1 6367   0.976   2.339   0.087  2.4751 -1.2727 -0.6796
  423MPD2    H2 6368   1.007   2.476   0.476  0.1979  0.2096 -0.2091
  423MPD2    H3 6369   0.934   2.506   0.261 -0.2224 -0.2741 -1.9697
  423MPD2     N 6370   1.061   2.096   0.120 -0.3970 -0.4005  0.1482
  423MPD2    H5 6371   1.018   2.110   0.029  1.7370 -1.7287 -1.0517
  423MPD2    N1 6372   1.105   2.243   0.585  0.2640 -0.3122  0.1286
  423MPD2    H7 6373   1.134   2.147   0.600  1.8029 -0.0975 -1.5162
  424TMC3    C1 6374   1.126   2.276   0.815 -0.5468 -0.2888  0.5369
  424TMC3    C2 6375   1.259   2.269   0.848  0.4906  0.4236  0.1288
  424TMC3    C3 6376   1.298   2.280   0.977 -0.1566  1.0163 -0.0943
  424TMC3    C4 6377   1.034   2.297   0.909 -0.3432 -0.0221  0.1610
  424TMC3    C5 6378   1.074   2.307   1.036 -1.4813 -0.2898 -0.2805
  424TMC3    C6 6379   1.206   2.298   1.077 -0.2047  0.3549  0.4995
  424TMC3     C 6380   1.095   2.333   0.686  0.0956 -0.5212  0.3406
  424TMC3     O 6381   1.088   2.453   0.683  0.0013  0.4955 -0.1091
  424TMC3     H 6382   1.319   2.249   0.760  2.5832 -0.3216  1.7248
  424TMC3    H1 6383   0.933   2.334   0.890 -0.9891 -2.2490 -0.6699
  424TMC3    H2 6384   1.228   2.274   1.181  2.3656 -0.3719 -0.1949
  424TMC3    C7 6385   0.993   2.380   1.127  0.0653  0.1215 -0.4563
  424TMC3    C8 6386   1.396   2.183   1.012  0.2375  0.6662 -0.1186
  424TMC3    O1 6387   1.046   2.449   1.212  0.0779 -0.3797 -0.5373
  424TMC3    O2 6388   1.411   2.090   0.932  0.3549  0.0577 -0.1050
  425MPD2     C 6389   0.281   1.394  17.281 -0.7844 -0.0121 -0.3045
  425MPD2    C1 6390   0.195   1.293  17.304 -0.1688 -0.5917 -0.5249
  425MPD2    C2 6391   0.086   1.312  17.383 -0.0494 -0.0671  0.1318
  425MPD2    C3 6392   0.053   1.437  17.434  0.2422  0.3848 -0.3958
  425MPD2    C4 6393   0.148   1.539  17.412 -0.5267 -0.2500 -0.4602
  425MPD2    C5 6394   0.264   1.520  17.339 -0.0969 -0.6993  0.4327
  425MPD2     H 6395   0.023   1.226  17.405 -1.2518  1.3571  2.3489
  425MPD2    H1 6396   0.131   1.636  17.456 -1.8373 -0.1260 -1.2534
  425MPD2    H2 6397   0.372   1.382  17.223  0.4876  0.4559  1.5736
  425MPD2    H3 6398   0.337   1.597  17.321 -1.1995 -0.1009 -1.4015
  425MPD2     N 6399   4.679   1.451  17.512 -0.6377  0.1456 -0.6019
  425MPD2    H5 6400   4.624   1.367  17.521 -0.2716 -0.1788 -1.3716
  425MPD2    N1 6401   0.227   1.170  17.242 -0.1328  0.5029  0.4469
  425MPD2    H7 6402   0.311   1.179  17.186  0.0582  0.2436  0.6895
  426TMC3    C1 6403   0.209   0.941  17.188  0.2319 -0.2848  0.7469
  426TMC3    C2 6404   0.302   0.968  17.097 -0.6789 -0.3521 -0.2683
  426TMC3    C3 6405   0.389   0.872  17.069 -0.2231 -0.1550 -0.5712
  426TMC3    C4 6406   0.208   0.828  17.261 -0.1588  1.0834  0.0349
  426TMC3    C5 6407   0.284   0.727  17.214  0.1809  0.1064 -0.3835
  426TMC3    C6 6408   0.380   0.747  17.123  0.4068  0.2849 -1.0557
  426TMC3     C 6409   0.146   1.054  17.247  0.6924  0.3430 -0.3895
  426TMC3     O 6410   0.057   1.024  17.325  0.4949 -0.3495 -0.4799
  426TMC3     H 6411   0.292   1.057  17.035 -0.0488 -1.0617 -1.3856
  426TMC3    H1 6412   0.126   0.805  17.327 -1.7854  1.6669 -1.7648
  426TMC3    H2 6413   0.432   0.661  17.084 -0.3118  0.8277 -3.2034
  426TMC3    C7 6414   0.221   0.597  17.208  0.7923  0.4503  0.4202
  426TMC3    C8 6415   0.447   0.875  16.934  0.7912  0.4798 -0.2604
  426TMC3    O1 6416   0.247   0.530  17.113  0.2614 -0.2809 -0.5036
  426TMC3    O2 6417   0.456   0.770  16.868  0.2666 -0.0136 -0.5245
  427MPD2     C 6418   3.350   3.500  14.950  0.1395 -0.3828  0.5466
  427MPD2    C1 6419   3.319   3.487  15.087  0.2786 -0.2927  0.8030
  427MPD2    C2 6420   3.189   3.491  15.129  1.3762 -0.1910 -0.5167
  427MPD2    C3 6421   3.091   3.491  15.034 -0.5466 -0.3993 -0.3790
  427MPD2    C4 6422   3.117   3.499  14.904 -0.2059  0.2153 -0.7432
  427MPD2    C5 6423   3.243   3.512  14.866 -0.0183  0.0282  0.1421
  427MPD2     H 6424   3.169   3.512  15.233  2.7698  0.0680 -0.3016
  427MPD2    H1 6425   3.042   3.512  14.826 -2.5033 -3.4459  0.8426
  427MPD2    H2 6426   3.453   3.502  14.916 -0.4780  0.2818 -1.3128
  427MPD2    H3 6427   3.260   3.525  14.759  1.8593 -2.8073  0.0938
  427MPD2     N 6428   2.954   3.517  15.061  0.4969  0.0997 -0.1294
  427MPD2    H5 6429   2.894   3.534  14.980  0.6849  0.9926 -0.0799
  427MPD2    N1 6430   3.425   3.485  15.181 -0.0354  0.2329  0.1623
  427MPD2    H7 6431   3.399   3.475  15.279  3.9936 -1.5185  1.0564
  428TMC3    C1 6432   3.647   3.505  15.278 -0.7738  0.4493 -0.4989
  428TMC3    C2 6433   3.626   3.387  15.343 -0.2850  0.4233 -0.6312
  428TMC3    C3 6434   3.729   3.319  15.405  0.0891 -0.5272  0.7784
  428TMC3    C4 6435   3.771   3.559  15.263  0.2874 -0.5460  0.6265
  428TMC3    C5 6436   3.872   3.485  15.318  1.1599 -0.1676 -0.1643
  428TMC3    C6 6437   3.857   3.372  15.393  0.3368 -0.2679 -0.1087
  428TMC3     C 6438   3.561   3.519  15.162  0.0001 -1.1793 -0.4914
  428TMC3     O 6439   3.613   3.561  15.061 -0.2167  0.1319  0.2771
  428TMC3     H 6440   3.524   3.349  15.350 -0.5558  1.0199 -1.2924
  428TMC3    H1 6441   3.790   3.654  15.214 -1.0596 -0.2167  0.7400
  428TMC3    H2 6442   3.940   3.310  15.424 -0.8872 -1.8560 -0.0100
  428TMC3    C7 6443   4.008   3.538  15.321 -0.0457  0.8011 -0.5573
  428TMC3    C8 6444   3.719   3.171  15.423  0.1870 -0.2588  0.0690
  428TMC3    O1 6445   4.067   3.512  15.425  0.3295 -0.1286 -0.4328
  428TMC3    O2 6446   3.763   3.121  15.524 -0.2590 -0.2480 -0.3740
  429MPD2     C 6447   3.909   3.208  17.464  0.3327  0.8454 -0.0301
  429MPD2    C1 6448   4.040   3.172  17.440  0.4152 -0.4336  0.1202
  429MPD2    C2 6449   4.131   3.263  17.388  0.7403 -0.4381  0.0008
  429MPD2    C3 6450   4.088   3.398  17.365  0.6542 -0.7356  1.1075
  429MPD2    C4 6451   3.958   3.434  17.397 -0.4345  0.2083  0.0679
  429MPD2    C5 6452   3.868   3.337  17.439  0.1899 -0.0549 -0.0170
  429MPD2     H 6453   4.235   3.237  17.372  0.9966  0.1678  0.6773
  429MPD2    H1 6454   3.915   3.530  17.371  1.3414  1.1181  0.4437
  429MPD2    H2 6455   3.833   3.140  17.501  1.6400 -1.1406 -1.0115
  429MPD2    H3 6456   3.766   3.361  17.464 -0.3557 -1.7951 -0.5924
  429MPD2     N 6457   4.180   3.491  17.311 -0.0431  0.5302  0.8380
  429MPD2    H5 6458   4.274   3.454  17.298 -0.0055  0.3104  1.7581
  429MPD2    N1 6459   4.083   3.037  17.462 -0.1327  0.1951 -0.0604
  429MPD2    H7 6460   4.176   3.012  17.432  0.3287  0.2877  1.2928
  430TMC3    C1 6461   4.263   3.682  17.214  0.1915  0.7643 -0.5954
  430TMC3    C2 6462   4.241   3.778  17.124  0.0633 -0.1334 -0.0649
  430TMC3    C3 6463   4.346   3.863  17.102 -1.0106 -0.0803  0.7691
  430TMC3    C4 6464   4.387   3.652  17.271  0.0053 -0.2766  0.0621
  430TMC3    C5 6465   4.495   3.732  17.236 -0.0614 -0.3539 -0.4623
  430TMC3    C6 6466   4.471   3.845  17.160  0.3639 -0.7774  0.2818
  430TMC3     C 6467   4.149   3.614  17.258 -0.1935 -0.4737  0.2599
  430TMC3     O 6468   4.042   3.671  17.239  0.4860  1.2433 -0.2717
  430TMC3     H 6469   4.144   3.791  17.077 -0.4091 -0.8788  0.7193
  430TMC3    H1 6470   4.394   3.570  17.341  1.9630  2.0044  2.5191
  430TMC3    H2 6471   4.551   3.916  17.143 -1.4448  1.3660  0.7150
  430TMC3    C7 6472   4.619   3.659  17.216 -0.2179  0.4298 -0.1752
  430TMC3    C8 6473   4.340   3.957  16.994  0.1308 -0.5438 -0.3168
  430TMC3    O1 6474   4.608   3.540  17.214 -0.4821  0.0060 -0.5887
  430TMC3    O2 6475   4.444   4.006  16.960  0.0893 -0.2350 -0.5458
  431MPD2     C 6476   0.929   3.784  12.004 -0.1763  0.4178 -0.1382
  431MPD2    C1 6477   1.045   3.724  11.965 -0.8949  0.0496  1.0657
  431MPD2    C2 6478   1.034   3.612  11.885  0.2364 -0.1728  0.0131
  431MPD2    C3 6479   0.917   3.568  11.838 -0.2287  0.6826 -0.1773
  431MPD2    C4 6480   0.801   3.624  11.882  0.0067  0.3142 -0.3207
  431MPD2    C5 6481   0.807   3.739  11.957 -0.5801 -0.0606  0.3892
  431MPD2     H 6482   1.129   3.564  11.861 -0.6709 -0.9776 -1.9296
  431MPD2    H1 6483   0.704   3.589  11.848  0.1762 -1.3675  0.9226
  431MPD2    H2 6484   0.933   3.876  12.061  1.8484  0.5653 -0.5076
  431MPD2    H3 6485   0.718   3.787  11.997 -0.5557  0.5324 -0.2619
  431MPD2     N 6486   0.908   3.450  11.770 -0.8227  0.5060  0.2879
  431MPD2    H5 6487   0.822   3.396  11.773  0.4271 -1.5289 -0.3429
  431MPD2    N1 6488   1.167   3.783  11.998 -0.0164 -0.0038 -0.3019
  431MPD2    H7 6489   1.248   3.742  11.953 -1.7087 -1.9150 -1.5917
  432TMC3    C1 6490   1.021   3.256  11.696  0.0752 -0.4240  0.6451
  432TMC3    C2 6491   1.144   3.205  11.644  0.6268  0.9821  0.2150
  432TMC3    C3 6492   1.168   3.070  11.670  0.4374 -0.5813  1.5541
  432TMC3    C4 6493   0.946   3.183  11.783  0.2822 -0.4582  0.0099
  432TMC3    C5 6494   0.974   3.054  11.804  1.1021 -0.0859  1.2335
  432TMC3    C6 6495   1.088   2.994  11.750  0.1181  0.1215  0.3755
  432TMC3     C 6496   1.019   3.399  11.706  0.0547 -0.4355 -0.5591
  432TMC3     O 6497   1.122   3.456  11.666  0.3752 -0.3317  0.0379
  432TMC3     H 6498   1.210   3.264  11.582  0.9398  1.0503  0.6072
  432TMC3    H1 6499   0.859   3.226  11.830  1.4231 -1.3752  2.9675
  432TMC3    H2 6500   1.118   2.894  11.777  0.2870  0.0909  0.0658
  432TMC3    C7 6501   0.894   2.980  11.901 -0.3027 -0.3796 -0.0056
  432TMC3    C8 6502   1.302   3.026  11.644  0.5689 -0.6015 -0.4575
  432TMC3    O1 6503   0.859   2.868  11.869 -0.0393 -0.1990  0.1174
  432TMC3    O2 6504   1.355   3.060  11.539  1.4997 -0.2488  0.3835
  433MPD2     C 6505   4.175   2.630  10.516  0.5034 -0.5775  0.4260
  433MPD2    C1 6506   4.143   2.551  10.630  0.0468  0.1937  0.0265
  433MPD2    C2 6507   4.179   2.593  10.757  0.2228  0.0147  0.4143
  433MPD2    C3 6508   4.256   2.706  10.765 -0.5956  1.2574  0.4559
  433MPD2    C4 6509   4.276   2.786  10.655  0.5619 -0.4545 -0.6408
  433MPD2    C5 6510   4.242   2.745  10.530  0.1014 -0.1244  0.3824
  433MPD2     H 6511   4.162   2.529  10.843 -1.0806 -0.9591 -0.5663
  433MPD2    H1 6512   4.342   2.872  10.655 -1.3242  1.0033 -1.6134
  433MPD2    H2 6513   4.153   2.592  10.417  1.7467  0.7369 -0.3673
  433MPD2    H3 6514   4.265   2.801  10.441 -1.1123  0.7360  0.6117
  433MPD2     N 6515   4.327   2.722  10.884 -0.1161 -0.2351 -0.5172
  433MPD2    H5 6516   4.296   2.673  10.967  0.5418  1.1837  0.5765
  433MPD2    N1 6517   4.106   2.419  10.598 -0.1272  0.0756 -1.0415
  433MPD2    H7 6518   4.107   2.410  10.497 -0.7457 -0.5544 -0.9925
  434TMC3    C1 6519   4.157   2.183  10.643  0.1821  0.0066 -0.5564
  434TMC3    C2 6520   4.257   2.135  10.722  0.4932 -0.3449  0.3564
  434TMC3    C3 6521   4.349   2.060  10.663  0.5086  0.1673 -0.8171
  434TMC3    C4 6522   4.155   2.191  10.505 -0.7652  0.0461 -0.1190
  434TMC3    C5 6523   4.257   2.106  10.455  0.1548  0.3556 -0.1145
  434TMC3    C6 6524   4.344   2.029  10.527  0.1078  1.0730  0.0479
  434TMC3     C 6525   4.113   2.315  10.695  0.2451 -0.7542  0.3297
  434TMC3     O 6526   4.114   2.328  10.815 -0.0104 -0.0510  0.1723
  434TMC3     H 6527   4.253   2.135  10.830  0.8240 -0.0657  0.3690
  434TMC3    H1 6528   4.063   2.204  10.449 -0.0946  2.3429 -0.6760
  434TMC3    H2 6529   4.420   1.979  10.467 -0.2355  2.4083 -1.5166
  434TMC3    C7 6530   4.208   2.052  10.327  0.0281  0.5956 -0.3010
  434TMC3    C8 6531   4.463   2.020  10.744  0.2332 -0.2089 -0.1919
  434TMC3    O1 6532   4.173   2.142  10.247 -0.1023 -0.1334  0.0059
  434TMC3    O2 6533   4.471   2.068  10.855  0.5376  0.2458  0.0633
  435MPD2     C 6534   1.697   2.524  15.251  0.7168 -0.1765  0.0633
  435MPD2    C1 6535   1.674   2.503  15.385  0.1551 -0.8589 -0.5268
  435MPD2    C2 6536   1.764   2.435  15.469 -0.2810  0.6123  0.1937
  435MPD2    C3 6537   1.886   2.394  15.419  0.0846  0.4197 -0.2956
  435MPD2    C4 6538   1.913   2.422  15.288  0.0586  0.1390 -0.0283
  435MPD2    C5 6539   1.825   2.485  15.208 -0.4126 -0.5116 -0.6027
  435MPD2     H 6540   1.750   2.427  15.576 -2.7183  3.9216  0.1229
  435MPD2    H1 6541   2.005   2.392  15.239  0.6995 -2.1470  2.5970
  435MPD2    H2 6542   1.621   2.558  15.182 -0.0232  1.8619  1.9127
  435MPD2    H3 6543   1.856   2.503  15.106  1.9466 -2.4935 -0.2218
  435MPD2     N 6544   1.982   2.332  15.510  0.0261  0.2103 -0.0450
  435MPD2    H5 6545   1.946   2.304  15.600 -0.6562  3.2735  0.6482
  435MPD2    N1 6546   1.555   2.557  15.454  0.0433  0.5393  0.0552
  435MPD2    H7 6547   1.553   2.538  15.554  1.6943  1.0080  0.1687
  436TMC3    C1 6548   1.266   2.689  15.697 -0.2593 -0.0019 -0.4443
  436TMC3    C2 6549   1.374   2.659  15.611 -0.0048 -0.1554 -0.1124
  436TMC3    C3 6550   1.335   2.623  15.483 -0.1765 -0.5113 -0.0089
  436TMC3    C4 6551   1.132   2.681  15.660  0.2791  0.0039 -0.0439
  436TMC3    C5 6552   1.104   2.644  15.531  0.4079 -0.8680 -0.5184
  436TMC3    C6 6553   1.206   2.614  15.446 -0.0155  0.0525  0.2480
  436TMC3     C 6554   1.305   2.731  15.829 -0.3229 -0.2354  0.1375
  436TMC3     O 6555   1.414   2.776  15.853  0.0857  0.6769  0.0949
  436TMC3     H 6556   1.476   2.686  15.638  1.5756 -3.4369 -2.8366
  436TMC3    H1 6557   1.049   2.718  15.721 -0.4477 -0.1310 -0.9473
  436TMC3    H2 6558   1.190   2.584  15.344 -0.6248  0.5190  0.1999
  436TMC3    C7 6559   0.965   2.630  15.491 -1.0587 -0.5967  0.0659
  436TMC3    C8 6560   1.437   2.591  15.395  0.4877 -0.0148 -0.7492
  436TMC3    O1 6561   0.944   2.604  15.375 -0.0158 -0.1973 -0.2059
  436TMC3    O2 6562   1.404   2.587  15.275  0.9727 -0.3880  0.0253
  437TMC3    C1 6563   0.456   0.057  12.155 -1.3668  0.3272 -0.3588
  437TMC3    C2 6564   0.458   0.190  12.157 -0.1233  0.8270 -0.5967
  437TMC3    C3 6565   0.495   0.250  12.044 -0.3468  0.6232 -0.1319
  437TMC3    C4 6566   0.486   4.719  12.045  0.0663 -0.0382  0.1961
  437TMC3    C5 6567   0.514   0.045  11.932  0.4899  0.2611 -0.8132
  437TMC3    C6 6568   0.514   0.182  11.925 -0.0808 -0.3263 -0.0428
  437TMC3     C 6569   0.456   4.729  12.286 -0.3437 -0.0874 -0.2772
  437TMC3     O 6570   0.416   4.612  12.292  0.7226  0.3717  0.0435
  437TMC3     H 6571   0.435   0.248  12.245 -0.0625 -1.1152  0.6843
  437TMC3    H1 6572   0.477   4.612  12.054 -0.6202 -0.0606 -0.7840
  437TMC3    H2 6573   0.539   0.235  11.834 -0.4614 -1.0392 -0.5666
  437TMC3    C7 6574   0.601   4.720  11.827 -0.3396 -0.2666  0.0485
  437TMC3    C8 6575   0.512   0.390  12.041  0.2777  0.5946 -0.2618
  437TMC3    O1 6576   0.626   0.055  11.729 -0.0618  0.8254 -0.2344
  437TMC3    O2 6577   0.456   0.453  12.129 -0.4559  0.7805  0.1367
  438MPD2     C 6578   2.370   0.280  16.610 -0.0214 -0.3316  0.2547
  438MPD2    C1 6579   2.471   0.187  16.625 -0.0167  0.2823 -0.2941
  438MPD2    C2 6580   2.477   0.120  16.741  0.0179  0.3476  0.9310
  438MPD2    C3 6581   2.389   0.147  16.846 -0.2556  0.2029  0.3910
  438MPD2    C4 6582   2.289   0.244  16.832  0.2263  0.4696  0.4010
  438MPD2    C5 6583   2.285   0.306  16.710  0.3218 -0.5052  0.9848
  438MPD2     H 6584   2.549   0.039  16.746  0.3080  0.5164 -0.4379
  438MPD2    H1 6585   2.217   0.270  16.909 -0.1077  2.0882 -0.4460
  438MPD2    H2 6586   2.355   0.339  16.521  1.3044  1.8650  1.4854
  438MPD2    H3 6587   2.211   0.384  16.694  1.2581  0.3739  0.8928
  438MPD2     N 6588   2.406   0.074  16.966  0.7123  0.3268  0.1916
  438MPD2    H5 6589   2.355   0.108  17.047  0.7895  1.6356 -0.3112
  438MPD2    N1 6590   2.578   0.171  16.533  0.2702  0.3093 -0.3410
  438MPD2    H7 6591   2.651   0.103  16.554 -0.7661 -0.0892  1.9005
  439TMC3    C1 6592   2.733   0.234  16.371  0.5204  0.6600  0.3935
  439TMC3    C2 6593   2.744   0.249  16.236 -0.2162  0.9365  0.2249
  439TMC3    C3 6594   2.865   0.231  16.185  0.8906 -0.1389 -0.2937
  439TMC3    C4 6595   2.844   0.210  16.452  0.3578  0.0816  0.1507
  439TMC3    C5 6596   2.967   0.196  16.386  0.3675 -0.6761 -0.1689
  439TMC3    C6 6597   2.978   0.196  16.249 -0.6448 -0.5626  0.3981
  439TMC3     C 6598   2.598   0.246  16.423 -0.1723 -0.3610  0.1873
  439TMC3     O 6599   2.521   0.316  16.360 -0.2348 -0.3634  0.5376
  439TMC3     H 6600   2.656   0.257  16.174 -1.1278  0.4918  1.4611
  439TMC3    H1 6601   2.834   0.223  16.559 -0.1897 -0.5600  0.1776
  439TMC3    H2 6602   3.070   0.159  16.205  0.4737  0.5159  1.8486
  439TMC3    C7 6603   3.089   0.208  16.467  0.3435 -0.7076 -0.6299
  439TMC3    C8 6604   2.866   0.173  16.049  0.0786 -0.2617  0.3202
  439TMC3    O1 6605   3.069   0.216  16.585 -0.2623 -0.6131 -0.2643
  439TMC3    O2 6606   2.916   0.061  16.046  0.5840  0.3840 -0.3951
  440MPD2     C 6607   1.272   0.856  14.642 -0.3678 -0.3170 -0.1318
  440MPD2    C1 6608   1.355   0.943  14.703  0.6864 -0.3726 -0.0272
  440MPD2    C2 6609   1.482   0.897  14.737 -0.8769  0.4542 -0.8000
  440MPD2    C3 6610   1.523   0.775  14.712  0.8700 -0.7497 -0.3386
  440MPD2    C4 6611   1.430   0.689  14.654 -0.1962  0.5027 -0.9823
  440MPD2    C5 6612   1.307   0.728  14.617  0.4914  0.3516 -0.3638
  440MPD2     H 6613   1.557   0.965  14.777 -0.5869 -0.9982  1.0993
  440MPD2    H1 6614   1.458   0.585  14.642 -3.1331 -0.4430  0.4533
  440MPD2    H2 6615   1.171   0.884  14.614 -1.1476 -3.6830 -0.7442
  440MPD2    H3 6616   1.231   0.659  14.583  0.3409  0.5964 -0.5323
  440MPD2     N 6617   1.645   0.718  14.753 -0.2268 -0.1209 -1.4637
  440MPD2    H5 6618   1.663   0.619  14.737  1.8909 -0.0963  0.6824
  440MPD2    N1 6619   1.319   1.073  14.738 -0.3867 -0.0575  0.7271
  440MPD2    H7 6620   1.400   1.113  14.784  0.9052 -0.8457 -0.8433
  441TMC3    C1 6621   1.858   0.723  14.862  0.6472 -0.4083 -1.0288
  441TMC3    C2 6622   1.962   0.812  14.880 -0.7560  0.2390  0.0761
  441TMC3    C3 6623   2.052   0.798  14.983 -0.3957  0.1766 -0.0687
  441TMC3    C4 6624   1.842   0.625  14.958 -0.5611  0.5319 -0.1119
  441TMC3    C5 6625   1.941   0.611  15.054 -0.5289 -0.6230 -0.7924
  441TMC3    C6 6626   2.053   0.690  15.062 -0.0603 -0.5480  0.3932
  441TMC3     C 6627   1.737   0.786  14.823  0.4975 -0.1425  0.8040
  441TMC3     O 6628   1.731   0.892  14.881 -0.0242 -0.0528  0.0949
  441TMC3     H 6629   1.956   0.903  14.821  1.4063 -0.5205 -1.3457
  441TMC3    H1 6630   1.755   0.561  14.954  0.4355 -0.8295 -0.1084
  441TMC3    H2 6631   2.115   0.703  15.150 -0.5161  0.2902  0.6000
  441TMC3    C7 6632   1.908   0.530  15.172 -0.0679  0.1925 -0.6758
  441TMC3    C8 6633   2.123   0.915  15.031 -0.5365  0.4203  0.0776
  441TMC3    O1 6634   1.796   0.481  15.185 -0.2099  0.4694  0.6106
  441TMC3    O2 6635   2.247   0.911  15.025 -0.2995  0.3543  0.1735
  442MPD2     C 6636   4.433   0.921  16.890  0.5524  0.3671 -0.6976
  442MPD2    C1 6637   4.449   0.990  16.768  0.4677 -0.3298 -0.0485
  442MPD2    C2 6638   4.475   0.925  16.647  0.2859  0.5655  0.0229
  442MPD2    C3 6639   4.467   0.788  16.641  0.3126 -0.1201 -0.3437
  442MPD2    C4 6640   4.453   0.717  16.760 -0.0456 -0.9991  0.0962
  442MPD2    C5 6641   4.445   0.786  16.883 -0.0496  0.3286 -0.1017
  442MPD2     H 6642   4.489   0.990  16.562 -1.3857  2.4084  1.1444
  442MPD2    H1 6643   4.463   0.609  16.761 -0.4891 -1.0337  1.9831
  442MPD2    H2 6644   4.411   0.962  16.989 -1.1418  1.6692 -1.5976
  442MPD2    H3 6645   4.432   0.719  16.967 -0.4076  0.1859 -0.2699
  442MPD2     N 6646   4.487   0.710  16.522  0.0888  0.4040 -0.6076
  442MPD2    H5 6647   4.481   0.610  16.533 -1.0002  0.3157 -2.0183
  442MPD2    N1 6648   4.444   1.131  16.759  0.3244 -0.1966  0.4009
  442MPD2    H7 6649   4.468   1.174  16.670  0.7871 -0.2016  0.5230
  443TMC3    C1 6650   4.408   1.356  16.823 -0.0757  0.4487 -0.2034
  443TMC3    C2 6651   4.482   1.400  16.710 -1.0094 -0.7512 -0.4398
  443TMC3    C3 6652   4.445   1.515  16.651 -0.5495  0.6332 -0.6605
  443TMC3    C4 6653   4.310   1.436  16.881 -0.4137 -1.4048 -0.1449
  443TMC3    C5 6654   4.268   1.546  16.805 -0.2154 -0.3642  0.1569
  443TMC3    C6 6655   4.333   1.579  16.690 -0.1051  0.0753  0.3295
  443TMC3     C 6656   4.407   1.217  16.863 -0.6352  0.1737 -1.0898
  443TMC3     O 6657   4.349   1.184  16.966 -0.4751 -0.1417  0.0989
  443TMC3     H 6658   4.566   1.341  16.676 -1.6822 -2.4398  0.7797
  443TMC3    H1 6659   4.248   1.390  16.957 -0.9409 -1.6319 -0.7022
  443TMC3    H2 6660   4.297   1.667  16.638  0.7007  0.4807  0.4508
  443TMC3    C7 6661   4.127   1.565  16.783 -0.6800  0.2790 -0.1333
  443TMC3    C8 6662   4.483   1.524  16.512  0.8366  0.7521  0.3427
  443TMC3    O1 6663   4.087   1.549  16.668 -0.1235 -0.6148  0.0961
  443TMC3    O2 6664   4.576   1.446  16.490 -0.2698 -0.8344  0.0439
  444MPD2     C 6665   0.039   0.659  16.932  1.1447  0.7735  0.5058
  444MPD2    C1 6666   4.722   0.527  16.937  0.6564  0.5869  0.3078
  444MPD2    C2 6667   0.041   0.436  16.851 -0.1375 -0.0928  0.0549
  444MPD2    C3 6668   0.151   0.470  16.766 -0.5691  0.1507 -0.5872
  444MPD2    C4 6669   0.193   0.600  16.763 -0.2449  1.4428 -0.3648
  444MPD2    C5 6670   0.144   0.692  16.847  0.0050  1.0022 -0.2015
  444MPD2     H 6671   0.008   0.333  16.856  0.8678 -0.2909  2.3518
  444MPD2    H1 6672   0.271   0.634  16.696  0.1448 -1.0886 -1.2076
  444MPD2    H2 6673   0.004   0.740  16.995  0.9456 -0.1093  1.5306
  444MPD2    H3 6674   0.186   0.792  16.852 -1.2295  1.5482 -1.0346
  444MPD2     N 6675   0.194   0.374  16.682 -0.0530  0.2293  0.1019
  444MPD2    H5 6676   0.156   0.280  16.695 -0.7891  0.9516  3.0661
  444MPD2    N1 6677   4.616   0.493  17.027  0.5087 -0.4105  0.8169
  444MPD2    H7 6678   4.599   0.393  17.035  1.3373 -0.7073 -0.9835
  445TMC3    C1 6679   0.345   0.262  16.542 -0.2405 -0.0210  0.0974
  445TMC3    C2 6680   0.246   0.191  16.484  0.1906  0.0363  0.2753
  445TMC3    C3 6681   0.279   0.085  16.409  0.1535 -0.5042  0.5474
  445TMC3    C4 6682   0.474   0.233  16.526 -0.4325  0.7542 -1.0415
  445TMC3    C5 6683   0.504   0.117  16.462  0.2798  0.2315 -0.4107
  445TMC3    C6 6684   0.409   0.041  16.402 -0.4525 -0.2662 -0.6537
  445TMC3     C 6685   0.311   0.377  16.619 -0.5877 -0.1392 -0.0905
  445TMC3     O 6686   0.384   0.475  16.602 -0.5481 -0.2707  0.3140
  445TMC3     H 6687   0.144   0.227  16.491 -0.8203 -2.8523  0.5859
  445TMC3    H1 6688   0.544   0.281  16.594  2.4141 -1.5175 -2.3267
  445TMC3    H2 6689   0.433   4.678  16.365  0.2506  0.5322 -2.3626
  445TMC3    C7 6690   0.643   0.072  16.470  0.1090 -0.4070  0.0064
  445TMC3    C8 6691   0.172   4.730  16.371 -0.5225 -0.1233  0.0539
  445TMC3    O1 6692   0.714   0.120  16.558 -0.4703 -0.3936 -0.1936
  445TMC3    O2 6693   0.059   0.028  16.409 -0.7928 -0.2545  0.2121
  446MPD2     C 6694   4.013   2.192  11.356  0.2587 -0.0966  0.3077
  446MPD2    C1 6695   4.000   2.145  11.226  0.1286 -0.7827 -0.9213
  446MPD2    C2 6696   4.088   2.201  11.134  0.1905  0.1090  0.6745
  446MPD2    C3 6697   4.180   2.291  11.176  0.7264 -0.3328  0.1815
  446MPD2    C4 6698   4.195   2.334  11.310  0.3634 -0.6126  0.1375
  446MPD2    C5 6699   4.102   2.285  11.391  0.2020  0.2701 -0.9114
  446MPD2     H 6700   4.087   2.161  11.033 -3.8146 -2.8029  1.8577
  446MPD2    H1 6701   4.268   2.405  11.349 -1.1220  0.1720  1.5127
  446MPD2    H2 6702   3.946   2.147  11.428  1.9147 -1.7393  0.8282
  446MPD2    H3 6703   4.108   2.300  11.498  0.6038  0.5627 -0.9750
  446MPD2     N 6704   4.276   2.329  11.079 -0.7205 -0.2204  0.1518
  446MPD2    H5 6705   4.251   2.319  10.981  1.8426  0.4483 -0.5730
  446MPD2    N1 6706   3.911   2.043  11.181 -0.3911 -0.1801  0.0360
  446MPD2    H7 6707   3.918   2.005  11.088 -1.4637 -0.6403  0.1352
  447TMC3    C1 6708   4.504   2.335  11.000 -0.0695 -0.2876 -0.1781
  447TMC3    C2 6709   4.473   2.384  10.871  0.2975  0.0143  0.8055
  447TMC3    C3 6710   4.566   2.382  10.771  0.1777  0.1579  0.2815
  447TMC3    C4 6711   4.632   2.299  11.027 -1.2269  0.8394 -0.1336
  447TMC3    C5 6712   4.721   2.298  10.928  0.2017 -0.0722 -0.1754
  447TMC3    C6 6713   4.691   2.342  10.802  0.6836 -0.8264  0.4950
  447TMC3     C 6714   4.407   2.352  11.108  0.9712 -0.1093 -0.1882
  447TMC3     O 6715   4.459   2.361  11.218 -0.5288 -0.0333 -0.3630
  447TMC3     H 6716   4.379   2.437  10.858  0.2786 -0.2848 -0.3212
  447TMC3    H1 6717   4.664   2.276  11.128  0.3671  0.3605 -0.7384
  447TMC3    H2 6718   0.036   2.344  10.731  0.9723  1.2534  0.8986
  447TMC3    C7 6719   0.121   2.253  10.956 -0.2747  0.4789  0.1072
  447TMC3    C8 6720   4.532   2.407  10.635  0.2344  0.6046 -0.5008
  447TMC3    O1 6721   0.140   2.137  10.996 -0.7872  0.2133 -0.4334
  447TMC3    O2 6722   4.419   2.379  10.597 -0.3002 -0.0590 -0.0822
  448TMC3    C1 6723   3.410   2.021  16.938 -0.6783 -0.7480  0.4895
  448TMC3    C2 6724   3.372   1.924  16.849 -0.2130  0.0628  0.2102
  448TMC3    C3 6725   3.359   1.801  16.888 -0.1760  0.3192  0.9082
  448TMC3    C4 6726   3.459   1.984  17.057  0.1509 -0.2945  0.2683
  448TMC3    C5 6727   3.463   1.850  17.089  0.1091  0.7362 -0.9339
  448TMC3    C6 6728   3.410   1.750  17.014  0.1044 -0.0230 -0.2426
  448TMC3     C 6729   3.349   2.154  16.910 -0.4649 -0.6382 -0.0541
  448TMC3     O 6730   3.250   2.160  16.839 -0.6960  0.3812  0.0295
  448TMC3     H 6731   3.346   1.957  16.749 -3.0599  1.2247  1.3366
  448TMC3    H1 6732   3.486   2.057  17.133  0.9035 -0.2494 -0.0444
  448TMC3    H2 6733   3.415   1.646  17.043 -0.4977  0.1554  0.5192
  448TMC3    C7 6734   3.544   1.806  17.206 -0.1044 -0.3751  0.3013
  448TMC3    C8 6735   3.347   1.700  16.792  0.3646  0.3978  0.4933
  448TMC3    O1 6736   3.633   1.882  17.246  0.0359 -0.3019 -0.4661
  448TMC3    O2 6737   3.299   1.598  16.834 -0.5055  0.2700 -0.1889
  449MPD2     C 6738   4.190   0.201  13.732 -0.1434  0.1693  0.3168
  449MPD2    C1 6739   4.057   0.203  13.712  0.2651 -0.6345 -0.1522
  449MPD2    C2 6740   3.976   0.137  13.798 -0.2279  0.1187 -0.3264
  449MPD2    C3 6741   4.022   0.047  13.891 -0.2427  0.3557 -0.0894
  449MPD2    C4 6742   4.158   0.041  13.906  0.1871 -0.5054 -0.3851
  449MPD2    C5 6743   4.239   0.121  13.827 -0.4627 -0.1411 -0.1759
  449MPD2     H 6744   3.869   0.152  13.785 -0.1030  1.6136  0.2725
  449MPD2    H1 6745   4.211   4.710  13.972 -2.2116 -1.6432  0.3795
  449MPD2    H2 6746   4.253   0.267  13.673  1.3772 -1.1518  0.4543
  449MPD2    H3 6747   4.341   0.140  13.859 -0.9811 -2.6296  2.9366
  449MPD2     N 6748   3.930   4.716  13.973  0.2607  0.0349  0.2908
  449MPD2    H5 6749   3.833   0.000  13.952  0.1023 -0.4250  0.5912
  449MPD2    N1 6750   3.987   0.280  13.614  0.2225  0.2378 -0.0623
  449MPD2    H7 6751   3.887   0.282  13.625  0.2014  1.5453 -0.4135
  450TMC3    C1 6752   3.934   0.399  13.413 -0.1702 -0.4669 -0.6613
  450TMC3    C2 6753   3.924   0.334  13.290 -0.0367 -0.7815 -0.4326
  450TMC3    C3 6754   3.795   0.321  13.242 -0.6351 -0.4335 -0.0171
  450TMC3    C4 6755   3.820   0.439  13.477 -0.5605  0.5623 -0.3994
  450TMC3    C5 6756   3.698   0.408  13.432  0.3045  0.0670  0.0747
  450TMC3    C6 6757   3.681   0.353  13.309 -0.3116 -0.3620 -0.0707
  450TMC3     C 6758   4.032   0.347  13.503  0.2281  0.1242  0.5309
  450TMC3     O 6759   4.141   0.347  13.456  1.0073  0.3919  0.1104
  450TMC3     H 6760   4.011   0.293  13.239  0.8149  0.1039  0.2989
  450TMC3    H1 6761   3.837   0.486  13.573 -1.5462 -0.1670  0.1352
  450TMC3    H2 6762   3.585   0.331  13.264 -0.3907  0.0619 -0.1108
  450TMC3    C7 6763   3.625   0.337  13.535  0.2423  0.0451 -0.1287
  450TMC3    C8 6764   3.769   0.220  13.135 -0.2292  0.1438  0.2929
  450TMC3    O1 6765   3.691   0.299  13.628 -0.1652 -0.2755 -0.3889
  450TMC3    O2 6766   3.672   0.141  13.147 -0.3455  0.3537  0.4239
  451MPD2     C 6767   0.675   3.478   0.914  0.4098 -0.6659  0.2322
  451MPD2    C1 6768   0.625   3.354   0.870  0.3664  0.5177  0.0874
  451MPD2    C2 6769   0.705   3.273   0.787  0.3626  0.1111  0.0819
  451MPD2    C3 6770   0.823   3.325   0.736  0.1566  0.1769 -0.9679
  451MPD2    C4 6771   0.867   3.454   0.774 -0.5151 -0.0328 -0.7393
  451MPD2    C5 6772   0.794   3.520   0.869  0.0113 -0.1402 -0.0726
  451MPD2     H 6773   0.671   3.177   0.749  0.6096 -0.2996  0.8990
  451MPD2    H1 6774   0.963   3.490   0.738  0.4425  1.3491  3.2944
  451MPD2    H2 6775   0.627   3.532   0.994  0.0875 -1.6103  0.6865
  451MPD2    H3 6776   0.817   3.618   0.909  2.6181 -0.2789 -1.2520
  451MPD2     N 6777   0.894   3.240   0.647 -1.1381  0.1927 -0.4072
  451MPD2    H5 6778   0.847   3.153   0.622  0.4581 -0.2249 -2.0356
  451MPD2    N1 6779   0.486   3.321   0.894  0.0066  0.0304  0.1788
  451MPD2    H7 6780   0.429   3.393   0.936  0.5536  0.5256  0.0710
  452TMC3    C1 6781   1.054   3.166   0.485  0.1405  0.2416  0.2803
  452TMC3    C2 6782   0.996   3.039   0.497 -0.1618 -0.0427  0.6934
  452TMC3    C3 6783   0.987   2.959   0.389  0.6242 -0.0307  0.6098
  452TMC3    C4 6784   1.090   3.212   0.360  0.6340  0.0653 -0.0436
  452TMC3    C5 6785   1.062   3.130   0.255 -0.4608 -0.0913 -0.1880
  452TMC3    C6 6786   1.021   2.999   0.264 -0.6295  0.6879 -0.3092
  452TMC3     C 6787   1.011   3.271   0.578  0.0476 -0.0646  0.0164
  452TMC3     O 6788   1.042   3.385   0.552 -0.1733  0.6234  0.0953
  452TMC3     H 6789   0.971   2.998   0.594 -1.0724 -0.1275  0.4233
  452TMC3    H1 6790   1.121   3.310   0.327 -1.0767  0.2960 -0.9868
  452TMC3    H2 6791   1.023   2.925   0.184  0.9395  0.3360  0.0571
  452TMC3    C7 6792   1.051   3.200   0.127 -0.7710  0.2642  1.0359
  452TMC3    C8 6793   0.926   2.823   0.398  0.0763 -0.3541 -0.3545
  452TMC3    O1 6794   1.053   3.322   0.129 -0.7200 -0.3053  0.4240
  452TMC3    O2 6795   0.901   2.774   0.288 -0.0669  0.2633 -0.0485
  453TMC3    C1 6796   1.593   0.691  11.920  0.2304  0.4150 -0.2044
  453TMC3    C2 6797   1.545   0.575  11.967 -0.1194 -0.0318 -0.0438
  453TMC3    C3 6798   1.443   0.513  11.897  0.4107  0.1169 -0.9143
  453TMC3    C4 6799   1.551   0.745  11.802 -0.2181 -0.3139 -0.5788
  453TMC3    C5 6800   1.441   0.682  11.747  0.0030 -0.4429 -0.3313
  453TMC3    C6 6801   1.380   0.571  11.791  0.3877  1.1264  0.9432
  453TMC3     C 6802   1.691   0.756  11.999  0.1912  0.2183  0.0891
  453TMC3     O 6803   1.776   0.808  11.925 -0.3461  0.1667 -0.2565
  453TMC3     H 6804   1.589   0.516  12.047 -0.3488 -0.6945 -0.4013
  453TMC3    H1 6805   1.588   0.839  11.763 -1.2410  0.5165  0.4355
  453TMC3    H2 6806   1.291   0.524  11.751  1.3495  0.2460 -0.1708
  453TMC3    C7 6807   1.381   0.764  11.643 -0.5640  0.1221 -1.1056
  453TMC3    C8 6808   1.399   0.385  11.941  0.5513  0.7140  1.1904
  453TMC3    O1 6809   1.452   0.833  11.574 -0.1378  0.2526 -0.1150
  453TMC3    O2 6810   1.286   0.344  11.913 -0.0486  0.2316  0.3416
  454MPD2     C 6811   0.812   0.363  16.024  0.5672 -0.1614  0.0385
  454MPD2    C1 6812   0.751   0.426  15.917 -0.3329  0.1504  0.1179
  454MPD2    C2 6813   0.692   0.545  15.935  0.3392  0.3702 -0.1559
  454MPD2    C3 6814   0.674   0.603  16.061 -0.4134 -0.6005  0.1137
  454MPD2    C4 6815   0.737   0.546  16.169  0.5237  0.2463  0.1171
  454MPD2    C5 6816   0.807   0.427  16.145 -0.4988  0.1642  0.4122
  454MPD2     H 6817   0.634   0.585  15.853 -0.3819 -0.1439  0.1095
  454MPD2    H1 6818   0.741   0.590  16.268 -0.7068  0.6985 -0.0314
  454MPD2    H2 6819   0.866   0.271  16.008 -0.5658 -0.5546 -1.6218
  454MPD2    H3 6820   0.852   0.367  16.224  0.1169 -1.2880 -1.0451
  454MPD2     N 6821   0.576   0.707  16.083  0.3438 -0.2640  0.0471
  454MPD2    H5 6822   0.565   0.727  16.182  2.0173  0.5807  0.0670
  454MPD2    N1 6823   0.742   0.373  15.786 -0.9071 -0.4102  0.6770
  454MPD2    H7 6824   0.713   0.441  15.716  0.1950  1.1426  1.7508
  455TMC3    C1 6825   0.351   0.789  16.052  0.2435 -0.4834 -0.1049
  455TMC3    C2 6826   0.361   0.841  16.174  0.7421  0.3922  0.0333
  455TMC3    C3 6827   0.284   0.789  16.276 -0.3156  0.4813 -0.1627
  455TMC3    C4 6828   0.269   0.682  16.027  0.3733 -0.2086  0.0735
  455TMC3    C5 6829   0.191   0.624  16.130  0.2822  0.2181  0.6584
  455TMC3    C6 6830   0.194   0.685  16.253  0.0858  0.1029 -0.6407
  455TMC3     C 6831   0.485   0.764  15.992  0.3408 -0.5530 -0.8640
  455TMC3     O 6832   0.493   0.752  15.872 -0.0137 -0.4031  0.2482
  455TMC3     H 6833   0.435   0.919  16.188 -0.9196  2.4020 -2.3602
  455TMC3    H1 6834   0.288   0.622  15.939 -1.6514 -0.0877 -0.4394
  455TMC3    H2 6835   0.155   0.626  16.336  0.2106 -2.2609 -2.2402
  455TMC3    C7 6836   0.184   0.485  16.119 -0.0509  0.6534  0.3142
  455TMC3    C8 6837   0.301   0.826  16.416 -0.2114  0.2437 -0.4468
  455TMC3    O1 6838   0.089   0.422  16.165  0.2968  0.2899 -1.1937
  455TMC3    O2 6839   0.265   0.752  16.508 -0.3535  0.2325  0.4250
  456MPD2     C 6840   3.104   0.598  15.814  0.3542 -0.5810 -0.6406
  456MPD2    C1 6841   3.147   0.521  15.919  0.3228  0.1323 -0.6546
  456MPD2    C2 6842   3.142   0.570  16.051 -0.1557 -0.0222 -0.2199
  456MPD2    C3 6843   3.124   0.707  16.073  0.3915 -0.3508 -0.1022
  456MPD2    C4 6844   3.076   0.783  15.965  0.1584  0.7532  0.2341
  456MPD2    C5 6845   3.067   0.725  15.841 -0.5763 -0.1187  0.0628
  456MPD2     H 6846   3.165   0.505  16.134  1.0661  0.1790 -0.4089
  456MPD2    H1 6847   3.053   0.888  15.981  1.3016  0.9907  0.3364
  456MPD2    H2 6848   3.117   0.557  15.714  2.7255 -1.0872 -0.1335
  456MPD2    H3 6849   3.058   0.791  15.755 -0.5999 -0.6291 -0.3299
  456MPD2     N 6850   3.150   0.760  16.201  0.4695  0.0296  0.9550
  456MPD2    H5 6851   3.148   0.700  16.282 -0.3540 -1.8609 -0.4546
  456MPD2    N1 6852   3.199   0.394  15.889 -0.3427  0.1142  0.3078
  456MPD2    H7 6853   3.205   0.364  15.792  0.9479  1.6438 -0.0980
  457TMC3    C1 6854   3.149   0.933  16.350 -0.3058 -0.3810 -0.7621
  457TMC3    C2 6855   3.186   1.058  16.379  0.1071 -0.3771 -0.1567
  457TMC3    C3 6856   3.177   1.098  16.511  0.0575 -0.2820 -0.7815
  457TMC3    C4 6857   3.084   0.854  16.438 -0.2666 -0.4195  0.2990
  457TMC3    C5 6858   3.066   0.897  16.564 -0.2904 -0.0011  0.0706
  457TMC3    C6 6859   3.121   1.017  16.607 -0.3305 -0.1376  0.5602
  457TMC3     C 6860   3.161   0.893  16.213  0.0688  0.3169 -0.3312
  457TMC3     O 6861   3.210   0.974  16.139 -0.0434  0.2172  0.0434
  457TMC3     H 6862   3.225   1.126  16.304  0.9906  0.0748  0.7233
  457TMC3    H1 6863   3.031   0.768  16.401  0.2224  0.9350 -3.5656
  457TMC3    H2 6864   3.108   1.054  16.708  0.4816  0.4123  0.4656
  457TMC3    C7 6865   3.049   0.786  16.651 -0.8373 -0.0737 -0.5367
  457TMC3    C8 6866   3.231   1.230  16.553  0.2527 -0.6985 -0.5717
  457TMC3    O1 6867   3.083   0.676  16.615 -0.0050  0.2502  0.2239
  457TMC3    O2 6868   3.219   1.264  16.670 -0.0306  0.9731  0.2370
  458MPD2     C 6869   1.032   4.440  11.794  0.4300 -0.6509 -0.9435
  458MPD2    C1 6870   0.973   4.412  11.914 -1.4640 -0.4782  0.2414
  458MPD2    C2 6871   0.845   4.459  11.930 -0.8205 -0.2415  0.1734
  458MPD2    C3 6872   0.781   4.540  11.838  0.4928  0.3902  0.5956
  458MPD2    C4 6873   0.850   4.576  11.724 -0.3441  0.2440 -0.2904
  458MPD2    C5 6874   0.977   4.523  11.703  0.2487  1.2093  0.7498
  458MPD2     H 6875   0.789   4.453  12.023  1.0461  0.6869  1.3663
  458MPD2    H1 6876   0.805   4.645  11.653  0.4258  1.5480  0.4847
  458MPD2    H2 6877   1.135   4.410  11.775  1.4553  1.4601  1.1535
  458MPD2    H3 6878   1.043   4.553  11.623  1.6715  1.4656  2.0099
  458MPD2     N 6879   0.668   4.614  11.887  0.5886 -0.5082  0.1040
  458MPD2    H5 6880   0.649   4.602  11.986  0.9562  0.8547  0.3402
  458MPD2    N1 6881   1.045   4.348  12.024 -0.3612 -0.0812  0.1175
  458MPD2    H7 6882   1.141   4.319  12.010 -0.3746 -0.3058  0.5033
  459TMC3    C1 6883   1.087   4.285  12.246  0.1696 -0.5105 -0.0547
  459TMC3    C2 6884   1.214   4.343  12.238 -0.9553 -0.1434  0.3919
  459TMC3    C3 6885   1.296   4.313  12.342 -0.8023  0.1212  0.2514
  459TMC3    C4 6886   1.045   4.190  12.339  0.6447 -0.0370  0.2955
  459TMC3    C5 6887   1.134   4.166  12.440 -0.0569 -0.2527  0.5659
  459TMC3    C6 6888   1.253   4.224  12.440 -0.1105  0.4713 -0.1068
  459TMC3     C 6889   0.988   4.323  12.144 -0.5366 -0.5669 -0.3977
  459TMC3     O 6890   0.870   4.310  12.168 -0.5493  0.4854  0.5194
  459TMC3     H 6891   1.247   4.417  12.166  0.3249  0.8074  1.9622
  459TMC3    H1 6892   0.955   4.130  12.327 -0.3263  0.8706  3.0643
  459TMC3    H2 6893   1.325   4.212  12.520  0.0639  1.9745 -0.0239
  459TMC3    C7 6894   1.116   4.064  12.548  0.2257  0.0324  0.1074
  459TMC3    C8 6895   1.401   4.410  12.377  0.5340  0.2912 -0.0082
  459TMC3    O1 6896   1.214   4.033  12.609  0.5340 -0.0265  0.1010
  459TMC3    O2 6897   1.380   4.530  12.369  0.2425  0.2036 -0.5337
  460MPD2     C 6898   0.028   2.515  10.379 -0.3214  0.3788 -0.2097
  460MPD2    C1 6899   4.637   2.489  10.424  0.4915  0.0436 -0.2023
  460MPD2    C2 6900   4.521   2.508  10.346 -0.1268  0.8282 -0.4335
  460MPD2    C3 6901   4.534   2.568  10.219  0.4771 -0.8024  0.4452
  460MPD2    C4 6902   4.667   2.593  10.172 -0.0607  0.2019 -0.0635
  460MPD2    C5 6903   0.041   2.564  10.252 -0.3660 -0.2495  0.4500
  460MPD2     H 6904   4.428   2.485  10.397 -1.5109 -0.9935 -3.8478
  460MPD2    H1 6905   4.689   2.620  10.070  0.5137  1.8733  0.5037
  460MPD2    H2 6906   0.110   2.503  10.449 -0.7401 -1.3276 -0.0157
  460MPD2    H3 6907   0.139   2.570  10.206  0.3170  0.6148  2.0593
  460MPD2     N 6908   4.418   2.582  10.141 -0.4544 -0.4243 -0.4047
  460MPD2    H5 6909   4.329   2.547  10.174 -0.5624  0.9245  0.7661
  460MPD2    N1 6910   4.635   2.445  10.559  0.7252  0.6339 -0.2351
  460MPD2    H7 6911   4.723   2.449  10.610  0.8964  0.4981 -0.5185
  461TMC3    C1 6912   4.281   2.706   9.980 -0.0032 -0.3539  1.0111
  461TMC3    C2 6913   4.187   2.608   9.980  0.2298 -0.0903  0.6850
  461TMC3    C3 6914   4.061   2.642   9.936  0.4817  0.7180 -0.4615
  461TMC3    C4 6915   4.257   2.830   9.926 -0.5931 -0.9779  0.0683
  461TMC3    C5 6916   4.127   2.858   9.888 -0.4244 -0.0419  0.6313
  461TMC3    C6 6917   4.030   2.767   9.888  0.3258  0.5999  0.6605
  461TMC3     C 6918   4.413   2.667  10.031 -0.6700  0.1810 -0.2663
  461TMC3     O 6919   4.499   2.737   9.981 -0.0045 -0.5209 -0.3378
  461TMC3     H 6920   4.212   2.504   9.998  2.4065  0.5844  1.5426
  461TMC3    H1 6921   4.343   2.891   9.902 -1.9496  1.2823  0.9338
  461TMC3    H2 6922   3.932   2.778   9.842 -0.9109 -0.5474  2.9771
  461TMC3    C7 6923   4.086   2.990   9.835  1.0015  0.4935  0.7004
  461TMC3    C8 6924   3.971   2.531   9.892  0.3061 -0.4230 -0.3180
  461TMC3    O1 6925   3.978   2.995   9.773  0.0973 -0.3055  0.2380
  461TMC3    O2 6926   3.890   2.563   9.803 -0.0208 -0.2093  0.1254
  462TMC3    C1 6927   4.716   3.361  17.549  0.4376 -0.2025  0.2976
  462TMC3    C2 6928   0.031   3.266  17.461  0.2220  0.4435  0.4719
  462TMC3    C3 6929   0.047   3.138  17.503 -0.9485 -0.2308  0.4408
  462TMC3    C4 6930   4.680   3.321  17.676 -0.1296  0.1441  0.0681
  462TMC3    C5 6931   4.703   3.193  17.724 -0.4085  0.3303 -0.3036
  462TMC3    C6 6932   0.017   3.107  17.636 -0.3572  0.2424 -0.1737
  462TMC3     C 6933   4.723   3.503  17.514  0.5316  0.7412 -0.2864
  462TMC3     O 6934   0.094   3.533  17.461 -0.1916 -0.2591  0.0352
  462TMC3     H 6935   0.037   3.300  17.359 -2.3159 -0.0761  0.1619
  462TMC3    H1 6936   4.635   3.395  17.741 -1.9175 -0.6445 -0.2913
  462TMC3    H2 6937   0.001   3.002  17.655 -3.1944  0.5043 -1.0603
  462TMC3    C7 6938   4.613   3.128   0.070 -0.3264  0.1874  0.2178
  462TMC3    C8 6939   0.004   3.034  17.413  0.2659  0.3516  0.2770
  462TMC3    O1 6940   4.660   3.029   0.115  0.6011 -0.1870 -0.0337
  462TMC3    O2 6941   4.660   3.074  17.333  0.1707  0.0404 -0.0508
  463MPD2     C 6942   2.118   0.544   1.392 -0.1777 -0.4335 -0.0348
  463MPD2    C1 6943   2.090   0.675   1.349 -0.0129 -0.3986  0.6281
  463MPD2    C2 6944   2.182   0.772   1.375 -0.0115 -0.2315 -0.1059
  463MPD2    C3 6945   2.296   0.748   1.452 -0.1134  0.3723 -0.6178
  463MPD2    C4 6946   2.327   0.617   1.485 -0.3860 -0.7227  0.6677
  463MPD2    C5 6947   2.236   0.517   1.461 -0.5496 -0.9584  0.3384
  463MPD2     H 6948   2.156   0.873   1.345  0.9751 -0.0768 -0.4300
  463MPD2    H1 6949   2.418   0.587   1.536 -0.8261 -4.4400 -0.7956
  463MPD2    H2 6950   2.045   0.469   1.366 -1.5125  0.9411 -0.2673
  463MPD2    H3 6951   2.253   0.418   1.500  0.4430 -0.5096  1.0583
  463MPD2     N 6952   2.391   0.845   1.491  0.0686  0.3895 -0.0381
  463MPD2    H5 6953   2.479   0.822   1.536  0.4182  0.3067 -0.7642
  463MPD2    N1 6954   1.973   0.719   1.288 -0.3848 -0.7786 -0.0398
  463MPD2    H7 6955   1.959   0.819   1.274  0.5328 -0.4231  1.4654
  464TMC3    C1 6956   1.770   0.725   1.193  0.3293  0.3280  0.0052
  464TMC3    C2 6957   1.749   0.856   1.225 -0.1588 -0.3221  0.2937
  464TMC3    C3 6958   1.649   0.922   1.154 -0.3730 -0.1319  0.0454
  464TMC3    C4 6959   1.694   0.656   1.101  0.0988 -0.0811  0.0943
  464TMC3    C5 6960   1.598   0.731   1.035  0.5678  0.0306 -0.0157
  464TMC3    C6 6961   1.565   0.864   1.060  0.0330 -0.5798 -0.5611
  464TMC3     C 6962   1.861   0.643   1.269  0.3918 -0.0399  0.6570
  464TMC3     O 6963   1.833   0.524   1.290  0.1404 -0.7901 -0.0936
  464TMC3     H 6964   1.794   0.909   1.308 -0.2385  0.4351 -0.1430
  464TMC3    H1 6965   1.714   0.550   1.086  0.2363  0.0711 -0.7589
  464TMC3    H2 6966   1.491   0.922   1.007  1.0315  1.4204  0.2292
  464TMC3    C7 6967   1.518   0.649   0.949 -0.3344 -0.0146 -0.6437
  464TMC3    C8 6968   1.621   1.060   1.184 -0.7739  0.4128  0.3119
  464TMC3    O1 6969   1.571   0.553   0.898 -0.0375 -0.3427  0.0439
  464TMC3    O2 6970   1.519   1.104   1.136  0.3321 -0.0730  0.3543
  465MPD2     C 6971   2.576   0.681  16.808 -0.3319 -0.1632 -0.1870
  465MPD2    C1 6972   2.448   0.632  16.835  1.0619 -0.4048 -0.0824
  465MPD2    C2 6973   2.363   0.618  16.729  0.3221  0.4124  0.1027
  465MPD2    C3 6974   2.397   0.646  16.595  0.1781 -0.0717  0.3076
  465MPD2    C4 6975   2.521   0.702  16.573  0.3059  0.3018  0.0975
  465MPD2    C5 6976   2.606   0.723  16.676 -0.6075 -0.1922  0.7141
  465MPD2     H 6977   2.261   0.583  16.739  0.2832  0.6022  0.3655
  465MPD2    H1 6978   2.559   0.742  16.479  2.2092 -1.1994  0.2270
  465MPD2    H2 6979   2.651   0.699  16.884  0.3770 -0.7208 -0.7639
  465MPD2    H3 6980   2.705   0.757  16.647 -0.8341  0.8529  1.1877
  465MPD2     N 6981   2.294   0.626  16.494  0.2530 -0.5343  0.7549
  465MPD2    H5 6982   2.206   0.595  16.534 -1.0608  0.7795 -1.0986
  465MPD2    N1 6983   2.395   0.598  16.966 -0.1853  0.1863 -0.0794
  465MPD2    H7 6984   2.318   0.533  16.977 -0.4727  0.3592 -1.0555
  466TMC3    C1 6985   1.934   0.622  16.345 -0.5634 -0.7903 -0.4804
  466TMC3    C2 6986   1.905   0.729  16.258  0.6980 -0.4086  0.0065
  466TMC3    C3 6987   2.010   0.781  16.184  0.7371 -0.2405 -0.5664
  466TMC3    C4 6988   2.065   0.584  16.365  1.0758 -0.2033  0.4193
  466TMC3    C5 6989   2.160   0.655  16.298 -0.5077  0.4195  0.4017
  466TMC3    C6 6990   2.138   0.755  16.216  0.4466 -0.5917 -0.1083
  466TMC3     C 6991   1.831   0.574  16.438  0.0131  0.1024  0.1923
  466TMC3     O 6992   1.883   0.535  16.544  0.2933 -0.1120  0.0735
  466TMC3     H 6993   1.805   0.765  16.236  2.1325  2.1281 -2.4569
  466TMC3    H1 6994   2.086   0.512  16.443  1.4175 -1.1061 -0.5027
  466TMC3    H2 6995   2.217   0.804  16.161  0.1101 -2.5438 -2.3615
  466TMC3    C7 6996   2.297   0.658  16.357  0.1698 -0.3121 -0.5526
  466TMC3    C8 6997   1.984   0.913  16.130 -0.4196  0.5646 -0.1011
  466TMC3    O1 6998   2.386   0.695  16.287 -0.2563  0.1755 -0.5915
  466TMC3    O2 6999   2.038   0.945  16.023 -0.4493 -0.5649  0.0660
  467TMC3    C1 7000   2.689   3.988  13.725  0.3399  0.6599  0.1367
  467TMC3    C2 7001   2.640   4.047  13.611  0.0654 -0.0362  0.0594
  467TMC3    C3 7002   2.601   3.962  13.511 -0.0701  0.2233 -0.2217
  467TMC3    C4 7003   2.669   3.856  13.749 -0.6386  0.1245  0.2914
  467TMC3    C5 7004   2.636   3.775  13.649 -0.6717 -0.4269  0.1374
  467TMC3    C6 7005   2.596   3.830  13.534  0.0396 -0.3615 -0.0699
  467TMC3     C 7006   2.816   4.037  13.770  0.4758 -0.3554 -0.0451
  467TMC3     O 7007   2.899   3.952  13.790  0.0532 -0.2587  0.3887
  467TMC3     H 7008   2.642   4.155  13.598 -0.2007 -0.2517 -1.7790
  467TMC3    H1 7009   2.702   3.808  13.840 -0.8752  2.2780  1.5211
  467TMC3    H2 7010   2.542   3.762  13.469  1.0998 -1.7711  0.5265
  467TMC3    C7 7011   2.558   3.665  13.681 -0.1522 -0.5064 -0.5286
  467TMC3    C8 7012   2.662   3.999  13.384 -0.2458  0.0117 -0.4233
  467TMC3    O1 7013   2.564   3.565  13.610 -0.1878  0.2711 -0.2396
  467TMC3    O2 7014   2.735   4.102  13.389 -0.4781  0.9557 -0.3892
  468MPD2     C 7015   1.373   2.405  10.584  0.0982 -0.4209  0.2186
  468MPD2    C1 7016   1.496   2.356  10.594  0.2883 -0.2839 -0.1004
  468MPD2    C2 7017   1.520   2.250  10.675  0.2193  1.0603  0.0934
  468MPD2    C3 7018   1.419   2.186  10.748 -0.1151  0.6757  0.0676
  468MPD2    C4 7019   1.293   2.234  10.729 -0.0310 -0.0713 -0.3258
  468MPD2    C5 7020   1.270   2.340  10.651  0.1965 -0.7179 -0.0459
  468MPD2     H 7021   1.622   2.211  10.677  0.3248  1.2371 -1.5711
  468MPD2    H1 7022   1.207   2.188  10.776  0.6412  0.0741  1.0390
  468MPD2    H2 7023   1.342   2.505  10.555 -1.3591 -1.0227 -0.2635
  468MPD2    H3 7024   1.167   2.372  10.646  0.1316 -1.3333 -2.4254
  468MPD2     N 7025   1.425   2.059  10.820  0.1538  0.7047  0.4073
  468MPD2    H5 7026   1.339   2.028  10.863 -0.2351 -0.4455 -1.2319
  468MPD2    N1 7027   1.593   2.427  10.527  0.4880  0.7579  0.0653
  468MPD2    H7 7028   1.566   2.515  10.483 -2.3847 -0.4547 -0.5744
  469TMC3    C1 7029   1.823   2.501  10.494  0.5295  0.4095  0.1578
  469TMC3    C2 7030   1.955   2.470  10.511  0.4203 -0.5894 -0.5048
  469TMC3    C3 7031   2.031   2.542  10.596  0.4144  0.2764  0.3114
  469TMC3    C4 7032   1.782   2.625  10.530  0.0600 -0.5515 -0.3029
  469TMC3    C5 7033   1.860   2.700  10.614 -0.0641 -0.4000  0.3825
  469TMC3    C6 7034   1.985   2.655  10.660  0.0149 -0.1386  0.3217
  469TMC3     C 7035   1.720   2.390  10.501  0.3310 -0.4113 -0.0048
  469TMC3     O 7036   1.771   2.279  10.497 -0.2689  0.3638  0.6417
  469TMC3     H 7037   1.985   2.373  10.474  0.7560 -0.8519  0.4284
  469TMC3    H1 7038   1.681   2.666  10.527  0.1769 -0.3881 -2.2082
  469TMC3    H2 7039   2.042   2.715  10.730 -1.2600  2.1218 -0.5769
  469TMC3    C7 7040   1.793   2.804  10.686 -0.2162 -0.6080  0.7584
  469TMC3    C8 7041   2.154   2.479  10.630  0.8120 -0.1719 -0.1784
  469TMC3    O1 7042   1.730   2.880  10.611 -0.3698  0.5010  0.3380
  469TMC3    O2 7043   2.204   2.400  10.554  0.6043 -0.6187  0.1162
  470TMC3    C1 7044   3.879   2.860   0.419  0.5609 -0.4529 -0.2370
  470TMC3    C2 7045   3.872   2.990   0.391  0.4097  0.0325  0.5147
  470TMC3    C3 7046   3.983   3.071   0.415 -0.3609  0.1589 -0.2392
  470TMC3    C4 7047   3.991   2.804   0.478  0.3605 -0.4539 -0.1458
  470TMC3    C5 7048   4.095   2.887   0.497 -0.1923 -0.1494 -0.0421
  470TMC3    C6 7049   4.106   3.017   0.464 -0.8950  0.4413 -0.0068
  470TMC3     C 7050   3.752   2.793   0.447  0.1601 -0.0747  0.4142
  470TMC3     O 7051   3.656   2.813   0.372  0.2866 -0.3068 -0.1629
  470TMC3     H 7052   3.779   3.038   0.361 -0.3300 -1.5711  0.2475
  470TMC3    H1 7053   3.999   2.700   0.507  2.4824 -0.3893 -0.5066
  470TMC3    H2 7054   4.192   3.071   0.501  1.1154 -1.9724 -1.0925
  470TMC3    C7 7055   4.213   2.850   0.577 -0.5752  0.2037 -0.3299
  470TMC3    C8 7056   3.954   3.195   0.478  0.0337 -0.2770 -0.0381
  470TMC3    O1 7057   4.326   2.880   0.533  0.4715  0.2898  0.2102
  470TMC3    O2 7058   4.008   3.221   0.583 -0.0845 -0.2977  0.4291
  471MPD2     C 7059   4.083   4.137  16.589 -0.1683 -0.0441  0.3329
  471MPD2    C1 7060   4.213   4.096  16.595 -0.6600 -0.4003  0.0209
  471MPD2    C2 7061   4.265   4.038  16.712  0.3997 -0.6430  0.3303
  471MPD2    C3 7062   4.174   4.026  16.818 -0.1985  0.1738  0.5008
  471MPD2    C4 7063   4.051   4.078  16.808  0.5030 -0.7113 -0.2082
  471MPD2    C5 7064   4.000   4.133  16.696  0.6159  0.3331 -0.5106
  471MPD2     H 7065   4.365   4.001  16.728 -0.0343 -1.6581  0.7148
  471MPD2    H1 7066   3.998   4.070  16.903 -0.2838 -2.8478 -0.8329
  471MPD2    H2 7067   4.043   4.182  16.499 -0.9710 -2.1369 -0.3572
  471MPD2    H3 7068   3.895   4.153  16.683  0.4324 -0.6173 -0.5070
  471MPD2     N 7069   4.217   3.976  16.941 -0.1727  0.1171  0.3461
  471MPD2    H5 7070   4.140   3.943  16.997  0.1188  0.2389  0.8233
  471MPD2    N1 7071   4.297   4.091  16.476 -0.3974 -0.2568  0.2934
  471MPD2    H7 7072   4.385   4.042  16.487 -1.8577 -2.6645  1.2030
  472TMC3    C1 7073   4.342   4.074  16.240 -0.3370 -0.1865 -0.3286
  472TMC3    C2 7074   4.272   4.100  16.122 -0.4006  0.5425  0.6814
  472TMC3    C3 7075   4.238   3.999  16.034 -0.4070 -0.3287 -0.2318
  472TMC3    C4 7076   4.369   3.949  16.275 -0.0673 -0.1466  0.5342
  472TMC3    C5 7077   4.321   3.852  16.197  0.4837  0.5380  0.1369
  472TMC3    C6 7078   4.261   3.867  16.078 -0.2049 -0.0818  0.1978
  472TMC3     C 7079   4.280   4.153  16.354 -0.2467  0.2234  0.2530
  472TMC3     O 7080   4.193   4.236  16.327 -0.5387  0.6406 -0.3472
  472TMC3     H 7081   4.243   4.201  16.096 -0.3105  0.2709 -0.4765
  472TMC3    H1 7082   4.422   3.919  16.364  3.1254  1.8511 -0.7012
  472TMC3    H2 7083   4.228   3.788  16.011 -4.0011  1.6426  0.0359
  472TMC3    C7 7084   4.308   3.724  16.259 -0.6814 -0.1986  0.1850
  472TMC3    C8 7085   4.107   4.009  15.975  0.4302 -0.1300 -0.6192
  472TMC3    O1 7086   4.386   3.693  16.348 -0.2261  0.1339  0.1740
  472TMC3    O2 7087   4.106   4.053  15.858 -0.0755  0.3267 -0.0981
  473MPD2     C 7088   4.246   1.399  13.561 -0.2950 -0.0737 -0.7002
  473MPD2    C1 7089   4.156   1.503  13.563 -0.1012  0.0935 -0.0997
  473MPD2    C2 7090   4.179   1.624  13.629 -0.5015  0.7850  0.2978
  473MPD2    C3 7091   4.294   1.629  13.704  0.0616 -0.4552  0.1936
  473MPD2    C4 7092   4.378   1.528  13.700  0.3630  0.3561  0.0748
  473MPD2    C5 7093   4.355   1.417  13.634  0.1860 -0.7481  0.0823
  473MPD2     H 7094   4.107   1.704  13.638  1.9843  3.0740 -0.2207
  473MPD2    H1 7095   4.480   1.527  13.736  0.6065 -1.3703 -0.6676
  473MPD2    H2 7096   4.227   1.301  13.517  1.1859  0.2798 -2.1244
  473MPD2    H3 7097   4.434   1.343  13.639 -0.7905 -2.0371 -3.1465
  473MPD2     N 7098   4.344   1.743  13.776  0.7525  0.5046 -0.0860
  473MPD2    H5 7099   4.435   1.730  13.818  1.1515 -0.2632 -1.2044
  473MPD2    N1 7100   4.031   1.501  13.498  0.0990  0.5194 -0.0538
  473MPD2    H7 7101   3.987   1.592  13.492 -0.6002  0.3598  2.8361
  474TMC3    C1 7102   4.353   1.965  13.867  0.6658 -0.0576  0.1367
  474TMC3    C2 7103   4.291   2.088  13.868  0.2957 -0.0521  0.2307
  474TMC3    C3 7104   4.336   2.182  13.963 -0.3484 -0.4137 -0.5636
  474TMC3    C4 7105   4.453   1.935  13.957 -0.6570  0.7639  0.1453
  474TMC3    C5 7106   4.486   2.033  14.051 -0.0444 -0.3566 -0.1401
  474TMC3    C6 7107   4.442   2.162  14.037  0.4262  0.2217 -0.4972
  474TMC3     C 7108   4.290   1.866  13.776 -0.5724  0.7407 -0.0715
  474TMC3     O 7109   4.186   1.897  13.717 -0.0085  0.6774 -0.7056
  474TMC3     H 7110   4.210   2.114  13.801 -0.7415 -3.4256  0.1602
  474TMC3    H1 7111   4.501   1.838  13.964 -0.0957  0.9597 -1.0471
  474TMC3    H2 7112   4.481   2.242  14.099 -0.0513  0.3550 -0.3653
  474TMC3    C7 7113   4.594   2.001  14.146  0.1537  0.4228  0.5429
  474TMC3    C8 7114   4.291   2.323  13.945 -0.9448 -0.0066  0.0256
  474TMC3    O1 7115   4.664   1.906  14.115  0.1716  0.3860 -0.1854
  474TMC3    O2 7116   4.359   2.397  14.012  1.0723  0.8125 -0.4940
  475MPD2     C 7117   2.960   4.587  11.128 -0.0510  0.1092 -0.2726
  475MPD2    C1 7118   2.934   4.707  11.186  0.2737  0.4792  0.1791
  475MPD2    C2 7119   2.826   0.050  11.137 -0.1372  0.4134  0.5415
  475MPD2    C3 7120   2.748   0.003  11.036  0.2168  0.3380  0.0701
  475MPD2    C4 7121   2.781   4.626  10.973  0.3602 -0.2318 -0.5330
  475MPD2    C5 7122   2.886   4.549  11.018  0.4066  0.0540 -0.3614
  475MPD2     H 7123   2.809   0.149  11.177 -0.3157  0.7943 -0.4770
  475MPD2    H1 7124   2.729   4.604  10.880 -1.1495  0.6203  0.1226
  475MPD2    H2 7125   3.037   4.523  11.169 -1.4240 -0.7618  0.9704
  475MPD2    H3 7126   2.925   4.464  10.963 -1.2198 -0.1501 -1.1928
  475MPD2     N 7127   2.644   0.077  10.973  0.6560 -0.0925 -0.6332
  475MPD2    H5 7128   2.613   0.050  10.881 -1.5231 -2.9166  0.9439
  475MPD2    N1 7129   3.023   0.021  11.290 -0.3666 -0.0811  0.1204
  475MPD2    H7 7130   3.108   4.706  11.306 -1.4086 -1.0945  2.3994
  476TMC3    C1 7131   3.111   0.205  11.405 -0.4148  0.5805  0.3741
  476TMC3    C2 7132   3.185   0.245  11.299 -0.3766  0.0767 -0.2827
  476TMC3    C3 7133   3.228   0.377  11.296  0.0053  0.2430 -0.5651
  476TMC3    C4 7134   3.093   0.288  11.513 -0.1199  0.2361 -0.0027
  476TMC3    C5 7135   3.131   0.420  11.505  0.5859 -0.0178 -0.0903
  476TMC3    C6 7136   3.203   0.469  11.399  0.3537 -0.0517 -0.0562
  476TMC3     C 7137   2.996   0.125  11.378  0.1517  0.7949 -0.3046
  476TMC3     O 7138   2.887   0.175  11.405 -0.5073  0.3689 -0.3095
  476TMC3     H 7139   3.208   0.179  11.215  0.2766 -2.3106  1.7655
  476TMC3    H1 7140   3.019   0.257  11.585  0.1636  1.9337  1.0310
  476TMC3    H2 7141   3.243   0.570  11.395  0.2109 -0.0508 -1.7501
  476TMC3    C7 7142   3.034   0.506  11.579 -1.1249 -0.2821  0.0948
  476TMC3    C8 7143   3.217   0.441  11.171 -0.4351  0.2488  0.4456
  476TMC3    O1 7144   2.962   0.446  11.658 -0.6479  0.1693  0.8852
  476TMC3    O2 7145   3.259   0.558  11.163  0.0950  0.3484 -0.3501
  477MPD2     C 7146   0.208   2.243  11.648 -0.3382  0.0857 -0.5739
  477MPD2    C1 7147   0.260   2.118  11.679  0.3710  0.4048 -0.0989
  477MPD2    C2 7148   0.271   2.072  11.807 -0.1856  0.3787 -0.5946
  477MPD2    C3 7149   0.211   2.143  11.913 -0.2346  0.1266  0.3432
  477MPD2    C4 7150   0.164   2.270  11.889  0.5119 -0.1697  0.2328
  477MPD2    C5 7151   0.166   2.322  11.760  0.1940  0.4504 -0.1042
  477MPD2     H 7152   0.320   1.976  11.823 -2.0421 -0.4650 -0.0077
  477MPD2    H1 7153   0.133   2.338  11.968 -1.0238 -0.3476 -0.2227
  477MPD2    H2 7154   0.220   2.276  11.546 -3.3261 -2.1330 -1.6343
  477MPD2    H3 7155   0.140   2.425  11.738 -1.4549 -0.0139 -0.3015
  477MPD2     N 7156   0.216   2.089  12.047 -0.2966 -0.7816 -0.2144
  477MPD2    H5 7157   0.261   1.998  12.052 -1.6819 -1.3741  1.4416
  477MPD2    N1 7158   0.293   2.041  11.566 -0.0784  0.2555  0.0541
  477MPD2    H7 7159   0.291   2.091  11.478 -1.1138  3.1061  1.6834
  478TMC3    C1 7160   0.366   1.866  11.435  0.5862 -0.4449  0.1859
  478TMC3    C2 7161   0.454   1.960  11.386  0.4663 -0.8424 -0.3369
  478TMC3    C3 7162   0.457   2.005  11.258  0.5882  0.2979  0.9109
  478TMC3    C4 7163   0.290   1.809  11.342 -0.0322 -0.0116 -0.0553
  478TMC3    C5 7164   0.293   1.851  11.210  0.5817  0.3368  0.7296
  478TMC3    C6 7165   0.367   1.957  11.170  0.1463  0.1757 -0.5763
  478TMC3     C 7166   0.301   1.903  11.558  0.2999 -0.3398 -0.7588
  478TMC3     O 7167   0.277   1.822  11.650  0.4160  0.2402 -0.4495
  478TMC3     H 7168   0.514   2.015  11.458  0.5555 -0.2593 -0.8558
  478TMC3    H1 7169   0.219   1.733  11.371  0.7794 -0.3345  1.0807
  478TMC3    H2 7170   0.354   1.992  11.068  0.2878  0.6578 -0.4283
  478TMC3    C7 7171   0.218   1.779  11.108 -0.7188 -0.4584  0.0491
  478TMC3    C8 7172   0.492   2.145  11.252  0.4648 -0.0969 -0.0350
  478TMC3    O1 7173   0.202   1.660  11.129 -0.7154  0.1290 -0.3766
  478TMC3    O2 7174   0.601   2.165  11.303 -0.4763  0.1774  0.0741
  479MPD2     C 7175   4.187   3.780  15.097 -0.4464  0.1386  0.0045
  479MPD2    C1 7176   4.154   3.707  15.214 -0.4435  0.2088 -0.4321
  479MPD2    C2 7177   4.226   3.746  15.325  0.0705  0.4290 -0.3323
  479MPD2    C3 7178   4.312   3.854  15.327  0.3894  0.5480  0.1698
  479MPD2    C4 7179   4.348   3.914  15.210  0.2930  0.3418  0.2295
  479MPD2    C5 7180   4.279   3.878  15.098  0.3579  0.4824  0.0969
  479MPD2     H 7181   4.194   3.694  15.415 -0.5664  2.1206  0.4269
  479MPD2    H1 7182   4.425   3.989  15.203  1.3905 -0.8282 -0.2182
  479MPD2    H2 7183   4.136   3.757  15.005 -1.5082  0.2969  0.5619
  479MPD2    H3 7184   4.313   3.919  15.003  1.5119  0.6804  0.6025
  479MPD2     N 7185   4.365   3.902  15.449  0.3966 -0.2198  0.8156
  479MPD2    H5 7186   4.456   3.947  15.439  0.7879 -0.4575  3.4910
  479MPD2    N1 7187   4.046   3.617  15.211 -0.0347 -0.5023  0.4182
  479MPD2    H7 7188   3.983   3.616  15.132 -0.1744  2.8235  0.5103
  480TMC3    C1 7189   4.034   3.724  15.717 -0.1075 -0.2605  0.1957
  480TMC3    C2 7190   3.933   3.796  15.658 -0.7062 -0.1283 -0.0046
  480TMC3    C3 7191   3.971   3.878  15.554 -0.0177  0.6308  0.0079
  480TMC3    C4 7192   4.170   3.751  15.697  0.0907 -0.8714  0.0682
  480TMC3    C5 7193   4.196   3.847  15.605  0.1182  0.1960 -0.2234
  480TMC3    C6 7194   4.100   3.915  15.534 -0.6021 -1.0674 -0.1505
  480TMC3     C 7195   4.012   3.610  15.807 -0.0619  0.0857  0.6758
  480TMC3     O 7196   4.116   3.572  15.866  0.3762  0.3479 -0.1278
  480TMC3     H 7197   3.830   3.770  15.681 -0.1447 -0.7868  1.7744
  480TMC3    H1 7198   4.253   3.692  15.735  1.7657  1.0094 -0.6672
  480TMC3    H2 7199   4.124   3.991  15.460  0.7027 -0.8280  0.5236
  480TMC3    C7 7200   4.332   3.866  15.573  0.0454  0.2323 -0.4168
  480TMC3    C8 7201   3.878   3.891  15.444  0.1624  0.1135  0.5826
  480TMC3    O1 7202   4.418   3.851  15.656  0.1884  0.1467 -0.3747
  480TMC3    O2 7203   3.772   3.841  15.466  0.2118  0.0955  0.5313
  481MPD2     C 7204   1.047   3.311  14.131 -0.3131  0.3779  0.8519
  481MPD2    C1 7205   0.915   3.279  14.154 -0.3714  0.6698  0.1134
  481MPD2    C2 7206   0.874   3.259  14.287  0.3435 -0.7320  0.0375
  481MPD2    C3 7207   0.958   3.286  14.391  0.0303  0.7186 -0.2354
  481MPD2    C4 7208   1.083   3.320  14.368 -0.2559  0.3386 -0.3534
  481MPD2    C5 7209   1.133   3.327  14.240 -0.0934 -0.0110  0.3307
  481MPD2     H 7210   0.770   3.232  14.299 -0.2689  2.1398  1.1343
  481MPD2    H1 7211   1.153   3.332  14.450 -0.8995 -0.5439  0.3228
  481MPD2    H2 7212   1.093   3.322  14.034  0.7800 -0.4296  1.2786
  481MPD2    H3 7213   1.235   3.349  14.212  0.1204 -1.9434 -0.4108
  481MPD2     N 7214   0.925   3.281  14.530 -0.4178  0.2021 -0.0448
  481MPD2    H5 7215   0.997   3.296  14.601 -0.7280  1.2308  0.0625
  481MPD2    N1 7216   0.831   3.272  14.039 -0.6005 -0.2329  0.3327
  481MPD2    H7 7217   0.876   3.301  13.953  0.9988 -0.4818  1.0979
  482TMC3    C1 7218   0.634   3.286  13.922 -0.0548  0.2424  0.2560
  482TMC3    C2 7219   0.511   3.229  13.905  0.1605 -0.6824  0.4083
  482TMC3    C3 7220   0.443   3.250  13.783 -0.2086 -0.6965  0.3266
  482TMC3    C4 7221   0.680   3.374  13.833 -1.0805 -0.3966 -0.6643
  482TMC3    C5 7222   0.618   3.389  13.713 -0.1923  0.4909 -1.2879
  482TMC3    C6 7223   0.492   3.329  13.685  0.3084  0.8278  0.3785
  482TMC3     C 7224   0.703   3.233  14.037 -0.4730  0.3094  0.1759
  482TMC3     O 7225   0.644   3.155  14.110  0.4745 -0.1581 -0.0368
  482TMC3     H 7226   0.468   3.153  13.969 -0.0641 -1.1031 -0.2421
  482TMC3    H1 7227   0.770   3.431  13.852  0.2066 -2.9817  0.9378
  482TMC3    H2 7228   0.449   3.341  13.586 -0.1898 -0.1526  0.4783
  482TMC3    C7 7229   0.686   3.464  13.614  0.0148  0.2941 -0.4752
  482TMC3    C8 7230   0.346   3.149  13.748  0.0635  0.0976  0.0925
  482TMC3    O1 7231   0.759   3.552  13.666  0.2247  0.0583 -0.1175
  482TMC3    O2 7232   0.348   3.045  13.808 -0.3032  0.3781 -0.5317
  483TMC3    C1 7233   3.907   1.813   1.234  0.2614 -0.7490 -0.2454
  483TMC3    C2 7234   3.972   1.903   1.158 -0.6066 -0.2784  0.0872
  483TMC3    C3 7235   3.947   1.901   1.020  0.3935  0.0652  0.5926
  483TMC3    C4 7236   3.820   1.719   1.184 -0.3916 -0.0054 -0.4392
  483TMC3    C5 7237   3.809   1.713   1.047  0.6404 -0.1845 -0.3068
  483TMC3    C6 7238   3.866   1.804   0.970  0.4057 -0.4103 -0.5328
  483TMC3     C 7239   3.969   1.748   1.354  0.7202 -0.0917  0.0983
  483TMC3     O 7240   3.998   1.814   1.452 -0.1190 -0.3649 -0.5972
  483TMC3     H 7241   4.051   1.951   1.215 -1.5581  0.9713  0.3510
  483TMC3    H1 7242   3.762   1.646   1.239  0.3730 -0.0621  0.2886
  483TMC3    H2 7243   3.860   1.788   0.863  0.2845 -1.4333 -0.3736
  483TMC3    C7 7244   3.834   1.580   1.000  0.3661  0.5342 -0.7992
  483TMC3    C8 7245   4.028   1.983   0.936  0.2968  0.4404 -0.2545
  483TMC3    O1 7246   3.889   1.505   1.078 -0.4548  0.4170 -0.0415
  483TMC3    O2 7247   4.042   1.943   0.822 -0.0296  0.2096 -0.7159
  484MPD2     C 7248   1.759   4.295  12.431 -0.0867 -0.2287  0.5069
  484MPD2    C1 7249   1.653   4.385  12.425 -0.9844  0.5753 -0.3796
  484MPD2    C2 7250   1.680   4.525  12.417  0.1691  0.2974 -0.3434
  484MPD2    C3 7251   1.812   4.568  12.433 -0.3369 -0.8498 -0.1051
  484MPD2    C4 7252   1.916   4.478  12.440  0.4352  0.7515 -0.7383
  484MPD2    C5 7253   1.883   4.340  12.437  0.4310 -0.4088  0.4966
  484MPD2     H 7254   1.599   4.596  12.404 -0.2562 -0.0887  0.1862
  484MPD2    H1 7255   2.020   4.507  12.447  0.3033  1.1161 -0.3510
  484MPD2    H2 7256   1.736   4.189  12.439  0.3002 -0.0821  3.5733
  484MPD2    H3 7257   1.965   4.271  12.451  1.1225  0.7619  2.2484
  484MPD2     N 7258   1.843   4.702  12.434 -0.2839  0.6596  0.4613
  484MPD2    H5 7259   1.942   4.724  12.441  0.3250 -1.6289 -0.9620
  484MPD2    N1 7260   1.518   4.339  12.408 -0.7393 -0.1588  0.4119
  484MPD2    H7 7261   1.507   4.239  12.416  0.9065 -0.4204 -0.6716
  485TMC3    C1 7262   1.816   0.203  12.436  0.4567 -0.2013  0.4173
  485TMC3    C2 7263   1.903   0.218  12.540 -0.1641 -0.0835  0.4778
  485TMC3    C3 7264   1.986   0.332  12.527  0.1621 -0.0625 -0.2792
  485TMC3    C4 7265   1.790   0.294  12.343  0.4658  0.9710  0.1250
  485TMC3    C5 7266   1.872   0.405  12.339 -0.4530 -0.0520 -0.3799
  485TMC3    C6 7267   1.972   0.426  12.427 -0.5799  0.1447 -0.1119
  485TMC3     C 7268   1.747   0.073  12.431 -0.8795 -0.2656 -0.4250
  485TMC3     O 7269   1.635   0.076  12.395 -0.2814 -0.0329  0.0022
  485TMC3     H 7270   1.924   0.147  12.619  1.3647 -0.4677 -0.2735
  485TMC3    H1 7271   1.720   0.282  12.261  0.0765  2.3873  0.2471
  485TMC3    H2 7272   2.033   0.516  12.422  1.0485 -0.8424  1.8296
  485TMC3    C7 7273   1.925   0.403  12.205 -0.0412 -0.4449 -0.1838
  485TMC3    C8 7274   2.131   0.308  12.545  0.4586  0.2770 -0.5028
  485TMC3    O1 7275   1.840   0.414  12.116  0.1216  0.0290  0.1455
  485TMC3    O2 7276   2.213   0.365  12.476 -0.3381 -0.6556  0.8743
  486MPD2     C 7277   3.666   3.804  13.139  0.5441 -0.2634 -0.1049
  486MPD2    C1 7278   3.613   3.702  13.068  0.0830  0.4188  0.2157
  486MPD2    C2 7279   3.565   3.719  12.943  0.0402  0.6748 -0.4136
  486MPD2    C3 7280   3.565   3.845  12.888  0.0182 -0.5827 -0.3016
  486MPD2    C4 7281   3.611   3.950  12.962 -0.1970 -0.5046 -0.1851
  486MPD2    C5 7282   3.668   3.927  13.085  0.4621 -0.5256 -0.1008
  486MPD2     H 7283   3.534   3.632  12.885  0.2720 -1.0543  2.0658
  486MPD2    H1 7284   3.610   4.051  12.924  0.1785  0.0174  1.1775
  486MPD2    H2 7285   3.719   3.799  13.234 -0.7359  1.3132  0.6997
  486MPD2    H3 7286   3.698   4.008  13.151  3.0403  0.2114 -2.1670
  486MPD2     N 7287   3.497   3.878  12.769 -0.7960 -0.4516 -0.1124
  486MPD2    H5 7288   3.457   3.970  12.757 -0.1106  0.1129  2.0562
  486MPD2    N1 7289   3.629   3.572  13.134 -0.2546  0.0990  0.3190
  486MPD2    H7 7290   3.640   3.574  13.234 -0.2246 -1.9872  0.3571
  487TMC3    C1 7291   3.637   3.336  13.151 -0.3616 -0.0647  0.1234
  487TMC3    C2 7292   3.584   3.224  13.099  0.2193  0.4874 -0.2307
  487TMC3    C3 7293   3.567   3.115  13.185 -0.1654  0.0151 -0.4215
  487TMC3    C4 7294   3.691   3.341  13.279  0.6263 -0.0324 -0.1618
  487TMC3    C5 7295   3.673   3.228  13.358  0.7032 -0.6280  0.0722
  487TMC3    C6 7296   3.615   3.111  13.313  0.6048  0.2517  0.7698
  487TMC3     C 7297   3.605   3.452  13.069  0.1181  0.4858 -0.2653
  487TMC3     O 7298   3.560   3.430  12.960 -0.1140  0.4245  0.6006
  487TMC3     H 7299   3.541   3.222  13.000 -0.5672 -1.8831  0.1721
  487TMC3    H1 7300   3.748   3.421  13.326 -0.9584  0.6102  0.6713
  487TMC3    H2 7301   3.571   3.027  13.365 -1.8934  1.4695  0.6137
  487TMC3    C7 7302   3.650   3.242  13.497  0.9164 -0.1607  0.6374
  487TMC3    C8 7303   3.482   3.011  13.118  0.3586 -0.1431  0.0941
  487TMC3    O1 7304   3.580   3.152  13.542 -0.0116  0.0796  0.1282
  487TMC3    O2 7305   3.389   3.048  13.049  0.1087  0.2518  0.4077
  488MPD2     C 7306   4.004   0.663  16.156 -0.4123 -0.6738  0.2193
  488MPD2    C1 7307   4.009   0.800  16.155  1.2752  0.3782  0.2200
  488MPD2    C2 7308   3.910   0.868  16.219  0.1536  0.1305  0.3337
  488MPD2    C3 7309   3.797   0.812  16.273  0.2966 -1.1029 -0.5047
  488MPD2    C4 7310   3.788   0.674  16.261 -0.7648  0.1586  0.5505
  488MPD2    C5 7311   3.894   0.602  16.214  0.1450  1.0973 -0.3610
  488MPD2     H 7312   3.919   0.975  16.234 -0.4104  0.2529 -0.2094
  488MPD2    H1 7313   3.709   0.615  16.307  0.9795 -2.1499  0.5523
  488MPD2    H2 7314   4.082   0.594  16.126 -1.0781 -1.2026 -0.2832
  488MPD2    H3 7315   3.878   0.495  16.210  1.1364  0.9578 -0.4095
  488MPD2     N 7316   3.696   0.894  16.333 -0.0656  0.7895 -0.2423
  488MPD2    H5 7317   3.718   0.993  16.346 -0.5785  1.0078 -1.0199
  488MPD2    N1 7318   4.121   0.870  16.099  0.5005 -0.0841 -0.9444
  488MPD2    H7 7319   4.123   0.971  16.103 -1.0950 -0.0556 -0.8525
  489TMC3    C1 7320   3.538   0.958  16.494  0.2185  0.2909 -0.1455
  489TMC3    C2 7321   3.610   1.073  16.509  0.5957 -0.4936  0.5907
  489TMC3    C3 7322   3.584   1.145  16.625  0.7217  0.1767 -0.2269
  489TMC3    C4 7323   3.452   0.899  16.589 -0.3622 -0.1281 -0.1408
  489TMC3    C5 7324   3.432   0.976  16.704 -0.2320 -0.1479 -0.3651
  489TMC3    C6 7325   3.502   1.088  16.720  0.4644  0.2111 -0.4361
  489TMC3     C 7326   3.580   0.854  16.396 -0.0443 -0.0473 -0.1987
  489TMC3     O 7327   3.523   0.743  16.391 -0.2445 -0.1472 -0.0913
  489TMC3     H 7328   3.676   1.116  16.434 -0.4807  1.5793  0.8290
  489TMC3    H1 7329   3.395   0.809  16.572  1.0046 -1.2437  1.2048
  489TMC3    H2 7330   3.498   1.135  16.818  2.3605 -1.8369  0.6295
  489TMC3    C7 7331   3.365   0.919  16.824  0.3564 -0.2473 -0.9851
  489TMC3    C8 7332   3.682   1.251  16.665 -0.5581  0.1629 -0.3958
  489TMC3    O1 7333   3.314   0.994  16.906  0.3211 -0.1891  0.8484
  489TMC3    O2 7334   3.785   1.273  16.596  0.1306 -0.5710 -0.1397
  490MPD2     C 7335   0.099   4.476  16.726  0.2591  0.2092  0.5324
  490MPD2    C1 7336   0.067   4.504  16.854  0.0565 -0.2200 -0.4819
  490MPD2    C2 7337   0.157   4.577  16.929 -0.0049  0.1164  0.1634
  490MPD2    C3 7338   0.273   4.631  16.874 -0.3197  0.3624 -0.4830
  490MPD2    C4 7339   0.304   4.602  16.744  0.6713 -0.1270  0.7740
  490MPD2    C5 7340   0.213   4.532  16.664 -0.1926 -0.3073  0.6708
  490MPD2     H 7341   0.146   4.587  17.036 -1.4189  1.8792 -0.1541
  490MPD2    H1 7342   0.396   4.637  16.698  1.5225 -0.3796  2.2796
  490MPD2    H2 7343   0.040   4.420  16.655 -0.3411  1.2169  0.2303
  490MPD2    H3 7344   0.234   4.521  16.559 -0.9312  0.4229  0.4459
  490MPD2     N 7345   0.362   4.718  16.942  0.2900 -0.5651  0.0341
  490MPD2    H5 7346   0.445   0.022  16.899 -0.8546  0.7994 -0.9115
  490MPD2    N1 7347   4.697   4.444  16.926  0.8512  0.2492  0.0682
  490MPD2    H7 7348   4.689   4.451  17.027 -1.9647  0.8042 -0.1942
  491TMC3    C1 7349   4.476   4.371  16.951 -0.3887 -0.4231  0.1588
  491TMC3    C2 7350   4.512   4.327  17.079  0.1817  0.1042  0.1105
  491TMC3    C3 7351   4.404   4.279  17.148 -0.1841  0.4719 -0.4364
  491TMC3    C4 7352   4.353   4.393  16.912 -0.4917  0.1933 -0.2862
  491TMC3    C5 7353   4.254   4.360  17.000  0.1751 -0.0166  0.3415
  491TMC3    C6 7354   4.275   4.299  17.118  1.2235 -0.1665 -0.6343
  491TMC3     C 7355   4.581   4.409  16.857  0.1012 -0.7733 -0.3203
  491TMC3     O 7356   4.553   4.439  16.739  0.0512  0.5319 -0.4375
  491TMC3     H 7357   4.614   4.311  17.113  0.6883 -0.6728 -1.7971
  491TMC3    H1 7358   4.337   4.433  16.813  2.0880 -1.1882 -1.2569
  491TMC3    H2 7359   4.189   4.262  17.173  0.2179 -0.8843 -2.7185
  491TMC3    C7 7360   4.119   4.384  16.956  0.2065  0.0751 -0.1709
  491TMC3    C8 7361   4.422   4.255  17.277  0.3899 -0.3335  0.0127
  491TMC3    O1 7362   4.035   4.316  17.005 -0.1744 -0.7109 -0.4543
  491TMC3    O2 7363   4.358   4.161  17.326  0.5392  0.3550 -0.1428
  492MPD2     C 7364   4.564   0.443  10.537  0.6319 -0.4281  0.2519
  492MPD2    C1 7365   4.468   0.347  10.523 -0.7277 -0.3971 -0.4924
  492MPD2    C2 7366   4.447   0.270  10.637  0.5027 -0.0002 -0.3459
  492MPD2    C3 7367   4.521   0.282  10.758 -0.1950  0.2565  0.1603
  492MPD2    C4 7368   4.621   0.376  10.759 -0.8250 -0.2536 -0.6007
  492MPD2    C5 7369   4.644   0.450  10.646 -0.0861  0.0125 -0.0449
  492MPD2     H 7370   4.380   0.185  10.641 -1.4280  1.6672  2.2235
  492MPD2    H1 7371   4.672   0.403  10.851 -1.2486  1.2847 -0.8209
  492MPD2    H2 7372   4.577   0.519  10.461 -0.9746 -0.0329  0.3542
  492MPD2    H3 7373   4.706   0.539  10.651 -1.8532  1.2370  0.1373
  492MPD2     N 7374   4.495   0.200  10.873 -0.0277  0.4088 -0.3436
  492MPD2    H5 7375   4.558   0.223  10.949  1.2888 -0.4087 -1.2039
  492MPD2    N1 7376   4.402   0.332  10.395  0.3352 -0.1941 -0.2854
  492MPD2    H7 7377   4.436   0.398  10.325  0.3863 -1.9013 -1.8804
  493TMC3    C1 7378   4.224   0.274  10.247 -0.5043 -0.1518 -0.6247
  493TMC3    C2 7379   4.239   0.395  10.177 -0.5683  0.1921 -0.0998
  493TMC3    C3 7380   4.159   0.420  10.073  0.1376 -0.4918 -0.3570
  493TMC3    C4 7381   4.116   0.194  10.231  0.5363  0.5415 -0.0615
  493TMC3    C5 7382   4.039   0.223  10.125  0.6123  0.6124  0.2467
  493TMC3    C6 7383   4.067   0.327  10.039 -0.6636 -1.0250  0.3518
  493TMC3     C 7384   4.305   0.236  10.366 -1.1202  0.7135 -0.4491
  493TMC3     O 7385   4.263   0.159  10.450  0.5419  0.1222  0.6134
  493TMC3     H 7386   4.323   0.462  10.195 -1.6358  0.9047  2.2542
  493TMC3    H1 7387   4.094   0.113  10.299  2.2665 -0.0879 -0.2283
  493TMC3    H2 7388   3.995   0.344   9.960 -1.0626 -0.5301  0.8240
  493TMC3    C7 7389   3.919   0.143  10.101 -0.7725  0.3789 -0.2244
  493TMC3    C8 7390   4.200   0.493   9.950 -1.0785  0.0774  0.7363
  493TMC3    O1 7391   3.828   0.201  10.052 -0.3360 -0.1859  0.4800
  493TMC3    O2 7392   4.112   0.496   9.863  0.5011  0.0543 -0.1702
  494TMC3    C1 7393   0.819   1.621   0.460  0.4537 -0.1332 -0.4966
  494TMC3    C2 7394   0.759   1.497   0.467  0.0657  0.2262  0.2117
  494TMC3    C3 7395   0.701   1.444   0.359 -0.0126  0.0390 -0.2883
  494TMC3    C4 7396   0.837   1.683   0.343  0.3092  0.5726  0.1328
  494TMC3    C5 7397   0.770   1.631   0.234 -0.6984  0.9963  0.4671
  494TMC3    C6 7398   0.701   1.512   0.241  0.7718  0.6520 -0.2117
  494TMC3     C 7399   0.924   1.627   0.556 -0.5570  0.5930  0.2820
  494TMC3     O 7400   0.895   1.600   0.673  0.4247  0.2607  0.1693
  494TMC3     H 7401   0.766   1.448   0.564  1.1496 -0.7361 -0.3425
  494TMC3    H1 7402   0.897   1.773   0.338  0.2600  0.4819 -2.1035
  494TMC3    H2 7403   0.648   1.476   0.153 -0.6913 -0.6823  1.2262
  494TMC3    C7 7404   0.768   1.698   0.103  0.0689 -0.0056 -0.6042
  494TMC3    C8 7405   0.723   1.303   0.349  0.0499  0.4697 -0.2301
  494TMC3    O1 7406   0.763   1.634   0.003  0.3081 -0.0772  0.6138
  494TMC3    O2 7407   0.798   1.254   0.431  1.0474  0.0062 -0.3992
  495TMC3    C1 7408   4.031   3.676  14.567  0.2036 -0.5764 -0.0950
  495TMC3    C2 7409   4.016   3.729  14.445  0.0902  0.2166  0.0282
  495TMC3    C3 7410   4.032   3.865  14.433  0.7310  0.0731  0.4890
  495TMC3    C4 7411   4.068   3.751  14.676 -0.4168  1.0448 -0.1055
  495TMC3    C5 7412   4.065   3.886  14.667 -0.0159  0.9984  0.9870
  495TMC3    C6 7413   4.039   3.945  14.547 -0.5343 -0.7075 -0.3370
  495TMC3     C 7414   3.992   3.540  14.585 -0.5700 -0.1501 -0.6329
  495TMC3     O 7415   3.990   3.506  14.701  0.0525 -0.0566 -0.2094
  495TMC3     H 7416   3.984   3.677  14.356 -0.7139  2.9049 -1.2511
  495TMC3    H1 7417   4.094   3.708  14.772 -2.7584 -2.0539 -0.8742
  495TMC3    H2 7418   4.026   4.053  14.537  1.2467 -0.4285  0.3760
  495TMC3    C7 7419   4.038   3.953  14.793 -0.4132  0.0250 -0.4160
  495TMC3    C8 7420   3.930   3.927  14.338  0.0974  0.0911 -0.0372
  495TMC3    O1 7421   4.129   4.003  14.853  0.0021 -0.1114  0.0429
  495TMC3    O2 7422   3.839   3.998  14.383  0.0079 -0.2170 -0.2470
  496MPD2     C 7423   0.957   3.999  15.121  1.2767  0.0693 -0.3722
  496MPD2    C1 7424   1.022   4.000  15.238 -0.7881  0.6453 -0.4488
  496MPD2    C2 7425   0.958   3.949  15.351  0.4393 -0.1798 -0.2194
  496MPD2    C3 7426   0.831   3.888  15.339  0.7582 -0.4415  0.0233
  496MPD2    C4 7427   0.765   3.894  15.216  0.0502 -0.2712 -0.6299
  496MPD2    C5 7428   0.825   3.964  15.112 -0.4779 -0.5080 -0.1378
  496MPD2     H 7429   1.017   3.928  15.440  0.6688  2.3178  0.2046
  496MPD2    H1 7430   0.671   3.838  15.214  1.4590 -2.7460  1.9220
  496MPD2    H2 7431   1.011   4.045  15.039  1.3193 -3.7831 -2.5055
  496MPD2    H3 7432   0.774   3.991  15.021 -0.6285  2.0171  0.7112
  496MPD2     N 7433   0.790   3.794  15.436  0.0800  0.3963  0.2519
  496MPD2    H5 7434   0.710   3.735  15.411  0.6465 -0.6797  0.9959
  496MPD2    N1 7435   1.159   4.016  15.224  0.0724 -0.1345 -0.2937
  496MPD2    H7 7436   1.201   4.035  15.134  0.5145 -0.9414 -0.2612
  497TMC3    C1 7437   0.804   3.663  15.634 -0.4311 -0.0367 -0.0708
  497TMC3    C2 7438   0.719   3.573  15.582 -0.1231 -0.1836 -0.5779
  497TMC3    C3 7439   0.723   3.447  15.631 -0.4141 -0.0796  0.1474
  497TMC3    C4 7440   0.896   3.624  15.732  0.7132  0.1925 -0.2837
  497TMC3    C5 7441   0.896   3.493  15.785  0.7818  0.0211 -0.5237
  497TMC3    C6 7442   0.799   3.407  15.735 -0.0918  0.6837  0.0217
  497TMC3     C 7443   0.837   3.791  15.568  0.0391  0.0529 -0.1413
  497TMC3     O 7444   0.903   3.879  15.620 -0.5505  0.8770  0.1160
  497TMC3     H 7445   0.654   3.591  15.497  0.5857 -0.5986 -1.2182
  497TMC3    H1 7446   0.978   3.694  15.741 -0.3587  1.1662  1.9288
  497TMC3    H2 7447   0.791   3.307  15.776 -1.6560  1.5907  1.9475
  497TMC3    C7 7448   0.975   3.455  15.902 -0.3300  0.2011  0.1494
  497TMC3    C8 7449   0.640   3.352  15.582 -0.2521 -0.4289  0.1364
  497TMC3    O1 7450   0.952   3.349  15.957  0.0645 -0.6443  0.3545
  497TMC3    O2 7451   0.690   3.241  15.584 -0.5677  0.1535 -0.0142
  498MPD2     C 7452   2.411   0.212  10.285  0.2000 -0.0526  0.1257
  498MPD2    C1 7453   2.361   0.271  10.394  0.2073  0.2592  0.1259
  498MPD2    C2 7454   2.266   0.208  10.471  0.8435 -0.0776  0.0316
  498MPD2    C3 7455   2.221   0.081  10.445 -0.3667  0.1758  0.5377
  498MPD2    C4 7456   2.283   0.011  10.345 -0.1928  0.0208  0.0980
  498MPD2    C5 7457   2.375   0.081  10.259 -0.4559  1.5354  0.4749
  498MPD2     H 7458   2.233   0.257  10.562  1.8863  0.1595  0.2857
  498MPD2    H1 7459   2.262   4.643  10.327  0.3142 -0.1855  0.7114
  498MPD2    H2 7460   2.481   0.253  10.213 -3.0311  1.2520 -2.2681
  498MPD2    H3 7461   2.425   0.025  10.181 -2.9244  1.2739 -0.9072
  498MPD2     N 7462   2.120   0.028  10.530  0.2558  0.0423 -0.7099
  498MPD2    H5 7463   2.084   0.091  10.602 -0.2012  0.1737 -1.0539
  498MPD2    N1 7464   2.401   0.405  10.428 -0.1662  0.1774 -0.0793
  498MPD2    H7 7465   2.359   0.453  10.506  0.1567  0.8363 -0.3113
  499TMC3    C1 7466   2.480   0.619  10.393  0.4021  0.3970 -0.0793
  499TMC3    C2 7467   2.601   0.670  10.431 -0.5949  0.4553  0.5543
  499TMC3    C3 7468   2.644   0.787  10.374 -0.5840  0.4627  0.1426
  499TMC3    C4 7469   2.413   0.686  10.301 -0.5505 -0.1020  0.0438
  499TMC3    C5 7470   2.449   0.810  10.251  0.2244  0.0988  0.1234
  499TMC3    C6 7471   2.572   0.860  10.284 -0.7423 -0.2155  0.3042
  499TMC3     C 7472   2.490   0.481  10.355  0.1858 -0.4227  0.3035
  499TMC3     O 7473   2.557   0.460  10.250  0.3022 -0.5849  0.0867
  499TMC3     H 7474   2.668   0.617  10.498 -1.2358  0.5401  1.2690
  499TMC3    H1 7475   2.318   0.639  10.276  0.3664 -1.3201 -1.1558
  499TMC3    H2 7476   2.600   0.961  10.258 -1.8656  0.0436  0.0944
  499TMC3    C7 7477   2.363   0.885  10.160  1.1990 -0.7089  0.3511
  499TMC3    C8 7478   2.776   0.841  10.422 -0.3727  0.4515 -0.0455
  499TMC3    O1 7479   2.400   1.000  10.134  0.2987  0.3520  0.4565
  499TMC3    O2 7480   2.829   0.785  10.520 -1.0436  0.7157  0.1215
  500MPD2     C 7481   3.538   1.406  10.758  0.0489  0.1934  0.5078
  500MPD2    C1 7482   3.558   1.392  10.619 -0.8274 -0.1625 -0.5336
  500MPD2    C2 7483   3.454   1.449  10.542  0.1325  0.3170 -0.1872
  500MPD2    C3 7484   3.336   1.508  10.581  0.7823  0.2853 -0.3702
  500MPD2    C4 7485   3.321   1.505  10.717 -0.7056  0.2606  0.3630
  500MPD2    C5 7486   3.421   1.462  10.797 -0.1672  0.0933  0.5100
  500MPD2     H 7487   3.477   1.432  10.437 -1.2266  0.1137 -0.4441
  500MPD2    H1 7488   3.232   1.539  10.769  0.1912  0.7046  1.6081
  500MPD2    H2 7489   3.602   1.362  10.833  1.8019 -1.6072 -2.0288
  500MPD2    H3 7490   3.388   1.467  10.900 -0.2369  1.1898  0.4294
  500MPD2     N 7491   3.222   1.527  10.498  0.7604 -0.3001 -0.2749
  500MPD2    H5 7492   3.145   1.563  10.553  1.7818 -0.3262  1.1993
  500MPD2    N1 7493   3.673   1.336  10.558 -0.2397 -0.6021 -0.2734
  500MPD2    H7 7494   3.695   1.349  10.460 -2.5895 -1.0267 -0.8755
  501TMC3    C1 7495   3.888   1.245  10.557  0.3367 -0.0212 -0.1915
  501TMC3    C2 7496   3.926   1.336  10.462  0.0390  0.2847 -0.0905
  501TMC3    C3 7497   4.050   1.316  10.409 -0.1507  0.0226 -0.0502
  501TMC3    C4 7498   3.980   1.154  10.603 -0.0349 -0.8727 -0.3303
  501TMC3    C5 7499   4.110   1.144  10.554 -0.3206  1.1656 -0.1411
  501TMC3    C6 7500   4.143   1.223  10.452 -0.0924  0.0831 -0.4390
  501TMC3     C 7501   3.763   1.263  10.634  0.3614 -0.6477 -0.8198
  501TMC3     O 7502   3.751   1.195  10.730  0.7530  0.3188 -0.2327
  501TMC3     H 7503   3.855   1.410  10.425  0.4184 -0.8914 -3.1567
  501TMC3    H1 7504   3.948   1.083  10.678 -2.0214 -0.4381 -0.7532
  501TMC3    H2 7505   4.250   1.221  10.430  0.4563 -0.3776  2.2456
  501TMC3    C7 7506   4.194   1.033  10.604 -0.0683 -0.9506 -0.3621
  501TMC3    C8 7507   4.115   1.423  10.347 -0.1311  0.8075  0.6572
  501TMC3    O1 7508   4.131   0.957  10.673  0.2103  0.2095  0.0296
  501TMC3    O2 7509   4.225   1.452  10.383 -0.3331 -0.1331 -0.1775
  502TMC3    C1 7510   3.755   4.647  14.756 -0.2544  0.3861  0.6417
  502TMC3    C2 7511   3.732   0.048  14.753  0.8488 -0.2304 -0.2136
  502TMC3    C3 7512   3.612   0.104  14.777 -0.5246 -0.2433  0.5680
  502TMC3    C4 7513   3.650   4.573  14.793 -0.2419 -0.4361  0.2164
  502TMC3    C5 7514   3.520   4.632  14.816  0.0869 -0.6895 -0.8898
  502TMC3    C6 7515   3.495   0.032  14.798  0.2318  0.3225  0.3695
  502TMC3     C 7516   3.857   4.639  14.859 -0.4707 -0.1460 -0.7546
  502TMC3     O 7517   3.970   4.680  14.842  0.3915  0.0922 -0.1113
  502TMC3     H 7518   3.813   0.121  14.747  0.1810  0.6895  1.6733
  502TMC3    H1 7519   3.665   4.466  14.797 -1.1459 -0.5796 -0.1266
  502TMC3    H2 7520   3.398   0.077  14.815 -0.9430 -1.7158 -0.8487
  502TMC3    C7 7521   3.442   4.558  14.919  0.4855 -0.2105  0.0632
  502TMC3    C8 7522   3.614   0.249  14.794  0.6347 -0.3877  0.2347
  502TMC3    O1 7523   3.509   4.470  14.969  0.0494 -0.1088  0.1068
  502TMC3    O2 7524   3.695   0.303  14.723  0.0452 -0.0552  0.0951
  503MPD2     C 7525   0.987   0.638  16.495  0.4539  0.1566  0.0214
  503MPD2    C1 7526   0.995   0.669  16.633 -0.1365  0.3148 -0.2159
  503MPD2    C2 7527   1.052   0.577  16.713 -0.2810 -0.0292 -0.1619
  503MPD2    C3 7528   1.093   0.454  16.667 -0.2086  0.3649 -0.0097
  503MPD2    C4 7529   1.065   0.416  16.536 -0.6068 -0.1915  0.3270
  503MPD2    C5 7530   1.017   0.513  16.449 -0.5037  0.5897  0.7181
  503MPD2     H 7531   1.077   0.587  16.818 -0.7326  1.4132 -0.1787
  503MPD2    H1 7532   1.082   0.317  16.494  1.8027  0.1946  0.3622
  503MPD2    H2 7533   0.936   0.705  16.427 -0.7402  0.4790  1.2385
  503MPD2    H3 7534   1.003   0.487  16.345  1.1690  0.3226  0.5729
  503MPD2     N 7535   1.162   0.381  16.762 -0.1074  0.3760  0.3723
  503MPD2    H5 7536   1.171   0.424  16.854  0.0064  0.8148  0.1552
  503MPD2    N1 7537   0.958   0.794  16.691  0.3906  0.6834 -0.3617
  503MPD2    H7 7538   0.978   0.819  16.787 -1.4134 -1.6044  0.5997
  504TMC3    C1 7539   1.331   0.233  16.831  0.1252 -0.3430  0.0220
  504TMC3    C2 7540   1.296   0.233  16.963  0.3300 -0.4322  0.8414
  504TMC3    C3 7541   1.396   0.194  17.055 -0.6483  0.6155  0.0975
  504TMC3    C4 7542   1.449   0.175  16.788  0.9158 -0.7612  0.0687
  504TMC3    C5 7543   1.544   0.136  16.879  0.7058  0.3645  0.4148
  504TMC3    C6 7544   1.517   0.152  17.013  0.7342  0.3738  0.2373
  504TMC3     C 7545   1.234   0.268  16.731  0.3304  0.5458 -0.0536
  504TMC3     O 7546   1.240   0.198  16.630  0.8989  0.9890  0.4621
  504TMC3     H 7547   1.202   0.268  17.003 -0.4141  0.1410 -1.4462
  504TMC3    H1 7548   1.468   0.178  16.681 -0.4183 -0.7619 -0.1750
  504TMC3    H2 7549   1.588   0.121  17.090 -0.4470 -3.5403 -0.2036
  504TMC3    C7 7550   1.675   0.122  16.828 -0.2782 -0.0499  0.3815
  504TMC3    C8 7551   1.381   0.265  17.181 -0.0462 -0.6223  0.6657
  504TMC3    O1 7552   1.695   0.164  16.714 -0.2114 -0.1776 -0.5373
  504TMC3    O2 7553   1.304   0.364  17.178 -0.2343 -0.0588  0.1796
  505MPD2     C 7554   1.194   4.392  11.414  0.5021 -0.0495 -0.1027
  505MPD2    C1 7555   1.273   4.291  11.472  0.3750  0.6182  0.0649
  505MPD2    C2 7556   1.374   4.324  11.565 -0.7169  0.0206 -0.1602
  505MPD2    C3 7557   1.382   4.457  11.604  0.3128  0.1228  0.7017
  505MPD2    C4 7558   1.302   4.551  11.543 -0.0352  0.4315  0.2438
  505MPD2    C5 7559   1.211   4.522  11.446 -0.4992  0.0926 -0.7124
  505MPD2     H 7560   1.435   4.254  11.619 -2.7928 -0.5415  1.4303
  505MPD2    H1 7561   1.310   4.658  11.562 -0.4952  0.2820  1.2911
  505MPD2    H2 7562   1.109   4.365  11.352  1.4194 -0.1285 -1.3272
  505MPD2    H3 7563   1.163   4.599  11.387 -1.5482 -0.8514 -1.0935
  505MPD2     N 7564   1.478   4.486  11.706 -0.0707  0.1123 -0.6946
  505MPD2    H5 7565   1.526   4.411  11.755 -0.8863 -1.3236 -2.0778
  505MPD2    N1 7566   1.257   4.156  11.422  0.2208 -0.1641  0.0102
  505MPD2    H7 7567   1.186   4.138  11.352 -0.3658 -1.1286  0.8456
  506TMC3    C1 7568   1.310   3.928  11.382 -0.0119 -0.4961 -0.4642
  506TMC3    C2 7569   1.272   3.948  11.248  0.2170  0.3544 -0.2359
  506TMC3    C3 7570   1.347   3.888  11.154 -0.1367  0.1377 -0.8805
  506TMC3    C4 7571   1.407   3.840  11.418 -0.6263  0.1681 -0.8076
  506TMC3    C5 7572   1.485   3.792  11.319 -0.7665  0.0027 -0.4401
  506TMC3    C6 7573   1.463   3.824  11.185  0.1602 -0.3645  0.0163
  506TMC3     C 7574   1.322   4.045  11.469 -0.6475  0.6505 -0.3490
  506TMC3     O 7575   1.405   4.038  11.553  0.1424 -0.2556 -0.2017
  506TMC3     H 7576   1.182   4.003  11.224 -0.5195 -1.2439 -1.1386
  506TMC3    H1 7577   1.417   3.806  11.521 -0.0238 -0.3380 -1.0345
  506TMC3    H2 7578   1.532   3.789  11.109  0.7270 -2.8867  1.6826
  506TMC3    C7 7579   1.629   3.814  11.350  0.4943 -0.6599 -0.1518
  506TMC3    C8 7580   1.320   3.932  11.018  1.4829 -0.3838 -0.0118
  506TMC3    O1 7581   1.711   3.788  11.266 -0.5728  0.1937  0.2630
  506TMC3    O2 7582   1.208   3.970  10.988 -0.0597  0.2048  0.2411
  507TMC3    C1 7583   2.172   0.512  14.722  0.3199  0.5999  0.6085
  507TMC3    C2 7584   2.132   0.413  14.642  0.3701 -0.2144  0.3032
  507TMC3    C3 7585   2.115   0.441  14.509 -0.2334 -0.1230 -0.2159
  507TMC3    C4 7586   2.174   0.639  14.678  0.7255 -0.5511  0.1437
  507TMC3    C5 7587   2.177   0.659  14.543  0.2041  0.0612 -0.6981
  507TMC3    C6 7588   2.146   0.560  14.458  0.2057  0.1451 -0.0614
  507TMC3     C 7589   2.215   0.486  14.861 -0.0259  0.2313  0.0236
  507TMC3     O 7590   2.292   0.572  14.911 -0.2442  0.2282  0.6052
  507TMC3     H 7591   2.111   0.310  14.669  2.9345 -0.4533  1.3970
  507TMC3    H1 7592   2.200   0.722  14.742 -1.4776 -1.6320  2.4361
  507TMC3    H2 7593   2.131   0.588  14.354  3.5568  2.4689  0.1007
  507TMC3    C7 7594   2.092   0.775  14.501  0.1657 -0.0032 -0.0952
  507TMC3    C8 7595   1.988   0.391  14.469  0.4140  1.0626 -0.6328
  507TMC3    O1 7596   2.020   0.761  14.406 -0.3943  0.4556  0.0635
  507TMC3    O2 7597   1.951   0.287  14.522 -0.4116 -0.6087  0.0473
  508MPD2     C 7598   3.105   2.025  15.715  0.2493 -0.0193  0.1821
  508MPD2    C1 7599   3.104   2.151  15.775  0.1431 -0.8278 -0.2459
  508MPD2    C2 7600   3.107   2.264  15.700 -0.3766 -0.9088 -0.0308
  508MPD2    C3 7601   3.122   2.263  15.562  0.1375  0.4763 -0.2183
  508MPD2    C4 7602   3.141   2.136  15.503  0.4810  0.8687  0.2669
  508MPD2    C5 7603   3.136   2.023  15.581  0.4230  0.5330 -0.4376
  508MPD2     H 7604   3.098   2.365  15.738 -4.2556 -1.7950  1.3798
  508MPD2    H1 7605   3.155   2.113  15.398  1.7125  2.0814  0.1722
  508MPD2    H2 7606   3.103   1.928  15.764 -0.2027  0.1131  0.4277
  508MPD2    H3 7607   3.146   1.926  15.532  4.1861  0.5495  0.3078
  508MPD2     N 7608   3.122   2.383  15.488 -0.7194 -0.7085  0.1868
  508MPD2    H5 7609   3.133   2.471  15.536 -0.8678 -1.6552  1.9445
  508MPD2    N1 7610   3.107   2.157  15.915  0.3602 -0.1355 -0.1335
  508MPD2    H7 7611   3.128   2.072  15.966 -1.5133 -0.3984  0.1851
  509TMC3    C1 7612   3.034   2.703  15.195 -0.2760 -0.5389 -0.2396
  509TMC3    C2 7613   3.090   2.795  15.280 -0.2091 -0.8824  0.4728
  509TMC3    C3 7614   3.177   2.743  15.373  0.2705 -0.1840  0.1026
  509TMC3    C4 7615   3.049   2.565  15.209  0.0381  0.0096  0.3133
  509TMC3    C5 7616   3.130   2.526  15.311 -0.0286 -0.5905 -0.2241
  509TMC3    C6 7617   3.203   2.611  15.392 -0.0825 -0.0050  0.3659
  509TMC3     C 7618   2.934   2.750  15.101  0.1332 -0.2195 -0.5185
  509TMC3     O 7619   2.920   2.683  14.995  0.1229  0.0350 -0.5375
  509TMC3     H 7620   3.052   2.896  15.281 -1.9773 -1.5104 -2.0294
  509TMC3    H1 7621   3.002   2.492  15.144 -1.3019  2.1651 -1.1546
  509TMC3    H2 7622   3.275   2.577  15.466  0.3371 -2.6292 -1.2675
  509TMC3    C7 7623   3.130   2.388  15.351 -0.1606  0.0544  0.0611
  509TMC3    C8 7624   3.234   2.832  15.473 -0.6143  0.1518  0.5006
  509TMC3    O1 7625   3.108   2.300  15.273  0.3555 -0.6248 -0.2703
  509TMC3    O2 7626   3.286   2.789  15.574 -0.3456 -0.4420  0.3959
  510MPD2     C 7627   0.681   4.322  14.482  0.1492  0.1006  0.5749
  510MPD2    C1 7628   0.700   4.202  14.551 -0.5968  0.1164 -0.1391
  510MPD2    C2 7629   0.818   4.133  14.527  0.1592 -0.1557 -0.0703
  510MPD2    C3 7630   0.919   4.181  14.440  0.2909  0.3257  0.3774
  510MPD2    C4 7631   0.906   4.303  14.381 -0.3370  0.4297 -0.9101
  510MPD2    C5 7632   0.783   4.373  14.406  0.9334 -0.8673 -0.1839
  510MPD2     H 7633   0.835   4.033  14.565  0.5205  0.0320  0.2701
  510MPD2    H1 7634   0.984   4.348  14.321  0.0349 -0.5635 -1.1675
  510MPD2    H2 7635   0.589   4.377  14.496 -0.0861 -0.6199  1.8657
  510MPD2    H3 7636   0.761   4.466  14.355 -0.7375 -1.1118  0.0715
  510MPD2     N 7637   1.044   4.107  14.429 -0.0708 -1.0027 -0.3615
  510MPD2    H5 7638   1.054   4.026  14.489 -0.1407 -0.5876  0.2044
  510MPD2    N1 7639   0.604   4.148  14.640 -0.0660  0.0173 -0.7262
  510MPD2    H7 7640   0.515   4.197  14.639 -1.2657 -2.1496 -0.8158
  511TMC3    C1 7641   0.525   3.988  14.790  0.1928  0.3687  0.3090
  511TMC3    C2 7642   0.516   3.987  14.926 -0.1506  0.2775 -0.1249
  511TMC3    C3 7643   0.430   3.914  14.987  0.2636  0.3983 -0.2727
  511TMC3    C4 7644   0.450   3.903  14.714  0.1667  0.0936 -0.5006
  511TMC3    C5 7645   0.360   3.823  14.775  0.4504  0.4746 -0.8869
  511TMC3    C6 7646   0.346   3.837  14.914 -0.1682 -0.4573 -0.4663
  511TMC3     C 7647   0.632   4.046  14.725  0.3204 -0.4851  0.0117
  511TMC3     O 7648   0.738   4.004  14.766  0.5917  0.3852  0.4973
  511TMC3     H 7649   0.581   4.057  14.977  3.1484 -2.9616  0.0975
  511TMC3    H1 7650   0.483   3.884  14.613  1.3578 -0.0682 -0.0774
  511TMC3    H2 7651   0.283   3.770  14.972  0.7678 -1.2136 -0.3171
  511TMC3    C7 7652   0.287   3.725  14.690  0.2314  0.1874  0.2431
  511TMC3    C8 7653   0.386   3.969  15.113 -0.3868 -0.0672 -0.6202
  511TMC3    O1 7654   0.326   3.702  14.575 -0.4434 -0.3358 -0.4598
  511TMC3    O2 7655   0.417   4.086  15.142  0.1485 -0.3104 -0.0039
  512TMC3    C1 7656   4.584   3.565  13.078  0.0526 -0.0889 -0.0962
  512TMC3    C2 7657   4.623   3.541  13.209 -0.0029 -0.0674 -0.3044
  512TMC3    C3 7658   4.536   3.476  13.296 -0.2688 -1.4081 -0.1559
  512TMC3    C4 7659   4.459   3.540  13.034  0.6488  0.7450 -0.5570
  512TMC3    C5 7660   4.372   3.487  13.120  0.3061  0.1522  0.4719
  512TMC3    C6 7661   4.404   3.459  13.254 -0.7376  0.1245  0.2583
  512TMC3     C 7662   4.674   3.660  13.013  0.5175  0.0958  0.5408
  512TMC3     O 7663   0.058   3.651  13.034  0.3579 -0.7618 -0.5805
  512TMC3     H 7664   4.728   3.543  13.235 -0.9305 -0.1872  3.4179
  512TMC3    H1 7665   4.439   3.548  12.928 -0.6508 -0.3018 -0.4007
  512TMC3    H2 7666   4.333   3.424  13.328 -1.5622 -1.4859 -1.3181
  512TMC3    C7 7667   4.267   3.406  13.062 -0.7347  0.0257  0.1391
  512TMC3    C8 7668   4.548   3.487  13.434 -0.4335  0.3408  0.2651
  512TMC3    O1 7669   4.215   3.437  12.957 -0.0818  0.2014  0.2673
  512TMC3    O2 7670   4.505   3.401  13.508  0.0364  0.5436  0.0613
  513MPD2     C 7671   0.940   3.231  13.396  0.0630  0.5509 -0.0126
  513MPD2    C1 7672   0.946   3.142  13.290 -0.5465 -0.2296  0.4628
  513MPD2    C2 7673   1.075   3.108  13.256  0.4322 -0.1919  0.3999
  513MPD2    C3 7674   1.188   3.166  13.313 -0.4132 -0.4931  0.0885
  513MPD2    C4 7675   1.174   3.270  13.401  0.4499 -0.5144 -0.1502
  513MPD2    C5 7676   1.055   3.287  13.453  0.1867  0.2073 -0.6114
  513MPD2     H 7677   1.094   3.044  13.170 -1.3581 -0.6899  0.3761
  513MPD2    H1 7678   1.260   3.327  13.435 -0.8383  1.2061  0.1816
  513MPD2    H2 7679   0.845   3.262  13.437 -1.0900  1.1239 -3.1186
  513MPD2    H3 7680   1.036   3.368  13.522  0.5551 -0.2794  0.0595
  513MPD2     N 7681   1.320   3.136  13.263 -0.7956 -0.1592 -0.1851
  513MPD2    H5 7682   1.333   3.079  13.180  0.1024 -0.9717  0.5241
  513MPD2    N1 7683   0.824   3.084  13.243  0.4797  0.2302  0.2530
  513MPD2    H7 7684   0.744   3.107  13.301  0.1050 -2.2656  0.7060
  514TMC3    C1 7685   0.882   2.992  13.026 -0.0643  0.2002  0.7312
  514TMC3    C2 7686   0.934   3.106  12.964 -0.0586  0.6865  0.5026
  514TMC3    C3 7687   0.989   3.085  12.843 -0.5138 -0.3065 -0.7772
  514TMC3    C4 7688   0.885   2.866  12.967  0.3352  0.8554 -0.6912
  514TMC3    C5 7689   0.947   2.860  12.849  0.1023  0.0140  0.5469
  514TMC3    C6 7690   1.004   2.964  12.785  0.2521  0.3239  0.1271
  514TMC3     C 7691   0.807   2.984  13.151 -0.3423 -0.6035 -0.3333
  514TMC3     O 7692   0.709   2.912  13.149  0.3350 -0.6583  0.5825
  514TMC3     H 7693   0.916   3.205  13.004 -1.2042  1.2279 -1.3852
  514TMC3    H1 7694   0.855   2.773  13.012 -3.3175  2.0252 -0.6915
  514TMC3    H2 7695   1.040   2.954  12.683  2.6694 -0.9304  1.0918
  514TMC3    C7 7696   0.932   2.731  12.791 -0.6417  0.3641  0.4987
  514TMC3    C8 7697   1.093   3.187  12.812  0.7914  0.5336 -0.2190
  514TMC3    O1 7698   0.820   2.689  12.801 -0.6995  0.8788  0.0231
  514TMC3    O2 7699   1.081   3.293  12.868  0.7520  0.2379 -0.0472
  515MPD2     C 7700   4.550   0.445  14.793 -0.5858 -0.0201  0.4752
  515MPD2    C1 7701   4.569   0.478  14.657  0.3724  0.6641  0.4316
  515MPD2    C2 7702   4.613   0.606  14.628 -0.1694 -1.1327 -0.4174
  515MPD2    C3 7703   4.640   0.702  14.726  0.1916 -0.0664  0.0650
  515MPD2    C4 7704   4.594   0.668  14.855 -0.1434  0.1080  0.3399
  515MPD2    C5 7705   4.555   0.544  14.888  0.3894 -0.0289  0.4347
  515MPD2     H 7706   4.618   0.627  14.522  0.3701  0.5727 -0.0593
  515MPD2    H1 7707   4.596   0.742  14.934  2.4989  1.6936 -1.2278
  515MPD2    H2 7708   4.529   0.343  14.825 -2.3843  0.3650  0.5198
  515MPD2    H3 7709   4.547   0.511  14.990 -0.1711 -0.6331  0.1946
  515MPD2     N 7710   4.705   0.824  14.695  0.0442  0.6094 -0.5980
  515MPD2    H5 7711   4.720   0.882  14.777  1.2735  0.2435 -0.5570
  515MPD2    N1 7712   4.544   0.388  14.549  0.3651 -0.0815 -0.1869
  515MPD2    H7 7713   4.557   0.421  14.454 -0.3358  2.1505  0.5067
  516TMC3    C1 7714   4.474   0.189  14.439  0.1637  0.0298  0.3063
  516TMC3    C2 7715   4.409   0.239  14.327 -0.1679  0.0044  0.8587
  516TMC3    C3 7716   4.340   0.161  14.242 -0.7054 -0.0272 -0.2742
  516TMC3    C4 7717   4.463   0.055  14.455  0.6749  0.1243  0.3748
  516TMC3    C5 7718   4.390   4.716  14.376  0.4909  0.5096  0.1659
  516TMC3    C6 7719   4.322   0.035  14.275  0.4022  0.1349  0.0218
  516TMC3     C 7720   4.501   0.260  14.566 -0.3528 -0.3932 -0.1151
  516TMC3     O 7721   4.470   0.194  14.663  0.1832  0.4037 -0.3726
  516TMC3     H 7722   4.415   0.346  14.307 -0.2673 -0.7817 -3.2517
  516TMC3    H1 7723   4.531   0.004  14.522  1.1215 -0.0875 -0.2410
  516TMC3    H2 7724   4.259   4.716  14.205  2.6122  0.1377 -1.9876
  516TMC3    C7 7725   4.344   4.598  14.441  0.7349 -0.3127 -0.6747
  516TMC3    C8 7726   4.231   0.233  14.184  0.3446  0.9690  0.5708
  516TMC3    O1 7727   4.398   4.571  14.550  0.1730 -0.5237 -0.0636
  516TMC3    O2 7728   4.120   0.198  14.220 -0.1529 -0.4320  0.5307
  517MPD2     C 7729   3.949   1.805  17.686 -0.2402 -0.4380  0.1650
  517MPD2    C1 7730   4.082   1.813  17.707  0.4374 -0.2393 -0.2574
  517MPD2    C2 7731   4.134   1.930   0.025  0.2118  0.4913 -0.3221
  517MPD2    C3 7732   4.051   2.036   0.055  0.0521 -0.3767 -0.1293
  517MPD2    C4 7733   3.921   2.025   0.014  0.0043 -0.2218 -0.7904
  517MPD2    C5 7734   3.869   1.915  17.695 -0.4342  0.5839  0.3369
  517MPD2     H 7735   4.239   1.948   0.047 -0.1517 -0.2945  2.0010
  517MPD2    H1 7736   3.863   2.114   0.035  1.2564  0.4338 -0.0958
  517MPD2    H2 7737   3.912   1.709  17.652  0.4168 -0.3367 -0.8640
  517MPD2    H3 7738   3.764   1.909  17.668  0.1803  2.1352 -2.3781
  517MPD2     N 7739   4.090   2.162   0.111 -0.3487 -0.2049  0.9454
  517MPD2    H5 7740   4.023   2.238   0.114 -0.0708  0.1294 -1.4592
  517MPD2    N1 7741   4.179   1.705  17.692 -0.0582  0.4578  0.4782
  517MPD2    H7 7742   4.273   1.728  17.721  0.1498  0.8334 -0.4976
  518TMC3    C1 7743   4.283   1.511  17.621 -0.1512 -0.7427  0.2647
  518TMC3    C2 7744   4.279   1.382  17.660 -0.1623 -0.0487  0.4884
  518TMC3    C3 7745   4.387   1.319  17.703 -0.1655 -0.5016 -0.8141
  518TMC3    C4 7746   4.402   1.582  17.614 -0.8047 -0.7781 -0.5730
  518TMC3    C5 7747   4.516   1.520  17.660  0.0980 -0.4550  0.2845
  518TMC3    C6 7748   4.508   1.381  17.691 -0.0060 -0.6947 -0.5306
  518TMC3     C 7749   4.155   1.587  17.633  0.2389 -0.5643  0.0955
  518TMC3     O 7750   4.055   1.528  17.601 -0.2180  0.2731  0.3309
  518TMC3     H 7751   4.187   1.328  17.680 -2.0476  3.1857  0.7042
  518TMC3    H1 7752   4.404   1.678  17.563  1.8460 -0.4952  0.0866
  518TMC3    H2 7753   4.597   1.326  17.719  1.6360  2.7716  0.9710
  518TMC3    C7 7754   4.632   1.567  17.582 -0.5742  0.9042 -0.9816
  518TMC3    C8 7755   4.385   1.171  17.703  0.3820  0.3863  0.5471
  518TMC3    O1 7756   4.660   1.687  17.567  0.5618 -0.3224 -0.1112
  518TMC3    O2 7757   4.302   1.112  17.635 -0.4983 -0.2703 -0.1092
  519MPD2     C 7758   1.065   0.320  14.145 -0.0524 -0.2800  0.3576
  519MPD2    C1 7759   1.030   0.326  14.020  0.7021 -0.1347  0.0980
  519MPD2    C2 7760   1.092   0.247  13.921 -0.0185 -0.8008  0.6502
  519MPD2    C3 7761   1.184   0.153  13.952  0.4285  0.1742  0.1373
  519MPD2    C4 7762   1.216   0.141  14.086 -0.1217  0.7870 -0.2893
  519MPD2    C5 7763   1.159   0.222  14.179  0.0668 -0.0243 -0.0129
  519MPD2     H 7764   1.080   0.267  13.815  0.0825 -1.3252  0.5386
  519MPD2    H1 7765   1.288   0.068  14.119  2.1087  2.4474 -1.5112
  519MPD2    H2 7766   1.018   0.377  14.225 -2.9132 -2.0084 -0.1059
  519MPD2    H3 7767   1.195   0.219  14.281  0.0137  1.2293  0.0319
  519MPD2     N 7768   1.242   0.061  13.859  0.1175  0.2748  0.2841
  519MPD2    H5 7769   1.293   4.720  13.901  0.2148 -0.4797 -1.2318
  519MPD2    N1 7770   0.940   0.426  13.991  0.0777 -0.5249  0.0966
  519MPD2    H7 7771   0.893   0.457  14.076 -1.7553 -2.4435 -0.2318
  520TMC3    C1 7772   1.283   4.675  13.658 -0.0175  0.2142 -0.0335
  520TMC3    C2 7773   1.226   4.631  13.539  0.0439 -0.1609  0.4352
  520TMC3    C3 7774   1.283   4.518  13.488  0.0011  0.6983 -0.1864
  520TMC3    C4 7775   1.388   4.617  13.724 -0.0038  0.1121 -0.2352
  520TMC3    C5 7776   1.437   4.500  13.670 -0.1849 -0.0367  0.4003
  520TMC3    C6 7777   1.382   4.451  13.557  0.2500 -0.3973 -0.8559
  520TMC3     C 7778   1.209   0.049  13.721 -0.4874  0.4427 -0.4539
  520TMC3     O 7779   1.143   0.130  13.653  0.0549 -0.5532  0.4691
  520TMC3     H 7780   1.165   4.703  13.485 -1.2588 -1.0820  0.6926
  520TMC3    H1 7781   1.447   4.667  13.800  0.8596 -2.9400  1.0894
  520TMC3    H2 7782   1.406   4.348  13.530  0.2379 -0.6101 -0.0489
  520TMC3    C7 7783   1.545   4.439  13.744  0.0171 -0.4500 -0.3204
  520TMC3    C8 7784   1.214   4.447  13.375 -0.0314 -0.3553  0.1326
  520TMC3    O1 7785   1.567   4.472  13.861  0.5657 -0.4510 -0.0857
  520TMC3    O2 7786   1.256   4.335  13.345  0.2445 -0.2241 -0.2321
  521MPD2     C 7787   1.965   3.051  17.413 -0.2771  0.0970  0.6232
  521MPD2    C1 7788   1.914   3.002  17.297  0.2366 -0.9566 -0.6504
  521MPD2    C2 7789   1.997   2.979  17.183  0.2534  0.1020  0.5395
  521MPD2    C3 7790   2.129   3.004  17.178  0.1447  0.1082 -0.1122
  521MPD2    C4 7791   2.179   3.058  17.298  0.3857 -0.2827  0.2425
  521MPD2    C5 7792   2.097   3.088  17.402  0.1225  0.1471  0.0248
  521MPD2     H 7793   1.956   2.920  17.101  0.4021  1.4742 -0.5271
  521MPD2    H1 7794   2.281   3.095  17.302 -0.1643  0.9559  3.4249
  521MPD2    H2 7795   1.911   3.093  17.497  0.1104  0.0359  0.9007
  521MPD2    H3 7796   2.150   3.128  17.488  2.0661  0.3819 -1.2744
  521MPD2     N 7797   2.207   2.987  17.056  0.1374  0.0219 -0.2356
  521MPD2    H5 7798   2.157   2.973  16.969 -0.1456 -2.0336  0.2588
  521MPD2    N1 7799   1.772   2.967  17.306 -0.1338  0.0468  0.6192
  521MPD2    H7 7800   1.742   2.968  17.403  0.5547  1.2270  0.8232
  522TMC3    C1 7801   2.389   2.927  16.925 -0.2501 -0.2715  0.3258
  522TMC3    C2 7802   2.508   2.864  16.928  0.5997  0.6553  0.1814
  522TMC3    C3 7803   2.574   2.830  16.820  0.1010 -0.2652  0.1449
  522TMC3    C4 7804   2.326   2.953  16.803  0.9908 -0.0017 -0.1687
  522TMC3    C5 7805   2.396   2.917  16.690  0.8047  1.2108  0.3297
  522TMC3    C6 7806   2.518   2.852  16.699  0.1321 -0.5972  0.2530
  522TMC3     C 7807   2.343   2.988  17.044 -0.1635 -0.3853  1.1126
  522TMC3     O 7808   2.423   3.004  17.134  0.7357 -0.2763 -0.4175
  522TMC3     H 7809   2.564   2.859  17.021  1.0556 -1.4953 -0.2230
  522TMC3    H1 7810   2.248   3.028  16.792 -1.1990 -2.3200 -0.4064
  522TMC3    H2 7811   2.571   2.836  16.606  1.2113 -1.3235  0.9992
  522TMC3    C7 7812   2.391   2.991  16.557  0.2869 -0.3549  0.0241
  522TMC3    C8 7813   2.714   2.841  16.835 -0.0228 -0.5373  0.4343
  522TMC3    O1 7814   2.497   3.023  16.504  0.0840  0.7966 -0.5891
  522TMC3    O2 7815   2.756   2.927  16.915 -0.3238 -0.1127  0.4415
  523MPD2     C 7816   4.273   3.306   9.822 -0.2619  0.8162  0.0239
  523MPD2    C1 7817   4.164   3.220   9.802 -0.2403  0.2083 -0.5649
  523MPD2    C2 7818   4.059   3.262   9.732 -0.1543  0.1916 -0.0720
  523MPD2    C3 7819   4.058   3.387   9.667  0.5211  0.6898 -0.4556
  523MPD2    C4 7820   4.171   3.468   9.685 -0.7787  0.1681  0.1381
  523MPD2    C5 7821   4.277   3.430   9.760 -0.3200  0.3090 -0.2303
  523MPD2     H 7822   3.976   3.197   9.705  1.9231 -1.6509 -2.0210
  523MPD2    H1 7823   4.175   3.566   9.640 -0.8459  1.0848  2.1104
  523MPD2    H2 7824   4.356   3.279   9.887  0.0270  0.0176 -0.6757
  523MPD2    H3 7825   4.357   3.501   9.777 -0.5569  0.1880  1.3362
  523MPD2     N 7826   3.945   3.443   9.598  0.2908  0.3353  0.2351
  523MPD2    H5 7827   3.954   3.542   9.576  0.1883 -0.4724 -3.4092
  523MPD2    N1 7828   4.177   3.090   9.850 -0.5686  0.0666  0.6264
  523MPD2    H7 7829   4.258   3.064   9.905 -0.1922  0.7871  0.4229
  524TMC3    C1 7830   3.745   3.455   9.471  0.4235 -0.3363  0.3540
  524TMC3    C2 7831   3.666   3.397   9.374  0.4939 -0.1383  0.4070
  524TMC3    C3 7832   3.578   3.470   9.299  0.5809 -0.5295 -0.6260
  524TMC3    C4 7833   3.729   3.589   9.504  0.1598 -0.4958 -0.1879
  524TMC3    C5 7834   3.636   3.662   9.431 -0.7468 -0.2132 -0.4936
  524TMC3    C6 7835   3.558   3.602   9.328  0.5277 -0.5303 -0.2721
  524TMC3     C 7836   3.829   3.374   9.554  0.0634  0.6474  0.1756
  524TMC3     O 7837   3.801   3.255   9.578 -0.4039  0.3476 -0.0475
  524TMC3     H 7838   3.682   3.291   9.358  0.3487  0.0326 -0.8644
  524TMC3    H1 7839   3.781   3.632   9.588 -1.2007  1.2207 -0.2190
  524TMC3    H2 7840   3.492   3.660   9.266 -1.2202 -0.7325  1.4223
  524TMC3    C7 7841   3.621   3.805   9.471 -0.5240 -0.3052  0.0150
  524TMC3    C8 7842   3.478   3.412   9.213 -0.2267 -0.0631  0.7048
  524TMC3    O1 7843   3.686   3.857   9.559  0.1390  0.0899  0.3946
  524TMC3    O2 7844   3.386   3.483   9.162 -0.1579  0.3713  0.4509
  525MPD2     C 7845   2.302   4.376  14.337 -0.7736  0.3813  0.2089
  525MPD2    C1 7846   2.424   4.408  14.402  0.3993  0.1506  0.0428
  525MPD2    C2 7847   2.506   4.508  14.352  0.4158  0.3237 -0.2900
  525MPD2    C3 7848   2.457   4.590  14.252 -1.0863  0.1726 -0.3071
  525MPD2    C4 7849   2.341   4.563  14.190 -0.2667 -0.5239  0.0268
  525MPD2    C5 7850   2.269   4.453  14.230 -0.4023  0.3275 -0.0598
  525MPD2     H 7851   2.607   4.508  14.392  0.9655 -2.3841 -1.6727
  525MPD2    H1 7852   2.303   4.631  14.114 -2.7304 -0.9993  0.8118
  525MPD2    H2 7853   2.241   4.290  14.363 -0.0283  0.4651  2.2355
  525MPD2    H3 7854   2.172   4.440  14.183  0.4898 -1.8358 -1.3297
  525MPD2     N 7855   2.527   4.702  14.192  0.1150 -0.5351  0.9008
  525MPD2    H5 7856   2.487   0.027  14.122  2.1310 -0.0672  0.1755
  525MPD2    N1 7857   2.466   4.332  14.520 -0.1659  0.4649  0.0514
  525MPD2    H7 7858   2.545   4.367  14.573  1.5018 -2.8776 -0.1566
  526TMC3    C1 7859   2.466   4.192  14.707  0.4040 -0.4274 -0.5458
  526TMC3    C2 7860   2.382   4.135  14.805  0.4698  0.2226 -0.0243
  526TMC3    C3 7861   2.440   4.109  14.929 -0.0928  0.4431  0.3957
  526TMC3    C4 7862   2.598   4.202  14.721  0.0222 -0.2494  0.1478
  526TMC3    C5 7863   2.650   4.140  14.833  0.3942 -0.2431  0.2023
  526TMC3    C6 7864   2.574   4.099  14.939 -0.0306  0.5534  0.4973
  526TMC3     C 7865   2.403   4.231  14.583 -0.1048  0.8033 -0.1448
  526TMC3     O 7866   2.286   4.201  14.573  0.2000 -0.1273 -0.5141
  526TMC3     H 7867   2.275   4.137  14.791  0.4323 -1.9060 -0.0426
  526TMC3    H1 7868   2.667   4.239  14.645 -0.4583  0.3162 -0.0077
  526TMC3    H2 7869   2.622   4.100  15.036 -0.0231  2.9583  0.4797
  526TMC3    C7 7870   2.786   4.088  14.822 -0.0581 -0.1779  0.9138
  526TMC3    C8 7871   2.377   4.172  15.040 -0.6940  0.0022 -0.3579
  526TMC3    O1 7872   2.837   4.102  14.715 -0.5342  0.1955  0.6061
  526TMC3    O2 7873   2.427   4.137  15.143  0.3052 -0.1479  0.7382
  527MPD2     C 7874   0.538   2.509   1.328 -0.3550 -0.0521 -0.0119
  527MPD2    C1 7875   0.522   2.389   1.253 -0.6431  0.0641 -0.6587
  527MPD2    C2 7876   0.632   2.343   1.178 -0.5488 -0.4798  0.5432
  527MPD2    C3 7877   0.754   2.405   1.195  0.3604 -0.1211  0.4538
  527MPD2    C4 7878   0.762   2.525   1.264 -0.3265 -0.1734  0.7839
  527MPD2    C5 7879   0.649   2.581   1.319  0.2547  0.9425 -0.2793
  527MPD2     H 7880   0.614   2.247   1.129  1.3965  0.0761 -1.3129
  527MPD2    H1 7881   0.848   2.590   1.251 -2.2135  1.3828 -3.7162
  527MPD2    H2 7882   0.451   2.554   1.374  0.7352  3.7160 -1.6407
  527MPD2    H3 7883   0.660   2.676   1.369 -1.3291 -0.1580  2.1565
  527MPD2     N 7884   0.859   2.354   1.114  0.0718 -0.6556  0.1500
  527MPD2    H5 7885   0.825   2.283   1.050  2.5190 -1.5154 -0.1823
  527MPD2    N1 7886   0.398   2.316   1.258 -0.1611  0.1297  0.3456
  527MPD2    H7 7887   0.391   2.227   1.211  0.4918  0.4829 -0.4328
  528TMC3    C1 7888   0.173   2.276   1.278  0.4962  0.5397 -0.7903
  528TMC3    C2 7889   0.177   2.237   1.152  0.4885  0.9077  0.8778
  528TMC3    C3 7890   0.062   2.219   1.078 -0.1296 -0.2229  0.4586
  528TMC3    C4 7891   0.048   2.293   1.335  0.4258  0.4505  0.1824
  528TMC3    C5 7892   4.671   2.269   1.266  0.3918 -0.5520 -0.3613
  528TMC3    C6 7893   4.674   2.237   1.132 -0.2359  0.3248  0.2401
  528TMC3     C 7894   0.282   2.356   1.320  0.2846  0.9671 -0.5367
  528TMC3     O 7895   0.255   2.446   1.399  0.6071 -0.1943  0.2523
  528TMC3     H 7896   0.268   2.235   1.094  0.0037  0.8068  0.1253
  528TMC3    H1 7897   0.035   2.343   1.431  0.8319  0.7533  0.0809
  528TMC3    H2 7898   4.586   2.252   1.071  0.8674  1.7870 -0.9899
  528TMC3    C7 7899   4.535   2.279   1.320  0.1136  0.4472  0.2916
  528TMC3    C8 7900   0.081   2.212   0.934  0.6569  0.1085 -0.0635
  528TMC3    O1 7901   4.451   2.245   1.240 -0.3568  0.2390 -0.3970
  528TMC3    O2 7902   0.176   2.264   0.883  0.4006  0.0501  0.2023
  529MPD2     C 7903   3.290   0.405   0.054 -0.5942  0.2983  0.3516
  529MPD2    C1 7904   3.202   0.460   0.145 -1.2964 -0.2669  0.1373
  529MPD2    C2 7905   3.187   0.598   0.148 -0.2256  0.5477  0.1481
  529MPD2    C3 7906   3.254   0.678   0.052 -0.4804 -0.3756 -0.3644
  529MPD2    C4 7907   3.318   0.623  17.688  0.8603 -0.2912  0.1492
  529MPD2    C5 7908   3.333   0.484  17.690 -0.1450  0.2513 -0.3218
  529MPD2     H 7909   3.129   0.648   0.226 -0.4993 -0.2958  0.4884
  529MPD2    H1 7910   3.360   0.678  17.605 -0.7108  0.8770  0.1446
  529MPD2    H2 7911   3.328   0.305   0.066 -2.3990 -0.5246 -0.8238
  529MPD2    H3 7912   3.393   0.430  17.617  0.0808 -0.8604  0.6959
  529MPD2     N 7913   3.238   0.820   0.052 -0.6969 -0.4499  0.2215
  529MPD2    H5 7914   3.298   0.864  17.727 -0.5909 -2.0191 -0.6967
  529MPD2    N1 7915   3.138   0.379   0.237 -0.4481 -0.5103 -0.2786
  529MPD2    H7 7916   3.093   0.418   0.320  0.1578  1.7057 -0.9932
  530TMC3    C1 7917   3.100   0.172   0.355  0.1405 -0.7875 -0.3501
  530TMC3    C2 7918   3.146   0.237   0.470 -0.0269 -0.7167 -0.6308
  530TMC3    C3 7919   3.139   0.177   0.589  0.2098 -0.6888  0.0375
  530TMC3    C4 7920   3.048   0.042   0.359  0.0995  0.1375  0.4299
  530TMC3    C5 7921   3.048   4.716   0.486  0.0910 -0.5857 -0.2154
  530TMC3    C6 7922   3.099   0.040   0.602  0.3708  0.3683 -0.0380
  530TMC3     C 7923   3.131   0.244   0.228  0.1555  0.5492  0.1448
  530TMC3     O 7924   3.137   0.171   0.132 -0.1127 -0.2224 -0.1509
  530TMC3     H 7925   3.194   0.334   0.462  0.3353 -0.7109  1.6478
  530TMC3    H1 7926   3.031   4.719   0.270 -1.3169  1.4420 -0.1610
  530TMC3    H2 7927   3.110   4.729   0.699  0.2364 -0.8493 -0.6153
  530TMC3    C7 7928   2.991   4.586   0.493 -0.3883  0.5883 -0.2981
  530TMC3    C8 7929   3.201   0.240   0.698 -0.2540  0.2343  1.1559
  530TMC3    O1 7930   2.996   4.519   0.391 -0.0482 -0.3531  0.4185
  530TMC3    O2 7931   3.201   0.363   0.700  0.1867  0.4190 -0.4039
  531MPD2     C 7932   1.443   2.730  12.684 -0.2642 -0.5015  0.4600
  531MPD2    C1 7933   1.371   2.800  12.780 -0.1909  0.0296  0.9746
  531MPD2    C2 7934   1.234   2.784  12.799 -0.1793  0.0718 -0.1514
  531MPD2    C3 7935   1.169   2.698  12.714  0.4706 -0.1021  0.1695
  531MPD2    C4 7936   1.239   2.633  12.617  0.9511 -0.1416 -0.3372
  531MPD2    C5 7937   1.374   2.648  12.602  0.1424 -0.2540  0.5742
  531MPD2     H 7938   1.182   2.826  12.884  1.2519 -1.0522  1.2878
  531MPD2    H1 7939   1.180   2.570  12.551 -1.7696  0.8636  1.1313
  531MPD2    H2 7940   1.549   2.745  12.667 -0.5289 -0.6843 -1.4108
  531MPD2    H3 7941   1.428   2.596  12.524  0.6861  1.1090  0.0420
  531MPD2     N 7942   1.029   2.680  12.714 -0.2966 -0.1403 -0.3008
  531MPD2    H5 7943   0.999   2.609  12.647 -1.9974  0.0531  0.2520
  531MPD2    N1 7944   1.454   2.884  12.866  0.6386  0.3067 -0.1448
  531MPD2    H7 7945   1.551   2.883  12.836  0.3953  2.4856 -0.9853
  532TMC3    C1 7946   1.532   3.045  13.016  0.4561 -0.5584  0.2250
  532TMC3    C2 7947   1.485   3.150  13.088  0.1618 -0.0961 -0.3379
  532TMC3    C3 7948   1.534   3.158  13.215  0.0137 -0.2115 -0.7800
  532TMC3    C4 7949   1.627   2.964  13.066  0.3361  0.8779  1.0858
  532TMC3    C5 7950   1.689   2.989  13.184 -0.6630  0.2600  0.2747
  532TMC3    C6 7951   1.642   3.087  13.267 -0.5328 -0.1610 -0.3002
  532TMC3     C 7952   1.420   2.973  12.962  0.3498 -0.3648 -0.1721
  532TMC3     O 7953   1.306   3.016  12.983  0.1765 -0.0219  0.2063
  532TMC3     H 7954   1.410   3.221  13.057 -0.4567 -1.5415 -2.2032
  532TMC3    H1 7955   1.664   2.880  13.007  0.2747 -0.4218  2.9048
  532TMC3    H2 7956   1.686   3.095  13.365  0.3185 -0.3698 -0.6641
  532TMC3    C7 7957   1.804   2.914  13.242 -0.1573  0.8051 -0.7499
  532TMC3    C8 7958   1.436   3.191  13.310  0.5598  0.5639  0.3156
  532TMC3    O1 7959   1.874   2.961  13.331 -0.0922  0.4171 -0.7764
  532TMC3    O2 7960   1.468   3.240  13.416 -0.9655 -0.8833  0.3265
  533TMC3    C1 7961   2.669   0.158  14.224 -0.1047  0.2168 -0.2516
  533TMC3    C2 7962   2.799   0.194  14.254  0.3874 -0.1804  0.4184
  533TMC3    C3 7963   2.819   0.327  14.259 -0.5167 -0.3574  0.0366
  533TMC3    C4 7964   2.561   0.242  14.219 -0.3441 -0.1825  0.6892
  533TMC3    C5 7965   2.583   0.373  14.240 -0.1203 -0.6243 -0.5489
  533TMC3    C6 7966   2.713   0.417  14.250 -0.4717 -0.0440  0.1153
  533TMC3     C 7967   2.644   0.019  14.244 -0.0138 -0.6074 -0.3775
  533TMC3     O 7968   2.731   4.683  14.298  0.2174  0.2870 -0.3608
  533TMC3     H 7969   2.877   0.120  14.246 -2.1337 -2.7258 -0.5316
  533TMC3    H1 7970   2.462   0.213  14.184 -0.3627  0.2547  0.3752
  533TMC3    H2 7971   2.732   0.522  14.268 -0.3816  0.2269 -1.5324
  533TMC3    C7 7972   2.481   0.420  14.326 -0.1883  0.2557  0.1656
  533TMC3    C8 7973   2.957   0.387  14.265 -0.2651 -0.7499 -0.3902
  533TMC3    O1 7974   2.382   0.348  14.337 -0.1011 -0.1065  0.2554
  533TMC3    O2 7975   2.978   0.502  14.246  0.1709 -0.3403  0.3974
  534MPD2     C 7976   1.305   0.535   0.763 -1.0667 -0.1283 -0.0261
  534MPD2    C1 7977   1.283   0.631   0.862  0.3589 -0.1563 -0.3083
  534MPD2    C2 7978   1.149   0.667   0.894  0.5280  0.6836 -0.2643
  534MPD2    C3 7979   1.043   0.614   0.826 -0.3460 -0.1313  0.5233
  534MPD2    C4 7980   1.067   0.518   0.727  0.0607 -0.1167  0.4150
  534MPD2    C5 7981   1.193   0.473   0.706 -0.3108  0.9051 -1.0776
  534MPD2     H 7982   1.141   0.742   0.972 -1.2238  0.3023 -0.0856
  534MPD2    H1 7983   0.982   0.473   0.676  0.6286 -1.3435  0.5586
  534MPD2    H2 7984   1.406   0.513   0.731 -1.0241  3.5959 -2.4957
  534MPD2    H3 7985   1.209   0.399   0.628 -0.3905  0.1076 -0.3316
  534MPD2     N 7986   0.910   0.649   0.859 -0.9404 -0.2681  0.2091
  534MPD2    H5 7987   0.835   0.627   0.795  0.3356 -0.3468 -1.2535
  534MPD2    N1 7988   1.388   0.694   0.935  0.1286  1.0751  0.7862
  534MPD2    H7 7989   1.367   0.761   1.008  1.7968 -0.0431  2.3059
  535TMC3    C1 7990   0.736   0.725   0.984  0.3926  0.4683  0.6500
  535TMC3    C2 7991   0.683   0.652   1.086  0.1739  0.2374  0.4794
  535TMC3    C3 7992   0.547   0.627   1.077  0.0459 -0.0404 -1.3149
  535TMC3    C4 7993   0.663   0.751   0.874 -0.1674 -0.9221  0.4282
  535TMC3    C5 7994   0.526   0.730   0.876  0.2151 -0.4245  0.2415
  535TMC3    C6 7995   0.466   0.669   0.980  0.1278  0.5512  0.2102
  535TMC3     C 7996   0.877   0.722   0.971 -0.5004 -0.5905 -0.1579
  535TMC3     O 7997   0.940   0.738   1.075 -0.2539  0.1926 -0.8036
  535TMC3     H 7998   0.744   0.606   1.163  1.5433 -1.0953 -1.4197
  535TMC3    H1 7999   0.711   0.804   0.792 -1.6893 -2.7736 -1.6478
  535TMC3    H2 8000   0.359   0.654   0.996 -0.5194  1.3901 -3.2545
  535TMC3    C7 8001   0.448   0.760   0.763  0.2041 -0.1016  0.4534
  535TMC3    C8 8002   0.490   0.528   1.156  0.4743  0.6524  0.0151
  535TMC3    O1 8003   0.497   0.745   0.654  0.2065  0.0637 -0.0723
  535TMC3    O2 8004   0.379   0.553   1.195  0.2258  0.2755  0.0986
  536MPD2     C 8005   3.849   4.233  16.196  0.9037  0.6752 -0.3797
  536MPD2    C1 8006   3.719   4.215  16.173  0.2452  0.4576 -0.1845
  536MPD2    C2 8007   3.646   4.290  16.076 -0.3927 -0.0113 -0.5712
  536MPD2    C3 8008   3.713   4.392  16.015  0.5080  0.3927 -0.3737
  536MPD2    C4 8009   3.849   4.411  16.038  0.3664 -0.0031  0.2127
  536MPD2    C5 8010   3.924   4.321  16.115 -0.3652 -0.3810 -0.6442
  536MPD2     H 8011   3.540   4.273  16.061 -0.3626 -0.7371  0.0278
  536MPD2    H1 8012   3.901   4.494  15.991  2.0090 -0.1776  1.7026
  536MPD2    H2 8013   3.890   4.176  16.279  0.3904  1.5169  0.4447
  536MPD2    H3 8014   4.029   4.344  16.129 -0.3736  1.0654 -2.9613
  536MPD2     N 8015   3.643   4.474  15.919 -0.4142 -0.0926  0.1017
  536MPD2    H5 8016   3.703   4.537  15.865  0.7781 -2.1779 -1.0239
  536MPD2    N1 8017   3.653   4.146  16.276 -0.3401  0.6766 -0.5139
  536MPD2    H7 8018   3.712   4.110  16.351 -1.5360 -0.6070 -0.1927
  537TMC3    C1 8019   3.494   4.120  16.433  0.4431 -0.6229 -0.2374
  537TMC3    C2 8020   3.556   4.213  16.518 -0.0597  0.7470 -0.3576
  537TMC3    C3 8021   3.561   4.173  16.652 -0.0139 -0.3287 -0.3030
  537TMC3    C4 8022   3.450   3.998  16.477  0.1665  0.7811 -0.1712
  537TMC3    C5 8023   3.448   3.979  16.612 -0.1286  0.5559  0.0075
  537TMC3    C6 8024   3.505   4.064  16.706  1.1478  0.1528 -0.0830
  537TMC3     C 8025   3.521   4.133  16.291 -0.2682  1.0782 -0.2799
  537TMC3     O 8026   3.422   4.139  16.219  0.1695 -0.4184 -0.2200
  537TMC3     H 8027   3.598   4.305  16.480 -1.6350  0.4252 -2.8624
  537TMC3    H1 8028   3.390   3.930  16.417 -0.6505  0.9807  0.4240
  537TMC3    H2 8029   3.498   4.053  16.814  0.8785  3.0986  0.1815
  537TMC3    C7 8030   3.380   3.861  16.658 -0.2298  0.6473  0.3995
  537TMC3    C8 8031   3.636   4.262  16.750  0.2301 -0.4825 -0.4320
  537TMC3    O1 8032   3.273   3.833  16.604  0.5056 -0.6594 -0.2157
  537TMC3    O2 8033   3.671   4.220  16.858  0.3596  0.0147  0.3086
  538TMC3    C1 8034   0.171   2.977  10.751  0.3652 -0.4505 -0.2733
  538TMC3    C2 8035   0.259   2.879  10.709 -0.7186 -0.0518 -0.2481
  538TMC3    C3 8036   0.245   2.838  10.585 -0.6883  0.2213 -0.5324
  538TMC3    C4 8037   0.080   3.032  10.666  0.0851  0.4642  0.0056
  538TMC3    C5 8038   0.066   2.975  10.545  0.4395  1.1345  0.0366
  538TMC3    C6 8039   0.148   2.878  10.500  0.1590  0.5840  0.6539
  538TMC3     C 8040   0.160   3.008  10.892  0.0970 -0.9184 -0.0811
  538TMC3     O 8041   0.052   3.053  10.925 -0.3843 -0.4216 -0.3973
  538TMC3     H 8042   0.339   2.845  10.774 -1.1510  0.7440  0.7231
  538TMC3    H1 8043   0.002   3.101  10.694 -1.6377 -1.2112 -0.6765
  538TMC3    H2 8044   0.125   2.824  10.409 -0.3958  0.2092  1.0163
  538TMC3    C7 8045   4.686   3.014  10.461 -0.5393  0.1374  0.9133
  538TMC3    C8 8046   0.353   2.784  10.519  0.5460  0.1931  0.3421
  538TMC3    O1 8047   4.621   2.933  10.395 -0.1424 -0.0522  0.8059
  538TMC3    O2 8048   0.432   2.714  10.582  0.3362  0.2289 -0.0229
  539MPD2     C 8049   0.451   2.403  11.402  0.3208  0.3220 -0.2039
  539MPD2    C1 8050   0.369   2.353  11.305 -0.1726  0.0966  0.5025
  539MPD2    C2 8051   0.269   2.436  11.258 -0.3023 -0.6006  0.4223
  539MPD2    C3 8052   0.254   2.565  11.309 -0.3872  0.0807 -0.0554
  539MPD2    C4 8053   0.333   2.607  11.416 -0.4948  0.1399 -0.1628
  539MPD2    C5 8054   0.433   2.528  11.461 -0.3442  0.6183 -0.1359
  539MPD2     H 8055   0.194   2.409  11.184 -1.5987  0.9972  1.1555
  539MPD2    H1 8056   0.317   2.703  11.462 -0.6545 -0.3809  0.8695
  539MPD2    H2 8057   0.533   2.341  11.436  1.6613  3.4346  2.1906
  539MPD2    H3 8058   0.503   2.569  11.532  1.2550  1.2105 -2.0589
  539MPD2     N 8059   0.141   2.650  11.281  0.0127 -0.0166  0.1537
  539MPD2    H5 8060   0.124   2.720  11.352 -0.5682  0.6306 -0.6088
  539MPD2    N1 8061   0.381   2.225  11.247  0.2279 -0.3665  0.0675
  539MPD2    H7 8062   0.293   2.196  11.205 -1.1336  1.0038  2.0025
  540TMC3    C1 8063   4.679   2.715  11.170  0.3579  0.3667 -0.3176
  540TMC3    C2 8064   4.623   2.746  11.049  0.7709 -0.1685 -0.6130
  540TMC3    C3 8065   4.490   2.772  11.042 -0.3263  0.2532  0.9782
  540TMC3    C4 8066   4.600   2.708  11.277 -0.3016  0.0642 -0.4434
  540TMC3    C5 8067   4.471   2.753  11.271 -0.0165 -1.2100  0.9048
  540TMC3    C6 8068   4.412   2.775  11.148  0.0456  0.4983 -0.4697
  540TMC3     C 8069   0.054   2.626  11.174 -0.4535 -0.4711  0.3544
  540TMC3     O 8070   0.062   2.559  11.074 -0.5392  0.6713  0.1076
  540TMC3     H 8071   4.685   2.753  10.960  1.8968  1.9585  0.3443
  540TMC3    H1 8072   4.632   2.661  11.369 -3.8703  1.4103  1.5063
  540TMC3    H2 8073   4.309   2.807  11.136 -1.0146 -2.3072  1.2383
  540TMC3    C7 8074   4.382   2.760  11.392  0.3217  0.5110 -0.3196
  540TMC3    C8 8075   4.430   2.803  10.915  0.1860  0.4581  0.3468
  540TMC3    O1 8076   4.264   2.788  11.369 -0.7792  0.0729 -0.6158
  540TMC3    O2 8077   4.485   2.880  10.840  0.2088  0.1660 -0.5135
  541MPD2     C 8078   2.802   3.384  13.272  0.2078  0.2798  0.3376
  541MPD2    C1 8079   2.865   3.290  13.197  0.1551  0.3230  0.4158
  541MPD2    C2 8080   2.974   3.326  13.117  0.6457 -0.4553  0.5478
  541MPD2    C3 8081   3.018   3.454  13.106  0.2527 -0.0994 -0.0062
  541MPD2    C4 8082   2.954   3.548  13.186 -0.1124 -0.0335 -0.2904
  541MPD2    C5 8083   2.839   3.520  13.258 -0.7715 -0.5333 -0.2857
  541MPD2     H 8084   3.023   3.253  13.054  0.7276 -0.0167  0.1067
  541MPD2    H1 8085   2.996   3.648  13.185  0.0182 -0.0852  0.3606
  541MPD2    H2 8086   2.708   3.366  13.324  0.8171  0.4047  1.4783
  541MPD2    H3 8087   2.788   3.592  13.321  0.0605 -1.2269  1.1757
  541MPD2     N 8088   3.121   3.493  13.019 -0.3200  0.2346  0.2812
  541MPD2    H5 8089   3.144   3.592  13.010 -0.3458  0.1618 -0.6630
  541MPD2    N1 8090   2.835   3.152  13.182  0.3124 -0.1892  0.0721
  541MPD2    H7 8091   2.881   3.094  13.112 -1.4212 -0.4735 -0.8326
  542TMC3    C1 8092   3.219   3.502  12.812 -0.6990 -0.0764  0.1514
  542TMC3    C2 8093   3.312   3.456  12.723 -0.3639 -0.0963  0.3548
  542TMC3    C3 8094   3.316   3.504  12.596  0.3267 -0.0491  0.0567
  542TMC3    C4 8095   3.132   3.603  12.778  0.1048 -0.6971  0.6153
  542TMC3    C5 8096   3.137   3.645  12.649 -0.2111  0.0009 -0.7583
  542TMC3    C6 8097   3.222   3.599  12.560 -0.3211  0.0774  0.7630
  542TMC3     C 8098   3.189   3.417  12.927 -0.2319  0.0433  0.0240
  542TMC3     O 8099   3.205   3.299  12.920 -0.5461 -0.0225 -0.1536
  542TMC3     H 8100   3.375   3.376  12.761 -0.7720 -0.3652  0.4737
  542TMC3    H1 8101   3.058   3.644  12.846 -0.5732  0.3466 -0.7449
  542TMC3    H2 8102   3.220   3.638  12.459 -2.2137  1.0964  1.1938
  542TMC3    C7 8103   3.019   3.700  12.593 -0.2174 -0.3117  0.6703
  542TMC3    C8 8104   3.358   3.426  12.481  1.3327  0.4334 -1.1699
  542TMC3    O1 8105   2.987   3.812  12.627  0.5056  0.2162 -0.1418
  542TMC3    O2 8106   3.306   3.443  12.371  0.1210 -0.4342 -0.2596
  543TMC3    C1 8107   2.483   4.664  17.127  0.2728  0.1112  0.1218
  543TMC3    C2 8108   2.474   4.534  17.171  0.3862 -1.0585 -0.1571
  543TMC3    C3 8109   2.498   4.513  17.304 -0.0037  0.5685 -0.7940
  543TMC3    C4 8110   2.530   0.028  17.209  0.5767  0.3120  0.0370
  543TMC3    C5 8111   2.554   0.003  17.341 -0.0966 -0.7348 -0.5419
  543TMC3    C6 8112   2.540   4.612  17.392  0.2836  0.2322  0.0270
  543TMC3     C 8113   2.488   4.700  16.986 -0.2028 -0.5962 -0.4806
  543TMC3     O 8114   2.531   4.616  16.912 -0.9165 -0.7210 -0.7990
  543TMC3     H 8115   2.437   4.461  17.101  1.3446 -3.0787  1.4432
  543TMC3    H1 8116   2.543   0.124  17.160 -0.1392  0.6741  0.5365
  543TMC3    H2 8117   2.594   4.587  17.483 -1.6821 -1.0109  0.8592
  543TMC3    C7 8118   2.573   0.109  17.439  0.1926 -0.2890  0.8987
  543TMC3    C8 8119   2.483   4.379  17.348 -0.4926  0.5340 -0.5258
  543TMC3    O1 8120   2.562   0.071  17.556 -0.2642 -0.0071 -0.2067
  543TMC3    O2 8121   2.463   4.296  17.260  0.1599 -0.6729 -0.2393
  544MPD2     C 8122   2.423   4.012  17.706 -0.2294 -0.7748 -0.5538
  544MPD2    C1 8123   2.399   4.010  17.571 -0.3187  0.0956 -0.0021
  544MPD2    C2 8124   2.410   4.120  17.494 -0.3781 -0.0676 -0.4653
  544MPD2    C3 8125   2.441   4.238  17.555  0.2071 -0.3795 -0.2387
  544MPD2    C4 8126   2.435   4.247  17.692  0.0652  0.2142 -0.6455
  544MPD2    C5 8127   2.424   4.135   0.028  0.1023 -0.2406 -0.4336
  544MPD2     H 8128   2.416   4.108  17.387  0.6105  0.3645 -0.4549
  544MPD2    H1 8129   2.458   4.341  17.739 -0.3229 -0.8354  1.6741
  544MPD2    H2 8130   2.416   3.919   0.019  0.6311  0.4683  1.5795
  544MPD2    H3 8131   2.427   4.149   0.135  0.9908  1.4284 -0.6869
  544MPD2     N 8132   2.469   4.363  17.485  0.6249 -0.3236  0.2098
  544MPD2    H5 8133   2.490   4.444  17.543 -0.1723 -0.3180  0.4901
  544MPD2    N1 8134   2.374   3.884  17.515  0.6824  0.7491  0.2318
  544MPD2    H7 8135   2.356   3.810  17.582 -1.6018  1.4092  0.3548
  545TMC3    C1 8136   2.337   3.711  17.361  0.2567  0.3251 -0.1555
  545TMC3    C2 8137   2.305   3.673  17.230 -0.6405 -0.0900  0.3618
  545TMC3    C3 8138   2.255   3.545  17.207  0.1172 -0.0205 -0.1201
  545TMC3    C4 8139   2.315   3.628  17.469 -0.0727 -0.3083 -0.5444
  545TMC3    C5 8140   2.258   3.508  17.439  0.3900 -0.1581  0.3749
  545TMC3    C6 8141   2.241   3.456  17.309 -0.9530 -0.7870 -0.6364
  545TMC3     C 8142   2.360   3.851  17.386 -0.0410  0.0162 -0.2147
  545TMC3     O 8143   2.373   3.915  17.284  0.1722  0.3353 -0.2615
  545TMC3     H 8144   2.312   3.743  17.148 -2.6501 -0.6428 -0.2713
  545TMC3    H1 8145   2.353   3.645  17.569 -0.3677  2.7995 -0.9654
  545TMC3    H2 8146   2.194   3.359  17.295 -1.2824 -1.4072  4.6414
  545TMC3    C7 8147   2.301   3.403  17.537 -0.3708  0.2336 -0.3087
  545TMC3    C8 8148   2.218   3.503  17.068 -0.4682 -1.0403 -0.0203
  545TMC3    O1 8149   2.230   3.378  17.636 -0.1774 -0.2766  0.2893
  545TMC3    O2 8150   2.254   3.579  16.981 -0.5571  0.4836  0.6851
  546MPD2     C 8151   4.044   4.500  17.330  0.0097  0.2850  0.0928
  546MPD2    C1 8152   4.019   4.604  17.240  0.3601  0.6011  0.3270
  546MPD2    C2 8153   4.106   4.715  17.247  0.1088  0.1990 -0.3621
  546MPD2    C3 8154   4.205   4.725  17.347  0.3785  0.2799  0.0802
  546MPD2    C4 8155   4.211   4.631  17.447 -0.3328 -0.6055  0.4319
  546MPD2    C5 8156   4.135   4.519  17.431  0.7013  0.4616 -0.3782
  546MPD2     H 8157   4.092   0.050  17.167  0.2862  2.5891  1.7273
  546MPD2    H1 8158   4.274   4.639  17.535 -0.8638 -1.4629  0.8839
  546MPD2    H2 8159   3.977   4.414  17.335 -0.4423  0.7156  1.5326
  546MPD2    H3 8160   4.133   4.434  17.497 -1.7905  1.1089  0.4058
  546MPD2     N 8161   4.290   0.100  17.368 -0.4628 -0.4795  0.5227
  546MPD2    H5 8162   4.349   0.105  17.449  1.4882  0.8365 -0.9806
  546MPD2    N1 8163   3.913   4.583  17.155 -0.3415 -0.7291  0.3135
  546MPD2    H7 8164   3.856   4.501  17.171 -0.2213 -0.5811  1.5093
  547TMC3    C1 8165   3.730   4.637  17.028 -0.4136 -0.5634  0.1590
  547TMC3    C2 8166   3.668   4.712  16.933  0.1554 -0.6759 -0.9093
  547TMC3    C3 8167   3.545   4.664  16.886 -0.5694  0.7408  0.1972
  547TMC3    C4 8168   3.671   4.533  17.088 -0.3645 -0.0037  0.2669
  547TMC3    C5 8169   3.553   4.487  17.036 -0.5301  0.2023  0.0845
  547TMC3    C6 8170   3.481   4.559  16.948  0.4636  0.5453  0.5870
  547TMC3     C 8171   3.857   4.680  17.079 -0.5753 -0.1209 -0.0596
  547TMC3     O 8172   3.879   0.064  17.073  0.2171  0.4459  0.4618
  547TMC3     H 8173   3.725   0.052  16.880 -0.1717 -0.4158 -0.8910
  547TMC3    H1 8174   3.704   4.479  17.176  1.7850  1.5633  0.4144
  547TMC3    H2 8175   3.383   4.524  16.919 -0.3848  0.9949  2.8796
  547TMC3    C7 8176   3.488   4.378  17.100 -0.2791 -0.5259  0.2727
  547TMC3    C8 8177   3.465   0.013  16.798 -0.4698 -0.0600 -0.4617
  547TMC3    O1 8178   3.494   4.371  17.224 -0.0137  0.3096 -0.4901
  547TMC3    O2 8179   3.343   0.002  16.812  0.6508 -0.2000 -0.2619
  548MPD2     C 8180   3.739   0.334  12.728 -0.1135  0.5968 -0.6353
  548MPD2    C1 8181   3.681   0.213  12.695 -0.2120  0.0426  0.1734
  548MPD2    C2 8182   3.745   0.123  12.613 -0.5879 -0.4481 -0.1719
  548MPD2    C3 8183   3.860   0.160  12.547 -0.1564  0.6399  0.8777
  548MPD2    C4 8184   3.905   0.288  12.567  0.0708  0.0710  0.6082
  548MPD2    C5 8185   3.847   0.374  12.664  0.1109  0.1574 -0.5238
  548MPD2     H 8186   3.700   0.025  12.626  0.4509 -1.0192 -0.8581
  548MPD2    H1 8187   3.995   0.324  12.519 -0.7405 -0.7748 -1.5158
  548MPD2    H2 8188   3.695   0.406  12.796  2.0478  0.4457  0.9217
  548MPD2    H3 8189   3.891   0.471  12.684  0.5596  0.1042 -1.2730
  548MPD2     N 8190   3.943   0.069  12.469 -0.0415  0.3591  0.2648
  548MPD2    H5 8191   4.037   0.098  12.446  1.4088 -4.1928  0.5419
  548MPD2    N1 8192   3.542   0.206  12.734 -0.7329  0.0585  0.6786
  548MPD2    H7 8193   3.498   0.283  12.783  1.5669  0.7040  1.7319
  549TMC3    C1 8194   3.312   0.141  12.701  0.1636 -0.1420  0.1399
  549TMC3    C2 8195   3.274   0.261  12.754 -0.1328  0.8431 -0.3123
  549TMC3    C3 8196   3.141   0.293  12.751 -0.9237 -0.2693 -0.8049
  549TMC3    C4 8197   3.214   0.053  12.667 -0.4270 -0.3646  1.0650
  549TMC3    C5 8198   3.077   0.081  12.671  0.2310 -0.1114  0.4570
  549TMC3    C6 8199   3.039   0.211  12.707  0.1232  0.2369 -0.2644
  549TMC3     C 8200   3.457   0.099  12.700 -0.5658  0.1963 -0.3181
  549TMC3     O 8201   3.475   4.718  12.674 -0.4082  0.3328 -0.0595
  549TMC3     H 8202   3.346   0.340  12.772 -0.9146  1.6383 -0.6880
  549TMC3    H1 8203   3.248   4.691  12.637  1.1958  0.3090  0.7382
  549TMC3    H2 8204   2.938   0.223  12.743 -0.0303 -0.3054 -0.5133
  549TMC3    C7 8205   2.972   4.715  12.694 -0.1330 -0.1479  0.2197
  549TMC3    C8 8206   3.117   0.433  12.768  0.3611  0.6531 -0.2859
  549TMC3    O1 8207   2.873   0.013  12.765 -0.1001 -0.2044  0.5471
  549TMC3    O2 8208   3.192   0.489  12.848  0.3775  0.1331 -0.2833
  550TMC3    C1 8209   3.050   2.711  12.031  0.0543 -0.0632  0.2802
  550TMC3    C2 8210   3.104   2.808  12.107  0.2576  0.4444 -1.1229
  550TMC3    C3 8211   3.017   2.872  12.187  0.4421  0.0322  0.9828
  550TMC3    C4 8212   2.924   2.661  12.053  1.1219  0.1941  0.6801
  550TMC3    C5 8213   2.838   2.713  12.143 -0.0106  0.1027 -0.0811
  550TMC3    C6 8214   2.888   2.826  12.208  0.9039  0.0968 -0.2676
  550TMC3     C 8215   3.109   2.693  11.901 -0.3121  0.1237  1.0333
  550TMC3     O 8216   3.230   2.686  11.889 -0.3375 -0.5315  0.1760
  550TMC3     H 8217   3.201   2.852  12.085 -0.6040  2.4890 -0.8275
  550TMC3    H1 8218   2.882   2.580  11.994  0.3794  3.6117 -3.5068
  550TMC3    H2 8219   2.831   2.859  12.294 -1.0364 -3.2589 -0.2676
  550TMC3    C7 8220   2.746   2.632  12.219 -0.2220  0.2150  0.9987
  550TMC3    C8 8221   3.065   2.981  12.270 -0.8152  0.1752 -0.0507
  550TMC3    O1 8222   2.767   2.512  12.241 -0.1545 -0.1032  0.1051
  550TMC3    O2 8223   3.174   2.960  12.321 -0.1007 -0.3474 -0.8925
  551TMC3    C1 8224   4.516   1.229  13.280 -0.2837 -0.3763 -0.6372
  551TMC3    C2 8225   4.596   1.124  13.255  0.3065 -0.4848  0.4851
  551TMC3    C3 8226   4.721   1.124  13.311 -0.1936  0.4922 -0.2731
  551TMC3    C4 8227   4.550   1.341  13.355 -0.3789  0.7644  0.1511
  551TMC3    C5 8228   4.680   1.343  13.392 -0.0931  0.0219  0.5162
  551TMC3    C6 8229   0.021   1.231  13.380 -1.1073 -0.6146 -0.1769
  551TMC3     C 8230   4.380   1.215  13.223 -0.3269  0.7849  0.0775
  551TMC3     O 8231   4.345   1.097  13.206 -0.2358 -0.0719  0.2398
  551TMC3     H 8232   4.573   1.056  13.173 -1.1345 -1.3556  1.6006
  551TMC3    H1 8233   4.484   1.422  13.384  2.0510  3.0160 -0.5601
  551TMC3    H2 8234   0.117   1.221  13.430 -1.3799  0.3625  0.5289
  551TMC3    C7 8235   4.709   1.427  13.506  0.4605  0.1765  0.0763
  551TMC3    C8 8236   0.082   1.059  13.226 -0.4176 -0.1703 -0.4671
  551TMC3    O1 8237   0.039   1.366  13.586 -0.3060 -0.0927 -0.1407
  551TMC3    O2 8238   0.062   0.943  13.191  0.0916 -0.2035 -0.5492
  552MPD2     C 8239   1.958   3.072  13.809  0.2292 -0.1180  0.1708
  552MPD2    C1 8240   1.876   3.030  13.912  0.7230 -0.1236 -0.2577
  552MPD2    C2 8241   1.931   3.009  14.043 -0.0133 -0.1834 -0.3306
  552MPD2    C3 8242   2.066   3.033  14.059  0.1645 -0.7324  0.0767
  552MPD2    C4 8243   2.145   3.076  13.952 -0.5243  0.1977  0.3384
  552MPD2    C5 8244   2.096   3.090  13.827 -0.8064 -0.4383 -0.3615
  552MPD2     H 8245   1.867   2.984  14.127  1.6024 -2.7380  0.1655
  552MPD2    H1 8246   2.246   3.113  13.964 -0.1837 -1.2603  1.9045
  552MPD2    H2 8247   1.920   3.087  13.709  0.2574  2.4928  0.5443
  552MPD2    H3 8248   2.164   3.126  13.751 -0.1110 -1.7409 -0.3513
  552MPD2     N 8249   2.131   3.024  14.186  0.3940 -0.0701 -0.1102
  552MPD2    H5 8250   2.226   3.059  14.182  0.4202  0.1035  2.2854
  552MPD2    N1 8251   1.741   3.001  13.894  0.0157  0.0009  0.7004
  552MPD2    H7 8252   1.701   2.939  13.963 -0.2422 -0.8364 -0.1988
  553TMC3    C1 8253   1.559   2.949  13.744 -0.3916  0.1678 -0.5021
  553TMC3    C2 8254   1.532   2.935  13.614  1.0380 -0.2695 -0.0321
  553TMC3    C3 8255   1.415   2.882  13.569  0.6619 -0.0793  0.9412
  553TMC3    C4 8256   1.475   2.895  13.838  0.1097 -0.5960  0.0440
  553TMC3    C5 8257   1.357   2.841  13.790 -0.2345 -0.6009  0.0386
  553TMC3    C6 8258   1.329   2.830  13.660 -0.0877 -0.2976 -0.1049
  553TMC3     C 8259   1.672   3.036  13.783  0.0946  0.2340  0.4701
  553TMC3     O 8260   1.699   3.124  13.708  0.2524 -0.2887 -0.2239
  553TMC3     H 8261   1.604   2.965  13.539  1.0123  0.4612  0.2340
  553TMC3    H1 8262   1.493   2.913  13.944  0.2297 -0.7885  0.0573
  553TMC3    H2 8263   1.245   2.773  13.622 -1.2773  0.8745  0.7572
  553TMC3    C7 8264   1.306   2.732  13.871 -0.4964  0.4783  1.1017
  553TMC3    C8 8265   1.416   2.830  13.430 -0.4555  1.0123 -0.3692
  553TMC3    O1 8266   1.213   2.666  13.824 -0.2849 -0.2751  0.6424
  553TMC3    O2 8267   1.518   2.811  13.366 -0.2682  0.0544 -0.7273
  554TMC3    C1 8268   3.874   2.534  11.423 -0.2096  0.6715 -0.8138
  554TMC3    C2 8269   3.773   2.461  11.360 -0.7157 -0.3661  0.3320
  554TMC3    C3 8270   3.786   2.446  11.223  0.4923  0.6369 -0.1446
  554TMC3    C4 8271   3.968   2.600  11.346  0.1523  0.2180 -0.3484
  554TMC3    C5 8272   3.978   2.580  11.213 -0.2201  0.4984  0.1094
  554TMC3    C6 8273   3.880   2.504  11.148 -0.7559  0.4205 -0.1175
  554TMC3     C 8274   3.906   2.523  11.564  0.0703  0.3982  0.1065
  554TMC3     O 8275   3.991   2.597  11.614 -0.4258  0.1360 -0.0495
  554TMC3     H 8276   3.688   2.419  11.413 -1.3171  0.3345 -0.0928
  554TMC3    H1 8277   4.044   2.656  11.400 -0.0455  0.2276 -0.0785
  554TMC3    H2 8278   3.881   2.496  11.040  0.2379  0.5729 -0.1227
  554TMC3    C7 8279   4.045   2.676  11.134  0.0420  0.0060  0.0846
  554TMC3    C8 8280   3.690   2.367  11.143  0.7195  0.3025  0.3899
  554TMC3    O1 8281   4.080   2.636  11.029  0.3607 -0.0183 -0.2468
  554TMC3    O2 8282   3.691   2.393  11.025  0.2133  0.3927  0.6565
  555TMC3    C1 8283   2.693   1.705  14.618  0.6986 -0.2683 -0.3047
  555TMC3    C2 8284   2.662   1.757  14.741  0.1987 -0.0059  0.0711
  555TMC3    C3 8285   2.737   1.720  14.849 -0.2296 -0.1034 -0.9603
  555TMC3    C4 8286   2.792   1.609  14.603 -0.0007 -0.4062  0.4835
  555TMC3    C5 8287   2.863   1.577  14.714  0.5017 -0.1489  0.3269
  555TMC3    C6 8288   2.835   1.622  14.842 -0.4204 -0.0373  0.1101
  555TMC3     C 8289   2.634   1.756  14.489 -0.0353  0.1580 -0.4447
  555TMC3     O 8290   2.692   1.731  14.381 -0.3857  0.1312 -0.0163
  555TMC3     H 8291   2.596   1.843  14.750 -3.5421 -2.9147  0.4921
  555TMC3    H1 8292   2.821   1.567  14.507  2.5492  0.4209  0.8782
  555TMC3    H2 8293   2.910   1.611  14.920 -0.1082  1.2058 -0.0270
  555TMC3    C7 8294   2.962   1.474  14.706  0.2223 -0.4061 -0.3451
  555TMC3    C8 8295   2.711   1.791  14.969  0.7828  0.3716 -0.1497
  555TMC3    O1 8296   3.030   1.465  14.605 -0.1594  0.5619 -0.4189
  555TMC3    O2 8297   2.659   1.901  14.969 -0.1043 -0.2379  0.2237
  556MPD2     C 8298   0.809   3.680  10.235  0.2231  0.0181 -1.1806
  556MPD2    C1 8299   0.799   3.557  10.284 -0.0647 -0.5419 -0.3303
  556MPD2    C2 8300   0.747   3.455  10.199 -0.6542  0.4295 -0.1284
  556MPD2    C3 8301   0.749   3.480  10.062 -0.0805  0.9207  0.3352
  556MPD2    C4 8302   0.766   3.605  10.014  0.7438 -0.4676 -0.1013
  556MPD2    C5 8303   0.788   3.708  10.106 -0.3892  0.3136 -0.2985
  556MPD2     H 8304   0.737   3.355  10.239  0.4242  1.4490  2.6630
  556MPD2    H1 8305   0.768   3.630   9.908 -0.6575  1.2045  0.2713
  556MPD2    H2 8306   0.839   3.763  10.298 -0.9842 -1.9194  1.9201
  556MPD2    H3 8307   0.811   3.809  10.077  0.4012 -0.3577 -2.0205
  556MPD2     N 8308   0.695   3.378   9.976 -0.4732 -0.1615  0.2694
  556MPD2    H5 8309   0.678   3.286  10.017 -0.5635  0.0877  0.7997
  556MPD2    N1 8310   0.848   3.530  10.414  0.6870  0.4217  0.5751
  556MPD2    H7 8311   0.842   3.432  10.441 -0.2609  0.3189 -0.0111
  557TMC3    C1 8312   0.604   3.280   9.774  1.0800  0.7281  0.4973
  557TMC3    C2 8313   0.509   3.315   9.684 -0.3167  0.7335  0.0705
  557TMC3    C3 8314   0.402   3.228   9.664 -0.6521  0.4953  0.6215
  557TMC3    C4 8315   0.599   3.159   9.837 -0.8193 -0.8639 -0.0823
  557TMC3    C5 8316   0.495   3.073   9.811  0.5788 -0.3709 -0.2771
  557TMC3    C6 8317   0.395   3.109   9.727  0.4380  0.4838 -0.5940
  557TMC3     C 8318   0.674   3.385   9.840  0.0224  0.2893  0.8255
  557TMC3     O 8319   0.685   3.477   9.760 -0.2949  0.1815 -0.4041
  557TMC3     H 8320   0.513   3.408   9.629  0.3347  0.5379 -0.2091
  557TMC3    H1 8321   0.675   3.126   9.907  0.1160 -3.7588 -2.5158
  557TMC3    H2 8322   0.320   3.032   9.713 -0.3988  1.1465  0.2086
  557TMC3    C7 8323   0.460   2.976   9.914  0.0039 -0.3259  0.1402
  557TMC3    C8 8324   0.285   3.277   9.604 -0.3687  0.3323 -0.5975
  557TMC3    O1 8325   0.348   2.979   9.960 -0.1503  0.1699 -0.7068
  557TMC3    O2 8326   0.279   3.399   9.596 -0.0312 -0.1067 -0.4385
  558TMC3    C1 8327   3.080   1.520  10.303  0.1619  0.0590 -0.3334
  558TMC3    C2 8328   2.965   1.535  10.381  1.0986 -0.0619  0.6488
  558TMC3    C3 8329   2.850   1.502  10.319 -0.3057 -0.1193  0.3629
  558TMC3    C4 8330   3.073   1.486  10.171 -0.1525 -0.0363 -0.0045
  558TMC3    C5 8331   2.955   1.449  10.117  0.1971  0.2065  0.5531
  558TMC3    C6 8332   2.837   1.465  10.191  0.3852 -0.2698  1.4268
  558TMC3     C 8333   3.220   1.530  10.361  0.4860  0.1330 -0.0449
  558TMC3     O 8334   3.314   1.506  10.289  0.3946  0.3766 -0.6464
  558TMC3     H 8335   2.968   1.568  10.484  0.7486 -0.6410  0.8449
  558TMC3    H1 8336   3.163   1.465  10.114 -1.5688  1.6094 -2.8634
  558TMC3    H2 8337   2.738   1.453  10.148  1.1687  0.3751 -0.5886
  558TMC3    C7 8338   2.952   1.455   9.971  0.0755  0.5134 -0.7071
  558TMC3    C8 8339   2.732   1.526  10.401 -0.0233 -0.2567 -0.0643
  558TMC3    O1 8340   3.052   1.489   9.908  0.9264  0.5106 -0.3945
  558TMC3    O2 8341   2.638   1.566  10.335  0.3866 -0.0104 -0.1163
  559MPD2     C 8342   3.158   1.876  10.569  0.0038  0.5189  0.6169
  559MPD2    C1 8343   3.112   1.836  10.691  0.6854  0.1529  0.0831
  559MPD2    C2 8344   3.201   1.833  10.789 -0.0251 -0.3792 -0.3977
  559MPD2    C3 8345   3.334   1.863  10.772  0.2228  0.4779  0.2580
  559MPD2    C4 8346   3.378   1.902  10.647 -0.2405  0.0338 -1.0524
  559MPD2    C5 8347   3.291   1.903  10.547  0.4749 -0.5225 -0.1298
  559MPD2     H 8348   3.160   1.817  10.888  0.7451  2.3928  0.3914
  559MPD2    H1 8349   3.483   1.916  10.626 -0.2198 -1.5758 -2.0527
  559MPD2    H2 8350   3.090   1.902  10.488  0.2649  0.8167  0.4934
  559MPD2    H3 8351   3.333   1.931  10.451  0.4391 -1.9082 -0.5501
  559MPD2     N 8352   3.424   1.838  10.880  0.1594  0.0511 -0.0291
  559MPD2    H5 8353   3.380   1.788  10.957 -1.1115 -0.8363 -1.3092
  559MPD2    N1 8354   2.969   1.830  10.701  1.1288  0.2079  0.0693
  559MPD2    H7 8355   2.914   1.841  10.616  2.7524 -0.6319 -1.0817
  560TMC3    C1 8356   3.627   1.823  10.985  0.3693 -0.2914 -0.0226
  560TMC3    C2 8357   3.557   1.725  11.052  0.5189  0.2442  0.5123
  560TMC3    C3 8358   3.560   1.727  11.192  0.1680 -0.0481  0.2303
  560TMC3    C4 8359   3.707   1.909  11.051 -0.0912 -0.1907  0.1945
  560TMC3    C5 8360   3.722   1.907  11.191 -0.2247 -0.2401 -0.2407
  560TMC3    C6 8361   3.639   1.815  11.257 -0.3378 -0.1671 -0.0245
  560TMC3     C 8362   3.562   1.869  10.871  0.1590  0.2382  0.3146
  560TMC3     O 8363   3.627   1.944  10.793  0.5038 -0.2769  0.0558
  560TMC3     H 8364   3.506   1.646  10.998 -0.7909 -0.9976  3.5774
  560TMC3    H1 8365   3.744   1.993  10.993 -0.4530 -1.4891 -1.9367
  560TMC3    H2 8366   3.660   1.805  11.363 -0.5607 -0.6200 -0.0217
  560TMC3    C7 8367   3.816   1.985  11.262 -0.3576  0.2530 -0.3590
  560TMC3    C8 8368   3.450   1.647  11.248  0.2803  0.4884 -0.1991
  560TMC3    O1 8369   3.801   1.999  11.385 -0.2098  0.1471  0.2529
  560TMC3    O2 8370   3.359   1.621  11.163 -0.4772  0.1548  0.1108
  561TMC3    C1 8371   0.646   1.209  11.438  0.0606 -0.0251  0.2037
  561TMC3    C2 8372   0.575   1.202  11.557  0.4063  0.1168 -0.3217
  561TMC3    C3 8373   0.589   1.294  11.659 -0.7862 -0.0172  0.2810
  561TMC3    C4 8374   0.723   1.318  11.417 -0.1829 -1.0718  0.0649
  561TMC3    C5 8375   0.742   1.401  11.521  0.0554 -0.2680  0.3630
  561TMC3    C6 8376   0.680   1.400  11.643 -0.1536 -0.1042 -0.0233
  561TMC3     C 8377   0.618   1.113  11.336  0.2773 -0.0403 -0.2881
  561TMC3     O 8378   0.528   1.035  11.359  0.3821 -0.0128  0.1808
  561TMC3     H 8379   0.518   1.111  11.569  0.4174 -0.0303 -1.3704
  561TMC3    H1 8380   0.776   1.339  11.325  0.0564  2.5031  0.9974
  561TMC3    H2 8381   0.692   1.472  11.723 -1.5862 -1.1674  1.1714
  561TMC3    C7 8382   0.750   1.534  11.474  0.2919 -0.9032  0.7198
  561TMC3    C8 8383   0.535   1.263  11.790  0.0042  0.8844 -0.2224
  561TMC3    O1 8384   0.675   1.621  11.526 -0.2359 -0.3881  0.3096
  561TMC3    O2 8385   0.519   1.144  11.821 -0.3808 -0.2474  0.0845
  562TMC3    C1 8386   2.721   2.129  16.385 -0.5541 -0.3089 -0.1738
  562TMC3    C2 8387   2.667   2.255  16.390  0.0423  0.8312 -0.0759
  562TMC3    C3 8388   2.561   2.291  16.308  0.1699  0.5457 -0.3572
  562TMC3    C4 8389   2.653   2.033  16.319  0.2056 -0.1561 -0.0661
  562TMC3    C5 8390   2.537   2.063  16.245  0.1042  0.7173  0.5325
  562TMC3    C6 8391   2.500   2.195  16.237 -0.2521  0.1055  0.2688
  562TMC3     C 8392   2.863   2.123  16.426  0.0247 -0.5373 -0.2908
  562TMC3     O 8393   2.901   2.190  16.520  0.1071 -0.5412  0.0087
  562TMC3     H 8394   2.717   2.332  16.448  1.5305  0.7775 -1.2775
  562TMC3    H1 8395   2.695   1.933  16.316  4.2442  1.5718 -0.1892
  562TMC3    H2 8396   2.416   2.213  16.170  0.7668  0.0017 -1.0300
  562TMC3    C7 8397   2.453   1.959  16.192  0.5421 -0.7352 -0.0358
  562TMC3    C8 8398   2.551   2.435  16.269  0.8229 -0.2979  0.1507
  562TMC3    O1 8399   2.346   1.993  16.138  0.4153  0.4668  0.2090
  562TMC3    O2 8400   2.595   2.511  16.353  0.3079 -0.1374  0.4548
  563MPD2     C 8401   4.644   3.272  15.719 -0.0682 -0.0392  0.0011
  563MPD2    C1 8402   4.702   3.364  15.803  0.1756  0.0029 -0.1246
  563MPD2    C2 8403   0.099   3.359  15.829 -0.0560 -0.0403  0.8156
  563MPD2    C3 8404   0.175   3.261  15.769  1.0068 -0.1468  0.1512
  563MPD2    C4 8405   0.113   3.183  15.677  0.2812  0.6090  0.1131
  563MPD2    C5 8406   4.720   3.176  15.659  0.6935  0.0487  0.2030
  563MPD2     H 8407   0.147   3.420  15.906  2.5201  0.6691 -1.3304
  563MPD2    H1 8408   0.169   3.106  15.624  0.6954  0.2336  1.0975
  563MPD2    H2 8409   4.537   3.269  15.699  0.0245  1.2524 -0.6838
  563MPD2    H3 8410   4.672   3.102  15.596 -1.0028  1.0628  0.3031
  563MPD2     N 8411   0.318   3.251  15.794  0.9880  0.4343 -0.2682
  563MPD2    H5 8412   0.346   3.312  15.870 -2.2144 -1.9826  2.8500
  563MPD2    N1 8413   4.607   3.442  15.862  0.1492  0.5482  0.0883
  563MPD2    H7 8414   4.511   3.422  15.833  0.9317 -1.5860 -1.0124
  564TMC3    C1 8415   4.522   3.550  16.047  0.0842 -0.2027 -0.2349
  564TMC3    C2 8416   4.415   3.488  15.999 -0.4745 -0.2702  0.2319
  564TMC3    C3 8417   4.365   3.378  16.065 -0.6429  0.3720 -0.5572
  564TMC3    C4 8418   4.574   3.512  16.167 -0.1545  0.0871 -0.0871
  564TMC3    C5 8419   4.527   3.397  16.227  0.2643 -0.0903  0.1635
  564TMC3    C6 8420   4.416   3.341  16.183 -0.4784 -0.1385 -0.5742
  564TMC3     C 8421   4.630   3.532  15.957  1.0820 -0.5454 -0.5691
  564TMC3     O 8422   0.006   3.580  15.985 -0.2523 -0.0647 -0.4823
  564TMC3     H 8423   4.371   3.530  15.910  0.8844 -0.0261 -0.3295
  564TMC3    H1 8424   4.672   3.553  16.189  0.0120 -0.0098 -0.6596
  564TMC3    H2 8425   4.362   3.264  16.238 -2.1397  0.1346 -1.8172
  564TMC3    C7 8426   4.644   3.307  16.240 -0.2259 -0.9971 -0.0602
  564TMC3    C8 8427   4.305   3.269  15.993 -0.1205  0.0140 -0.4802
  564TMC3    O1 8428   0.004   3.346  16.307  0.3045 -0.2405  0.2644
  564TMC3    O2 8429   4.325   3.162  16.046  0.5952 -0.7566 -0.4475
  565TMC3    C1 8430   0.624   0.261  10.559 -0.2859  0.1586  0.4406
  565TMC3    C2 8431   0.674   0.147  10.500 -0.2798  0.8265 -0.1295
  565TMC3    C3 8432   0.625   0.120  10.375 -0.3365 -0.7126  0.0110
  565TMC3    C4 8433   0.538   0.351  10.498  0.6939  0.1033  1.0804
  565TMC3    C5 8434   0.490   0.312  10.376  0.2742 -0.2642 -0.8690
  565TMC3    C6 8435   0.543   0.205  10.311 -0.5116  0.3992  0.7456
  565TMC3     C 8436   0.679   0.295  10.684  0.4564  0.3576 -0.0225
  565TMC3     O 8437   0.798   0.260  10.696 -0.2916 -0.1637  0.2164
  565TMC3     H 8438   0.760   0.097  10.543 -2.6197 -1.6737  1.5853
  565TMC3    H1 8439   0.510   0.448  10.537  1.3938  0.2520  1.2054
  565TMC3    H2 8440   0.502   0.184  10.213 -2.1009  1.4691  1.1926
  565TMC3    C7 8441   0.377   0.383  10.312  0.7829  0.2740  0.4600
  565TMC3    C8 8442   0.662   4.731  10.304  0.2165 -0.2718  0.0642
  565TMC3    O1 8443   0.355   0.361  10.192  0.2245 -0.1873 -0.1821
  565TMC3    O2 8444   0.650   4.722  10.189 -0.1687 -0.2716 -0.5252
  566MPD2     C 8445   2.349   1.073  14.273  0.2584 -0.5444 -0.0596
  566MPD2    C1 8446   2.391   1.019  14.154 -0.0665  0.3749  0.1969
  566MPD2    C2 8447   2.302   0.966  14.068  0.1193 -0.0522  0.0724
  566MPD2    C3 8448   2.165   0.979  14.083 -0.1620 -1.0426  0.6187
  566MPD2    C4 8449   2.126   1.033  14.206 -0.4684 -0.0198  1.7589
  566MPD2    C5 8450   2.214   1.076  14.308 -0.9013 -0.7967 -0.2886
  566MPD2     H 8451   2.337   0.911  13.981 -0.1467 -0.1007 -0.0033
  566MPD2    H1 8452   2.019   1.039  14.222 -0.5265  0.4709  1.1772
  566MPD2    H2 8453   2.427   1.107  14.341 -0.4538 -0.7588  0.8555
  566MPD2    H3 8454   2.177   1.113  14.403 -1.2220 -1.7170 -0.0502
  566MPD2     N 8455   2.087   0.950  13.969  0.4880  0.1629  0.1537
  566MPD2    H5 8456   2.136   0.931  13.882  0.4922  1.8965 -0.2143
  566MPD2    N1 8457   2.523   1.050  14.107  0.0433  0.0168 -0.6806
  566MPD2    H7 8458   2.578   1.125  14.148 -2.5467 -0.7028  4.0740
  567TMC3    C1 8459   2.700   1.096  13.971 -0.0646 -0.4704 -0.1931
  567TMC3    C2 8460   2.710   1.161  13.857 -0.3012 -0.0901 -0.5382
  567TMC3    C3 8461   2.794   1.274  13.865 -0.3373  0.2500 -0.6081
  567TMC3    C4 8462   2.762   1.124  14.086  0.3847 -0.6125  0.2131
  567TMC3    C5 8463   2.850   1.224  14.093  0.0406  0.7993  0.2200
  567TMC3    C6 8464   2.867   1.307  13.981 -0.0429 -0.4003 -0.0601
  567TMC3     C 8465   2.576   1.031  13.984 -0.2542  0.8225 -0.3110
  567TMC3     O 8466   2.533   0.970  13.889  0.4193 -0.6660  0.1953
  567TMC3     H 8467   2.655   1.131  13.768  0.8536 -0.6294 -1.0779
  567TMC3    H1 8468   2.768   1.034  14.147  1.1266 -0.7598 -0.0690
  567TMC3    H2 8469   2.919   1.401  13.990 -3.3778  1.6374 -1.9519
  567TMC3    C7 8470   2.868   1.276  14.225  0.5915  0.1874 -0.0562
  567TMC3    C8 8471   2.762   1.362  13.757 -0.2318 -0.3984 -0.4258
  567TMC3    O1 8472   2.827   1.393  14.241  0.5850 -0.1449 -0.5633
  567TMC3    O2 8473   2.658   1.346  13.693  0.4521  0.4805  0.3986
  568MPD2     C 8474   0.021   1.921  15.787 -0.0445 -0.6269 -0.4972
  568MPD2    C1 8475   4.697   1.949  15.906  1.0386  0.3468 -0.3283
  568MPD2    C2 8476   4.615   2.060  15.913  0.1514  0.2376 -0.4820
  568MPD2    C3 8477   4.587   2.133  15.800  0.1801 -0.2186 -0.4208
  568MPD2    C4 8478   4.633   2.083  15.672  1.1836  0.0697  0.0044
  568MPD2    C5 8479   4.724   1.981  15.668 -0.4617  0.9875 -0.1479
  568MPD2     H 8480   4.572   2.097  16.006  1.0355 -1.2469  0.5140
  568MPD2    H1 8481   4.616   2.123  15.572  0.7340 -2.5062 -0.9436
  568MPD2    H2 8482   0.094   1.842  15.777 -0.3922 -0.5771 -3.5750
  568MPD2    H3 8483   0.048   1.960  15.581 -0.1431  1.0152  0.0678
  568MPD2     N 8484   4.519   2.265  15.799 -0.1231  0.3713 -0.6333
  568MPD2    H5 8485   4.483   2.303  15.886  0.2843 -0.3304 -0.1619
  568MPD2    N1 8486   0.007   1.884  16.028  0.3052  0.0001  0.2823
  568MPD2    H7 8487   0.067   1.803  16.013  0.9339  0.7988 -1.5846
  569TMC3    C1 8488   4.478   2.485  15.719 -0.1868 -0.3082  0.1109
  569TMC3    C2 8489   4.533   2.529  15.838 -0.1349 -0.5512 -0.6890
  569TMC3    C3 8490   4.554   2.665  15.852 -0.2929 -0.2965 -0.2654
  569TMC3    C4 8491   4.477   2.568  15.608 -0.5362 -0.2323  0.4066
  569TMC3    C5 8492   4.505   2.702  15.618 -0.2002 -0.1994 -0.7023
  569TMC3    C6 8493   4.559   2.744  15.741  0.3236 -0.0527 -0.1856
  569TMC3     C 8494   4.501   2.345  15.690 -0.1658  0.6780  0.0442
  569TMC3     O 8495   4.505   2.311  15.571 -0.1144 -0.1457  0.5282
  569TMC3     H 8496   4.536   2.474  15.932  1.6206 -1.0271 -1.0175
  569TMC3    H1 8497   4.427   2.539  15.516  0.6373  1.7279 -0.8602
  569TMC3    H2 8498   4.589   2.848  15.752  2.0599 -0.1502 -3.8449
  569TMC3    C7 8499   4.420   2.800  15.552 -0.2290 -0.1813 -0.2175
  569TMC3    C8 8500   4.487   2.733  15.959 -0.0993 -0.0841  0.0330
  569TMC3    O1 8501   4.389   2.787  15.432  0.6463  0.1929 -0.0245
  569TMC3    O2 8502   4.407   2.808  15.921 -0.0131 -0.2317  0.3239
  570TMC3    C1 8503   4.307   0.905  15.971 -0.0351  0.2335  0.1609
  570TMC3    C2 8504   4.351   0.896  15.839 -0.3246 -0.2585  0.1065
  570TMC3    C3 8505   4.446   0.991  15.803  0.9716 -0.1524  0.6305
  570TMC3    C4 8506   4.342   1.004  16.058 -0.5256 -0.5417 -0.3196
  570TMC3    C5 8507   4.420   1.104  16.006 -0.2989  0.3907  0.6775
  570TMC3    C6 8508   4.470   1.101  15.883 -0.1756 -0.1279 -0.2431
  570TMC3     C 8509   4.218   0.804  16.022 -0.5172  0.3005 -0.3987
  570TMC3     O 8510   4.222   0.690  15.970 -0.1844 -0.2935 -0.3004
  570TMC3     H 8511   4.323   0.810  15.779 -0.4739  1.2025 -1.9241
  570TMC3    H1 8512   4.307   1.006  16.161 -2.1169  2.0838 -0.8945
  570TMC3    H2 8513   4.535   1.181  15.848  1.2234 -1.2172 -0.1406
  570TMC3    C7 8514   4.448   1.218  16.097  0.5387  0.3948  0.6839
  570TMC3    C8 8515   4.488   1.005  15.669 -1.1920 -0.3405  0.5766
  570TMC3    O1 8516   4.458   1.189  16.214  0.4006  0.5561 -0.3908
  570TMC3    O2 8517   4.512   1.116  15.632 -0.4208  0.3221  0.6253
  571MPD2     C 8518   1.913   2.378  17.284  0.8160  0.5365  0.3176
  571MPD2    C1 8519   1.852   2.294  17.373  0.2621 -0.0342  0.1284
  571MPD2    C2 8520   1.821   2.356  17.498 -0.4741 -0.6101 -0.1776
  571MPD2    C3 8521   1.827   2.493  17.520  0.1269 -0.0336 -0.1071
  571MPD2    C4 8522   1.873   2.575  17.415 -0.1874 -0.1409  0.0682
  571MPD2    C5 8523   1.911   2.510  17.298  0.2750  0.8187 -0.9578
  571MPD2     H 8524   1.785   2.287  17.573 -0.1987  1.1359  1.5693
  571MPD2    H1 8525   1.889   2.681  17.424 -0.6085 -0.2744  2.5144
  571MPD2    H2 8526   1.956   2.335  17.194  2.1568  1.4296  0.5254
  571MPD2    H3 8527   1.940   2.571  17.213 -0.0148  0.0984 -1.5749
  571MPD2     N 8528   1.796   2.555  17.643  0.3841  0.5249 -0.4613
  571MPD2    H5 8529   1.788   2.656  17.633 -1.1199  0.5326  0.8226
  571MPD2    N1 8530   1.846   2.151  17.357  0.5990 -0.4039  0.3589
  571MPD2    H7 8531   1.901   2.111  17.282  1.2402 -1.2419  1.2853
  572TMC3    C1 8532   1.775   2.571   0.130  0.4124  0.0053  0.5179
  572TMC3    C2 8533   1.864   2.532   0.234 -0.3816  0.6768  0.4290
  572TMC3    C3 8534   1.918   2.631   0.308  0.1934  0.1781  0.0832
  572TMC3    C4 8535   1.729   2.696   0.132  0.0841 -0.7286 -0.2857
  572TMC3    C5 8536   1.786   2.793   0.207  0.0123 -0.8038 -0.4295
  572TMC3    C6 8537   1.887   2.759   0.294  0.3935 -0.0502 -0.3846
  572TMC3     C 8538   1.759   2.488   0.016 -0.3500 -0.8928  0.2754
  572TMC3     O 8539   1.768   2.368   0.037 -0.5013  0.4698  0.1637
  572TMC3     H 8540   1.916   2.437   0.224 -2.4436 -0.6605  2.4164
  572TMC3    H1 8541   1.661   2.731   0.055 -0.4587 -1.2181 -0.0309
  572TMC3    H2 8542   1.948   2.832   0.345 -1.3273  1.1793 -0.0972
  572TMC3    C7 8543   1.777   2.935   0.183  0.4511  0.2886 -0.5381
  572TMC3    C8 8544   2.048   2.602   0.362  0.0872 -0.3679  0.2293
  572TMC3    O1 8545   1.742   2.975   0.072  0.1808 -0.2365 -0.4603
  572TMC3    O2 8546   2.136   2.692   0.345 -0.4550 -0.0845 -0.1760
  573MPD2     C 8547   3.035   2.758   0.259 -0.6377  0.2660  0.9586
  573MPD2    C1 8548   3.068   2.878   0.202 -0.1224  0.3862 -0.3494
  573MPD2    C2 8549   3.120   2.883   0.072  0.3032 -0.3515  0.2295
  573MPD2    C3 8550   3.109   2.775  17.741 -0.5298  0.6489  0.2264
  573MPD2    C4 8551   3.076   2.654   0.052  0.7434 -0.4912  0.0031
  573MPD2    C5 8552   3.030   2.648   0.182  0.0126 -0.3853  0.4412
  573MPD2     H 8553   3.141   2.978   0.024 -3.3325  2.0002  3.2689
  573MPD2    H1 8554   3.067   2.568  17.730  1.9467 -1.1442  0.7143
  573MPD2    H2 8555   2.991   2.740   0.357 -0.0184 -0.5552  1.0887
  573MPD2    H3 8556   2.974   2.565   0.223  0.3812 -1.0238 -0.3432
  573MPD2     N 8557   3.124   2.780  17.598 -0.6274  0.9737 -0.0875
  573MPD2    H5 8558   3.075   2.708  17.545 -0.8552 -1.2434  3.1311
  573MPD2    N1 8559   3.041   2.987   0.285 -0.1918 -0.3640  0.4367
  573MPD2    H7 8560   3.016   2.974   0.382 -1.9919 -1.6177 -0.2029
  574TMC3    C1 8561   3.113   2.899  17.390  0.0324  0.4193 -0.3978
  574TMC3    C2 8562   2.979   2.887  17.383  0.0866 -0.0433 -0.4557
  574TMC3    C3 8563   2.916   2.936  17.265  0.1878 -0.0475 -0.0014
  574TMC3    C4 8564   3.187   2.963  17.292  0.2150 -0.1097  0.0185
  574TMC3    C5 8565   3.124   3.011  17.183  0.0669  0.3180  0.1227
  574TMC3    C6 8566   2.993   2.991  17.168  0.2334 -0.0962 -0.5630
  574TMC3     C 8567   3.158   2.899  17.532  0.0813 -0.2595  0.4267
  574TMC3     O 8568   3.236   2.986  17.562 -0.2518  0.1188 -0.2008
  574TMC3     H 8569   2.926   2.845  17.467 -0.5934  1.4478 -0.1441
  574TMC3    H1 8570   3.290   2.986  17.316  0.0225  0.7959 -0.0111
  574TMC3    H2 8571   2.938   3.043  17.090  0.0318  1.2888  0.4958
  574TMC3    C7 8572   3.208   3.065  17.073 -0.0642 -1.3428 -0.7081
  574TMC3    C8 8573   2.788   3.000  17.290  0.3145 -0.0874  0.1236
  574TMC3    O1 8574   3.327   3.042  17.088  0.5085 -0.1895 -0.5836
  574TMC3    O2 8575   2.757   3.095  17.223 -0.2579  0.2191 -0.3435
  575TMC3    C1 8576   0.890   4.093  11.038  0.6711  0.5148 -0.4080
  575TMC3    C2 8577   0.817   3.975  10.997  0.2249 -0.2721 -0.4073
  575TMC3    C3 8578   0.793   3.951  10.865 -0.6175 -0.5789  0.1265
  575TMC3    C4 8579   0.919   4.188  10.937  0.0061 -0.0816  0.2783
  575TMC3    C5 8580   0.902   4.156  10.806  0.1447 -0.7165  0.4451
  575TMC3    C6 8581   0.841   4.035  10.768 -0.3055 -0.4839  0.5817
  575TMC3     C 8582   0.937   4.106  11.175 -0.0839 -0.2066  0.1170
  575TMC3     O 8583   1.001   4.199  11.214 -0.0665  0.1445  0.1976
  575TMC3     H 8584   0.769   3.915  11.073 -0.4644  0.7757 -0.0175
  575TMC3    H1 8585   0.954   4.285  10.972  1.1170 -0.7623  1.0435
  575TMC3    H2 8586   0.809   4.018  10.666  1.6741  1.9759 -0.4564
  575TMC3    C7 8587   0.890   4.269  10.712 -0.1919  0.4229 -0.2322
  575TMC3    C8 8588   0.686   3.852  10.834 -0.4746  0.0440  0.2310
  575TMC3    O1 8589   0.865   4.377  10.763  0.9569  0.4984  0.4351
  575TMC3    O2 8590   0.650   3.789  10.934  0.3207 -0.2982  0.5745
  576MPD2     C 8591   4.570   2.129  12.790  0.2016 -0.4777 -0.0615
  576MPD2    C1 8592   4.657   2.198  12.702 -0.6394 -0.0123  0.0815
  576MPD2    C2 8593   4.661   2.337  12.707 -0.2864 -0.4047  0.3319
  576MPD2    C3 8594   4.595   2.407  12.804 -0.4009 -0.4069 -0.0067
  576MPD2    C4 8595   4.511   2.334  12.887  0.8184 -0.1303  0.2567
  576MPD2    C5 8596   4.502   2.198  12.886  0.1155  0.5219 -0.3664
  576MPD2     H 8597   4.720   2.387  12.630 -0.4218 -0.7573  0.0037
  576MPD2    H1 8598   4.461   2.383  12.970  1.6467 -3.3019  2.6147
  576MPD2    H2 8599   4.575   2.021  12.793  2.1202 -0.4343 -1.3929
  576MPD2    H3 8600   4.433   2.153  12.956  0.4419  0.1411 -0.2902
  576MPD2     N 8601   4.608   2.550  12.816 -0.0739  0.0452  0.7103
  576MPD2    H5 8602   4.683   2.598  12.767 -0.3746  0.0970  0.3023
  576MPD2    N1 8603   0.006   2.135  12.611  0.1353 -0.0281 -0.4093
  576MPD2    H7 8604   0.045   2.196  12.540  2.5354  0.0092  0.9415
  577TMC3    C1 8605   0.094   1.977  12.477 -0.7971 -0.7999  0.6925
  577TMC3    C2 8606   0.132   1.846  12.451  0.0938 -0.0571  0.8532
  577TMC3    C3 8607   0.203   1.817  12.337  0.5483  0.2084 -0.2035
  577TMC3    C4 8608   0.127   2.081  12.390  0.5438  0.7776 -0.5523
  577TMC3    C5 8609   0.185   2.047  12.275 -0.6836 -0.1234  0.7676
  577TMC3    C6 8610   0.234   1.916  12.251 -0.1008  0.3875 -0.6468
  577TMC3     C 8611   0.035   2.000  12.601  0.3381 -0.7340 -0.0302
  577TMC3     O 8612   0.032   1.911  12.686 -0.1480 -0.8552  0.5031
  577TMC3     H 8613   0.115   1.767  12.524  1.1665  0.5397  1.7302
  577TMC3    H1 8614   0.113   2.187  12.411  1.6441  0.9275 -0.5935
  577TMC3    H2 8615   0.295   1.890  12.165 -0.2185  0.8700 -0.8768
  577TMC3    C7 8616   0.177   2.143  12.166  0.1752  0.1381 -0.3643
  577TMC3    C8 8617   0.249   1.679  12.324 -1.0597 -0.4621  0.7709
  577TMC3    O1 8618   0.130   2.255  12.190 -0.0942 -0.9314 -0.3156
  577TMC3    O2 8619   0.240   1.617  12.429  0.5118 -0.4544 -0.1079
  578MPD2     C 8620   4.198   0.545   1.816 -0.1202 -0.2942 -0.2320
  578MPD2    C1 8621   4.160   0.517   1.681 -0.3729 -0.0881  0.6346
  578MPD2    C2 8622   4.239   0.434   1.609 -0.1970 -0.0936  0.1703
  578MPD2    C3 8623   4.353   0.376   1.656 -0.0442 -0.3838 -0.2899
  578MPD2    C4 8624   4.381   0.396   1.789  0.4859 -0.2766  0.4485
  578MPD2    C5 8625   4.305   0.482   1.872 -0.2720 -0.3077 -0.1908
  578MPD2     H 8626   4.212   0.422   1.505 -3.0447 -1.3600  1.0508
  578MPD2    H1 8627   4.467   0.354   1.840  0.3288  0.0181  0.9539
  578MPD2    H2 8628   4.134   0.601   1.883 -0.4225  0.7336 -1.3760
  578MPD2    H3 8629   4.316   0.501   1.978  0.2950  0.2824 -0.3612
  578MPD2     N 8630   4.442   0.305   1.565 -0.2014 -0.5192 -1.3622
  578MPD2    H5 8631   4.405   0.302   1.471 -0.4554 -0.3603 -1.2676
  578MPD2    N1 8632   4.042   0.582   1.634 -0.0244  0.2747 -0.4690
  578MPD2    H7 8633   4.000   0.651   1.695  1.0714  2.1318 -1.7950
  579TMC3    C1 8634   4.592   0.127   1.503 -0.2590 -0.0996  0.4922
  579TMC3    C2 8635   4.724   0.088   1.509  0.6224  1.0008  0.1327
  579TMC3    C3 8636   0.027   0.000   1.407 -0.0469  0.3175  0.1613
  579TMC3    C4 8637   4.505   0.095   1.402  1.0874  0.8766 -0.1704
  579TMC3    C5 8638   4.553   0.002   1.307  0.3442  0.7598  0.1735
  579TMC3    C6 8639   4.676   4.681   1.317  0.0511  0.4208  0.0646
  579TMC3     C 8640   4.553   0.229   1.598  0.4287 -0.0649  1.3320
  579TMC3     O 8641   4.625   0.255   1.692  0.0244  0.1658  0.1314
  579TMC3     H 8642   0.056   0.126   1.584  0.2894  0.2128  0.8256
  579TMC3    H1 8643   4.399   0.116   1.398  1.2359  1.5898 -0.5841
  579TMC3    H2 8644   4.715   4.615   1.240 -3.0398  1.2552 -2.2196
  579TMC3    C7 8645   4.472   4.686   1.202  0.1197 -0.1378  0.2823
  579TMC3    C8 8646   0.172   4.733   1.372  0.4157  0.2034 -0.1159
  579TMC3    O1 8647   4.516   4.585   1.153 -0.1730  0.3435 -0.3596
  579TMC3    O2 8648   0.212   4.631   1.314 -0.0752  0.2832 -0.5205
  580TMC3    C1 8649   3.285   0.248  12.341 -0.8918  0.3463 -0.0996
  580TMC3    C2 8650   3.395   0.330  12.349  0.4363  0.1266 -0.6707
  580TMC3    C3 8651   3.526   0.274  12.358  0.4739 -0.1836  0.2371
  580TMC3    C4 8652   3.306   0.120  12.345  0.0613  0.1067 -0.2569
  580TMC3    C5 8653   3.438   0.064  12.341  1.1594 -0.1958  0.0848
  580TMC3    C6 8654   3.551   0.141  12.344 -0.0942  0.8639  0.7430
  580TMC3     C 8655   3.150   0.285  12.344  0.5863 -0.4394  0.3299
  580TMC3     O 8656   3.060   0.211  12.384  0.0059 -0.3083 -0.8386
  580TMC3     H 8657   3.385   0.433  12.318 -1.3409 -0.4521 -1.9917
  580TMC3    H1 8658   3.216   0.060  12.337 -0.5958  1.1240 -0.5350
  580TMC3    H2 8659   3.644   0.088  12.360  0.6620  1.7503 -0.7338
  580TMC3    C7 8660   3.439   4.656  12.321  0.1117  0.2810  0.8203
  580TMC3    C8 8661   3.631   0.370  12.365  0.0816  0.8300 -0.5782
  580TMC3    O1 8662   3.332   4.599  12.341  0.8274 -0.5089  0.2327
  580TMC3    O2 8663   3.607   0.485  12.400 -0.2430  0.4488  0.3444
  581MPD2     C 8664   0.994   4.630  14.212 -0.5179 -0.0055 -0.1673
  581MPD2    C1 8665   0.995   4.701  14.331 -0.3309 -0.3595 -0.2880
  581MPD2    C2 8666   0.889   0.047  14.371  0.3638  0.4647  0.4445
  581MPD2    C3 8667   0.776   0.043  14.297 -0.0262  1.1099  0.7349
  581MPD2    C4 8668   0.780   4.731  14.170  0.1559 -0.1430  0.0578
  581MPD2    C5 8669   0.889   4.657  14.131  0.0606  0.3539  0.3990
  581MPD2     H 8670   0.884   0.099  14.466  1.2047  1.1807  0.1000
  581MPD2    H1 8671   0.708   0.022  14.094 -0.2998 -0.9190  0.2189
  581MPD2    H2 8672   1.080   4.574  14.175 -0.0751 -0.6926  1.9002
  581MPD2    H3 8673   0.891   4.613  14.032 -0.7280 -0.4990  0.7707
  581MPD2     N 8674   0.662   0.111  14.347  0.0979  0.4443  0.9897
  581MPD2    H5 8675   0.686   0.176  14.421 -0.9143  2.2152 -0.2369
  581MPD2    N1 8676   1.115   4.687  14.407 -0.4622  0.2576 -0.3845
  581MPD2    H7 8677   1.180   4.622  14.365  0.2715  0.4820  0.3979
  582TMC3    C1 8678   1.208   4.629  14.604 -0.4065  0.1377  0.7671
  582TMC3    C2 8679   1.267   4.667  14.723 -0.2810  0.6784  0.7444
  582TMC3    C3 8680   1.320   4.565  14.797 -0.3979  0.5035  0.7458
  582TMC3    C4 8681   1.185   4.499  14.572  0.2997  0.7800 -0.3973
  582TMC3    C5 8682   1.224   4.398  14.665 -0.0785  0.3244  0.6106
  582TMC3    C6 8683   1.304   4.431  14.769  0.6039  0.0719  0.0559
  582TMC3     C 8684   1.135   4.735  14.534  0.3537 -0.1969  0.2970
  582TMC3     O 8685   1.082   0.091  14.599 -0.1351  0.0322  0.2008
  582TMC3     H 8686   1.294   0.031  14.755  0.2210  0.9662 -0.5854
  582TMC3    H1 8687   1.113   4.473  14.495 -2.4969  0.9064  2.1903
  582TMC3    H2 8688   1.308   4.364  14.854  0.7567  0.2522  0.1900
  582TMC3    C7 8689   1.109   4.319  14.701  0.5436  0.9506 -0.1656
  582TMC3    C8 8690   1.356   4.585  14.940  0.5281 -0.2126  0.2111
  582TMC3    O1 8691   1.132   4.210  14.745  0.1991 -0.1210  0.3162
  582TMC3    O2 8692   1.285   4.668  14.995  0.4857  0.2182 -0.7342
  583MPD2     C 8693   1.284   1.336  16.580  0.2891  0.5137  0.1154
  583MPD2    C1 8694   1.241   1.461  16.533  0.0098 -0.2454  0.2558
  583MPD2    C2 8695   1.174   1.549  16.612  0.3044 -0.8047 -1.0034
  583MPD2    C3 8696   1.131   1.511  16.743 -0.1172  0.1997  0.1639
  583MPD2    C4 8697   1.167   1.387  16.791 -0.0733  0.8966 -0.4690
  583MPD2    C5 8698   1.242   1.298  16.711 -0.6002  0.1197  0.1765
  583MPD2     H 8699   1.149   1.640  16.560 -1.0122 -0.4559  0.2255
  583MPD2    H1 8700   1.136   1.353  16.889 -3.6225 -1.8998 -2.5691
  583MPD2    H2 8701   1.333   1.259  16.521 -0.0086  0.9793 -0.7369
  583MPD2    H3 8702   1.280   1.203  16.745 -2.7524 -0.1290  1.8990
  583MPD2     N 8703   1.050   1.608  16.809 -0.0238 -0.1316  0.2802
  583MPD2    H5 8704   1.033   1.687  16.748  1.4385 -1.0044 -1.2577
  583MPD2    N1 8705   1.273   1.509  16.402  0.2728 -0.0599 -0.1031
  583MPD2    H7 8706   1.237   1.602  16.382  1.9643  0.5396 -0.3175
  584TMC3    C1 8707   0.936   1.722  16.991  0.3945 -0.3217 -0.2724
  584TMC3    C2 8708   0.939   1.839  16.921  0.1838 -0.4112  0.3774
  584TMC3    C3 8709   0.907   1.957  16.984 -0.9875  0.1991 -0.0522
  584TMC3    C4 8710   0.905   1.720  17.124 -0.4521 -0.1439  0.4575
  584TMC3    C5 8711   0.894   1.844  17.184 -0.2787 -0.4406  0.1672
  584TMC3    C6 8712   0.893   1.964  17.119  0.8500 -0.0064 -0.0701
  584TMC3     C 8713   1.018   1.610  16.945  0.3711  0.0006  0.0788
  584TMC3     O 8714   1.063   1.534  17.032  0.1753  0.0609  0.7686
  584TMC3     H 8715   0.955   1.848  16.814 -0.2176 -0.4167  0.3163
  584TMC3    H1 8716   0.882   1.628  17.176 -0.6386 -0.3277  0.0525
  584TMC3    H2 8717   0.852   2.053  17.165  0.8828 -0.2587  0.4507
  584TMC3    C7 8718   0.867   1.826  17.330 -0.0457  0.3235 -0.8610
  584TMC3    C8 8719   0.953   2.071  16.919 -0.0019 -0.2332  0.2658
  584TMC3    O1 8720   0.871   1.713  17.369 -0.1165  0.5535  0.5753
  584TMC3    O2 8721   0.949   2.067  16.796  0.0868 -0.3944 -0.6283
  585MPD2     C 8722   0.260   0.421   0.091 -0.7568 -0.1072 -0.0535
  585MPD2    C1 8723   0.256   0.512  17.728  0.2836 -0.5825  0.2101
  585MPD2    C2 8724   0.294   0.463  17.602 -0.1745 -0.1581  0.1963
  585MPD2    C3 8725   0.349   0.335  17.583  0.5788 -0.2682  0.2461
  585MPD2    C4 8726   0.350   0.251  17.694  0.3762 -0.5500 -0.1751
  585MPD2    C5 8727   0.299   0.294   0.068  0.0607 -1.1588 -0.2989
  585MPD2     H 8728   0.305   0.539  17.526 -2.7328  0.9441  0.9154
  585MPD2    H1 8729   0.390   0.151  17.691 -2.7508 -1.8746  1.9434
  585MPD2    H2 8730   0.238   0.446   0.194 -0.1409  0.7907 -0.1359
  585MPD2    H3 8731   0.306   0.220   0.146  0.4114 -1.4939 -0.6473
  585MPD2     N 8732   0.421   0.289  17.469  0.3556  0.3026  0.1883
  585MPD2    H5 8733   0.429   0.190  17.451 -0.3624  0.2736  0.0435
  585MPD2    N1 8734   0.223   0.642   0.007 -0.0257  0.2415  0.1477
  585MPD2    H7 8735   0.201   0.653   0.106 -1.6672  1.1546 -0.3282
  586TMC3    C1 8736   0.508   0.281  17.255  0.7796  0.0606  0.9424
  586TMC3    C2 8737   0.632   0.231  17.265  0.4989 -1.0344 -0.1056
  586TMC3    C3 8738   0.666   0.122  17.187 -0.3733  0.4407 -0.4307
  586TMC3    C4 8739   0.403   0.238  17.180 -0.3804 -0.1588 -0.0769
  586TMC3    C5 8740   0.436   0.124  17.107  0.1324 -1.1511  0.0564
  586TMC3    C6 8741   0.563   0.064  17.111  0.0501  0.7437 -0.3709
  586TMC3     C 8742   0.458   0.368  17.363 -0.3819  0.2539  0.0406
  586TMC3     O 8743   0.465   0.487  17.344  0.0259  0.2179 -0.7537
  586TMC3     H 8744   0.702   0.291  17.322 -0.2231 -1.6891  1.4760
  586TMC3    H1 8745   0.312   0.296  17.186  0.6569  1.3128  1.4997
  586TMC3    H2 8746   0.581   4.706  17.060  2.8680  0.9206  0.2912
  586TMC3    C7 8747   0.329   0.049  17.056 -0.3488  0.5746  0.1006
  586TMC3    C8 8748   0.779   0.041  17.221  0.2502  0.2921  0.2901
  586TMC3    O1 8749   0.223   0.067  17.113  0.1395 -0.6948 -0.4312
  586TMC3    O2 8750   0.771   4.664  17.178 -0.1809 -0.0201  0.2590
  587TMC3    C1 8751   2.590   3.805  15.944 -0.9430 -0.0020 -0.2082
  587TMC3    C2 8752   2.614   3.933  15.942  0.1829 -0.1265  0.5332
  587TMC3    C3 8753   2.742   3.976  15.967 -0.2552  0.3497 -0.7624
  587TMC3    C4 8754   2.694   3.710  15.958 -0.5611  0.3079 -0.1400
  587TMC3    C5 8755   2.819   3.752  15.985  0.3266  0.2991 -0.1353
  587TMC3    C6 8756   2.844   3.887  15.999 -0.3145 -0.0469  0.3384
  587TMC3     C 8757   2.460   3.756  15.906 -0.5759  0.2097  0.3895
  587TMC3     O 8758   2.442   3.645  15.858 -0.2247  0.2037  0.1728
  587TMC3     H 8759   2.538   4.005  15.914 -0.9907 -0.9331  1.6642
  587TMC3    H1 8760   2.663   3.606  15.964 -1.1684  0.3664 -2.0436
  587TMC3    H2 8761   2.941   3.927  16.025 -0.3716  0.3083  0.0050
  587TMC3    C7 8762   2.932   3.674  15.938 -0.4612  0.6300  0.0571
  587TMC3    C8 8763   2.771   4.115  15.994  0.1636  0.0514  0.3090
  587TMC3    O1 8764   3.039   3.723  15.960 -0.2446 -0.4718  0.2834
  587TMC3    O2 8765   2.890   4.146  15.993 -0.1160 -0.0867  0.0558
  588TMC3    C1 8766   4.077   2.176   9.630 -0.0212 -0.6449  0.1049
  588TMC3    C2 8767   4.045   2.058   9.572  0.4982  0.3945 -0.1136
  588TMC3    C3 8768   4.120   1.953   9.608 -0.1840  0.6615 -0.0665
  588TMC3    C4 8769   4.166   2.190   9.732  0.2250 -0.0672  0.1517
  588TMC3    C5 8770   4.233   2.078   9.775 -0.6673  0.2708 -1.0353
  588TMC3    C6 8771   4.212   1.960   9.716 -0.5445  0.2732 -0.2707
  588TMC3     C 8772   4.040   2.299   9.558 -0.7047  0.4066 -0.1525
  588TMC3     O 8773   3.923   2.320   9.528  0.1471  0.3919  0.2451
  588TMC3     H 8774   3.981   2.062   9.484 -1.2790 -0.0541  1.1619
  588TMC3    H1 8775   4.193   2.286   9.775  3.1547 -0.0392 -1.7130
  588TMC3    H2 8776   4.250   1.868   9.758  1.3627  1.7014  1.1527
  588TMC3    C7 8777   4.370   2.088   9.826 -0.4737 -0.1914  0.5235
  588TMC3    C8 8778   4.133   1.831   9.522 -0.1616  0.4798  0.5205
  588TMC3    O1 8779   4.424   1.982   9.857  0.1061 -0.3775  0.8184
  588TMC3    O2 8780   4.043   1.803   9.442  0.3584 -0.4046 -0.0803
  589TMC3    C1 8781   3.932   3.966   0.966 -0.1473  0.0945 -0.8974
  589TMC3    C2 8782   4.004   3.928   1.074 -0.2876  0.0240 -1.4523
  589TMC3    C3 8783   4.064   3.802   1.073  0.7162  0.2806 -0.0612
  589TMC3    C4 8784   3.929   3.887   0.855 -0.8268  0.2917 -0.4410
  589TMC3    C5 8785   3.972   3.755   0.865 -0.9736 -0.2975 -0.2492
  589TMC3    C6 8786   4.051   3.716   0.968 -0.3392 -0.2214 -0.0423
  589TMC3     C 8787   3.862   4.090   0.965  0.3231  0.0652 -0.8798
  589TMC3     O 8788   3.804   4.130   0.861  0.1848  0.0969 -0.1658
  589TMC3     H 8789   4.046   4.003   1.139 -0.0755 -0.6539 -0.7980
  589TMC3    H1 8790   3.879   3.918   0.764 -1.4219  2.9581  0.8278
  589TMC3    H2 8791   4.097   3.618   0.966  1.2927  0.5549 -0.7394
  589TMC3    C7 8792   3.958   3.660   0.763 -0.5865  0.3207 -0.1787
  589TMC3    C8 8793   4.176   3.786   1.163 -0.5635 -0.4740  0.5475
  589TMC3    O1 8794   4.017   3.555   0.767  0.4096 -0.1744 -0.1327
  589TMC3    O2 8795   4.174   3.846   1.269 -0.1062  0.0403 -0.6079
  590MPD2     C 8796   3.688   2.313  16.499  0.5359  0.1137  0.3400
  590MPD2    C1 8797   3.645   2.363  16.382 -0.7546  0.3483  0.4817
  590MPD2    C2 8798   3.713   2.460  16.307  0.8814 -0.0835  0.3367
  590MPD2    C3 8799   3.843   2.495  16.352  0.0728  0.2355  0.4439
  590MPD2    C4 8800   3.899   2.433  16.464  0.1200 -0.4132  0.2389
  590MPD2    C5 8801   3.825   2.332  16.530  0.0429 -0.5692  0.3343
  590MPD2     H 8802   3.659   2.507  16.225 -2.9916 -1.2312  2.1975
  590MPD2    H1 8803   4.001   2.455  16.493  0.2897 -0.7733 -0.0891
  590MPD2    H2 8804   3.625   2.243  16.551 -0.4858  0.2704 -0.6813
  590MPD2    H3 8805   3.862   2.277  16.616  4.0425  0.8581 -0.4646
  590MPD2     N 8806   3.917   2.590  16.275 -0.2712 -0.1324  0.1773
  590MPD2    H5 8807   3.873   2.622  16.190 -1.6462  1.8466  1.6428
  590MPD2    N1 8808   3.514   2.318  16.357  0.0197 -0.5114 -0.1655
  590MPD2    H7 8809   3.465   2.254  16.419  0.3639  0.0110  0.6549
  591TMC3    C1 8810   4.091   2.729  16.206  0.6736  0.1537 -1.0904
  591TMC3    C2 8811   4.121   2.677  16.081 -0.0427 -0.5603  1.1976
  591TMC3    C3 8812   4.117   2.754  15.973 -0.7671 -0.3457  0.6284
  591TMC3    C4 8813   4.024   2.846  16.210 -0.7108  0.5839 -0.0688
  591TMC3    C5 8814   4.013   2.922  16.097  0.3458  0.2061 -1.1635
  591TMC3    C6 8815   4.062   2.878  15.973  0.2669 -0.6669  0.6757
  591TMC3     C 8816   4.048   2.635  16.301  1.2609 -0.1063  0.5840
  591TMC3     O 8817   4.125   2.611  16.392  0.1314  0.6850 -0.5060
  591TMC3     H 8818   4.135   2.570  16.071 -2.4911 -0.7097 -0.7662
  591TMC3    H1 8819   3.987   2.890  16.301  0.5918  0.4832  0.5155
  591TMC3    H2 8820   4.057   2.945  15.888 -0.4335  0.1826  1.3794
  591TMC3    C7 8821   3.923   3.031  16.103  0.0649  0.4659 -0.3312
  591TMC3    C8 8822   4.141   2.682  15.839  0.0995  0.0512 -0.9048
  591TMC3    O1 8823   3.825   3.027  16.178 -0.3988  0.0483  0.4019
  591TMC3    O2 8824   4.207   2.580  15.851 -0.2729  0.0759 -0.0540
  592MPD2     C 8825   3.811   3.965  11.444  0.4083 -0.7979  0.1325
  592MPD2    C1 8826   3.819   4.023  11.572 -0.2626  0.0160 -0.1822
  592MPD2    C2 8827   3.807   3.934  11.686  0.3561  0.0934 -0.2449
  592MPD2    C3 8828   3.799   3.801  11.665 -0.5250  0.3526 -0.1926
  592MPD2    C4 8829   3.792   3.745  11.540 -0.2590 -0.1355  0.1256
  592MPD2    C5 8830   3.802   3.829  11.437  0.0931 -0.5519  0.5845
  592MPD2     H 8831   3.810   3.973  11.787  0.6857  1.4366 -0.7691
  592MPD2    H1 8832   3.764   3.643  11.516 -0.8259  0.7913 -3.2028
  592MPD2    H2 8833   3.821   4.023  11.352 -2.4261 -0.0926  0.2765
  592MPD2    H3 8834   3.784   3.773  11.346  1.7007  0.9053 -0.6200
  592MPD2     N 8835   3.792   3.723  11.782  0.1177 -0.2734 -0.6887
  592MPD2    H5 8836   3.782   3.777  11.868 -0.2232 -1.0228 -0.2576
  592MPD2    N1 8837   3.854   4.158  11.588 -0.1305 -0.3791  0.3346
  592MPD2    H7 8838   3.901   4.199  11.507 -1.4692 -0.4089 -0.4467
  593TMC3    C1 8839   3.934   4.370  11.676  0.5338  0.3596 -0.8997
  593TMC3    C2 8840   3.942   4.460  11.783 -0.8577 -0.0002  0.3352
  593TMC3    C3 8841   4.016   4.571  11.766  0.0684  0.5294  0.3202
  593TMC3    C4 8842   4.003   4.386  11.562  0.1282 -0.6283 -0.3276
  593TMC3    C5 8843   4.074   4.507  11.556  0.2277  0.7493  0.2225
  593TMC3    C6 8844   4.086   4.598  11.651 -0.7831 -0.4869 -0.0604
  593TMC3     C 8845   3.870   4.238  11.705 -0.4985  0.1619  0.7804
  593TMC3     O 8846   3.825   4.219  11.817  0.5208  0.3576 -0.2056
  593TMC3     H 8847   3.902   4.438  11.881 -3.4571  0.5578 -0.6185
  593TMC3    H1 8848   4.006   4.315  11.480 -0.1022 -1.7343  0.6293
  593TMC3    H2 8849   4.140   4.689  11.630  0.2522 -1.0240  0.2975
  593TMC3    C7 8850   4.117   4.554  11.428 -0.3934  0.4047  0.4577
  593TMC3    C8 8851   4.027   4.655  11.885  0.4505  0.2451 -0.4846
  593TMC3    O1 8852   4.231   4.605  11.422 -0.0233 -0.2598 -0.3854
  593TMC3    O2 8853   3.949   4.621  11.973  0.2577 -0.0658  0.1042
  594MPD2     C 8854   2.652   3.148  14.086 -0.0571  0.3266  0.4179
  594MPD2    C1 8855   2.636   3.192  14.220 -0.0671  0.4586 -0.7007
  594MPD2    C2 8856   2.721   3.294  14.262  0.5239 -0.3129 -0.1234
  594MPD2    C3 8857   2.820   3.347  14.180 -0.2091 -0.2071 -0.0959
  594MPD2    C4 8858   2.839   3.299  14.052  0.7167  0.3124 -0.3895
  594MPD2    C5 8859   2.744   3.209  14.007 -0.3196 -0.8394  0.1334
  594MPD2     H 8860   2.698   3.336  14.360 -0.8768 -1.7164  0.1578
  594MPD2    H1 8861   2.913   3.336  13.982  0.6794  2.1634  0.5454
  594MPD2    H2 8862   2.579   3.079  14.047  1.6952 -0.8066 -0.8549
  594MPD2    H3 8863   2.751   3.173  13.905  0.6389 -0.7681  0.1721
  594MPD2     N 8864   2.905   3.451  14.230  0.2220  0.6682  0.1444
  594MPD2    H5 8865   2.873   3.491  14.318  0.5590 -1.6808  1.3387
  594MPD2    N1 8866   2.528   3.145  14.299  0.4709  0.9263 -0.5919
  594MPD2    H7 8867   2.466   3.078  14.253  0.6832  0.9336 -0.8901
  595TMC3    C1 8868   3.281   3.725  14.308  0.5083 -0.3786  0.0470
  595TMC3    C2 8869   3.215   3.647  14.217 -0.3257  0.2126 -0.4807
  595TMC3    C3 8870   3.094   3.605  14.254  0.2355  0.1204 -0.4178
  595TMC3    C4 8871   3.230   3.768  14.433  0.0474  0.5319  0.0374
  595TMC3    C5 8872   3.114   3.713  14.470 -0.2851  1.2552  0.1654
  595TMC3    C6 8873   3.043   3.641  14.378  0.0047 -0.6136 -0.6071
  595TMC3     C 8874   3.420   3.781  14.281 -0.2185  0.2206  0.2116
  595TMC3     O 8875   3.473   3.839  14.379  0.0184  0.2004 -0.4577
  595TMC3     H 8876   3.254   3.634  14.117 -0.0321 -1.3785 -0.1545
  595TMC3    H1 8877   3.289   3.837  14.492  1.0057  0.0965 -0.4095
  595TMC3    H2 8878   2.950   3.599  14.415 -0.8533  0.6704 -1.2939
  595TMC3    C7 8879   3.064   3.728  14.602  0.1935  0.4099 -0.2010
  595TMC3    C8 8880   3.022   3.499  14.176 -0.8525 -0.0807 -0.7650
  595TMC3    O1 8881   2.951   3.679  14.619  0.4197  0.0935  0.0421
  595TMC3    O2 8882   3.081   3.466  14.072 -0.5106 -0.5606 -0.5208
  596MPD2     C 8883   2.081   1.328  16.511  0.0773 -0.8063 -0.0382
  596MPD2    C1 8884   2.051   1.454  16.469 -0.6041 -0.9013  0.4179
  596MPD2    C2 8885   2.051   1.489  16.335  0.8314  0.6457 -0.4814
  596MPD2    C3 8886   2.077   1.397  16.239 -0.6284  0.4049 -0.8935
  596MPD2    C4 8887   2.114   1.272  16.283 -0.2125  0.1912  0.9980
  596MPD2    C5 8888   2.112   1.239  16.418 -0.1237  0.3040 -0.4117
  596MPD2     H 8889   2.024   1.593  16.319  0.5962  0.8406  1.2072
  596MPD2    H1 8890   2.142   1.190  16.219 -2.0516  0.6461 -0.3999
  596MPD2    H2 8891   2.082   1.296  16.614 -0.0741 -0.4478  0.0746
  596MPD2    H3 8892   2.140   1.140  16.451 -0.6134  0.8127  1.5513
  596MPD2     N 8893   2.080   1.420  16.098 -0.3330  0.1848  0.5985
  596MPD2    H5 8894   2.119   1.354  16.032  2.4353  2.1437  0.2787
  596MPD2    N1 8895   2.015   1.554  16.560 -0.4625 -0.3774 -0.4983
  596MPD2    H7 8896   1.986   1.646  16.529 -1.9054 -1.1595 -1.5311
  597TMC3    C1 8897   1.943   1.657  16.761 -0.0494  0.3686 -0.6292
  597TMC3    C2 8898   2.011   1.774  16.727  0.6664  0.0746  0.5726
  597TMC3    C3 8899   1.991   1.885  16.802 -0.6000 -0.6765 -0.2403
  597TMC3    C4 8900   1.843   1.665  16.852 -0.1833 -1.0898  0.6627
  597TMC3    C5 8901   1.823   1.783  16.914 -0.4764 -0.4324 -0.6381
  597TMC3    C6 8902   1.889   1.896  16.889 -0.4502 -0.0801  0.1886
  597TMC3     C 8903   1.999   1.538  16.695 -0.2447 -0.1724 -0.2448
  597TMC3     O 8904   1.985   1.434  16.755  0.4752 -0.1791 -0.1029
  597TMC3     H 8905   2.097   1.769  16.660 -1.1931  2.8821 -2.0369
  597TMC3    H1 8906   1.799   1.573  16.889 -0.5863 -1.9513 -1.9917
  597TMC3    H2 8907   1.876   1.978  16.959  1.7334  0.2301  0.2167
  597TMC3    C7 8908   1.705   1.802  16.994 -0.0122  0.0988  0.3813
  597TMC3    C8 8909   2.067   2.007  16.766  0.2995 -0.6269  0.3662
  597TMC3    O1 8910   1.665   1.715  17.070 -0.0085 -0.0603 -0.1631
  597TMC3    O2 8911   2.088   2.091  16.855 -0.3605 -0.2376  0.3523
  598TMC3    C1 8912   4.523   3.032  15.109  0.2782 -0.7898 -0.2628
  598TMC3    C2 8913   4.409   2.953  15.106  0.0402  0.1399  0.3958
  598TMC3    C3 8914   4.326   2.972  14.997 -1.0678  0.6181 -0.5693
  598TMC3    C4 8915   4.545   3.132  15.023  0.5099 -0.4531  0.3683
  598TMC3    C5 8916   4.461   3.145  14.915 -0.1126 -0.1088  0.1501
  598TMC3    C6 8917   4.355   3.057  14.896 -0.3038 -0.0227  0.1421
  598TMC3     C 8918   4.618   3.017  15.222  0.4217  0.4663 -0.3603
  598TMC3     O 8919   4.657   3.119  15.282 -0.6170  1.3157 -0.1121
  598TMC3     H 8920   4.400   2.885  15.190 -0.9003  0.4181  0.5205
  598TMC3    H1 8921   4.638   3.186  15.036  0.3333 -0.5692  2.0496
  598TMC3    H2 8922   4.294   3.065  14.807 -0.7116  1.3544  0.5410
  598TMC3    C7 8923   4.491   3.237  14.798 -0.8232  0.2988  0.1255
  598TMC3    C8 8924   4.194   2.904  14.998 -0.1590  0.2558  0.8044
  598TMC3    O1 8925   4.422   3.241  14.699 -0.5838  0.4252 -0.1725
  598TMC3    O2 8926   4.186   2.807  15.073  0.1563 -0.1427  0.3178
  599MPD2     C 8927   0.201   0.646  15.608  0.7911 -0.3552  0.1448
  599MPD2    C1 8928   0.177   0.523  15.666  0.9001  0.6883  1.3401
  599MPD2    C2 8929   0.082   0.506  15.772 -0.1340  0.3234  0.3571
  599MPD2    C3 8930   0.021   0.622  15.815  0.3800 -0.2423 -0.0468
  599MPD2    C4 8931   0.046   0.744  15.757 -0.1445  0.2165  0.0181
  599MPD2    C5 8932   0.133   0.751  15.659  0.2460  0.1548  0.5453
  599MPD2     H 8933   0.076   0.408  15.818  1.4759 -0.8419 -1.9004
  599MPD2    H1 8934   4.730   0.832  15.792  2.4254  2.1897 -1.1850
  599MPD2    H2 8935   0.268   0.658  15.524  0.4226  3.3936  0.3580
  599MPD2    H3 8936   0.150   0.848  15.615  1.3215  0.1280  0.9012
  599MPD2     N 8937   4.665   0.625  15.925 -0.3216  0.8096  0.0854
  599MPD2    H5 8938   4.639   0.712  15.970 -3.0907 -0.5306  1.0592
  599MPD2    N1 8939   0.276   0.428  15.633  0.4549 -0.0795  0.2716
  599MPD2    H7 8940   0.349   0.458  15.570  0.9618  0.5091  1.1353
  600TMC3    C1 8941   4.519   0.535  16.089 -0.0790 -0.1167  0.4661
  600TMC3    C2 8942   4.423   0.442  16.117 -0.5926  0.2812 -0.1275
  600TMC3    C3 8943   4.351   0.448  16.234  0.9887 -0.1888 -0.7562
  600TMC3    C4 8944   4.552   0.635  16.177  0.2837  0.4894  0.0721
  600TMC3    C5 8945   4.481   0.641  16.298  0.2750 -0.0569 -1.0083
  600TMC3    C6 8946   4.381   0.548  16.323  0.3130  0.2438  0.0389
  600TMC3     C 8947   4.606   0.513  15.975 -0.0209 -0.7532  0.3975
  600TMC3     O 8948   4.603   0.400  15.930 -0.4000  0.1872 -0.8595
  600TMC3     H 8949   4.391   0.374  16.039 -0.8237 -0.3668  0.5382
  600TMC3    H1 8950   4.635   0.705  16.177  0.3208  0.4360  1.9523
  600TMC3    H2 8951   4.327   0.558  16.417  0.6266  2.6924 -0.0457
  600TMC3    C7 8952   4.509   0.750  16.397 -0.3666  0.5930  0.0944
  600TMC3    C8 8953   4.276   0.332  16.280  0.0610  0.2634  0.0174
  600TMC3    O1 8954   4.536   0.860  16.356  0.1376  0.0208  0.0064
  600TMC3    O2 8955   4.286   0.315  16.402  0.0674 -0.0635 -0.6726
  601MPD2     C 8956   1.724   3.430   0.334 -0.2605 -0.4875  0.0781
  601MPD2    C1 8957   1.752   3.375   0.208 -0.2683 -0.3580 -0.6036
  601MPD2    C2 8958   1.782   3.236   0.199 -0.2816  0.3054 -0.0280
  601MPD2    C3 8959   1.761   3.150   0.304  0.2343 -1.1508  0.4333
  601MPD2    C4 8960   1.756   3.210   0.428 -0.1643  0.5444  0.6650
  601MPD2    C5 8961   1.737   3.349   0.440  0.0031 -0.4670  0.5530
  601MPD2     H 8962   1.809   3.197   0.101 -1.0578 -1.9269  0.6384
  601MPD2    H1 8963   1.762   3.146   0.515  1.0842 -0.5721 -0.2376
  601MPD2    H2 8964   1.700   3.535   0.353 -0.5888 -0.7207  0.9780
  601MPD2    H3 8965   1.721   3.382   0.542 -2.8715 -0.2600  0.0572
  601MPD2     N 8966   1.778   3.014   0.298  0.3640  0.5157  0.2022
  601MPD2    H5 8967   1.771   2.968   0.388 -0.6938  0.5860  0.1532
  601MPD2    N1 8968   1.750   3.442   0.080 -0.3599  0.5406 -0.4816
  601MPD2    H7 8969   1.779   3.386   0.000 -1.6086  0.2644 -0.7373
  602TMC3    C1 8970   1.766   3.621  17.679 -0.0538  0.0189 -0.5516
  602TMC3    C2 8971   1.847   3.730  17.658  0.5272  0.0972  0.0331
  602TMC3    C3 8972   1.851   3.775  17.529  0.8347 -0.8002  0.1377
  602TMC3    C4 8973   1.687   3.568  17.578  0.2837 -0.1124  0.6116
  602TMC3    C5 8974   1.685   3.621  17.453 -0.3394  0.4831  0.1637
  602TMC3    C6 8975   1.766   3.731  17.430 -0.5448  0.0614 -0.4286
  602TMC3     C 8976   1.760   3.577   0.071 -0.5373  0.4602  0.2687
  602TMC3     O 8977   1.767   3.662   0.160  0.2714 -0.2680  0.5536
  602TMC3     H 8978   1.916   3.776  17.727  1.6885 -0.7285 -0.5571
  602TMC3    H1 8979   1.615   3.493  17.609 -1.2508  1.0684 -0.1051
  602TMC3    H2 8980   1.785   3.767  17.330  0.8666  1.2739  0.2582
  602TMC3    C7 8981   1.573   3.607  17.360  0.7840 -0.2939 -0.2242
  602TMC3    C8 8982   1.918   3.903  17.505  0.8732  0.0467  0.0213
  602TMC3    O1 8983   1.512   3.499  17.365  0.1931 -0.7266 -0.0677
  602TMC3    O2 8984   2.030   3.927  17.552  0.3132 -0.1217 -0.4596
  603TMC3    C1 8985   0.491   4.219  10.594  0.6562  0.8668  0.1123
  603TMC3    C2 8986   0.515   4.186  10.723  0.1453  0.1477  0.2498
  603TMC3    C3 8987   0.497   4.284  10.823  1.1691 -0.3776  0.4819
  603TMC3    C4 8988   0.430   4.338  10.566 -0.8410  0.6172 -0.5900
  603TMC3    C5 8989   0.402   4.430  10.668 -0.1045 -0.4385 -0.2857
  603TMC3    C6 8990   0.449   4.410  10.799 -0.1440 -0.3511 -0.5091
  603TMC3     C 8991   0.503   4.109  10.499 -0.0686  0.2009 -0.4938
  603TMC3     O 8992   0.602   4.039  10.508 -0.2846  0.2405  0.0440
  603TMC3     H 8993   0.544   4.085  10.751  0.7887  0.9314  2.4393
  603TMC3    H1 8994   0.390   4.352  10.466 -0.0832  0.6043 -0.8915
  603TMC3    H2 8995   0.398   4.461  10.880 -0.6454  1.6457 -2.0659
  603TMC3    C7 8996   0.293   4.526  10.646  0.3148 -0.2950 -0.6339
  603TMC3    C8 8997   0.544   4.243  10.951 -0.1527 -0.6905  0.0350
  603TMC3    O1 8998   0.295   4.632  10.707 -0.5041  0.0631 -0.3323
  603TMC3    O2 8999   0.531   4.128  10.988 -0.4150 -0.4842 -0.0237
  604MPD2     C 9000   1.168   2.864  16.303 -0.2282 -0.5958  0.0258
  604MPD2    C1 9001   1.049   2.828  16.234  0.6059 -0.0075  0.2215
  604MPD2    C2 9002   1.070   2.795  16.100 -0.3062 -0.7288 -0.6216
  604MPD2    C3 9003   1.193   2.797  16.037 -0.2210 -0.4080 -0.6758
  604MPD2    C4 9004   1.300   2.842  16.103  0.0892 -0.9340  0.8045
  604MPD2    C5 9005   1.285   2.878  16.234 -0.0393  0.6181  0.1979
  604MPD2     H 9006   0.983   2.771  16.039 -0.9688  0.2519 -0.0608
  604MPD2    H1 9007   1.396   2.847  16.053  0.7026 -0.8141  1.9865
  604MPD2    H2 9008   1.153   2.896  16.405  0.9851  0.5762 -0.1548
  604MPD2    H3 9009   1.373   2.907  16.291  0.1491 -0.2505  0.3459
  604MPD2     N 9010   1.191   2.743  15.904  0.3379  0.2326 -0.0758
  604MPD2    H5 9011   1.107   2.697  15.872  0.8032 -0.4696 -0.3097
  604MPD2    N1 9012   0.926   2.824  16.301  0.8011  0.1827 -0.2117
  604MPD2    H7 9013   0.932   2.854  16.398 -0.2208 -0.4944  0.0723
  605TMC3    C1 9014   0.702   2.861  16.345 -0.1003  0.1219  0.8080
  605TMC3    C2 9015   0.750   2.922  16.460 -0.4317 -0.4180  0.5293
  605TMC3    C3 9016   0.667   3.009  16.513 -0.1187 -0.1743 -0.2152
  605TMC3    C4 9017   0.580   2.900  16.285 -1.4375 -0.3776  0.8096
  605TMC3    C5 9018   0.502   2.990  16.354  0.0630  0.2029 -0.1850
  605TMC3    C6 9019   0.546   3.052  16.462 -0.1755 -0.4779  0.3106
  605TMC3     C 9020   0.799   2.810  16.253 -0.6140  0.8355 -0.0321
  605TMC3     O 9021   0.766   2.789  16.135 -0.2685  0.2756 -0.4807
  605TMC3     H 9022   0.832   2.886  16.521  2.0135  0.6715 -2.0843
  605TMC3    H1 9023   0.561   2.863  16.185  1.1239 -1.3264  0.6615
  605TMC3    H2 9024   0.488   3.126  16.516 -0.5397  0.5533 -1.4900
  605TMC3    C7 9025   0.371   3.032  16.315  0.1907  0.1640  0.4649
  605TMC3    C8 9026   0.740   3.105  16.600  0.4211 -0.2902 -0.0007
  605TMC3    O1 9027   0.317   3.110  16.394  0.8932 -0.5650  0.0751
  605TMC3    O2 9028   0.671   3.151  16.693 -0.1199 -0.8339  0.0930
  606TMC3    C1 9029   2.216   1.530  17.514  0.2369 -0.6355  0.3683
  606TMC3    C2 9030   2.327   1.558  17.579 -0.3575 -0.2042  0.1402
  606TMC3    C3 9031   2.435   1.511  17.507  0.8799  0.0236 -0.3479
  606TMC3    C4 9032   2.198   1.457  17.401  0.3710 -0.7976 -0.0372
  606TMC3    C5 9033   2.310   1.406  17.341 -0.3901  0.1486 -0.6870
  606TMC3    C6 9034   2.428   1.443  17.387  0.1754 -0.0972 -0.0628
  606TMC3     C 9035   2.097   1.589  17.582  0.2687 -0.8722 -0.0660
  606TMC3     O 9036   1.990   1.537  17.561 -0.3962 -0.3540 -0.1925
  606TMC3     H 9037   2.334   1.604  17.677 -1.0665 -0.3937  0.2810
  606TMC3    H1 9038   2.096   1.442  17.366  0.2527  1.2906 -0.5656
  606TMC3    H2 9039   2.520   1.395  17.355 -1.0511 -1.6925 -1.1641
  606TMC3    C7 9040   2.314   1.286  17.251  0.2112  0.8795  0.2686
  606TMC3    C8 9041   2.569   1.511  17.555 -0.2753  0.0724 -1.0821
  606TMC3    O1 9042   2.413   1.271  17.183 -0.2536 -0.2812  0.0022
  606TMC3    O2 9043   2.617   1.402  17.555 -0.0511  1.1600  0.0257
  607MPD2     C 9044   4.253   4.150  11.233 -0.6213  0.8573 -0.1990
  607MPD2    C1 9045   4.300   4.256  11.304  0.1308  0.3163 -0.0830
  607MPD2    C2 9046   4.301   4.247  11.444  0.0773 -0.5403 -0.6471
  607MPD2    C3 9047   4.251   4.136  11.514  0.2724 -0.5127  0.3655
  607MPD2    C4 9048   4.195   4.031  11.440  0.9135  0.3282  0.1778
  607MPD2    C5 9049   4.210   4.037  11.301  0.3928  0.1636 -0.2047
  607MPD2     H 9050   4.342   4.330  11.501  0.5953  0.9981 -3.2598
  607MPD2    H1 9051   4.152   3.943  11.486 -0.7989  0.8101 -0.4984
  607MPD2    H2 9052   4.237   4.155  11.126  0.0292 -1.8534 -0.4229
  607MPD2    H3 9053   4.172   3.961  11.233  0.3940 -0.1797  0.1720
  607MPD2     N 9054   4.256   4.135  11.654 -0.0816  0.5641  0.3977
  607MPD2    H5 9055   4.279   4.225  11.695  1.5336 -0.4272  1.6967
  607MPD2    N1 9056   4.347   4.376  11.239 -0.1723 -0.4278 -0.0973
  607MPD2    H7 9057   4.358   4.446  11.311 -0.9690  1.0243 -1.4034
  608TMC3    C1 9058   4.427   4.540  11.102  0.9000 -0.1486  0.4109
  608TMC3    C2 9059   4.486   4.588  11.212  0.2753 -0.8513  0.1177
  608TMC3    C3 9060   4.527   4.717  11.215  0.4920  0.4390 -0.7601
  608TMC3    C4 9061   4.401   4.616  10.993  0.8785 -0.0189  0.1105
  608TMC3    C5 9062   4.437   0.009  10.992 -0.2435  0.2418  0.0337
  608TMC3    C6 9063   4.504   0.063  11.105 -0.3464  0.8257 -0.7114
  608TMC3     C 9064   4.373   4.407  11.106 -1.2745 -0.1965 -0.5356
  608TMC3     O 9065   4.334   4.355  11.004 -0.2438 -0.2299  0.3669
  608TMC3     H 9066   4.518   4.526  11.295  2.0294 -0.3333 -0.1686
  608TMC3    H1 9067   4.351   4.563  10.913  0.4329 -0.6523  0.8011
  608TMC3    H2 9068   4.500   0.167  11.133  3.2078  0.6979  0.3341
  608TMC3    C7 9069   4.417   0.090  10.880  0.4694 -0.1456 -0.1212
  608TMC3    C8 9070   4.557   0.039  11.342 -0.0747  0.6044 -0.0309
  608TMC3    O1 9071   4.340   0.047  10.791 -0.7228  0.1897  0.1812
  608TMC3    O2 9072   4.633   0.133  11.340  0.3310 -0.3541  0.2689
  609TMC3    C1 9073   2.425   3.491   8.876  0.2192  0.9112  0.8814
  609TMC3    C2 9074   2.471   3.596   8.802  0.2874  0.4344 -0.2326
  609TMC3    C3 9075   2.607   3.614   8.820 -0.2732  0.2184 -0.1067
  609TMC3    C4 9076   2.492   3.402   8.953 -0.3207 -0.0903 -0.9675
  609TMC3    C5 9077   2.624   3.424   8.966  0.0382 -0.2903 -0.2064
  609TMC3    C6 9078   2.685   3.524   8.894 -0.0827  0.2289 -0.3923
  609TMC3     C 9079   2.281   3.489   8.894  0.4445  0.2221  0.1357
  609TMC3     O 9080   2.236   3.424   8.991  0.6216  0.4798 -0.3763
  609TMC3     H 9081   2.414   3.669   8.746 -0.2417  1.2806  1.4173
  609TMC3    H1 9082   2.446   3.327   9.017  3.2166 -0.6448  0.9144
  609TMC3    H2 9083   2.793   3.531   8.890  0.0779 -0.8203  2.0252
  609TMC3    C7 9084   2.700   3.355   9.068 -0.6169 -0.7323  0.1846
  609TMC3    C8 9085   2.658   3.739   8.772 -0.7367  1.3509 -0.1711
  609TMC3    O1 9086   2.805   3.403   9.104 -0.2824 -0.0200 -0.9641
  609TMC3    O2 9087   2.582   3.812   8.712 -0.0839 -0.1928 -0.7435
  610TMC3    C1 9088   0.020   4.220  12.317  0.0244  0.5134  0.0718
  610TMC3    C2 9089   0.040   4.297  12.206 -0.2290 -0.1823  0.1801
  610TMC3    C3 9090   0.156   4.285  12.134  0.1137  0.9045 -0.8725
  610TMC3    C4 9091   0.128   4.140  12.356  0.1096 -0.2046 -0.2753
  610TMC3    C5 9092   0.235   4.123  12.275  0.0165  0.6590 -0.5992
  610TMC3    C6 9093   0.254   4.193  12.161 -0.1084 -0.2228  0.1562
  610TMC3     C 9094   4.618   4.183  12.341 -0.4115 -0.2975 -0.5724
  610TMC3     O 9095   4.523   4.246  12.294  0.0127 -0.0294  0.4027
  610TMC3     H 9096   4.701   4.371  12.180 -1.4837 -1.6262 -0.3022
  610TMC3    H1 9097   0.133   4.097  12.455  0.3753  1.6071  0.4955
  610TMC3    H2 9098   0.336   4.165  12.096 -0.9055  1.9311 -1.7754
  610TMC3    C7 9099   0.320   4.016  12.322  0.2107  0.4528  0.1744
  610TMC3    C8 9100   0.166   4.375  12.022 -0.5233  0.2566  0.4421
  610TMC3    O1 9101   0.259   3.939  12.398  0.8161 -0.2655 -0.1482
  610TMC3    O2 9102   0.063   4.431  11.989  0.0434  0.3569 -0.1591
  611MPD2     C 9103   3.469   4.408  10.696 -0.2275 -0.4891 -0.1324
  611MPD2    C1 9104   3.484   4.340  10.580 -0.0620  0.0053 -0.5323
  611MPD2    C2 9105   3.610   4.312  10.541 -0.1088 -0.1340  0.4327
  611MPD2    C3 9106   3.718   4.359  10.609 -0.1286  0.7768 -0.0683
  611MPD2    C4 9107   3.703   4.438  10.717 -0.0826 -0.2501  0.6557
  611MPD2    C5 9108   3.575   4.463  10.760  0.5045  0.4613  0.0396
  611MPD2     H 9109   3.632   4.265  10.446  0.8176  0.5716  0.2975
  611MPD2    H1 9110   3.788   4.485  10.765 -0.3395 -0.1726  1.0373
  611MPD2    H2 9111   3.368   4.427  10.733 -1.7806 -1.2646 -4.0373
  611MPD2    H3 9112   3.551   4.540  10.833 -3.0924 -1.3143  0.7199
  611MPD2     N 9113   3.855   4.329  10.577  0.2788 -0.1955 -0.1208
  611MPD2    H5 9114   3.926   4.371  10.637 -1.4426  0.1178  1.6847
  611MPD2    N1 9115   3.367   4.291  10.517 -0.2170 -0.7682  0.0987
  611MPD2    H7 9116   3.277   4.323  10.550 -0.0744  1.2824 -1.5343
  612TMC3    C1 9117   4.035   4.216  10.477 -0.0852 -0.1113 -0.4236
  612TMC3    C2 9118   4.114   4.326  10.495 -0.2362 -0.0206 -0.0920
  612TMC3    C3 9119   4.241   4.315  10.444  1.2634 -0.6550  0.3500
  612TMC3    C4 9120   4.074   4.106  10.413  1.2099  0.3661  0.2089
  612TMC3    C5 9121   4.202   4.111  10.356  0.5943 -0.1708  0.2247
  612TMC3    C6 9122   4.288   4.219  10.365 -0.3221 -0.3995  0.7186
  612TMC3     C 9123   3.894   4.228  10.491 -0.4723 -0.6284  0.8396
  612TMC3     O 9124   3.833   4.154  10.413  0.0312 -0.5483  0.6550
  612TMC3     H 9125   4.084   4.422  10.536 -1.2552  0.7135 -2.5602
  612TMC3    H1 9126   4.000   4.036  10.377  2.8729 -2.0801  1.5699
  612TMC3    H2 9127   4.393   4.203  10.344 -0.1388  1.2495  0.3721
  612TMC3    C7 9128   4.247   3.995  10.281 -0.5499  0.3876  0.7452
  612TMC3    C8 9129   4.317   4.437  10.462  0.1852 -0.3277  0.4117
  612TMC3    O1 9130   4.336   4.013  10.197 -0.5120  0.1398  0.8771
  612TMC3    O2 9131   4.257   4.545  10.470 -0.2900 -0.4875  0.2194
  613MPD2     C 9132   3.115   1.565  16.219 -0.1022 -0.0981 -0.0087
  613MPD2    C1 9133   3.096   1.459  16.132  0.1707 -0.0595  0.6227
  613MPD2    C2 9134   3.027   1.350  16.173 -0.5723  0.2442  0.4184
  613MPD2    C3 9135   2.971   1.351  16.300  0.6917  0.7042  0.8323
  613MPD2    C4 9136   2.989   1.456  16.390  0.0819 -0.8128  0.0610
  613MPD2    C5 9137   3.064   1.564  16.350 -0.6978  0.3083 -0.0376
  613MPD2     H 9138   3.012   1.268  16.104  0.0316 -0.6921  1.4087
  613MPD2    H1 9139   2.957   1.443  16.493 -0.2007  1.4941  0.2668
  613MPD2    H2 9140   3.180   1.648  16.196 -1.0657  0.8752  0.8066
  613MPD2    H3 9141   3.086   1.648  16.415 -0.3878  0.2583 -0.0774
  613MPD2     N 9142   2.899   1.241  16.330 -0.0249  0.4958  0.0428
  613MPD2    H5 9143   2.887   1.168  16.260 -0.2510  0.6317 -0.0618
  613MPD2    N1 9144   3.168   1.473  16.009  0.3784  0.1171  0.2380
  613MPD2    H7 9145   3.227   1.555  15.992 -1.8342  1.6412 -0.1303
  614TMC3    C1 9146   3.207   1.417  15.783 -0.2638  0.0629 -0.1960
  614TMC3    C2 9147   3.213   1.303  15.705 -1.0699 -0.5941 -0.1862
  614TMC3    C3 9148   3.152   1.307  15.588  0.2724  0.0628  0.2618
  614TMC3    C4 9149   3.150   1.538  15.754 -0.7651  0.0286  0.1859
  614TMC3    C5 9150   3.108   1.541  15.626 -0.1988 -0.0482 -0.0412
  614TMC3    C6 9151   3.101   1.429  15.547 -0.1157  0.0031  0.6736
  614TMC3     C 9152   3.162   1.372  15.913  1.1048  0.4916  0.0210
  614TMC3     O 9153   3.120   1.259  15.916  0.5285  0.2998  0.0347
  614TMC3     H 9154   3.262   1.212  15.736  0.8075  0.6116  0.4236
  614TMC3    H1 9155   3.150   1.622  15.822 -0.3103  1.3896 -1.5065
  614TMC3    H2 9156   3.033   1.431  15.463 -1.3586  0.2005  1.6826
  614TMC3    C7 9157   3.016   1.647  15.606  0.4505  0.3497  0.3903
  614TMC3    C8 9158   3.068   1.197  15.562 -0.4282 -0.2358 -0.6646
  614TMC3    O1 9159   2.970   1.712  15.699 -0.4473  0.0544  0.1416
  614TMC3    O2 9160   3.027   1.185  15.446  0.2108  0.0289  0.5706
  615MPD2     C 9161   2.672   2.645  15.491  0.0374 -0.0984 -0.1719
  615MPD2    C1 9162   2.629   2.750  15.565 -0.4108 -0.2240  0.1620
  615MPD2    C2 9163   2.532   2.831  15.507 -0.2741 -0.2565  0.6349
  615MPD2    C3 9164   2.485   2.813  15.381  0.1085  0.1992 -0.1753
  615MPD2    C4 9165   2.546   2.714  15.311 -0.1290  0.6148  0.6832
  615MPD2    C5 9166   2.632   2.626  15.358 -0.0644 -0.3488  0.0375
  615MPD2     H 9167   2.477   2.907  15.562  0.4153  2.0630 -1.8512
  615MPD2    H1 9168   2.527   2.692  15.207  1.5088 -3.8306  1.3339
  615MPD2    H2 9169   2.740   2.563  15.515  0.1874 -0.3219 -1.3753
  615MPD2    H3 9170   2.670   2.557  15.284 -0.3860  0.9477 -1.3274
  615MPD2     N 9171   2.381   2.881  15.310 -0.3014 -0.5894 -0.0571
  615MPD2    H5 9172   2.369   2.848  15.215 -0.5960  0.1229 -0.2642
  615MPD2    N1 9173   2.658   2.775  15.699  0.2889 -0.0322  0.6840
  615MPD2    H7 9174   2.643   2.865  15.744  1.3879  0.9989 -1.0543
  616TMC3    C1 9175   2.735   2.752  15.912 -0.4430  0.0192  0.3927
  616TMC3    C2 9176   2.848   2.713  15.978 -0.6348 -0.8843 -0.1368
  616TMC3    C3 9177   2.908   2.798  16.058 -0.0980 -0.3699  0.2064
  616TMC3    C4 9178   2.679   2.874  15.938 -0.3723 -0.3734  0.6962
  616TMC3    C5 9179   2.744   2.966  16.025  0.3038 -0.1153  0.0533
  616TMC3    C6 9180   2.862   2.926  16.086  0.0681 -0.4823  0.3755
  616TMC3     C 9181   2.719   2.685  15.784  0.4349  0.2799  0.3039
  616TMC3     O 9182   2.777   2.577  15.766 -0.1804 -0.6289 -0.4692
  616TMC3     H 9183   2.886   2.612  15.974  1.7863  0.1196 -2.8262
  616TMC3    H1 9184   2.583   2.897  15.894 -0.8901  1.4752  2.7995
  616TMC3    H2 9185   2.895   2.971  16.179 -0.6440 -0.0477  0.4178
  616TMC3    C7 9186   2.677   3.093  16.056  0.4763  0.6816 -0.1993
  616TMC3    C8 9187   3.039   2.770  16.108  0.0814 -0.4732  0.1287
  616TMC3    O1 9188   2.562   3.114  16.018  0.1515  0.1930 -0.1628
  616TMC3    O2 9189   3.087   2.657  16.091  0.0533 -0.1399 -0.2698
  617MPD2     C 9190   1.044   0.834  13.152 -0.7641 -0.2105 -0.4533
  617MPD2    C1 9191   1.003   0.945  13.221 -0.6977  0.1420  0.2984
  617MPD2    C2 9192   0.882   0.955  13.289  0.1352  0.0840 -0.2490
  617MPD2    C3 9193   0.786   0.865  13.253  0.6492 -0.4875 -0.0039
  617MPD2    C4 9194   0.819   0.763  13.170  0.4158  0.3484  0.0417
  617MPD2    C5 9195   0.941   0.750  13.120 -0.1075 -0.5628  0.0369
  617MPD2     H 9196   0.848   1.041  13.345  0.7958 -0.8839  1.6722
  617MPD2    H1 9197   0.750   0.683  13.146 -1.4592  1.6167  1.1812
  617MPD2    H2 9198   1.138   0.828  13.100 -0.5203  0.3495 -0.0747
  617MPD2    H3 9199   0.965   0.662  13.061 -2.1201 -0.6052 -0.7405
  617MPD2     N 9200   0.656   0.867  13.312  0.4613 -0.7083 -0.5553
  617MPD2    H5 9201   0.584   0.806  13.275 -0.6157  0.2145  0.0192
  617MPD2    N1 9202   1.109   1.042  13.235 -0.2756 -0.0467  0.0192
  617MPD2    H7 9203   1.201   1.024  13.196 -0.7616 -2.1449 -0.1369
  618TMC3    C1 9204   1.235   1.221  13.291  0.5793  0.2159  0.3048
  618TMC3    C2 9205   1.294   1.249  13.411  0.2482  0.5368  0.8191
  618TMC3    C3 9206   1.422   1.211  13.425  0.0979 -0.1921  0.2780
  618TMC3    C4 9207   1.308   1.163  13.187  0.3953 -0.6149  0.2448
  618TMC3    C5 9208   1.441   1.130  13.215  0.3023 -0.3146 -0.4691
  618TMC3    C6 9209   1.501   1.152  13.332  0.1645 -0.4287 -0.3908
  618TMC3     C 9210   1.104   1.156  13.309 -0.0854  0.6035  0.2509
  618TMC3     O 9211   1.017   1.203  13.382 -0.3565  0.4570 -1.1442
  618TMC3     H 9212   1.225   1.277  13.490  1.1708 -1.2472  2.2543
  618TMC3    H1 9213   1.276   1.155  13.084 -1.4477 -0.2755  0.7791
  618TMC3    H2 9214   1.600   1.112  13.349  0.3743  0.2170 -0.0684
  618TMC3    C7 9215   1.462   1.000  13.164 -0.1236  0.2415  0.5988
  618TMC3    C8 9216   1.455   1.161  13.558 -0.6118 -0.1366 -0.1296
  618TMC3    O1 9217   1.356   0.940  13.170 -0.1997  0.6985  0.6592
  618TMC3    O2 9218   1.410   1.216  13.657  0.3042 -0.0009  0.3402
  619MPD2     C 9219   1.652   2.522  13.400 -0.8495  0.0322 -0.2196
  619MPD2    C1 9220   1.590   2.400  13.375  0.1338  0.6118 -0.1278
  619MPD2    C2 9221   1.509   2.351  13.476 -0.4032 -0.2927 -0.1795
  619MPD2    C3 9222   1.490   2.425  13.596  0.0305 -0.0329 -0.2103
  619MPD2    C4 9223   1.558   2.540  13.618 -0.0373  0.4981 -0.3460
  619MPD2    C5 9224   1.640   2.583  13.516 -0.0825  0.0463  0.6355
  619MPD2     H 9225   1.467   2.251  13.465  2.2398 -1.4196  0.1050
  619MPD2    H1 9226   1.540   2.602  13.705  1.8331  0.9250 -0.2556
  619MPD2    H2 9227   1.705   2.582  13.327  0.1769 -0.2217  0.3092
  619MPD2    H3 9228   1.686   2.680  13.530 -0.3846  0.4516 -1.2693
  619MPD2     N 9229   1.393   2.388  13.692 -0.0226  0.5298  0.1477
  619MPD2    H5 9230   1.389   2.451  13.772 -1.7524  1.7206 -0.8848
  619MPD2    N1 9231   1.625   2.343  13.251  0.1196  0.2978 -0.0373
  619MPD2    H7 9232   1.694   2.383  13.188  0.8590 -0.4915  0.2619
  620TMC3    C1 9233   1.610   2.227  13.060  0.2813  0.5331 -0.2780
  620TMC3    C2 9234   1.509   2.285  12.981  0.0886 -0.4018 -0.3412
  620TMC3    C3 9235   1.546   2.393  12.904  0.7154 -0.4462  0.1674
  620TMC3    C4 9236   1.740   2.262  13.048 -0.1831  0.4494 -0.0019
  620TMC3    C5 9237   1.771   2.341  12.944  0.8255  0.0952 -0.0303
  620TMC3    C6 9238   1.681   2.419  12.880  0.0182  0.1567 -0.1363
  620TMC3     C 9239   1.565   2.228  13.198 -0.2868  0.0077  1.1412
  620TMC3     O 9240   1.460   2.178  13.229 -0.2979 -0.5558 -0.1427
  620TMC3     H 9241   1.410   2.262  13.020 -0.2287  3.8055  1.3372
  620TMC3    H1 9242   1.803   2.215  13.123  1.3254  1.9559 -0.3303
  620TMC3    H2 9243   1.708   2.508  12.824  2.2401  0.6278  1.6852
  620TMC3    C7 9244   1.905   2.393  12.940  0.0725  0.2181 -1.6548
  620TMC3    C8 9245   1.493   2.512  12.962 -0.3031 -0.0473  0.0768
  620TMC3    O1 9246   1.940   2.472  12.853 -0.0727  0.0822  0.0374
  620TMC3    O2 9247   1.576   2.594  13.000  0.0097 -0.3280 -0.0986
  621MPD2     C 9248   2.100   3.737  10.415  0.4805 -0.3986 -0.2404
  621MPD2    C1 9249   2.107   3.604  10.371 -0.1139  0.0577 -0.8107
  621MPD2    C2 9250   2.183   3.588  10.256 -0.1252  0.2980 -0.3673
  621MPD2    C3 9251   2.254   3.692  10.193 -0.1447  0.3938 -0.5682
  621MPD2    C4 9252   2.245   3.820  10.251 -0.5282  0.3745 -0.1982
  621MPD2    C5 9253   2.170   3.840  10.361 -0.1764  0.2369  0.1835
  621MPD2     H 9254   2.180   3.493  10.203  1.3710  0.3062 -0.4673
  621MPD2    H1 9255   2.292   3.907  10.207 -1.3870  0.8459 -0.1750
  621MPD2    H2 9256   2.033   3.759  10.498  1.0909  0.3682  0.0481
  621MPD2    H3 9257   2.152   3.943  10.389 -0.2354 -0.0361  1.1218
  621MPD2     N 9258   2.318   3.674  10.069 -0.2576 -0.2732 -0.2864
  621MPD2    H5 9259   2.319   3.580  10.032  0.7602  0.0424 -1.0565
  621MPD2    N1 9260   2.030   3.497  10.434  0.2550 -0.0018  0.0993
  621MPD2    H7 9261   2.017   3.415  10.375 -3.1757  2.1066 -2.0966
  622TMC3    C1 9262   1.892   3.377  10.590 -0.1188 -0.4506  0.2171
  622TMC3    C2 9263   1.791   3.384  10.680  0.5669  0.3180  0.4769
  622TMC3    C3 9264   1.773   3.281  10.767  0.4834  0.1910  0.0436
  622TMC3    C4 9265   1.976   3.270  10.592  0.1678  0.4622  0.5606
  622TMC3    C5 9266   1.947   3.166  10.675  0.3599  0.3767 -0.0746
  622TMC3    C6 9267   1.850   3.166  10.770  0.2638 -0.7892  0.0809
  622TMC3     C 9268   1.952   3.502  10.550  0.1921 -0.2805 -0.7163
  622TMC3     O 9269   1.926   3.596  10.621  0.4221  0.1737 -0.1375
  622TMC3     H 9270   1.722   3.467  10.672  1.9686  1.5985  1.5575
  622TMC3    H1 9271   2.067   3.271  10.533  1.3241 -0.7064  2.3520
  622TMC3    H2 9272   1.816   3.089  10.837 -0.0595 -0.3758  0.3887
  622TMC3    C7 9273   2.040   3.061  10.690 -0.0214  0.6119  0.0026
  622TMC3    C8 9274   1.644   3.277  10.831  0.2882  0.4080 -0.4017
  622TMC3    O1 9275   2.039   2.993  10.792 -0.5808 -0.2095  0.1527
  622TMC3    O2 9276   1.638   3.247  10.952 -1.0910  0.0166  0.9658
  623MPD2     C 9277   1.111   3.027  15.676  0.1134 -0.1944 -0.0283
  623MPD2    C1 9278   1.074   3.064  15.803 -0.1234  0.2103 -0.3690
  623MPD2    C2 9279   1.165   3.123  15.888  0.2420  1.1354  0.1965
  623MPD2    C3 9280   1.296   3.134  15.859 -0.0463 -0.2639 -0.3464
  623MPD2    C4 9281   1.338   3.087  15.737  0.6097  0.4045  1.1611
  623MPD2    C5 9282   1.245   3.044  15.643 -0.7986  0.0527 -0.0323
  623MPD2     H 9283   1.131   3.151  15.987 -0.8277  0.4695  0.0248
  623MPD2    H1 9284   1.444   3.092  15.715  0.4718  2.0774  0.8920
  623MPD2    H2 9285   1.038   3.009  15.597  0.7544  0.8607 -0.8745
  623MPD2    H3 9286   1.279   3.027  15.541 -1.5054 -0.3338 -0.1993
  623MPD2     N 9287   1.375   3.192  15.957  0.3968 -0.2487 -0.8873
  623MPD2    H5 9288   1.327   3.216  16.043  1.8987  1.2098 -0.4626
  623MPD2    N1 9289   0.946   3.056  15.861  0.1786 -0.2024 -0.3160
  623MPD2    H7 9290   0.931   3.113  15.943 -1.2812 -1.0290 -0.0037
  624TMC3    C1 9291   1.668   3.170  16.254 -0.1977 -0.1868 -0.1140
  624TMC3    C2 9292   1.558   3.172  16.326 -0.1863 -0.3375  0.1639
  624TMC3    C3 9293   1.453   3.249  16.281  0.1291  0.5785 -0.7838
  624TMC3    C4 9294   1.668   3.226  16.128 -0.3212  0.5125  0.8224
  624TMC3    C5 9295   1.555   3.277  16.075  0.3205  0.2790  0.1669
  624TMC3    C6 9296   1.450   3.299  16.158 -0.0208  0.2130 -0.0715
  624TMC3     C 9297   1.789   3.157  16.328  0.3832  0.2713 -1.2567
  624TMC3     O 9298   1.787   3.107  16.438 -0.2260 -0.2448  0.3437
  624TMC3     H 9299   1.557   3.138  16.429  1.8293  0.1305  0.3357
  624TMC3    H1 9300   1.745   3.200  16.056 -1.1096 -3.0235  1.2837
  624TMC3    H2 9301   1.359   3.349  16.129 -1.1654 -1.0941  1.2817
  624TMC3    C7 9302   1.509   3.222  15.940  0.5290  0.7368 -0.6742
  624TMC3    C8 9303   1.324   3.225  16.340  0.2006  0.2032 -0.0458
  624TMC3    O1 9304   1.598   3.189  15.865  0.5429 -0.5182  0.0872
  624TMC3    O2 9305   1.234   3.196  16.264  0.4466 -0.3465  0.0361
  625MPD2     C 9306   1.798   4.124   0.430 -0.3793 -0.5060  0.2573
  625MPD2    C1 9307   1.828   4.260   0.439  0.2263  0.9386  0.0695
  625MPD2    C2 9308   1.940   4.294   0.511 -0.3599 -0.3270 -0.5836
  625MPD2    C3 9309   2.029   4.202   0.569 -0.0320  0.4667 -0.4374
  625MPD2    C4 9310   1.994   4.071   0.560  0.3795 -0.1401 -0.7954
  625MPD2    C5 9311   1.880   4.037   0.493 -0.3509 -0.1490  0.2930
  625MPD2     H 9312   1.969   4.398   0.500  0.6064 -0.5511 -0.1304
  625MPD2    H1 9313   2.047   3.989   0.606  1.0393  1.6864  1.7379
  625MPD2    H2 9314   1.708   4.084   0.385 -1.0380 -1.2022  2.2117
  625MPD2    H3 9315   1.852   3.932   0.496 -2.3420  0.3440 -1.2397
  625MPD2     N 9316   2.157   4.244   0.607  0.2364  0.6906  0.5032
  625MPD2    H5 9317   2.176   4.344   0.604  1.5643  0.4325 -0.1946
  625MPD2    N1 9318   1.751   4.360   0.377 -0.1855  1.0340  0.4259
  625MPD2    H7 9319   1.791   4.453   0.389  1.1950  0.2133  2.0844
  626TMC3    C1 9320   1.571   4.474   0.280 -0.0560 -0.6270  0.4293
  626TMC3    C2 9321   1.524   4.519   0.159  0.6972  0.5185 -0.2039
  626TMC3    C3 9322   1.497   4.653   0.146 -0.5211 -1.1669 -0.1769
  626TMC3    C4 9323   1.583   4.557   0.386  0.1785 -0.0921  0.0959
  626TMC3    C5 9324   1.550   4.690   0.372  0.1080 -0.3396 -0.1607
  626TMC3    C6 9325   1.503   0.004   0.255  0.4224  0.4956 -0.2648
  626TMC3     C 9326   1.640   4.345   0.292  0.3396 -0.2737  0.6839
  626TMC3     O 9327   1.604   4.241   0.230 -0.3298 -0.3657  0.0505
  626TMC3     H 9328   1.498   4.450   0.079 -1.1568  0.9815  0.0014
  626TMC3    H1 9329   1.609   4.528   0.487  0.1154  0.1832  0.1923
  626TMC3    H2 9330   1.492   0.111   0.263  0.5586  0.4881  0.0316
  626TMC3    C7 9331   1.509   0.016   0.494 -0.7863 -0.2033 -0.8662
  626TMC3    C8 9332   1.474   4.706   0.015  0.3426  0.4453 -0.1744
  626TMC3    O1 9333   1.587   0.009   0.589  0.1215  0.1017  0.4578
  626TMC3    O2 9334   1.490   4.629  17.662 -0.4263  0.3967  0.2698
  627MPD2     C 9335   4.681   0.062  13.998  0.3568  0.1663 -0.2244
  627MPD2    C1 9336   4.721   0.007  14.126 -0.8395  0.6603 -0.4231
  627MPD2    C2 9337   4.667   4.624  14.173 -0.0487 -0.1908 -0.2985
  627MPD2    C3 9338   4.556   4.568  14.106 -0.3637 -0.0805 -0.3211
  627MPD2    C4 9339   4.527   4.616  13.982 -0.6386  0.3517  0.3490
  627MPD2    C5 9340   4.593   4.725  13.922  0.1617  0.1260  0.2855
  627MPD2     H 9341   4.694   4.585  14.270  0.8794 -0.7382 -0.7777
  627MPD2    H1 9342   4.445   4.578  13.922  0.1063 -0.7475  0.0349
  627MPD2    H2 9343   4.716   0.155  13.956 -0.6729  0.7195  0.1374
  627MPD2    H3 9344   4.574   0.012  13.817 -0.6793  1.9335  0.8363
  627MPD2     N 9345   4.499   4.453  14.168  0.2659  0.0415  0.4577
  627MPD2    H5 9346   4.536   4.417  14.255 -0.1308  0.2298  0.7019
  627MPD2    N1 9347   0.084   0.070  14.209  0.0421  0.1460  0.0183
  627MPD2    H7 9348   0.107   0.019  14.294  0.6431 -1.5724 -1.1782
  628TMC3    C1 9349   0.228   0.249  14.270 -0.6341 -0.3072 -0.1829
  628TMC3    C2 9350   0.315   0.155  14.319 -0.2725  0.1317  0.4953
  628TMC3    C3 9351   0.443   0.192  14.351 -0.2369  0.9192 -0.4907
  628TMC3    C4 9352   0.262   0.385  14.268  0.3418 -0.2733 -0.1037
  628TMC3    C5 9353   0.387   0.426  14.312 -0.2771 -0.1883  0.2543
  628TMC3    C6 9354   0.480   0.328  14.345  0.8929 -0.5335 -0.0931
  628TMC3     C 9355   0.114   0.205  14.196  0.1433  0.3342  0.1883
  628TMC3     O 9356   0.053   0.288  14.129  0.4884  0.2743  0.0310
  628TMC3     H 9357   0.295   0.049  14.324  1.0862 -0.0646  1.8442
  628TMC3    H1 9358   0.187   0.459  14.240  0.4704  0.2930  1.0669
  628TMC3    H2 9359   0.585   0.355  14.336 -0.0187  3.5186  1.6293
  628TMC3    C7 9360   0.448   0.554  14.290 -0.1799 -0.1589  0.6361
  628TMC3    C8 9361   0.536   0.100  14.291  0.6597 -0.0671  0.7076
  628TMC3    O1 9362   0.550   0.585  14.348 -0.1941 -0.0310 -0.1098
  628TMC3    O2 9363   0.491   0.022  14.210  0.0135 -0.6483  0.3691
  629MPD2     C 9364   3.508   2.849  16.277  0.0551  0.1001 -0.6059
  629MPD2    C1 9365   3.449   2.969  16.266  0.0699 -0.6791 -0.6408
  629MPD2    C2 9366   3.319   2.978  16.225 -0.5801  0.1795 -0.0528
  629MPD2    C3 9367   3.244   2.865  16.203 -0.2739 -0.0225 -0.1275
  629MPD2    C4 9368   3.308   2.744  16.216  0.6448  0.0695 -0.1483
  629MPD2    C5 9369   3.435   2.734  16.258 -0.6430  0.1253 -0.0200
  629MPD2     H 9370   3.275   3.076  16.219 -0.9448  0.0006 -0.2912
  629MPD2    H1 9371   3.255   2.649  16.219 -0.4015  0.6862  0.7653
  629MPD2    H2 9372   3.612   2.841  16.307  0.3247 -0.2172 -1.6185
  629MPD2    H3 9373   3.487   2.644  16.286  0.8963  0.3944 -2.0320
  629MPD2     N 9374   3.113   2.872  16.157  1.1562  0.0348  0.6375
  629MPD2    H5 9375   3.065   2.961  16.162  0.0382 -0.7084  2.8496
  629MPD2    N1 9376   3.534   3.081  16.291  0.0512  0.3949  0.0845
  629MPD2    H7 9377   3.627   3.066  16.330  0.1694  0.7792 -0.0462
  630TMC3    C1 9378   3.581   3.314  16.332  0.4279 -0.6736 -0.2868
  630TMC3    C2 9379   3.557   3.445  16.289 -0.1755 -0.2090 -0.5450
  630TMC3    C3 9380   3.574   3.550  16.372  0.8058 -0.8645  0.9223
  630TMC3    C4 9381   3.615   3.294  16.461 -0.4264 -0.3312 -0.3880
  630TMC3    C5 9382   3.647   3.401  16.538  0.6686 -0.2129  0.5876
  630TMC3    C6 9383   3.621   3.529  16.498  0.1040 -0.9049  0.2112
  630TMC3     C 9384   3.497   3.209  16.262 -0.4473 -0.5377 -0.2393
  630TMC3     O 9385   3.414   3.244  16.179 -0.6210  0.4483 -0.0269
  630TMC3     H 9386   3.528   3.465  16.187 -1.6146 -2.3353 -0.5464
  630TMC3    H1 9387   3.649   3.197  16.494  0.8950 -0.4817 -2.2195
  630TMC3    H2 9388   3.625   3.607  16.573  2.1089  0.4101 -1.2597
  630TMC3    C7 9389   3.766   3.394  16.611 -0.2118  0.2836  0.5032
  630TMC3    C8 9390   3.641   3.663  16.310  0.5849 -0.1091  0.0186
  630TMC3    O1 9391   3.800   3.293  16.673  0.0544  0.0801 -0.5521
  630TMC3    O2 9392   3.726   3.719  16.382  0.4446 -0.3961  0.3943
  631MPD2     C 9393   1.465   3.400  15.456 -0.3748 -0.2574  0.0605
  631MPD2    C1 9394   1.557   3.473  15.390  0.4101 -0.1485  0.3327
  631MPD2    C2 9395   1.656   3.407  15.323 -0.0882  0.1499  0.2522
  631MPD2    C3 9396   1.681   3.270  15.340 -0.6454 -1.0065 -0.0099
  631MPD2    C4 9397   1.587   3.192  15.409  0.4228  0.2809  0.4613
  631MPD2    C5 9398   1.480   3.261  15.459  0.6162 -0.0830  0.3140
  631MPD2     H 9399   1.729   3.463  15.266  0.0322  1.5702  1.7654
  631MPD2    H1 9400   1.597   3.084  15.417  1.8432  0.2452 -1.5589
  631MPD2    H2 9401   1.377   3.448  15.498  0.8841  0.8958  1.3920
  631MPD2    H3 9402   1.401   3.196  15.495  0.2473  0.4642  0.5006
  631MPD2     N 9403   1.801   3.220  15.293  0.2861 -0.8063 -1.0089
  631MPD2    H5 9404   1.865   3.276  15.236 -0.0327  0.6516  0.0563
  631MPD2    N1 9405   1.536   3.613  15.377  0.0304  0.4873  0.2967
  631MPD2    H7 9406   1.451   3.656  15.411 -1.5832 -1.9589 -0.6075
  632TMC3    C1 9407   1.583   3.830  15.300 -0.0167 -0.4245 -0.2954
  632TMC3    C2 9408   1.447   3.849  15.327  0.4839  0.2363  0.6874
  632TMC3    C3 9409   1.378   3.955  15.266  0.9332 -0.3823  0.3796
  632TMC3    C4 9410   1.654   3.916  15.222 -0.3088  0.0162 -0.2569
  632TMC3    C5 9411   1.582   4.012  15.156 -0.5746  0.0300 -0.2259
  632TMC3    C6 9412   1.449   4.040  15.185 -0.2935 -1.1076 -0.6036
  632TMC3     C 9413   1.630   3.696  15.322  0.0982  0.7765  0.1682
  632TMC3     O 9414   1.746   3.667  15.296 -0.2911  0.2955 -0.1371
  632TMC3     H 9415   1.396   3.790  15.402 -1.4772  1.8812  0.6278
  632TMC3    H1 9416   1.760   3.895  15.212 -0.2958  0.3429 -0.8139
  632TMC3    H2 9417   1.404   4.120  15.128 -0.8766  0.2613  1.7642
  632TMC3    C7 9418   1.627   4.025  15.021  0.7733  0.8909  0.0520
  632TMC3    C8 9419   1.248   3.985  15.322  0.5925  0.2313 -0.0351
  632TMC3    O1 9420   1.550   4.050  14.929  0.1560 -0.7419 -0.1006
  632TMC3    O2 9421   1.236   3.950  15.438  0.1178 -0.0223  0.0317
  633MPD2     C 9422   1.488   1.416  17.206 -0.1565  0.3826 -0.2455
  633MPD2    C1 9423   1.485   1.336  17.101 -0.0711 -0.2774 -0.0152
  633MPD2    C2 9424   1.487   1.191  17.108 -0.0834  0.5112 -0.1523
  633MPD2    C3 9425   1.492   1.132  17.237 -0.2286  0.6036  0.1944
  633MPD2    C4 9426   1.477   1.216  17.348  0.0578  0.0289 -0.4238
  633MPD2    C5 9427   1.481   1.349  17.327 -0.6671  0.3166 -0.6642
  633MPD2     H 9428   1.473   1.137  17.015 -1.2168 -0.3954  0.5485
  633MPD2    H1 9429   1.486   1.171  17.446  2.6483  1.7489  0.1163
  633MPD2    H2 9430   1.500   1.523  17.200 -0.5613  0.4293 -0.2204
  633MPD2    H3 9431   1.491   1.413  17.415 -1.8958  1.9103 -1.6700
  633MPD2     N 9432   1.506   0.992  17.253 -0.0063  0.0068  0.1517
  633MPD2    H5 9433   1.522   0.953  17.345  1.0509  0.9980  0.3886
  633MPD2    N1 9434   1.497   1.387  16.970  0.0419  0.2980  0.0747
  633MPD2    H7 9435   1.530   1.318  16.903 -2.4437  0.6358 -1.5130
  634TMC3    C1 9436   1.539   1.553  16.799 -0.1709 -0.7192 -0.4548
  634TMC3    C2 9437   1.598   1.454  16.726 -0.5713  0.1266  0.5062
  634TMC3    C3 9438   1.622   1.478  16.593 -1.0819 -0.0796  0.9254
  634TMC3    C4 9439   1.507   1.670  16.737  0.0852  0.0020 -0.6485
  634TMC3    C5 9440   1.527   1.692  16.603 -0.1587 -0.2928 -0.0184
  634TMC3    C6 9441   1.595   1.599  16.528 -0.2818  0.0784  0.2424
  634TMC3     C 9442   1.483   1.522  16.934 -0.1221  0.0262  0.5601
  634TMC3     O 9443   1.410   1.605  16.988 -0.4445  0.1817  0.1493
  634TMC3     H 9444   1.618   1.352  16.758  0.0323 -0.1357 -0.6845
  634TMC3    H1 9445   1.459   1.741  16.803  1.2014  0.6952 -0.5750
  634TMC3    H2 9446   1.613   1.609  16.422  1.0029 -1.7644  0.2995
  634TMC3    C7 9447   1.489   1.814  16.540  0.3197  0.0216 -0.2058
  634TMC3    C8 9448   1.645   1.361  16.503  0.0583  0.1957 -0.8109
  634TMC3    O1 9449   1.544   1.846  16.438 -0.2057  0.2693 -0.2966
  634TMC3    O2 9450   1.641   1.251  16.551  0.0906  0.3990 -0.2079
  635TMC3    C1 9451   1.746   1.935  17.370 -0.0882 -0.4038 -1.1010
  635TMC3    C2 9452   1.857   1.870  17.312  0.4112 -0.2539  1.0100
  635TMC3    C3 9453   1.855   1.736  17.291 -0.3445  0.3462  0.2381
  635TMC3    C4 9454   1.648   1.858  17.434 -0.9689 -0.1213 -0.3668
  635TMC3    C5 9455   1.652   1.725  17.418 -0.3689  0.2829 -0.2012
  635TMC3    C6 9456   1.752   1.659  17.345  0.3010 -0.3284  0.3969
  635TMC3     C 9457   1.743   2.074  17.407 -0.5134 -0.5677  0.2849
  635TMC3     O 9458   1.658   2.110  17.482  0.2770  0.4899 -0.7364
  635TMC3     H 9459   1.939   1.930  17.274  0.4300  0.1214  1.6531
  635TMC3    H1 9460   1.563   1.906  17.481  0.4291 -0.3398  2.3859
  635TMC3    H2 9461   1.748   1.553  17.324  0.9516  0.1036 -1.9325
  635TMC3    C7 9462   1.581   1.653  17.521  0.5116 -0.3636 -0.1671
  635TMC3    C8 9463   1.966   1.665  17.215 -0.1448 -0.1338  0.1696
  635TMC3    O1 9464   1.474   1.696  17.567 -0.0285 -0.7313  0.1797
  635TMC3    O2 9465   1.942   1.549  17.191 -0.0864 -0.3014  0.1948
  636MPD2     C 9466   2.393   1.717  16.031 -0.2592  0.5831 -1.2594
  636MPD2    C1 9467   2.446   1.717  16.158 -0.5181  0.0215 -0.8866
  636MPD2    C2 9468   2.471   1.596  16.218  1.0242 -0.1447 -0.3527
  636MPD2    C3 9469   2.444   1.480  16.156 -0.6526  0.0724 -0.1045
  636MPD2    C4 9470   2.403   1.478  16.024 -0.0427 -0.1620  0.2227
  636MPD2    C5 9471   2.374   1.597  15.959 -0.6587  0.2937 -0.9573
  636MPD2     H 9472   2.511   1.592  16.318  2.4474 -1.2474 -0.9562
  636MPD2    H1 9473   2.380   1.388  15.968 -1.0057 -0.8274  1.6640
  636MPD2    H2 9474   2.382   1.808  15.973 -2.0003  1.1737 -0.0118
  636MPD2    H3 9475   2.338   1.588  15.858  2.0480  0.0889 -1.8905
  636MPD2     N 9476   2.453   1.368  16.235  0.1472  0.0110 -0.1098
  636MPD2    H5 9477   2.475   1.383  16.333 -0.3947  0.7086 -0.0956
  636MPD2    N1 9478   2.490   1.829  16.218 -0.1880 -0.1173 -0.1194
  636MPD2    H7 9479   2.553   1.818  16.297 -0.2686  0.2864  0.0031
  637TMC3    C1 9480   2.513   1.140  16.274 -0.5584  0.6964  0.5095
  637TMC3    C2 9481   2.582   1.190  16.372 -0.2001  0.3191 -0.4101
  637TMC3    C3 9482   2.709   1.137  16.395 -0.4055 -0.4488 -0.5539
  637TMC3    C4 9483   2.554   1.025  16.206 -0.1959  0.5567  0.3489
  637TMC3    C5 9484   2.682   0.981  16.213 -0.2455  0.0108  0.7974
  637TMC3    C6 9485   2.757   1.033  16.315  1.0033 -0.1766 -0.1143
  637TMC3     C 9486   2.440   1.237  16.192 -0.0597 -1.0116 -0.5890
  637TMC3     O 9487   2.410   1.199  16.082  0.4534  0.0946 -0.1513
  637TMC3     H 9488   2.542   1.268  16.436  1.0391  1.1241 -0.6169
  637TMC3    H1 9489   2.481   0.985  16.136 -0.6742  2.2208 -0.1260
  637TMC3    H2 9490   2.856   0.998  16.340  0.2220 -1.1608  1.6183
  637TMC3    C7 9491   2.766   0.984  16.091  0.0411 -0.5714 -0.2025
  637TMC3    C8 9492   2.801   1.233  16.429  0.0487  0.2347  0.3408
  637TMC3    O1 9493   2.859   1.057  16.118 -0.4141 -0.2479 -0.0065
  637TMC3    O2 9494   2.770   1.321  16.503 -0.3474 -0.1781 -0.1385
  638MPD2     C 9495   2.598   0.599  14.622 -0.4045  0.1491 -0.4885
  638MPD2    C1 9496   2.533   0.501  14.554  0.1914 -0.2790 -0.0658
  638MPD2    C2 9497   2.490   0.388  14.620 -0.2337 -0.0372  0.1813
  638MPD2    C3 9498   2.525   0.365  14.748  0.9560 -0.2327  0.1899
  638MPD2    C4 9499   2.593   0.464  14.815  0.2783  0.1130  0.5313
  638MPD2    C5 9500   2.636   0.579  14.752  0.1581 -0.0417  0.0818
  638MPD2     H 9501   2.431   0.318  14.561  0.2539  0.0899 -0.4547
  638MPD2    H1 9502   2.605   0.460  14.922 -0.5920  0.2277  0.6346
  638MPD2    H2 9503   2.634   0.685  14.566 -1.0821  0.2046 -0.8339
  638MPD2    H3 9504   2.693   0.655  14.806 -2.8303  0.6919  2.2130
  638MPD2     N 9505   2.503   0.234  14.810 -0.0591 -0.2096 -0.1413
  638MPD2    H5 9506   2.452   0.161  14.762  3.9378 -2.0072 -1.7038
  638MPD2    N1 9507   2.521   0.521  14.414  0.0240  0.0587 -0.7389
  638MPD2    H7 9508   2.580   0.596  14.382 -1.1149  1.0849 -0.4233
  639TMC3    C1 9509   2.552   0.049  14.966  0.4894 -0.8634  0.5923
  639TMC3    C2 9510   2.432   4.733  14.954 -0.4523  0.0137  0.7615
  639TMC3    C3 9511   2.419   4.603  14.995  0.1374 -0.0682 -0.5174
  639TMC3    C4 9512   2.666   4.729  15.020  0.1602  0.0649  0.2998
  639TMC3    C5 9513   2.644   4.602  15.070 -0.0948  0.0412  0.0110
  639TMC3    C6 9514   2.522   4.532  15.055  0.0878 -0.7243  0.2724
  639TMC3     C 9515   2.573   0.191  14.924 -0.0035  0.8662  1.1399
  639TMC3     O 9516   2.668   0.252  14.976  0.3242 -0.7120 -0.3416
  639TMC3     H 9517   2.346   0.047  14.912  0.8708 -0.8140 -2.9374
  639TMC3    H1 9518   2.751   0.050  15.057  0.2711 -0.4465  0.8447
  639TMC3    H2 9519   2.509   4.424  15.064 -0.8637 -0.7222 -0.9932
  639TMC3    C7 9520   2.757   4.519  15.105 -0.0962 -0.0944 -0.6265
  639TMC3    C8 9521   2.329   4.523  14.918  0.2596 -0.2384  0.6195
  639TMC3    O1 9522   2.739   4.423  15.178  0.1612  0.0732 -0.3097
  639TMC3    O2 9523   2.383   4.441  14.843 -0.0269  0.0923  0.0675
  640MPD2     C 9524   3.134   0.075   9.740 -0.2887  0.5057  0.0193
  640MPD2    C1 9525   3.091   4.697   9.804 -0.4029  0.3597  0.2934
  640MPD2    C2 9526   3.023   4.711   9.928 -0.4363  0.2944 -0.5267
  640MPD2    C3 9527   2.992   0.097   9.981  0.1820 -0.5654 -0.3340
  640MPD2    C4 9528   3.023   0.213   9.907  0.2911 -0.0433 -0.1826
  640MPD2    C5 9529   3.097   0.197   9.790  0.4250  0.1678 -0.5054
  640MPD2     H 9530   2.996   4.617   9.975  0.5940 -1.1689 -2.8494
  640MPD2    H1 9531   3.021   0.311   9.952  4.8089 -0.7773  1.6493
  640MPD2    H2 9532   3.180   0.071   9.642  1.8553 -0.3810  1.0607
  640MPD2    H3 9533   3.137   0.286   9.743 -3.4289  0.8581 -2.4778
  640MPD2     N 9534   2.912   0.112  10.094 -0.5466 -0.3126  0.2879
  640MPD2    H5 9535   2.876   0.204  10.117 -1.2316 -0.2475 -1.0671
  640MPD2    N1 9536   3.115   4.576   9.744  0.2627 -0.0370 -0.0790
  640MPD2    H7 9537   3.145   4.587   9.647  1.6705  0.3547  0.4001
  641TMC3    C1 9538   3.101   4.356   9.698 -0.1278 -0.7528  0.1225
  641TMC3    C2 9539   3.150   4.229   9.726  0.7210 -0.0925 -0.5589
  641TMC3    C3 9540   3.136   4.129   9.634  0.3753  0.0214 -1.0244
  641TMC3    C4 9541   3.032   4.378   9.582 -0.1817  0.1160  0.2396
  641TMC3    C5 9542   3.022   4.278   9.490 -0.1758  0.5991  0.2966
  641TMC3    C6 9543   3.071   4.154   9.518 -0.5578  0.3222 -0.2350
  641TMC3     C 9544   3.108   4.452   9.800 -0.2794 -0.5408 -0.2075
  641TMC3     O 9545   3.131   4.417   9.915  0.0939 -0.1186 -0.0337
  641TMC3     H 9546   3.176   4.211   9.829 -0.8452  1.8079  0.1713
  641TMC3    H1 9547   2.984   4.473   9.564 -1.6345 -0.5284  0.6684
  641TMC3    H2 9548   3.045   4.075   9.449  1.4532 -0.3181 -0.2785
  641TMC3    C7 9549   2.941   4.304   9.374 -0.0481 -0.2538  0.3705
  641TMC3    C8 9550   3.192   3.992   9.650 -0.0204  0.2801  0.4417
  641TMC3    O1 9551   2.899   4.202   9.323  0.5330 -0.6291  0.3229
  641TMC3    O2 9552   3.146   3.915   9.571  0.0893 -0.0426  0.3605
  642TMC3    C1 9553   3.997   4.579  12.368  0.4891 -1.0965  0.0796
  642TMC3    C2 9554   4.119   4.619  12.329 -0.4874 -1.0500 -0.0623
  642TMC3    C3 9555   4.206   4.533  12.274  0.0430  0.3309 -0.3203
  642TMC3    C4 9556   3.948   4.449  12.347  0.0200 -0.0522  0.6569
  642TMC3    C5 9557   4.044   4.364  12.300  0.5214  0.2288  0.1070
  642TMC3    C6 9558   4.167   4.403  12.245 -0.0199  0.7850  0.1869
  642TMC3     C 9559   3.901   4.679  12.426 -1.0167 -0.5933 -0.0601
  642TMC3     O 9560   3.793   4.625  12.445  0.1834 -0.4011  0.5766
  642TMC3     H 9561   4.154   4.719  12.351  0.1288 -1.3082  0.1064
  642TMC3    H1 9562   3.849   4.421  12.380  1.1826 -1.9504  2.5331
  642TMC3    H2 9563   4.235   4.332  12.200 -1.5538 -0.2168 -0.5413
  642TMC3    C7 9564   4.006   4.226  12.285  0.6910  0.7642  0.1495
  642TMC3    C8 9565   4.327   4.586  12.212  0.0934 -0.0688 -0.5096
  642TMC3    O1 9566   4.047   4.173  12.179  0.8538 -0.3547 -0.0488
  642TMC3    O2 9567   4.378   4.509  12.131 -0.0865 -0.1661 -0.3694
  643TMC3    C1 9568   3.337   4.001   0.025 -0.0327  0.7763  0.2754
  643TMC3    C2 9569   3.205   3.994   0.044  0.4254  0.0492 -0.4665
  643TMC3    C3 9570   3.130   3.941  17.684  0.4417  0.3136  0.3285
  643TMC3    C4 9571   3.399   3.954  17.659  0.2486  0.3422 -0.5150
  643TMC3    C5 9572   3.318   3.916  17.555  0.2706  0.3883 -1.3189
  643TMC3    C6 9573   3.189   3.882  17.571 -0.7251 -0.0204 -0.0912
  643TMC3     C 9574   3.414   4.090   0.104 -0.4009 -0.5756 -0.0507
  643TMC3     O 9575   3.352   4.186   0.142 -0.1775  0.7644 -0.1216
  643TMC3     H 9576   3.159   4.044   0.129  0.9840  0.7419 -0.5752
  643TMC3    H1 9577   3.505   3.960  17.638  0.6107 -1.1778  0.9352
  643TMC3    H2 9578   3.124   3.862  17.486 -1.1696  0.5849  0.1057
  643TMC3    C7 9579   3.329   3.996  17.439  0.0468  0.7186 -0.4384
  643TMC3    C8 9580   3.017   4.015  17.633  0.1189  0.9992 -0.4851
  643TMC3    O1 9581   3.377   4.108  17.457 -0.1507 -0.1811 -0.1187
  643TMC3    O2 9582   2.912   3.949  17.615  0.0887  0.3322  0.1030
  644MPD2     C 9583   2.834   3.834   9.138  0.5380  0.3415  0.1953
  644MPD2    C1 9584   2.782   3.948   9.075  0.1030  0.4774  0.2196
  644MPD2    C2 9585   2.649   3.954   9.053 -0.2795 -0.0188 -0.2780
  644MPD2    C3 9586   2.557   3.852   9.084  0.1268  0.1723 -0.2983
  644MPD2    C4 9587   2.613   3.736   9.143  0.3846  0.0937  0.4060
  644MPD2    C5 9588   2.747   3.729   9.162 -0.0766  0.0892  0.3693
  644MPD2     H 9589   2.603   4.047   9.022 -0.2623  0.6444  1.6916
  644MPD2    H1 9590   2.551   3.650   9.164 -0.5233  1.0648  1.6412
  644MPD2    H2 9591   2.939   3.833   9.164  0.0330 -2.2841  2.1581
  644MPD2    H3 9592   2.795   3.640   9.201 -1.7604 -0.0739  2.0712
  644MPD2     N 9593   2.416   3.874   9.076 -0.2259 -0.7709  0.6877
  644MPD2    H5 9594   2.393   3.972   9.068  0.6784 -0.7162 -1.2562
  644MPD2    N1 9595   2.865   4.056   9.047  0.2926  0.3247  0.0009
  644MPD2    H7 9596   2.960   4.053   9.083  0.1360 -1.8366  0.2100
  645TMC3    C1 9597   2.187   3.855   9.132 -0.1881 -0.1007 -1.3161
  645TMC3    C2 9598   2.142   3.939   9.037 -0.3024  0.5159  0.3294
  645TMC3    C3 9599   2.011   3.983   9.028 -0.4293 -0.0057 -0.1348
  645TMC3    C4 9600   2.101   3.808   9.224  0.4073  0.7608 -0.6612
  645TMC3    C5 9601   1.973   3.860   9.223 -0.3615 -0.5013  0.3417
  645TMC3    C6 9602   1.928   3.957   9.135 -0.7862 -0.0273 -0.5097
  645TMC3     C 9603   2.317   3.790   9.124  0.3277 -0.0470  1.0122
  645TMC3     O 9604   2.324   3.679   9.168 -0.4568  0.2181  0.7992
  645TMC3     H 9605   2.220   3.976   8.971 -0.9601 -0.0974 -0.7982
  645TMC3    H1 9606   2.132   3.754   9.312 -1.5937  0.3490 -0.2104
  645TMC3    H2 9607   1.824   3.985   9.120 -0.2550  1.8247 -0.6411
  645TMC3    C7 9608   1.888   3.853   9.336 -0.2030  0.3377  0.1849
  645TMC3    C8 9609   1.963   4.048   8.908  0.2791  0.2334 -0.5629
  645TMC3    O1 9610   1.821   3.953   9.350  0.1423 -0.1141  0.1614
  645TMC3    O2 9611   1.849   4.096   8.916  0.3058  0.3223  0.7100
  646MPD2     C 9612   2.648   3.812  14.663 -0.3627  0.2778  0.6444
  646MPD2    C1 9613   2.543   3.770  14.740  0.0830 -0.3516 -0.0760
  646MPD2    C2 9614   2.414   3.784  14.695  0.1910 -1.4553  0.5988
  646MPD2    C3 9615   2.394   3.841  14.574  0.1131 -0.1370  0.1226
  646MPD2    C4 9616   2.502   3.886  14.503  0.2322 -0.3100 -0.1045
  646MPD2    C5 9617   2.624   3.870  14.547 -0.5386 -0.1986 -0.2253
  646MPD2     H 9618   2.331   3.755  14.758  1.1920 -1.7016  1.7930
  646MPD2    H1 9619   2.501   3.945  14.412 -0.1550 -2.2795 -1.3695
  646MPD2    H2 9620   2.749   3.809  14.704 -0.0763 -2.6909 -0.3009
  646MPD2    H3 9621   2.705   3.916  14.492  0.7633  0.2770  2.1012
  646MPD2     N 9622   2.265   3.874  14.529 -0.1327  0.1374 -0.1321
  646MPD2    H5 9623   2.185   3.888  14.590 -0.6830 -0.2355 -0.7747
  646MPD2    N1 9624   2.573   3.703  14.860 -0.3884  0.1619 -0.4397
  646MPD2    H7 9625   2.670   3.673  14.862 -0.7978 -1.0810  0.5231
  647TMC3    C1 9626   2.555   3.584  15.067  0.1514 -0.3853  0.0381
  647TMC3    C2 9627   2.497   3.473  15.118  0.3716 -0.4966 -0.2048
  647TMC3    C3 9628   2.564   3.404  15.220 -0.3437  0.2370  0.6380
  647TMC3    C4 9629   2.686   3.612  15.098 -0.2047  0.6576 -0.5641
  647TMC3    C5 9630   2.752   3.532  15.178  0.0265  0.0691  1.1620
  647TMC3    C6 9631   2.690   3.436  15.250  0.4264  0.4121 -0.2394
  647TMC3     C 9632   2.489   3.660  14.967 -0.1874 -0.1403  0.1754
  647TMC3     O 9633   2.377   3.696  14.985 -0.1052 -0.1576 -0.2187
  647TMC3     H 9634   2.397   3.448  15.082  0.2299 -0.5800  0.2444
  647TMC3    H1 9635   2.740   3.693  15.049 -2.9743  2.8342  0.0375
  647TMC3    H2 9636   2.737   3.367  15.319  1.8670  0.5304 -1.1047
  647TMC3    C7 9637   2.900   3.514  15.185 -0.2241  0.3225 -0.1300
  647TMC3    C8 9638   2.545   3.261  15.225  0.0688 -0.1816 -0.0647
  647TMC3    O1 9639   2.936   3.446  15.280  0.3936 -0.0516 -0.2171
  647TMC3    O2 9640   2.563   3.213  15.338 -0.2929  0.9857 -0.3330
  648TMC3    C1 9641   2.021   1.528  15.891 -0.5123 -0.0101  0.2103
  648TMC3    C2 9642   2.066   1.418  15.825  0.7730  0.4120 -0.0823
  648TMC3    C3 9643   2.062   1.416  15.690  0.2982 -0.4223 -0.2399
  648TMC3    C4 9644   1.960   1.635  15.831 -0.3937 -0.5902 -0.1175
  648TMC3    C5 9645   1.963   1.631  15.693 -0.9923 -0.5860  0.3607
  648TMC3    C6 9646   2.024   1.529  15.622  0.3109  0.6121 -0.8014
  648TMC3     C 9647   2.036   1.539  16.038 -0.7106  0.6497  0.4462
  648TMC3     O 9648   1.994   1.642  16.089 -0.0441 -0.7206  0.2289
  648TMC3     H 9649   2.078   1.321  15.873  1.1739  0.3133 -0.3819
  648TMC3    H1 9650   1.921   1.717  15.891 -1.3235 -1.4620  0.4651
  648TMC3    H2 9651   2.039   1.530  15.515 -1.7814  0.4145 -1.0887
  648TMC3    C7 9652   1.904   1.739  15.621  0.4785 -0.5723  0.0215
  648TMC3    C8 9653   2.020   1.284  15.647  0.4730  0.0482  0.2448
  648TMC3    O1 9654   1.931   1.736  15.499 -0.0573  0.6595  0.1877
  648TMC3    O2 9655   1.902   1.261  15.668  0.6188  0.3243 -0.3877
  649TMC3    C1 9656   0.366   2.278  12.844 -0.1423 -0.3317  0.8665
  649TMC3    C2 9657   0.496   2.240  12.847 -0.3375  0.0076  0.2733
  649TMC3    C3 9658   0.543   2.197  12.976 -0.7869  0.4990 -0.0002
  649TMC3    C4 9659   0.285   2.277  12.954 -0.1970  0.2214 -0.2235
  649TMC3    C5 9660   0.331   2.226  13.064 -0.5363 -0.6318  0.2561
  649TMC3    C6 9661   0.459   2.176  13.083  0.9538  0.1839  0.8206
  649TMC3     C 9662   0.327   2.351  12.724 -0.4806 -0.3501 -0.1801
  649TMC3     O 9663   0.254   2.451  12.736 -0.0730  0.5836  0.4208
  649TMC3     H 9664   0.567   2.241  12.765 -0.4514 -1.6417  0.1678
  649TMC3    H1 9665   0.180   2.306  12.950 -0.3968 -0.7180 -1.7768
  649TMC3    H2 9666   0.495   2.145  13.180  0.2183  0.2304  1.1131
  649TMC3    C7 9667   0.237   2.236  13.178 -0.9587 -0.6532  0.4954
  649TMC3    C8 9668   0.674   2.137  12.984 -0.7280 -0.3176  0.0420
  649TMC3    O1 9669   0.286   2.287  13.278  0.6484  0.3052  0.5391
  649TMC3    O2 9670   0.695   2.052  13.071 -0.4265  0.0661  0.5142
  650TMC3    C1 9671   3.407   3.854  12.556  0.0060  0.3429 -0.5803
  650TMC3    C2 9672   3.299   3.928  12.604 -0.5066  0.3915  0.3038
  650TMC3    C3 9673   3.226   3.990  12.511  0.3353  0.5203  0.0080
  650TMC3    C4 9674   3.448   3.848  12.430  0.2635 -0.9483 -0.3919
  650TMC3    C5 9675   3.385   3.928  12.339  0.1310 -0.1295  0.0800
  650TMC3    C6 9676   3.271   4.001  12.377  0.0762 -0.7832 -0.4209
  650TMC3     C 9677   3.497   3.804  12.653  0.1028  0.3114 -0.1669
  650TMC3     O 9678   3.554   3.698  12.630 -0.5966  0.0537  0.5241
  650TMC3     H 9679   3.259   3.924  12.704 -0.9907 -1.7228  0.0177
  650TMC3    H1 9680   3.547   3.809  12.409  0.3808 -0.5235 -0.6101
  650TMC3    H2 9681   3.217   4.056  12.301 -0.8880  0.6240  1.2833
  650TMC3    C7 9682   3.469   4.002  12.256 -0.3671 -0.3455 -0.3733
  650TMC3    C8 9683   3.180   4.121  12.548 -0.4467  0.3816  0.9552
  650TMC3    O1 9684   3.574   3.949  12.232 -0.4608  0.0373 -0.5711
  650TMC3    O2 9685   3.251   4.213  12.510  0.4759 -0.1032  0.1721
  651MPD2     C 9686   2.041   1.744  11.311  0.4721 -0.3016  0.6145
  651MPD2    C1 9687   2.006   1.774  11.179 -0.1880  0.0304 -0.0010
  651MPD2    C2 9688   2.111   1.788  11.088 -0.5142 -0.2900  0.7184
  651MPD2    C3 9689   2.244   1.761  11.123  0.0190  0.3680  0.3490
  651MPD2    C4 9690   2.278   1.725  11.254  0.0141  0.6608 -0.5255
  651MPD2    C5 9691   2.174   1.713  11.339  0.1475 -0.0981 -0.2554
  651MPD2     H 9692   2.085   1.806  10.985  0.0611 -2.1976  0.2479
  651MPD2    H1 9693   2.375   1.688  11.285 -0.5804  1.2459  2.0474
  651MPD2    H2 9694   1.977   1.750  11.399  0.9009 -1.7038  1.0166
  651MPD2    H3 9695   2.197   1.686  11.442  2.2020 -0.9466 -0.9360
  651MPD2     N 9696   2.350   1.770  11.021  0.4963  0.6060  0.1825
  651MPD2    H5 9697   2.326   1.797  10.927  0.7330 -1.2145 -0.4038
  651MPD2    N1 9698   1.874   1.808  11.139  0.7117  0.6001 -0.3545
  651MPD2    H7 9699   1.864   1.843  11.044  1.0331  2.2768  0.2399
  652TMC3    C1 9700   2.767   1.838  10.819  0.2804 -0.2450  0.8493
  652TMC3    C2 9701   2.697   1.786  10.927  0.0939  0.0071 -0.1165
  652TMC3    C3 9702   2.561   1.814  10.927  0.0537  0.7929 -0.0711
  652TMC3    C4 9703   2.705   1.907  10.713  0.0052  0.0740  0.0359
  652TMC3    C5 9704   2.575   1.932  10.722 -0.4416  0.4105  0.1970
  652TMC3    C6 9705   2.507   1.888  10.828 -0.4014  0.8862 -0.9120
  652TMC3     C 9706   2.905   1.809  10.822 -0.2662  0.0067  0.3734
  652TMC3     O 9707   2.949   1.763  10.928 -0.0300  0.7745  0.0946
  652TMC3     H 9708   2.743   1.733  11.009 -0.4267  0.5937  0.5598
  652TMC3    H1 9709   2.759   1.956  10.632 -0.8124  3.1114  1.3303
  652TMC3    H2 9710   2.401   1.912  10.832 -0.6281 -0.3869  0.9070
  652TMC3    C7 9711   2.508   2.013  10.625  0.7479 -0.2131 -0.0616
  652TMC3    C8 9712   2.482   1.763  11.040 -0.2516  0.9400 -0.1015
  652TMC3    O1 9713   2.385   2.008  10.636 -0.4883  0.4577 -0.2799
  652TMC3    O2 9714   2.554   1.740  11.133 -0.0152 -0.2823 -0.3070
  653MPD2     C 9715   1.157   1.290  17.504 -0.2713  0.7335 -0.1703
  653MPD2    C1 9716   1.101   1.397  17.438  0.0726  0.3700 -0.3894
  653MPD2    C2 9717   1.064   1.376  17.302 -0.0213  0.1720  0.3868
  653MPD2    C3 9718   1.054   1.254  17.242 -0.1388 -0.8985 -0.3193
  653MPD2    C4 9719   1.096   1.145  17.320 -0.1477 -0.9114 -0.0783
  653MPD2    C5 9720   1.153   1.167  17.442 -0.0148 -0.0278  0.4406
  653MPD2     H 9721   1.030   1.463  17.246  1.5159  0.4130 -0.1734
  653MPD2    H1 9722   1.099   1.042  17.288 -2.3002 -1.7160  2.4158
  653MPD2    H2 9723   1.175   1.285  17.611 -0.7185 -1.6770 -0.1931
  653MPD2    H3 9724   1.196   1.086  17.501 -2.1782 -1.1050  0.5162
  653MPD2     N 9725   1.009   1.244  17.099 -0.3180 -0.3788 -0.4178
  653MPD2    H5 9726   0.989   1.335  17.057  0.9385  1.0529  2.0628
  653MPD2    N1 9727   1.097   1.526  17.493  0.2419  0.0094 -0.3679
  653MPD2    H7 9728   1.053   1.598  17.437  1.9890  1.8263  0.5871
  654TMC3    C1 9729   0.944   1.135  16.904  0.1965 -0.2553  0.1801
  654TMC3    C2 9730   0.890   1.252  16.851 -0.6508 -0.9176  0.3840
  654TMC3    C3 9731   0.847   1.244  16.718 -0.0156 -0.2137 -0.6157
  654TMC3    C4 9732   0.956   1.018  16.833  0.4210  0.1421 -0.1795
  654TMC3    C5 9733   0.914   1.021  16.699 -0.2544 -0.6265 -0.3067
  654TMC3    C6 9734   0.852   1.128  16.646  0.2000  0.2424  0.1885
  654TMC3     C 9735   0.973   1.127  17.047 -1.0075  0.2081 -0.8569
  654TMC3     O 9736   0.983   1.017  17.092 -0.1972  0.1202 -0.3053
  654TMC3     H 9737   0.893   1.346  16.904  2.1898 -0.3335 -0.7701
  654TMC3    H1 9738   0.969   0.926  16.889 -1.3086 -0.5538 -0.9307
  654TMC3    H2 9739   0.796   1.125  16.553  0.5382  2.9758 -0.1320
  654TMC3    C7 9740   0.907   0.902  16.621  0.9320  0.6542  0.2885
  654TMC3    C8 9741   0.807   1.364  16.646  0.5243 -0.5107 -0.2902
  654TMC3    O1 9742   0.864   0.901  16.507 -0.1088 -0.1836  0.0485
  654TMC3    O2 9743   0.754   1.452  16.707  0.5134 -0.2412 -0.0968
  655MPD2     C 9744   2.457   1.647  15.524  0.4969  0.1556 -0.1974
  655MPD2    C1 9745   2.374   1.731  15.446  1.2687 -0.0868 -0.3044
  655MPD2    C2 9746   2.369   1.706  15.309  0.0782  0.2791 -0.8945
  655MPD2    C3 9747   2.434   1.603  15.250  0.1848 -0.0835 -0.3890
  655MPD2    C4 9748   2.508   1.515  15.329  0.8288 -0.2665  0.6434
  655MPD2    C5 9749   2.513   1.539  15.461 -0.6149 -0.1687 -0.3555
  655MPD2     H 9750   2.314   1.774  15.245 -1.1628  0.6116  0.5229
  655MPD2    H1 9751   2.561   1.426  15.297 -1.3518 -1.1172 -0.6558
  655MPD2    H2 9752   2.485   1.670  15.627 -0.4142 -3.3403  0.8214
  655MPD2    H3 9753   2.569   1.473  15.526  1.4967  0.5026 -1.4642
  655MPD2     N 9754   2.418   1.564  15.117 -0.2629 -0.2191 -0.5438
  655MPD2    H5 9755   2.434   1.465  15.103  1.5152  0.0346 -0.2076
  655MPD2    N1 9756   2.312   1.850  15.494  0.3366 -0.1608  0.2324
  655MPD2    H7 9757   2.265   1.908  15.425 -0.1204 -1.8184 -0.8342
  656TMC3    C1 9758   2.253   2.004  15.658  0.0688  0.5340 -0.7598
  656TMC3    C2 9759   2.216   2.037  15.786 -0.2096  0.2661  0.3096
  656TMC3    C3 9760   2.162   2.159  15.813  0.4581 -0.0755 -1.0712
  656TMC3    C4 9761   2.227   2.094  15.558 -0.0314  0.4672  0.6732
  656TMC3    C5 9762   2.177   2.219  15.585  0.5642  0.3510  0.5463
  656TMC3    C6 9763   2.150   2.256  15.718  0.3870 -0.4085  0.9365
  656TMC3     C 9764   2.314   1.878  15.628 -0.1100  0.2271 -0.2758
  656TMC3     O 9765   2.374   1.836  15.729  0.5680  0.0834 -0.0645
  656TMC3     H 9766   2.224   1.967  15.868  0.0037  1.0443  0.9535
  656TMC3    H1 9767   2.224   2.054  15.458 -0.8598 -1.9052  1.6390
  656TMC3    H2 9768   2.099   2.347  15.745  2.2844  1.2215 -0.9345
  656TMC3    C7 9769   2.110   2.290  15.478  0.4507  0.1807 -0.4723
  656TMC3    C8 9770   2.079   2.179  15.933  0.3051 -0.1718  0.2495
  656TMC3    O1 9771   2.180   2.311  15.381  0.0688  0.1972  0.4638
  656TMC3    O2 9772   2.081   2.285  15.990  0.0743  0.1889 -0.1359
  657TMC3    C1 9773   1.212   1.291  14.738  0.1096  0.3446  0.4032
  657TMC3    C2 9774   1.281   1.330  14.844 -0.4217  0.4453 -0.2030
  657TMC3    C3 9775   1.284   1.468  14.860 -0.1969 -0.0882  0.0329
  657TMC3    C4 9776   1.151   1.371  14.649 -0.7849  0.5175 -0.5496
  657TMC3    C5 9777   1.150   1.504  14.679 -0.0792 -0.0491 -0.9462
  657TMC3    C6 9778   1.207   1.555  14.787 -0.2558  0.3424  0.1206
  657TMC3     C 9779   1.207   1.146  14.704 -0.4656  0.6919 -0.4602
  657TMC3     O 9780   1.107   1.109  14.646 -0.3093 -0.5929 -0.0365
  657TMC3     H 9781   1.319   1.257  14.915 -1.6487 -0.2665 -0.2744
  657TMC3    H1 9782   1.081   1.337  14.573  0.6394 -0.2827 -1.4966
  657TMC3    H2 9783   1.206   1.663  14.792  0.5078  0.4447 -1.9700
  657TMC3    C7 9784   1.062   1.592  14.605  0.7821 -0.1961  0.3596
  657TMC3    C8 9785   1.370   1.519  14.972  0.6070 -0.8316  0.2093
  657TMC3    O1 9786   1.005   1.683  14.670  0.2554 -0.2808 -0.6607
  657TMC3    O2 9787   1.333   1.626  15.021  0.2277  0.0619 -0.1954
  658MPD2     C 9788   2.682   1.102  14.671 -0.0858  0.0656 -0.2318
  658MPD2    C1 9789   2.658   1.220  14.611  0.1639 -0.9875  0.2962
  658MPD2    C2 9790   2.717   1.246  14.489  0.3597  0.2594  0.3770
  658MPD2    C3 9791   2.807   1.151  14.436  0.3140  0.4491 -0.1378
  658MPD2    C4 9792   2.838   1.035  14.505  0.2677  0.4816  0.8646
  658MPD2    C5 9793   2.768   1.014  14.623  0.7945 -0.1308  0.6948
  658MPD2     H 9794   2.702   1.338  14.435 -0.6510 -1.1093 -1.6889
  658MPD2    H1 9795   2.913   0.965  14.469 -0.4198 -0.1541  0.6814
  658MPD2    H2 9796   2.644   1.079  14.770 -0.3557 -0.2479 -0.4103
  658MPD2    H3 9797   2.789   0.925  14.681  0.4556 -0.1706  0.7554
  658MPD2     N 9798   2.879   1.167  14.313  0.1203 -0.1751 -0.1158
  658MPD2    H5 9799   2.933   1.087  14.283 -0.6582 -0.9158  0.4561
  658MPD2    N1 9800   2.559   1.309  14.666 -0.7293 -0.3299 -0.2887
  658MPD2    H7 9801   2.525   1.276  14.756 -1.2154 -0.5631 -0.5592
  659TMC3    C1 9802   2.397   1.479  14.692  0.1474  0.6068  0.1706
  659TMC3    C2 9803   2.409   1.486  14.831  0.2378 -0.0967 -0.2323
  659TMC3    C3 9804   2.314   1.553  14.902 -0.1971  0.9979 -0.1088
  659TMC3    C4 9805   2.294   1.546  14.630  0.3520 -0.0124 -0.0218
  659TMC3    C5 9806   2.198   1.613  14.708  0.7858  0.3402  0.4578
  659TMC3    C6 9807   2.203   1.611  14.842  0.0080 -1.4082 -0.2419
  659TMC3     C 9808   2.502   1.418  14.606  0.1368 -0.2164 -0.0584
  659TMC3     O 9809   2.513   1.449  14.490  0.1690  0.8822 -0.6074
  659TMC3     H 9810   2.505   1.463  14.874 -0.1206 -0.5379  0.3375
  659TMC3    H1 9811   2.297   1.552  14.522 -1.4556 -1.8336 -0.1714
  659TMC3    H2 9812   2.124   1.658  14.900  0.2037 -1.4981  0.0965
  659TMC3    C7 9813   2.067   1.641  14.648  0.2070 -0.3635 -0.2453
  659TMC3    C8 9814   2.360   1.632  15.014  0.2963 -0.4552 -0.0440
  659TMC3    O1 9815   1.987   1.693  14.722 -0.1563  0.4949 -0.1009
  659TMC3    O2 9816   2.328   1.751  15.006  0.0502  0.4849 -0.0438
  660MPD2     C 9817   0.402   0.425  12.440  0.4077  0.0175  0.2632
  660MPD2    C1 9818   0.268   0.450  12.419 -0.4156  0.0308  0.4246
  660MPD2    C2 9819   0.169   0.384  12.494  0.5826 -1.0278 -0.3433
  660MPD2    C3 9820   0.206   0.289  12.589  0.3018 -0.0198 -0.4742
  660MPD2    C4 9821   0.336   0.267  12.614  0.6326  0.2265  0.1398
  660MPD2    C5 9822   0.435   0.334  12.539 -0.4572 -0.2630  0.3090
  660MPD2     H 9823   0.064   0.389  12.469  0.1830 -0.7298  1.4252
  660MPD2    H1 9824   0.370   0.195  12.687  0.6410  0.4246  0.3294
  660MPD2    H2 9825   0.472   0.493  12.392  0.1870 -0.4388 -0.7083
  660MPD2    H3 9826   0.540   0.323  12.564  0.1877  0.7580 -1.9137
  660MPD2     N 9827   0.114   0.214  12.668  0.5949  0.0423  0.3845
  660MPD2    H5 9828   0.162   0.154  12.734  0.1203  1.3795  1.9497
  660MPD2    N1 9829   0.232   0.544  12.314  0.1227 -0.3796  0.2363
  660MPD2    H7 9830   0.299   0.557  12.239  0.5361 -1.2023  0.4637
  661TMC3    C1 9831   0.063   0.605  12.172 -0.2452  0.5931  0.1670
  661TMC3    C2 9832   0.141   0.553  12.076 -0.3599 -0.5339  0.3614
  661TMC3    C3 9833   0.093   0.472  11.978 -0.2896 -0.3086 -0.3180
  661TMC3    C4 9834   4.665   0.578  12.183  0.1018  0.0190 -0.2153
  661TMC3    C5 9835   4.619   0.490  12.081 -0.1057 -0.4803 -0.0441
  661TMC3    C6 9836   4.697   0.433  11.982 -1.1394  0.4914  0.6463
  661TMC3     C 9837   0.112   0.598  12.304  0.4875 -0.3160  0.3090
  661TMC3     O 9838   0.027   0.624  12.391  0.4379  0.4852 -0.5381
  661TMC3     H 9839   0.248   0.568  12.084 -0.3399 -0.5296  0.0806
  661TMC3    H1 9840   4.592   0.619  12.251 -0.2974  0.1747 -0.7290
  661TMC3    H2 9841   4.652   0.368  11.908  1.8134 -1.1255  0.2471
  661TMC3    C7 9842   4.478   0.449  12.102  0.1088 -0.2470 -0.0933
  661TMC3    C8 9843   0.167   0.450  11.863  0.3179 -0.6356 -1.1744
  661TMC3    O1 9844   4.421   0.494  12.203  0.6582  0.3787  0.3700
  661TMC3    O2 9845   0.171   0.337  11.815  0.7187  0.2918  0.1902
  662MPD2     C 9846   1.128   4.648  17.578 -0.2193  0.3952  0.5851
  662MPD2    C1 9847   1.023   4.581  17.521  0.1800  0.3102 -0.4151
  662MPD2    C2 9848   0.939   4.631  17.427 -0.0627  1.2186  0.3249
  662MPD2    C3 9849   0.962   0.024  17.382 -0.0164 -0.6877 -0.5794
  662MPD2    C4 9850   1.065   0.091  17.437  0.7583 -0.1367  0.3981
  662MPD2    C5 9851   1.145   0.036  17.530 -0.1805  0.0862 -0.0905
  662MPD2     H 9852   0.854   4.570  17.399 -0.2858  2.0991 -0.8966
  662MPD2    H1 9853   1.092   0.188  17.397  0.0826 -0.9740 -2.0934
  662MPD2    H2 9854   1.172   4.610  17.670  0.0741  0.8428  0.6284
  662MPD2    H3 9855   1.222   0.100  17.573 -1.3861  1.0927  0.5779
  662MPD2     N 9856   0.875   0.099  17.301 -0.5920  0.1459 -0.7027
  662MPD2    H5 9857   0.892   0.198  17.291  2.1677 -0.4536 -1.8642
  662MPD2    N1 9858   0.982   4.453  17.562  0.1681  0.6410  0.4703
  662MPD2    H7 9859   0.899   4.421  17.513  0.2945  2.1166 -0.6974
  663TMC3    C1 9860   0.957   4.255  17.681  0.3063  0.0936  0.2332
  663TMC3    C2 9861   0.891   4.246   0.054  0.0137  0.7544  0.0985
  663TMC3    C3 9862   0.768   4.177   0.043 -0.0178 -0.1867 -0.2377
  663TMC3    C4 9863   0.930   4.189  17.566  0.5002  0.0664 -0.2273
  663TMC3    C5 9864   0.824   4.099  17.579 -0.0931  0.1087  0.2275
  663TMC3    C6 9865   0.734   4.091  17.682  0.0266  0.5799 -0.1382
  663TMC3     C 9866   1.031   4.374  17.663 -0.1327  0.2556  0.6372
  663TMC3     O 9867   1.108   4.404   0.012  0.1829 -0.2481 -0.6366
  663TMC3     H 9868   0.901   4.326   0.127  2.6908  1.2198 -0.7629
  663TMC3    H1 9869   0.986   4.217  17.477 -1.7337 -2.6084 -2.4513
  663TMC3    H2 9870   0.632   4.056  17.670  0.4813 -1.1324  1.1376
  663TMC3    C7 9871   0.780   4.041  17.448 -0.3281  0.1018 -0.4799
  663TMC3    C8 9872   0.667   4.281   0.063 -1.0467 -0.0144 -0.7051
  663TMC3    O1 9873   0.842   4.086  17.350  0.0356  0.5620  0.7548
  663TMC3    O2 9874   0.699   4.397   0.096 -0.4647  0.0606  0.2828
  664MPD2     C 9875   3.856   2.741  17.211  0.2363 -1.0764  0.3266
  664MPD2    C1 9876   3.782   2.859  17.224  0.0276  0.3416 -0.8136
  664MPD2    C2 9877   3.669   2.858  17.306  0.9050 -0.0930  0.4334
  664MPD2    C3 9878   3.635   2.742  17.376 -0.5788  0.0505 -0.9310
  664MPD2    C4 9879   3.701   2.628  17.348 -0.3738 -0.7328  0.2633
  664MPD2    C5 9880   3.817   2.630  17.273 -0.6597  0.1319  0.0652
  664MPD2     H 9881   3.612   2.948  17.327  4.2640  2.3844 -1.1836
  664MPD2    H1 9882   3.674   2.531  17.387  0.7262 -0.0763  2.6836
  664MPD2    H2 9883   3.953   2.745  17.164  0.4632  2.6737  1.0494
  664MPD2    H3 9884   3.874   2.540  17.255  1.4514  1.6453 -0.7248
  664MPD2     N 9885   3.544   2.745  17.481 -0.1304 -0.0946  0.0566
  664MPD2    H5 9886   3.519   2.837  17.515  1.3472  0.4963 -0.4746
  664MPD2    N1 9887   3.810   2.983  17.159 -0.0081  0.2524  0.0804
  664MPD2    H7 9888   3.753   3.063  17.187  0.4780  0.2194  1.1822
  665TMC3    C1 9889   3.436   2.680  17.682 -0.5395 -0.4201  0.2876
  665TMC3    C2 9890   3.407   2.580   0.027  0.3042 -0.7866  0.0451
  665TMC3    C3 9891   3.407   2.608   0.160  0.5421 -0.1368  0.5817
  665TMC3    C4 9892   3.465   2.804  17.729  0.3522 -0.2525  0.7374
  665TMC3    C5 9893   3.470   2.835   0.118  0.6578 -0.0565 -0.7879
  665TMC3    C6 9894   3.433   2.736   0.203 -0.2655 -0.1396 -0.1766
  665TMC3     C 9895   3.495   2.637  17.559  1.0353  0.7724 -0.4639
  665TMC3     O 9896   3.490   2.519  17.530 -0.0740 -0.1447  0.2666
  665TMC3     H 9897   3.417   2.479  17.733 -1.1743 -1.7333  2.1797
  665TMC3    H1 9898   3.478   2.893  17.669 -0.6754  0.4736  1.5747
  665TMC3    H2 9899   3.437   2.764   0.308 -0.9510  0.2739 -0.2637
  665TMC3    C7 9900   3.453   2.977   0.146  0.3965 -0.0607  0.0847
  665TMC3    C8 9901   3.354   2.521   0.255  0.9583 -1.2364 -0.1903
  665TMC3    O1 9902   3.415   3.052   0.060 -0.2191 -0.1340  0.6309
  665TMC3    O2 9903   3.357   2.554   0.372 -0.1115  0.4711 -0.4892
  666TMC3    C1 9904   2.476   3.723   9.893  0.9588  0.0398  0.5513
  666TMC3    C2 9905   2.540   3.605   9.925 -0.1813  0.6153  0.4009
  666TMC3    C3 9906   2.667   3.589   9.877 -0.6511 -0.0800 -0.4169
  666TMC3    C4 9907   2.540   3.825   9.822 -0.0074 -0.0254  0.5418
  666TMC3    C5 9908   2.671   3.805   9.785  0.4118 -0.4098 -0.1879
  666TMC3    C6 9909   2.727   3.684   9.800 -0.0828  0.0440  0.1456
  666TMC3     C 9910   2.391   3.772   9.993 -0.1144 -0.0569 -0.1130
  666TMC3     O 9911   2.394   3.894   9.996 -0.1066  0.2805 -0.1462
  666TMC3     H 9912   2.498   3.535   9.997  1.7777 -0.4778  0.4799
  666TMC3    H1 9913   2.490   3.917   9.795 -1.8280 -1.2136 -0.1640
  666TMC3    H2 9914   2.810   3.671   9.731  0.3200  1.2532  0.3935
  666TMC3    C7 9915   2.754   3.926   9.822  0.4528 -0.1033  0.0676
  666TMC3    C8 9916   2.737   3.477   9.930 -0.4492 -0.4488 -0.3548
  666TMC3    O1 9917   2.872   3.930   9.787  0.2489  0.2235  0.8624
  666TMC3    O2 9918   2.667   3.392   9.985  0.6293  0.0691 -0.2236
  667MPD2     C 9919   4.249   3.295  14.249 -0.6928 -0.1317 -0.7079
  667MPD2    C1 9920   4.264   3.267  14.385 -0.2873  0.1760  0.1014
  667MPD2    C2 9921   4.256   3.135  14.431 -0.2428 -0.3365 -0.1855
  667MPD2    C3 9922   4.189   3.045  14.351  0.0238 -0.4624  0.1544
  667MPD2    C4 9923   4.176   3.073  14.218  0.5628  0.0785  0.0466
  667MPD2    C5 9924   4.216   3.199  14.166 -0.5246  0.3092  0.3675
  667MPD2     H 9925   4.279   3.107  14.533 -2.6061 -0.2761  0.3709
  667MPD2    H1 9926   4.134   3.001  14.149  1.2419 -0.3905  0.1194
  667MPD2    H2 9927   4.262   3.395  14.209 -1.4587  0.0429 -0.5183
  667MPD2    H3 9928   4.201   3.213  14.059  2.1474  1.2774  0.1246
  667MPD2     N 9929   4.153   2.912  14.394 -0.8797 -0.3589  0.5926
  667MPD2    H5 9930   4.107   2.856  14.324  1.2641  0.4746 -1.4958
  667MPD2    N1 9931   4.310   3.362  14.476 -0.0750  0.4649  0.2669
  667MPD2    H7 9932   4.320   3.322  14.569 -0.0789 -0.8809 -0.3104
  668TMC3    C1 9933   4.366   3.548  14.597 -0.1100 -0.3470 -0.2969
  668TMC3    C2 9934   4.451   3.658  14.612 -0.4704 -0.0258  0.0093
  668TMC3    C3 9935   4.466   3.704  14.744  0.0154  0.1548 -0.4753
  668TMC3    C4 9936   4.310   3.494  14.708  0.1160  0.6782 -0.7147
  668TMC3    C5 9937   4.316   3.548  14.830 -0.7941 -0.1829 -0.2465
  668TMC3    C6 9938   4.404   3.651  14.854  0.2583  0.2503 -0.1022
  668TMC3     C 9939   4.346   3.494  14.464 -0.4119  0.2649  0.3869
  668TMC3     O 9940   4.364   3.562  14.362  0.1493  0.6540  0.0144
  668TMC3     H 9941   4.502   3.695  14.524  1.4006 -1.1033  0.6409
  668TMC3    H1 9942   4.242   3.411  14.696 -0.4053  1.2397 -1.6615
  668TMC3    H2 9943   4.411   3.700  14.950 -0.8131  0.5586 -0.1889
  668TMC3    C7 9944   4.263   3.478  14.947 -0.0571 -0.2024  0.5757
  668TMC3    C8 9945   4.555   3.826  14.757  0.1829 -0.3424  0.8279
  668TMC3    O1 9946   4.333   3.468  15.048  0.4992  0.3321 -0.0882
  668TMC3    O2 9947   4.564   3.861  14.871 -0.2631 -0.0265  0.2754
  669TMC3    C1 9948   2.297   2.926  14.603 -0.4290 -0.6807 -0.4063
  669TMC3    C2 9949   2.196   2.904  14.510  0.6827 -1.3373 -0.2353
  669TMC3    C3 9950   2.178   2.999  14.409  0.8489  0.3409 -0.5172
  669TMC3    C4 9951   2.398   3.014  14.592  0.8746 -0.5332 -0.5156
  669TMC3    C5 9952   2.389   3.094  14.476  0.5350 -0.5071  0.9861
  669TMC3    C6 9953   2.276   3.091  14.389  0.3515 -0.1459 -0.7209
  669TMC3     C 9954   2.343   2.804  14.656 -0.2651  0.3660  0.1777
  669TMC3     O 9955   2.400   2.729  14.584 -0.7042  0.1931 -0.2840
  669TMC3     H 9956   2.130   2.818  14.508 -2.5866  1.1725 -1.1493
  669TMC3    H1 9957   2.469   3.017  14.675  0.9601  1.0164 -0.6394
  669TMC3    H2 9958   2.254   3.170  14.319 -0.1259  0.9155  0.6160
  669TMC3    C7 9959   2.514   3.156  14.437 -0.8107 -0.1835  0.5907
  669TMC3    C8 9960   2.078   2.976  14.309 -0.0897  0.1553 -0.1632
  669TMC3    O1 9961   2.589   3.199  14.522  0.1786  0.4412  0.1228
  669TMC3    O2 9962   1.984   2.901  14.313 -0.2434 -0.0752  0.6762
  670MPD2     C 9963   0.686   0.325  13.197  0.1017  0.1609  0.3906
  670MPD2    C1 9964   0.805   0.374  13.244  0.2726  0.5466 -0.9074
  670MPD2    C2 9965   0.798   0.459  13.348  0.6903 -0.3245  0.7300
  670MPD2    C3 9966   0.677   0.508  13.391 -0.3009 -0.3578 -0.5523
  670MPD2    C4 9967   0.556   0.466  13.332  0.2151 -0.3297 -0.5460
  670MPD2    C5 9968   0.562   0.371  13.233  0.5839 -0.1448  0.1162
  670MPD2     H 9969   0.886   0.482  13.408  2.1455 -3.0086 -0.3673
  670MPD2    H1 9970   0.458   0.502  13.360  1.0163  0.0360  1.7881
  670MPD2    H2 9971   0.701   0.257  13.114 -1.9680  0.2337 -0.0310
  670MPD2    H3 9972   0.470   0.348  13.181 -0.1538 -1.0676  1.8047
  670MPD2     N 9973   0.682   0.569  13.519  0.0837  0.3451 -0.0539
  670MPD2    H5 9974   0.779   0.585  13.544 -0.6439  1.9535  1.7359
  670MPD2    N1 9975   0.935   0.344  13.187  0.2388  0.0497  0.7401
  670MPD2    H7 9976   1.006   0.411  13.216  0.9908  0.2308 -1.4872
  671TMC3    C1 9977   0.612   0.634  13.725  0.4809  0.1474 -0.1009
  671TMC3    C2 9978   0.744   0.600  13.751  0.3124  1.2648  0.3883
  671TMC3    C3 9979   0.773   0.545  13.867 -0.1919  0.3006  0.8934
  671TMC3    C4 9980   0.512   0.593  13.810  0.5807  0.7582 -0.4815
  671TMC3    C5 9981   0.550   0.523  13.917  0.6721  0.0105  0.3707
  671TMC3    C6 9982   0.683   0.499  13.960 -0.1186 -0.1213 -0.7001
  671TMC3     C 9983   0.568   0.613  13.589 -0.3743 -0.3269  0.3788
  671TMC3     O 9984   0.450   0.607  13.557 -0.4162  0.7574 -0.2717
  671TMC3     H 9985   0.822   0.655  13.701  1.1335 -0.6007 -0.4042
  671TMC3    H1 9986   0.407   0.607  13.788  0.7774  1.2440 -1.1409
  671TMC3    H2 9987   0.703   0.465  14.061 -1.3063  0.3406 -0.3065
  671TMC3    C7 9988   0.470   0.406  13.948  0.0961  0.0785 -0.2520
  671TMC3    C8 9989   0.892   0.465  13.863  0.5657  0.2433 -0.1611
  671TMC3    O1 9990   0.506   0.353  14.049  0.2039  0.3206 -0.3916
  671TMC3    O2 9991   0.945   0.455  13.754 -0.0069  0.1804  0.2905
  672MPD2     C 9992   1.065   1.140   0.700 -0.3595 -0.1517 -0.3555
  672MPD2    C1 9993   1.194   1.087   0.671  0.6213 -0.4799 -0.4159
  672MPD2    C2 9994   1.307   1.145   0.719  0.2483 -0.3272  0.1107
  672MPD2    C3 9995   1.301   1.267   0.786  0.1727 -0.6300 -0.4288
  672MPD2    C4 9996   1.179   1.326   0.797 -0.5070  0.3816 -0.3506
  672MPD2    C5 9997   1.064   1.262   0.765  0.2722  0.2732 -0.0155
  672MPD2     H 9998   1.401   1.090   0.715  0.1034 -0.5695  0.0408
  672MPD2    H1 9999   1.172   1.429   0.830  0.1669  1.1561 -2.6058
  672MPD2    H210000   0.967   1.098   0.681 -1.8763  2.2148  2.1695
  672MPD2    H310001   0.966   1.306   0.779  0.0964  0.8725 -3.2796
  672MPD2     N10002   1.415   1.332   0.839  0.0524  0.0684  0.7000
  672MPD2    H510003   1.400   1.412   0.900 -0.3151  0.1706  0.4779
  672MPD2    N110004   1.203   0.960   0.606 -0.1297 -0.4124  0.0625
  672MPD2    H710005   1.294   0.917   0.595 -0.0940  0.3678 -2.8783
  673TMC3    C110006   1.109   0.762   0.504 -0.2638 -0.2924 -0.2627
  673TMC3    C210007   1.227   0.718   0.457 -0.8048  0.0633 -0.8222
  673TMC3    C310008   1.225   0.641   0.347 -0.5673  0.9127 -0.1430
  673TMC3    C410009   0.994   0.718   0.444 -0.3943 -0.3126  0.6584
  673TMC3    C510010   0.995   0.642   0.332  1.2278  0.0212 -0.7437
  673TMC3    C610011   1.111   0.605   0.281 -0.4712 -0.4022  0.3269
  673TMC3     C10012   1.090   0.904   0.548 -0.6476 -1.0459  0.1661
  673TMC3     O10013   0.976   0.943   0.534  0.1589  0.0807 -0.5956
  673TMC3     H10014   1.318   0.758   0.499 -0.3480 -2.5577  0.6929
  673TMC3    H110015   0.895   0.734   0.486  0.0725  0.7895  1.3375
  673TMC3    H210016   1.114   0.556   0.185  2.0139  0.4407 -0.0479
  673TMC3    C710017   0.901   0.690   0.229  0.7010  0.2603  0.2637
  673TMC3    C810018   1.334   0.550   0.325 -0.4611  0.5134 -0.8006
  673TMC3    O110019   0.888   0.626   0.125 -0.1268 -0.4877 -0.0880
  673TMC3    O210020   1.343   0.487   0.218 -0.3675 -0.3087  0.3080
  674MPD2     C10021   0.724   1.222  17.432 -0.0318  0.3261 -0.0816
  674MPD2    C110022   0.700   1.091  17.419 -0.5267 -0.0027 -1.0092
  674MPD2    C210023   0.573   1.058  17.451 -0.3097  0.2513  0.7451
  674MPD2    C310024   0.484   1.149  17.500  0.1481 -0.1759  0.1880
  674MPD2    C410025   0.512   1.286  17.502 -0.7611 -0.7624 -0.7928
  674MPD2    C510026   0.630   1.318  17.464  0.1857  0.2872 -0.0625
  674MPD2     H10027   0.544   0.954  17.444  0.1481  0.1609  0.2135
  674MPD2    H110028   0.444   1.367  17.523  1.1657  0.3397  1.1734
  674MPD2    H210029   0.826   1.248  17.408  0.1201  0.8579  1.1416
  674MPD2    H310030   0.656   1.424  17.472  0.5222  0.2669 -0.8855
  674MPD2     N10031   0.365   1.107  17.561 -0.7993 -0.3369 -0.5709
  674MPD2    H510032   0.356   1.007  17.545 -1.3719 -0.7550  2.4188
  674MPD2    N110033   0.816   0.999  17.418 -0.4133 -0.6988  0.0521
  674MPD2    H710034   0.902   1.040  17.453 -1.4368  0.1240  1.6193
  675TMC3    C110035   0.905   0.787  17.471 -0.0572 -0.3941 -0.3860
  675TMC3    C210036   0.901   0.649  17.448 -0.0807  0.2391 -0.3722
  675TMC3    C310037   0.974   0.572  17.537 -0.2918 -0.0556  0.3667
  675TMC3    C410038   0.993   0.846  17.562 -0.0084  0.3433 -0.1394
  675TMC3    C510039   1.071   0.760  17.639 -0.0799  0.2517 -0.9171
  675TMC3    C610040   1.065   0.623  17.628 -0.1742  0.2451  0.0645
  675TMC3     C10041   0.801   0.867  17.403  0.3182  0.7133  0.1253
  675TMC3     O10042   0.714   0.815  17.339 -0.3782 -0.2783  0.2227
  675TMC3     H10043   0.824   0.615  17.380 -0.0666 -2.6075  1.0782
  675TMC3    H110044   1.005   0.953  17.577 -0.5789  0.6433 -1.7571
  675TMC3    H210045   1.125   0.558  17.691 -2.1034 -3.2450 -1.6983
  675TMC3    C710046   1.151   0.810   0.005 -0.3413 -0.1580 -0.4228
  675TMC3    C810047   0.924   0.441  17.547  0.1526  0.3128 -0.0885
  675TMC3    O110048   1.244   0.738   0.043 -0.2859  0.0414  0.8342
  675TMC3    O210049   0.917   0.377  17.446  0.5680  0.2595  0.9044
  676MPD2     C10050   3.464   4.202  11.087  1.3223  0.0111 -0.7140
  676MPD2    C110051   3.432   4.105  11.185 -0.4184  0.2993  0.3697
  676MPD2    C210052   3.369   3.992  11.142 -1.1430 -0.0044 -0.1187
  676MPD2    C310053   3.361   3.958  11.008 -0.6684  0.0142 -0.2761
  676MPD2    C410054   3.409   4.049  10.915 -0.9707  0.2003 -0.3087
  676MPD2    C510055   3.461   4.171  10.949 -0.7081  0.1914  0.3977
  676MPD2     H10056   3.334   3.918  11.214  0.7700 -1.7060 -0.9153
  676MPD2    H110057   3.403   4.028  10.809  0.1037  1.3717 -0.6008
  676MPD2    H210058   3.498   4.301  11.113  1.4417 -0.2506  0.1341
  676MPD2    H310059   3.489   4.247  10.878  0.1013  0.2070  0.7291
  676MPD2     N10060   3.309   3.839  10.959  0.0801  0.0414  0.7916
  676MPD2    H510061   3.320   3.817  10.861  0.4383 -0.7500  1.0060
  676MPD2    N110062   3.444   4.123  11.324  0.2852  0.8810 -0.0251
  676MPD2    H710063   3.414   4.042  11.378 -0.1357  0.7850 -0.4044
  677TMC3    C110064   3.476   4.234  11.540  0.4974  0.4003  0.4714
  677TMC3    C210065   3.433   4.122  11.598  0.8412 -0.3945  0.0501
  677TMC3    C310066   3.392   4.131  11.729  0.8826  0.6037  0.2036
  677TMC3    C410067   3.505   4.350  11.605 -0.0669 -0.2350  0.1851
  677TMC3    C510068   3.456   4.359  11.740  0.1075 -0.0540  0.0730
  677TMC3    C610069   3.408   4.245  11.800 -0.1433 -1.0446 -0.0904
  677TMC3     C10070   3.489   4.235  11.391 -0.0598 -0.1224 -0.4307
  677TMC3     O10071   3.556   4.327  11.354  0.1623 -0.3270 -0.2553
  677TMC3     H10072   3.425   4.024  11.554  0.1690 -0.0784 -0.5258
  677TMC3    H110073   3.518   4.447  11.557 -0.8539  0.5468  1.5371
  677TMC3    H210074   3.387   4.252  11.907 -1.4161  0.7826 -0.4473
  677TMC3    C710075   3.474   4.475  11.821 -0.6372  0.6119  0.0190
  677TMC3    C810076   3.381   4.013  11.806 -1.0679 -0.1888  0.0963
  677TMC3    O110077   3.395   4.493  11.913 -0.1886  0.5627  0.6625
  677TMC3    O210078   3.461   3.929  11.771 -0.3424  0.4781  0.5483
  678MPD2     C10079   4.623   3.532   1.266 -0.0770 -0.3277  0.5209
  678MPD2    C110080   4.593   3.527   1.131  0.0727 -0.4854  0.4726
  678MPD2    C210081   4.487   3.594   1.083 -0.4533  0.1429 -0.2357
  678MPD2    C310082   4.394   3.667   1.160  0.9751  0.5162 -0.4901
  678MPD2    C410083   4.423   3.667   1.296  0.5043  0.4910 -0.4908
  678MPD2    C510084   4.531   3.596   1.341 -0.6654  0.2578 -0.3166
  678MPD2     H10085   4.475   3.592   0.975 -1.9420  1.8277 -0.0934
  678MPD2    H110086   4.356   3.722   1.362 -1.0073 -3.4171  1.2365
  678MPD2    H210087   4.698   3.469   1.313  0.8091  0.0006 -0.4757
  678MPD2    H310088   4.558   3.600   1.445  0.9655  1.0343 -0.7785
  678MPD2     N10089   4.283   3.727   1.097 -0.1188 -0.4385 -0.1356
  678MPD2    H510090   4.273   3.730   0.996  2.2679 -1.9593 -0.4157
  678MPD2    N110091   4.668   3.458   1.038 -0.3080 -0.3222 -0.5925
  678MPD2    H710092   4.637   3.469   0.942 -1.2232  2.8325  0.0506
  679TMC3    C110093   0.279   3.207   0.847  0.6763  0.3387 -0.4932
  679TMC3    C210094   0.223   3.273   0.947 -0.2331  1.0215 -0.1446
  679TMC3    C310095   0.090   3.306   0.945 -0.0356 -0.2767  0.8835
  679TMC3    C410096   0.215   3.189   0.734 -0.7074 -0.3011 -0.7250
  679TMC3    C510097   0.079   3.223   0.722  0.0936  0.0123 -1.4081
  679TMC3    C610098   0.015   3.279   0.829 -0.4883 -0.6651 -0.3981
  679TMC3     C10099   0.418   3.215   0.827 -0.7831  0.0001 -0.7626
  679TMC3     O10100   0.464   3.135   0.749  0.1629 -0.4717  0.5163
  679TMC3     H10101   0.280   3.287   1.038  0.7143  0.3583 -0.6287
  679TMC3    H110102   0.260   3.134   0.653 -1.2218 -0.3763 -0.9624
  679TMC3    H210103   4.643   3.289   0.832 -0.4582 -0.9784  1.6253
  679TMC3    C710104   0.020   3.256   0.595 -0.3734 -0.2149 -0.3901
  679TMC3    C810105   0.042   3.378   1.061 -0.1846 -0.6920 -0.4597
  679TMC3    O110106   4.645   3.307   0.602 -0.3555 -0.3525 -0.4018
  679TMC3    O210107   0.100   3.368   1.166 -0.3548 -0.5081 -0.8771
  680MPD2     C10108   4.614   3.021  13.577 -0.0738  0.3533 -0.2674
  680MPD2    C110109   4.692   2.965  13.674  0.0302  0.5225 -0.3709
  680MPD2    C210110   0.081   3.023  13.694  0.3585  0.1124 -0.0682
  680MPD2    C310111   0.125   3.140  13.628 -0.3357 -0.5404 -0.7220
  680MPD2    C410112   0.044   3.194  13.534 -0.5079  0.3108  0.0927
  680MPD2    C510113   4.664   3.129  13.509  0.3363  0.1472  1.1735
  680MPD2     H10114   0.145   2.971  13.764 -0.0497 -1.0078 -0.5243
  680MPD2    H110115   0.080   3.273  13.470 -0.1848 -0.6420 -0.8994
  680MPD2    H210116   4.515   2.986  13.553  0.1817  0.9340 -2.1519
  680MPD2    H310117   4.604   3.161  13.424 -0.0841 -1.7497  0.7620
  680MPD2     N10118   0.257   3.194  13.650 -0.0580  0.0742  0.5170
  680MPD2    H510119   0.280   3.276  13.595 -2.5034  1.1981  1.1233
  680MPD2    N110120   4.662   2.847  13.739  0.2276 -0.3999  0.2672
  680MPD2    H710121   0.002   2.808  13.794 -0.6493 -1.8633  0.4391
  681TMC3    C110122   4.573   2.635  13.786 -0.3366  0.1544 -0.8029
  681TMC3    C210123   4.654   2.618  13.887  0.7346  0.6237 -0.2527
  681TMC3    C310124   4.691   2.487  13.921 -0.0606 -0.4487 -0.7567
  681TMC3    C410125   4.529   2.534  13.707  0.5143  0.3161 -0.5839
  681TMC3    C510126   4.560   2.408  13.745 -0.9555  0.3528  0.1180
  681TMC3    C610127   4.646   2.380  13.845  0.1965 -0.4271 -0.2392
  681TMC3     C10128   4.551   2.768  13.728 -0.6656 -0.1921  0.2339
  681TMC3     O10129   4.437   2.787  13.680  0.4497  0.2200  0.0904
  681TMC3     H10130   4.680   2.701  13.952 -0.5574 -0.1033  1.2009
  681TMC3    H110131   4.469   2.554  13.618 -0.5724  1.1405  0.3338
  681TMC3    H210132   4.682   2.281  13.866 -2.4120 -1.5033 -0.8381
  681TMC3    C710133   4.528   2.308  13.644  0.0467 -0.9746  0.1930
  681TMC3    C810134   4.733   2.465  14.056  0.5379  0.5306  0.1474
  681TMC3    O110135   4.416   2.261  13.644  0.0875  0.1480  0.0314
  681TMC3    O210136   4.717   2.357  14.114 -0.2579  0.2454  0.2535
  682MPD2     C10137   2.733   4.235  11.173 -0.7379 -0.1103 -0.0674
  682MPD2    C110138   2.627   4.145  11.141  0.4680 -0.0286 -0.1571
  682MPD2    C210139   2.566   4.071  11.244  0.1496 -0.2321 -0.0204
  682MPD2    C310140   2.613   4.076  11.371  0.7418  0.0646 -0.1343
  682MPD2    C410141   2.712   4.165  11.401 -0.2224  0.3449  0.2376
  682MPD2    C510142   2.766   4.254  11.311 -0.4494  0.3428 -0.5019
  682MPD2     H10143   2.481   4.011  11.215 -0.1515  0.2978 -0.2233
  682MPD2    H110144   2.753   4.178  11.500  2.1592  1.4371 -0.9030
  682MPD2    H210145   2.780   4.305  11.105  0.4874 -1.8459 -0.9909
  682MPD2    H310146   2.847   4.320  11.339 -1.8901  1.3196  1.3275
  682MPD2     N10147   2.560   4.004  11.481  0.2055 -0.3147 -0.5168
  682MPD2    H510148   2.594   4.020  11.575 -1.4853 -1.3892  0.2815
  682MPD2    N110149   2.584   4.130  11.005  0.0711 -0.3481  0.0021
  682MPD2    H710150   2.503   4.071  10.993  0.3098 -0.8372  0.7956
  683TMC3    C110151   2.335   3.961  11.818  0.1834  0.8267 -0.1019
  683TMC3    C210152   2.304   3.835  11.850 -0.2641  0.4428 -1.3916
  683TMC3    C310153   2.335   3.733  11.763 -0.6198 -0.1975 -0.2081
  683TMC3    C410154   2.386   3.992  11.692 -0.0089 -0.1031  0.0289
  683TMC3    C510155   2.412   3.887  11.608 -0.1761 -0.0141 -0.3385
  683TMC3    C610156   2.382   3.757  11.636 -0.5383 -0.2867 -0.2376
  683TMC3     C10157   2.391   4.057  11.914 -0.0165  0.7404  0.0725
  683TMC3     O10158   2.385   4.178  11.892 -0.2331 -0.4192  0.0256
  683TMC3     H10159   2.278   3.817  11.953  1.0036 -2.4645 -1.5670
  683TMC3    H110160   2.410   4.095  11.668 -0.1139  0.2613  1.5066
  683TMC3    H210161   2.387   3.677  11.563 -2.5548 -0.1258 -0.5547
  683TMC3    C710162   2.462   3.912  11.477 -0.1994  0.0183 -0.3904
  683TMC3    C810163   2.300   3.603  11.812 -0.6843  0.4121 -0.5226
  683TMC3    O110164   2.417   3.841  11.390 -0.7182  0.4437 -0.3165
  683TMC3    O210165   2.281   3.592  11.930  0.0944 -0.0149  0.2566
  684MPD2     C10166   0.739   3.405  16.355 -0.2500  0.5916 -0.6609
  684MPD2    C110167   0.712   3.440  16.225  0.6761 -0.5145 -0.4823
  684MPD2    C210168   0.746   3.560  16.171 -0.1056 -0.3374  0.1087
  684MPD2    C310169   0.803   3.662  16.250 -0.2413 -0.4955  0.5745
  684MPD2    C410170   0.823   3.627  16.381  0.8484 -0.4304 -0.0211
  684MPD2    C510171   0.787   3.503  16.435 -0.3079 -0.1858 -0.7130
  684MPD2     H10172   0.728   3.569  16.065  2.3158 -0.4399 -0.3245
  684MPD2    H110173   0.866   3.699  16.450 -0.4598 -0.1951  0.5567
  684MPD2    H210174   0.710   3.312  16.401 -2.0894  1.2324 -0.5263
  684MPD2    H310175   0.803   3.478  16.540  1.5043  1.3690 -0.6449
  684MPD2     N10176   0.843   3.788  16.195 -0.6276  0.2455 -0.8517
  684MPD2    H510177   0.893   3.854  16.254 -0.2235  1.0447 -2.0647
  684MPD2    N110178   0.652   3.343  16.139 -0.2156  0.6843  0.2173
  684MPD2    H710179   0.624   3.362  16.043  1.7999  0.5914 -0.3927
  685TMC3    C110180   0.619   3.134  16.051 -0.2654  0.0327  0.4362
  685TMC3    C210181   0.517   3.182  15.970  0.0620  0.8330  0.3155
  685TMC3    C310182   0.518   3.137  15.843 -0.4904  0.2099 -0.8732
  685TMC3    C410183   0.722   3.059  16.004  0.1216 -0.1253  0.4303
  685TMC3    C510184   0.709   3.010  15.878  0.0661  0.6014 -0.8096
  685TMC3    C610185   0.600   3.038  15.800 -0.5354 -0.5377  0.0444
  685TMC3     C10186   0.667   3.208  16.161 -0.3844 -0.2987 -0.0103
  685TMC3     O10187   0.740   3.151  16.242  0.0286  0.4771 -0.0508
  685TMC3     H10188   0.441   3.248  16.010 -2.1839 -0.9980 -0.9497
  685TMC3    H110189   0.799   3.027  16.073 -1.5974 -1.3697  1.8065
  685TMC3    H210190   0.593   2.995  15.701  2.4819  1.4599 -1.0271
  685TMC3    C710191   0.843   2.986  15.805 -0.9253  0.4283 -0.4528
  685TMC3    C810192   0.395   3.147  15.765  0.4566  0.1740  0.2139
  685TMC3    O110193   0.841   2.923  15.700 -0.6438  0.2973 -0.7497
  685TMC3    O210194   0.374   3.044  15.695 -0.0370  0.4738  0.1279
  686MPD2     C10195   1.939   3.578  15.069 -0.2751 -0.2273 -0.1916
  686MPD2    C110196   2.000   3.478  15.139  0.9440 -0.2011 -0.1072
  686MPD2    C210197   2.061   3.378  15.075  0.1445  0.4564 -0.5803
  686MPD2    C310198   2.047   3.358  14.939  0.6687  0.1097  0.3611
  686MPD2    C410199   1.971   3.452  14.871 -0.3357  0.1530  1.0942
  686MPD2    C510200   1.921   3.560  14.936 -0.1186  0.3207 -0.5107
  686MPD2     H10201   2.125   3.305  15.125 -2.9998 -0.8338  1.5802
  686MPD2    H110202   1.953   3.446  14.764  0.2663  0.0833  0.9985
  686MPD2    H210203   1.906   3.666  15.124  1.5324  0.4983 -0.2662
  686MPD2    H310204   1.876   3.639  14.875  0.1526  2.7087  2.4067
  686MPD2     N10205   2.092   3.245  14.867  0.3964  0.0814  0.0975
  686MPD2    H510206   2.095   3.249  14.765  0.1711  0.8134  0.1213
  686MPD2    N110207   2.005   3.499  15.283 -0.1212 -0.1874  0.6431
  686MPD2    H710208   1.945   3.572  15.318  1.0448  1.6806 -1.2021
  687TMC3    C110209   2.105   3.087  15.061  0.1541  0.2235  0.1231
  687TMC3    C210210   1.982   3.096  15.118  0.6032 -0.4147  0.0968
  687TMC3    C310211   1.973   3.074  15.254 -1.0204 -1.0805  0.3352
  687TMC3    C410212   2.210   3.033  15.137  0.0237  0.7799 -0.5346
  687TMC3    C510213   2.192   3.016  15.275 -0.8001 -0.0706  0.1321
  687TMC3    C610214   2.077   3.047  15.335  0.0756  0.5858  0.3297
  687TMC3     C10215   2.134   3.123  14.923 -0.5907 -0.0171  0.2358
  687TMC3     O10216   2.203   3.038  14.865 -0.2192 -0.0191 -0.0127
  687TMC3     H10217   1.892   3.106  15.058  0.8357  0.4495 -0.1138
  687TMC3    H110218   2.310   3.017  15.096 -0.2796  0.9678 -1.3379
  687TMC3    H210219   2.064   3.039  15.442 -0.4512  2.4341  0.3910
  687TMC3    C710220   2.301   2.976  15.354 -0.3981 -0.5351  0.2982
  687TMC3    C810221   1.843   3.091  15.315  0.6133 -0.2722 -0.0974
  687TMC3    O110222   2.293   3.007  15.473  0.2787 -0.6156 -0.2814
  687TMC3    O210223   1.804   3.012  15.404 -0.1872  0.1378 -0.4218
  688MPD2     C10224   1.343   2.137  17.174  0.0755 -0.3723 -0.7989
  688MPD2    C110225   1.362   1.998  17.200  0.7595 -0.6343  0.6468
  688MPD2    C210226   1.460   1.924  17.126  0.1889  0.1233 -0.2213
  688MPD2    C310227   1.538   1.989  17.033  0.2608  0.0658 -0.1728
  688MPD2    C410228   1.515   2.119  17.011  0.7978 -0.4473  0.1160
  688MPD2    C510229   1.418   2.194  17.075 -0.3324  0.2935  0.2282
  688MPD2     H10230   1.475   1.818  17.137  0.1024  0.0896 -0.4316
  688MPD2    H110231   1.573   2.175  16.938 -0.0460 -0.9665 -0.9496
  688MPD2    H210232   1.271   2.201  17.225  0.2289 -0.6902 -0.1771
  688MPD2    H310233   1.402   2.298  17.052 -1.5463  0.3210  1.2183
  688MPD2     N10234   1.647   1.930  16.967 -0.4998 -0.6969  0.7764
  688MPD2    H510235   1.703   1.979  16.897  2.7754 -1.8839  2.5659
  688MPD2    N110236   1.302   1.935  17.314  0.4045  0.3767 -0.1319
  688MPD2    H710237   1.326   1.839  17.332 -1.3944 -0.2606 -1.1563
  689TMC3    C110238   1.191   1.912  17.518 -0.5066 -0.2958  0.5437
  689TMC3    C210239   1.177   1.973  17.639  0.2244 -0.7625  0.1149
  689TMC3    C310240   1.132   1.906   0.008  0.3700  0.5772 -0.2565
  689TMC3    C410241   1.178   1.780  17.507  0.4146 -0.3539 -0.4089
  689TMC3    C510242   1.149   1.708  17.624  0.4962 -0.3005  0.0345
  689TMC3    C610243   1.121   1.772   0.001  0.1136  0.0994  1.1340
  689TMC3     C10244   1.216   1.996  17.404  0.4409  0.7432 -0.2877
  689TMC3     O10245   1.165   2.106  17.409 -0.3371 -0.4345  0.1504
  689TMC3     H10246   1.209   2.076  17.646 -1.1681 -0.3973  1.2264
  689TMC3    H110247   1.188   1.739  17.408 -0.5753 -0.3609 -0.5072
  689TMC3    H210248   1.106   1.723   0.096 -0.8969 -0.2591  0.7897
  689TMC3    C710249   1.139   1.566  17.615  0.3216  0.2104 -0.1328
  689TMC3    C810250   1.115   1.972   0.137  0.3621 -0.7378 -0.3480
  689TMC3    O110251   1.142   1.503  17.719 -0.1313 -0.4832  0.3762
  689TMC3    O210252   1.148   1.907   0.234  0.2981 -0.1561  0.8094
  690MPD2     C10253   3.508   4.136  15.611 -0.0311  0.3269 -0.5995
  690MPD2    C110254   3.480   4.126  15.477  0.2170 -0.2282  0.3704
  690MPD2    C210255   3.572   4.179  15.392 -0.1802 -0.1238 -0.3035
  690MPD2    C310256   3.694   4.228  15.438  0.1462  0.0513 -0.2241
  690MPD2    C410257   3.722   4.226  15.573 -0.1609  0.5250  0.5152
  690MPD2    C510258   3.623   4.189  15.660 -0.2956  0.0442  0.0094
  690MPD2     H10259   3.551   4.174  15.286  0.8392  0.3231 -0.5321
  690MPD2    H110260   3.817   4.256  15.616  1.3575 -0.3161 -2.2420
  690MPD2    H210261   3.434   4.101  15.683  0.0200  1.6582  0.0926
  690MPD2    H310262   3.637   4.199  15.767  1.8175  0.3662 -0.3014
  690MPD2     N10263   3.788   4.260  15.334 -0.3563  0.0542 -0.1716
  690MPD2    H510264   3.753   4.255  15.239  1.6962  0.1569 -0.9244
  690MPD2    N110265   3.377   4.049  15.427 -0.0597  0.4804 -0.3858
  690MPD2    H710266   3.378   4.029  15.328  0.4938  0.8275 -0.4528
  691TMC3    C110267   3.198   3.892  15.414  0.1413 -0.3690  0.3371
  691TMC3    C210268   3.069   3.891  15.457  0.3958  0.3385  0.1266
  691TMC3    C310269   3.001   3.774  15.493  0.1381  0.0101 -0.5568
  691TMC3    C410270   3.264   3.771  15.400  0.3872  0.6062  0.0639
  691TMC3    C510271   3.200   3.664  15.455 -0.5608 -0.0485 -0.0582
  691TMC3    C610272   3.066   3.648  15.493 -0.5999 -0.0468  0.2773
  691TMC3     C10273   3.279   3.982  15.493 -0.5466  0.2541  0.1734
  691TMC3     O10274   3.263   3.971  15.614 -0.8044  0.4733  0.5584
  691TMC3     H10275   3.021   3.987  15.474 -0.2072  0.0768 -0.0907
  691TMC3    H110276   3.371   3.769  15.390  0.5010 -1.0101  1.5935
  691TMC3    H210277   3.034   3.560  15.547  0.5203 -1.4128 -1.2715
  691TMC3    C710278   3.283   3.551  15.492 -0.4325  0.1911  0.2466
  691TMC3    C810279   2.871   3.771  15.556 -0.2810  0.4163 -0.5574
  691TMC3    O110280   3.402   3.572  15.513  0.5235 -0.0937  0.0383
  691TMC3    O210281   2.821   3.662  15.577  0.3978 -0.8123 -0.5987
  692TMC3    C110282   0.397   0.240  15.629 -0.2324  0.4917  1.2561
  692TMC3    C210283   0.517   0.293  15.669 -0.5147 -0.2183 -0.0759
  692TMC3    C310284   0.635   0.222  15.645 -0.2671 -0.6193 -0.1190
  692TMC3    C410285   0.389   0.118  15.569  0.1932 -0.3172 -0.2572
  692TMC3    C510286   0.499   0.039  15.573 -0.1378  0.4562 -0.1486
  692TMC3    C610287   0.621   0.090  15.614  0.1029 -0.5945  0.2105
  692TMC3     C10288   0.281   0.300  15.678  0.2924 -0.6056 -0.3213
  692TMC3     O10289   0.195   0.226  15.719 -0.3459  0.7787  0.0599
  692TMC3     H10290   0.511   0.373  15.741 -1.4450  0.8190 -1.3190
  692TMC3    H110291   0.289   0.090  15.541 -0.0345  1.6124 -1.4030
  692TMC3    H210292   0.709   0.033  15.587  0.8544 -0.6529  2.7402
  692TMC3    C710293   0.485   4.637  15.528 -0.2430 -0.5272 -0.0012
  692TMC3    C810294   0.734   0.238  15.751  0.9801 -0.0661 -0.2421
  692TMC3    O110295   0.390   4.621  15.447 -0.0629  0.6173  0.0511
  692TMC3    O210296   0.764   0.140  15.814  0.3438 -0.7046 -0.1723
  693MPD2     C10297   4.366   3.395  10.338 -0.1832 -0.3178  0.7250
  693MPD2    C110298   4.346   3.261  10.318 -0.2764 -0.0930 -0.7622
  693MPD2    C210299   4.446   3.170  10.365 -0.3085  0.3305 -0.1743
  693MPD2    C310300   4.564   3.227  10.422 -0.1260  0.9612 -0.2572
  693MPD2    C410301   4.566   3.362  10.451 -0.2193  0.3618 -0.4795
  693MPD2    C510302   4.464   3.441  10.418 -1.0437 -0.5802 -0.1312
  693MPD2     H10303   4.427   3.064  10.370 -0.0736  0.2643 -0.7155
  693MPD2    H110304   4.645   3.416  10.503 -1.7142  0.0913  2.0411
  693MPD2    H210305   4.283   3.462  10.322  0.6938  0.6633  0.3206
  693MPD2    H310306   4.477   3.546  10.443 -1.5974 -0.3650 -0.7395
  693MPD2     N10307   4.671   3.148  10.476  0.2413 -0.5036 -1.0418
  693MPD2    H510308   0.007   3.193  10.532 -0.2144  1.4590 -2.0259
  693MPD2    N110309   4.216   3.225  10.283  0.6037 -0.1138  0.0188
  693MPD2    H710310   4.145   3.293  10.308 -0.2161  0.2614 -3.3059
  694TMC3    C110311   4.034   3.071  10.282  0.2918  0.0654 -0.4111
  694TMC3    C210312   3.996   2.943  10.255 -0.3562  0.3984  0.1768
  694TMC3    C310313   3.944   2.870  10.360  0.1398  0.9656 -0.4962
  694TMC3    C410314   4.011   3.124  10.405 -0.1860  0.4042 -0.3983
  694TMC3    C510315   3.962   3.048  10.503 -0.6480  0.0353 -0.3043
  694TMC3    C610316   3.945   2.914  10.485  0.2330 -0.6382  0.6558
  694TMC3     C10317   4.176   3.092  10.243  0.1219 -0.3514  0.5255
  694TMC3     O10318   4.242   2.998  10.197  0.5792 -0.4809  0.0387
  694TMC3     H10319   4.030   2.900  10.162  0.5874 -2.7996  1.9942
  694TMC3    H110320   4.032   3.228  10.425 -0.9677  0.7364 -1.3213
  694TMC3    H210321   3.907   2.854  10.567  1.5926 -1.0821  0.9654
  694TMC3    C710322   3.998   3.098  10.632 -0.3574 -0.2061  0.0732
  694TMC3    C810323   3.854   2.758  10.341  0.3502  0.5917  0.1865
  694TMC3    O110324   4.010   3.217  10.642  0.1550  0.6531  0.2879
  694TMC3    O210325   3.817   2.700  10.442 -0.0589  0.0466 -0.0658
  695MPD2     C10326   1.026   4.361  13.161 -0.5385  0.0576  0.5769
  695MPD2    C110327   1.001   4.461  13.254 -0.6178 -0.1025 -0.6339
  695MPD2    C210328   0.875   4.515  13.262  0.1632 -0.2040  0.6503
  695MPD2    C310329   0.774   4.462  13.178  0.2258 -0.0228  0.2761
  695MPD2    C410330   0.800   4.362  13.083 -0.2493 -0.7984 -0.5345
  695MPD2    C510331   0.929   4.309  13.079  0.1149 -0.4447 -0.6538
  695MPD2     H10332   0.845   4.591  13.334 -0.1388 -2.2525  2.6730
  695MPD2    H110333   0.721   4.314  13.026  0.2277 -1.3170 -0.7514
  695MPD2    H210334   1.127   4.321  13.150 -1.0419 -1.1163  0.2489
  695MPD2    H310335   0.963   4.232  13.010 -0.9315  0.6067 -2.3358
  695MPD2     N10336   0.645   4.514  13.193 -0.1154 -0.1582 -0.5985
  695MPD2    H510337   0.619   4.563  13.278  2.3403 -1.1605  0.7251
  695MPD2    N110338   1.099   4.511  13.337  0.3302  0.1080  0.3772
  695MPD2    H710339   1.087   4.606  13.369 -1.5029 -0.6058  1.8206
  696TMC3    C110340   0.413   4.557  13.158  0.3511  0.5503  0.6939
  696TMC3    C210341   0.392   4.542  13.289 -1.0088  0.0290  0.7545
  696TMC3    C310342   0.288   4.612  13.347  0.7202  0.2491  0.4647
  696TMC3    C410343   0.333   4.626  13.079 -0.3096 -0.0620  0.1886
  696TMC3    C510344   0.239   4.706  13.133  0.1221 -0.1845  0.1513
  696TMC3    C610345   0.215   4.704  13.274 -0.2987  0.0798  0.0940
  696TMC3     C10346   0.541   4.500  13.107 -0.1030 -0.4195 -0.1506
  696TMC3     O10347   0.544   4.464  12.989 -0.4093 -0.1910  0.2465
  696TMC3     H10348   0.445   4.470  13.350  3.6957  2.1257 -0.9058
  696TMC3    H110349   0.354   4.649  12.975 -0.0461 -1.1879 -0.0041
  696TMC3    H210350   0.140   0.034  13.316 -0.7701 -1.8483  2.3312
  696TMC3    C710351   0.211   0.091  13.058  0.0175  0.0007 -0.3991
  696TMC3    C810352   0.290   4.619  13.494 -0.5343 -0.6418  0.1105
  696TMC3    O110353   0.214   0.077  12.935  0.2335 -0.7357 -0.2331
  696TMC3    O210354   0.329   4.523  13.552  0.5490 -0.6269  0.0884
  697MPD2     C10355   0.316   1.917  15.384  0.3509  0.2126 -1.1180
  697MPD2    C110356   0.234   1.884  15.282 -0.2282  0.2008 -0.2285
  697MPD2    C210357   0.164   1.978  15.215  0.2498  0.5917  0.8670
  697MPD2    C310358   0.193   2.112  15.243  0.3159 -0.7958 -0.6572
  697MPD2    C410359   0.256   2.147  15.358 -0.2474  0.0698 -1.6858
  697MPD2    C510360   0.328   2.046  15.420  0.6595  0.0156  0.0622
  697MPD2     H10361   0.091   1.953  15.139  0.5768 -1.7745  1.3191
  697MPD2    H110362   0.271   2.249  15.391 -1.0129 -0.4331  0.2412
  697MPD2    H210363   0.378   1.842  15.432  1.5673  1.0911 -1.3068
  697MPD2    H310364   0.398   2.073  15.498  1.9342  1.4152 -1.5695
  697MPD2     N10365   0.137   2.207  15.155 -0.0531  0.5299  0.5802
  697MPD2    H510366   0.073   2.167  15.086 -2.1643  0.9985  2.2900
  697MPD2    N110367   0.215   1.754  15.245 -0.6380 -0.2727 -0.0068
  697MPD2    H710368   0.152   1.744  15.166 -0.1810 -0.9645 -0.2821
  698TMC3    C110369   0.100   2.411  15.048  0.0003 -0.6368  0.1121
  698TMC3    C210370   0.067   2.542  15.068  0.2939 -0.2502 -0.8450
  698TMC3    C310371   4.709   2.594  14.991  0.0476  0.2129  0.2682
  698TMC3    C410372   0.054   2.345  14.940 -0.5688 -0.6928  0.1685
  698TMC3    C510373   4.710   2.407  14.855  0.2517 -0.4169 -0.6520
  698TMC3    C610374   4.655   2.524  14.887 -0.3744 -0.3720 -0.8120
  698TMC3     C10375   0.165   2.343  15.153  0.7384 -0.2165  0.2153
  698TMC3     O10376   0.233   2.415  15.224  0.2530  0.7307 -0.1459
  698TMC3     H10377   0.104   2.594  15.155 -0.0118  1.1660 -1.5649
  698TMC3    H110378   0.107   2.255  14.909 -1.4464 -0.1422 -2.8930
  698TMC3    H210379   4.592   2.585  14.822 -0.7624 -1.0700 -1.0863
  698TMC3    C710380   4.661   2.328  14.738  0.0728 -0.4444  0.2351
  698TMC3    C810381   4.711   2.738  14.966 -0.8598 -0.6364  0.1148
  698TMC3    O110382   4.553   2.341  14.695 -0.9812  0.7016 -0.2220
  698TMC3    O210383   4.605   2.786  14.927  0.1209  0.6125 -0.0058
  699TMC3    C110384   4.645   0.106  12.710  0.4603  0.6644  0.1172
  699TMC3    C210385   4.697   4.726  12.765 -0.6054  0.5772  0.9261
  699TMC3    C310386   4.602   4.634  12.808 -0.3315 -0.5771 -0.6144
  699TMC3    C410387   4.510   0.132  12.705 -0.5448  0.1687 -0.5672
  699TMC3    C510388   4.426   0.035  12.740 -0.1696 -0.2054 -0.8241
  699TMC3    C610389   4.469   4.655  12.802 -0.3444 -0.0878 -0.0364
  699TMC3     C10390   4.714   0.223  12.661  0.7455 -0.6883  0.1022
  699TMC3     O10391   4.656   0.318  12.612 -0.2624 -0.6232 -0.1284
  699TMC3     H10392   0.069   4.729  12.775 -0.7564 -0.3998  2.6834
  699TMC3    H110393   4.468   0.220  12.658  0.4486  0.7088 -0.4575
  699TMC3    H210394   4.401   4.590  12.855 -1.3502  0.6650 -0.4109
  699TMC3    C710395   4.292   0.077  12.776  0.8026  0.0689  0.3357
  699TMC3    C810396   4.641   4.548  12.915 -0.0442  0.0426  0.1016
  699TMC3    O110397   4.270   0.196  12.786 -0.0744 -0.6916 -0.4163
  699TMC3    O210398   4.555   4.535  13.004 -0.3084  0.5151 -0.3453
  700TMC3    C110399   3.873   2.067  16.947  0.3089  0.5372  0.0823
  700TMC3    C210400   3.996   2.046  16.880 -0.1319  0.2114 -0.2333
  700TMC3    C310401   4.084   1.969  16.940 -0.0824  0.2719  0.4635
  700TMC3    C410402   3.843   2.012  17.068 -0.5629  0.2415  0.1526
  700TMC3    C510403   3.942   1.958  17.140 -0.3073 -0.0468  0.3834
  700TMC3    C610404   4.062   1.931  17.076 -0.2261 -0.3847  0.7737
  700TMC3     C10405   3.804   2.188  16.923  0.0516  0.2729  0.1475
  700TMC3     O10406   3.697   2.201  16.983 -0.4798 -0.3174 -0.5794
  700TMC3     H10407   4.011   2.071  16.775 -0.6694  0.1198 -0.3331
  700TMC3    H110408   3.744   2.037  17.106 -0.4611 -1.3832  1.4763
  700TMC3    H210409   4.145   1.887  17.129 -0.8322 -2.2018  0.2235
  700TMC3    C710410   3.966   2.027  17.263 -0.3784  0.2141 -0.6244
  700TMC3    C810411   4.221   1.958  16.879 -0.5855 -0.6567 -0.4414
  700TMC3    O110412   4.078   2.071  17.285  0.4055 -0.2206 -0.2369
  700TMC3    O210413   4.243   2.024  16.778 -0.0777  0.3143  0.2809
  701TMC3    C110414   4.318   1.062  15.274  0.0492  0.2611  0.7453
  701TMC3    C210415   4.347   1.003  15.155 -0.0662 -0.1672  0.2524
  701TMC3    C310416   4.437   1.070  15.076  0.1680  0.3882 -0.2819
  701TMC3    C410417   4.366   1.185  15.315 -0.0798  0.4194 -0.0118
  701TMC3    C510418   4.468   1.236  15.239 -0.2319 -0.3446 -0.1248
  701TMC3    C610419   4.498   1.189  15.115  0.7303 -0.4973  0.0422
  701TMC3     C10420   4.239   0.994  15.373 -0.3213  0.0841 -0.3088
  701TMC3     O10421   4.177   1.052  15.463 -0.4491  0.0466  0.4813
  701TMC3     H10422   4.300   0.909  15.128  0.6244 -1.4135  3.2998
  701TMC3    H110423   4.332   1.220  15.412 -1.7668  0.9561 -0.8042
  701TMC3    H210424   4.573   1.238  15.054  0.6964  0.3145  0.6461
  701TMC3    C710425   4.542   1.348  15.286 -0.0790 -0.5747  0.1655
  701TMC3    C810426   4.440   1.051  14.931 -0.0437 -0.0544  0.6196
  701TMC3    O110427   4.593   1.427  15.207 -0.1511 -0.0148  0.4466
  701TMC3    O210428   4.507   1.131  14.865 -0.5797 -0.4658 -0.2267
  702MPD2     C10429   3.359   3.504  10.407  0.2175 -0.1663  0.7233
  702MPD2    C110430   3.270   3.554  10.490  0.3305 -0.3885 -0.2441
  702MPD2    C210431   3.184   3.653  10.448  1.0855 -0.4728 -0.1035
  702MPD2    C310432   3.189   3.704  10.321  0.1696  0.3902  0.0881
  702MPD2    C410433   3.284   3.655  10.237 -0.0549  1.2997  0.3885
  702MPD2    C510434   3.372   3.556  10.279 -0.3410  0.0989 -0.0092
  702MPD2     H10435   3.124   3.706  10.521 -0.9548  0.6776 -2.6302
  702MPD2    H110436   3.285   3.665  10.130 -0.1149 -1.2344  0.1609
  702MPD2    H210437   3.428   3.423  10.430 -0.6139 -1.6356 -1.9654
  702MPD2    H310438   3.453   3.515  10.219 -3.1193 -1.2233 -2.8804
  702MPD2     N10439   3.105   3.810  10.286 -0.2346  0.6502  0.5969
  702MPD2    H510440   3.045   3.850  10.357 -0.1708 -0.5308  1.3130
  702MPD2    N110441   3.264   3.518  10.624 -0.2264  1.0882 -0.0731
  702MPD2    H710442   3.190   3.569  10.672 -0.4193 -1.0818  1.9121
  703TMC3    C110443   3.100   4.015  10.213  0.0714  0.2101 -0.1470
  703TMC3    C210444   2.991   4.024  10.299 -0.0463  0.2839 -0.9459
  703TMC3    C310445   3.015   4.092  10.419 -0.6672 -0.1838  0.0705
  703TMC3    C410446   3.210   4.082  10.254 -0.0704 -0.0108  0.2584
  703TMC3    C510447   3.226   4.158  10.366  0.2984  0.1571 -0.8530
  703TMC3    C610448   3.123   4.157  10.461 -0.6008 -0.6121 -0.1635
  703TMC3     C10449   3.120   3.886  10.170 -0.4316  0.5276 -0.0160
  703TMC3     O10450   3.195   3.868  10.079 -0.8495  0.1162  0.3701
  703TMC3     H10451   2.898   3.982  10.264 -0.8213  1.5890 -0.4566
  703TMC3    H110452   3.291   4.072  10.183 -1.0362  0.2719 -0.8844
  703TMC3    H210453   3.119   4.215  10.552  1.2297  0.5062 -0.7810
  703TMC3    C710454   3.360   4.209  10.404  0.6778  0.6341 -0.1127
  703TMC3    C810455   2.932   4.030  10.523  0.4960  0.1667  0.1000
  703TMC3    O110456   3.450   4.185  10.327  0.1035  0.0737 -0.4710
  703TMC3    O210457   2.848   3.945  10.484  0.5526 -0.0590 -0.2980
  704TMC3    C110458   1.452   1.618  12.530  0.3701 -0.0917  0.8119
  704TMC3    C210459   1.591   1.632  12.554  0.1908 -0.0104 -0.3064
  704TMC3    C310460   1.657   1.541  12.634  0.2741  0.0388  0.6730
  704TMC3    C410461   1.383   1.515  12.587  0.0350 -0.1117 -0.1026
  704TMC3    C510462   1.451   1.435  12.681  0.2226 -0.1674  0.5557
  704TMC3    C610463   1.586   1.438  12.696 -0.4673  0.3640  0.2486
  704TMC3     C10464   1.412   1.664  12.394  0.3613  0.0293  0.1841
  704TMC3     O10465   1.290   1.667  12.377  0.4590 -0.2789 -0.0132
  704TMC3     H10466   1.649   1.711  12.507  0.0407 -0.2627 -0.9190
  704TMC3    H110467   1.278   1.495  12.574  0.2436 -1.6030  0.5600
  704TMC3    H210468   1.641   1.357  12.742 -2.7691 -1.2875  0.0559
  704TMC3    C710469   1.392   1.306  12.703 -0.7638  0.0325 -0.1815
  704TMC3    C810470   1.758   1.478  12.540 -0.0394  0.0900 -0.3234
  704TMC3    O110471   1.469   1.214  12.675  0.3308 -0.0131 -0.2199
  704TMC3    O210472   1.746   1.511  12.423 -0.1061  0.0888  0.0112
  705MPD2     C10473   1.059   4.568  16.281 -0.2865  0.4786  0.1823
  705MPD2    C110474   0.964   4.588  16.182 -0.3358  0.2958  0.1647
  705MPD2    C210475   0.832   4.624  16.216 -0.5080  0.6858 -0.0988
  705MPD2    C310476   0.806   4.667  16.342  0.0391  0.1087  0.6135
  705MPD2    C410477   0.907   4.657  16.429  0.2724  0.2300  0.5674
  705MPD2    C510478   1.027   4.598  16.404  0.2975  0.5808 -0.1391
  705MPD2     H10479   0.765   4.643  16.133  0.5440 -1.8581 -1.5301
  705MPD2    H110480   0.890   4.695  16.529 -2.3519 -2.3930  1.1149
  705MPD2    H210481   1.156   4.524  16.258 -0.7484  0.5135 -1.8153
  705MPD2    H310482   1.103   4.592  16.481 -0.0364 -0.3455  0.1099
  705MPD2     N10483   0.679   4.726  16.365  0.4142 -0.1050 -0.3285
  705MPD2    H510484   0.609   4.710  16.293  0.9599  2.9866 -1.5511
  705MPD2    N110485   0.998   4.575  16.045 -0.4307 -0.3001 -0.1758
  705MPD2    H710486   0.931   4.595  15.972  0.3028  2.7313 -0.0247
  706TMC3    C110487   1.285   4.616  15.681  0.4402 -0.1842 -0.4415
  706TMC3    C210488   1.237   0.006  15.656 -0.0842 -0.7986 -0.4869
  706TMC3    C310489   1.147   0.063  15.737 -0.7553 -0.0192  0.6192
  706TMC3    C410490   1.245   4.551  15.795  0.1798  0.4317  0.1590
  706TMC3    C510491   1.139   4.599  15.865  0.3242  0.6855 -0.2375
  706TMC3    C610492   1.090   4.725  15.835 -0.1427 -0.1736  0.9392
  706TMC3     C10493   1.391   4.556  15.596  0.3492  0.6694  0.5369
  706TMC3     O10494   1.435   4.455  15.649 -0.2630 -0.0526 -0.4645
  706TMC3     H10495   1.292   0.076  15.593  2.6010 -3.0583 -0.6521
  706TMC3    H110496   1.289   4.454  15.817  0.1045  0.5631  0.8726
  706TMC3    H210497   1.015   0.038  15.896  0.6340  2.0920  0.1047
  706TMC3    C710498   1.130   4.558  15.997  0.6682  0.5217 -0.1919
  706TMC3    C810499   1.134   0.205  15.745 -0.1733 -0.0406  0.0541
  706TMC3    O110500   1.237   4.531  16.053  0.4635 -0.1785  0.4710
  706TMC3    O210501   1.138   0.268  15.638  0.0844 -0.3129 -0.4862
  707TMC3    C110502   2.265   2.684   0.820 -0.1587 -0.3590 -0.1493
  707TMC3    C210503   2.312   2.575   0.891  0.3281 -0.0739  0.2655
  707TMC3    C310504   2.224   2.469   0.898  0.0897  0.5985  0.1729
  707TMC3    C410505   2.151   2.680   0.748 -0.3950  0.8609  0.5262
  707TMC3    C510506   2.062   2.583   0.779  0.0307 -0.5569  0.7003
  707TMC3    C610507   2.096   2.476   0.856  0.2949  0.4568 -0.3091
  707TMC3     C10508   2.359   2.790   0.791  0.0241 -0.1273 -0.1727
  707TMC3     O10509   2.370   2.820   0.672 -0.2478  0.1195  0.1831
  707TMC3     H10510   2.414   2.566   0.925  0.5424  2.2988  0.2178
  707TMC3    H110511   2.125   2.770   0.692  1.6394  0.4499 -1.0881
  707TMC3    H210512   2.034   2.388   0.866  0.9645 -0.0549 -0.7168
  707TMC3    C710513   1.934   2.589   0.719 -0.3092 -0.5369 -0.7773
  707TMC3    C810514   2.270   2.345   0.958 -1.0646 -0.0750 -0.0251
  707TMC3    O110515   1.917   2.690   0.647 -0.1739  0.0286  0.0613
  707TMC3    O210516   2.188   2.265   0.998 -0.1151 -0.6077 -0.3006
  708MPD2     C10517   2.848   2.919  14.324  0.5695 -0.0676  0.3713
  708MPD2    C110518   2.978   2.935  14.298 -0.1609 -0.4944  0.6256
  708MPD2    C210519   3.075   2.925  14.390 -0.7733  0.3996 -0.5805
  708MPD2    C310520   3.047   2.902  14.528 -0.2458  0.6414  0.1786
  708MPD2    C410521   2.914   2.894  14.558 -0.5355 -0.2231  0.3923
  708MPD2    C510522   2.817   2.896  14.460 -0.1881  0.3512  0.0434
  708MPD2     H10523   3.176   2.937  14.352 -0.6675  1.8529  0.1532
  708MPD2    H110524   2.887   2.880  14.662 -1.3061  1.3601  0.3973
  708MPD2    H210525   2.776   2.905  14.244  1.0878 -0.8329  0.0365
  708MPD2    H310526   2.716   2.863  14.481 -0.2590  1.8454  2.0056
  708MPD2     N10527   3.149   2.899  14.625  0.4022 -0.1667  0.6456
  708MPD2    H510528   3.131   2.892  14.725 -1.8465  0.4370  0.2823
  708MPD2    N110529   3.000   2.971  14.161 -0.4899  0.2431  0.2219
  708MPD2    H710530   2.923   2.937  14.104  1.6039 -2.7992 -0.7668
  709TMC3    C110531   3.198   3.116  14.174 -0.4702  0.0378  0.0222
  709TMC3    C210532   3.327   3.142  14.125  0.8918  0.6538  0.3474
  709TMC3    C310533   3.392   3.240  14.190  0.4135  0.6385 -0.2054
  709TMC3    C410534   3.139   3.184  14.270 -0.2043  0.2587  0.3444
  709TMC3    C510535   3.208   3.284  14.338  0.3734  0.3817  0.1586
  709TMC3    C610536   3.335   3.315  14.298  0.7550 -0.3051  0.5402
  709TMC3     C10537   3.118   3.012  14.102  0.4908  0.0381 -0.1600
  709TMC3     O10538   3.151   3.010  13.983 -0.0015  0.7434 -0.0680
  709TMC3     H10539   3.381   3.076  14.057  0.5288  1.0243 -0.3038
  709TMC3    H110540   3.032   3.170  14.282 -0.0199 -1.0423  0.4747
  709TMC3    H210541   3.396   3.375  14.366  2.4911 -0.5193 -0.8304
  709TMC3    C710542   3.209   3.279  14.483  0.3460 -0.1885 -0.0418
  709TMC3    C810543   3.525   3.286  14.146  0.3899  0.4631  0.3230
  709TMC3    O110544   3.310   3.277  14.553 -0.7853 -0.1081  0.0318
  709TMC3    O210545   3.588   3.369  14.212 -0.7072 -0.0918 -0.0209
  710TMC3    C110546   4.535   4.038   0.288 -0.2969  0.2171  0.1451
  710TMC3    C210547   4.595   4.101   0.175  0.3660 -0.1278  0.1193
  710TMC3    C310548   4.672   4.021   0.103 -0.1447 -0.2069 -0.4837
  710TMC3    C410549   4.524   3.900   0.302 -0.0115 -0.2807  0.7763
  710TMC3    C510550   4.598   3.826   0.217  0.2917  0.1656  0.3261
  710TMC3    C610551   4.676   3.881   0.114  0.5960 -0.8518 -0.2186
  710TMC3     C10552   4.486   4.122   0.400 -0.1840  0.1022  0.3317
  710TMC3     O10553   4.422   4.223   0.372 -0.4320 -0.1467 -0.4215
  710TMC3     H10554   4.604   4.209   0.178  0.0696 -0.1343  1.3458
  710TMC3    H110555   4.462   3.852   0.377  2.2775 -0.2767  2.6672
  710TMC3    H210556   0.004   3.823   0.048  2.5231  0.8952  0.1213
  710TMC3    C710557   4.623   3.687   0.263  0.3787  0.6369 -0.5590
  710TMC3    C810558   0.074   4.068   0.074  0.0537  0.2615 -0.6584
  710TMC3    O110559   4.576   3.665   0.377  0.5266  0.0050  0.0085
  710TMC3    O210560   0.167   3.988   0.079  0.1378  0.2218 -0.6539
  711TMC3    C110561   0.132   0.943  14.595 -0.3510  0.3623 -0.4279
  711TMC3    C210562   0.131   1.024  14.702 -0.1232  0.2437  0.1695
  711TMC3    C310563   0.252   1.037  14.781 -0.0035 -0.5541  0.7522
  711TMC3    C410564   0.250   0.902  14.542 -0.4152  0.5819 -0.7233
  711TMC3    C510565   0.365   0.912  14.617  1.0987 -0.0734  0.3822
  711TMC3    C610566   0.366   0.975  14.739 -0.0837 -0.3297  0.1431
  711TMC3     C10567   0.028   0.850  14.578  0.1717  0.3536 -0.0194
  711TMC3     O10568   0.035   0.780  14.478 -0.0834 -0.2789  0.9245
  711TMC3     H10569   0.039   1.058  14.746  0.8167  0.0216  2.3052
  711TMC3    H110570   0.253   0.846  14.450 -1.4828 -1.1924  0.3255
  711TMC3    H210571   0.455   0.967  14.800  0.6326  0.8960 -0.7358
  711TMC3    C710572   0.429   0.780  14.630  0.6870 -0.0355 -0.2646
  711TMC3    C810573   0.231   1.007  14.925 -0.8230  0.0298 -0.3939
  711TMC3    O110574   0.513   0.772  14.719 -0.3308 -0.0594  0.3273
  711TMC3    O210575   0.120   0.962  14.954  0.5285  0.2370  0.0321
  712MPD2     C10576   1.117   1.542  13.457  0.3690  0.3508 -0.1093
  712MPD2    C110577   0.991   1.573  13.491 -1.2681  0.5130 -0.2117
  712MPD2    C210578   0.975   1.706  13.537  0.5617 -0.0888 -0.1549
  712MPD2    C310579   1.084   1.786  13.551  0.1575  0.2121  0.2141
  712MPD2    C410580   1.208   1.746  13.528 -0.2154  0.0177  0.3249
  712MPD2    C510581   1.225   1.619  13.476 -0.0742 -0.0831 -0.1076
  712MPD2     H10582   0.882   1.730  13.587  0.1262 -1.3427 -0.3590
  712MPD2    H110583   1.286   1.821  13.527 -1.7992  1.6783  1.8764
  712MPD2    H210584   1.138   1.442  13.422  1.0408  0.2155  0.6922
  712MPD2    H310585   1.323   1.583  13.449  0.2759  0.8027 -0.0301
  712MPD2     N10586   1.080   1.921  13.602  0.4668  0.0771  0.3144
  712MPD2    H510587   1.169   1.968  13.608  0.1705  0.4874  1.5764
  712MPD2    N110588   0.895   1.477  13.464  0.1010 -0.1615 -0.3947
  712MPD2    H710589   0.921   1.392  13.415  2.1564  0.2523 -0.0320
  713TMC3    C110590   1.005   2.135  13.667  0.1202 -0.0027 -0.3806
  713TMC3    C210591   1.129   2.150  13.719 -0.3506  0.6502  0.1938
  713TMC3    C310592   1.182   2.277  13.728 -0.8642 -0.1779  0.4172
  713TMC3    C410593   0.921   2.236  13.637  0.7344 -0.4483  0.0385
  713TMC3    C510594   0.968   2.361  13.657 -0.2286 -0.2777 -1.0577
  713TMC3    C610595   1.104   2.380  13.686 -0.8452  0.0262  0.2987
  713TMC3     C10596   0.969   2.001  13.623 -0.1935  0.0756 -0.3623
  713TMC3     O10597   0.855   1.975  13.585 -0.4252  0.3174 -0.1055
  713TMC3     H10598   1.195   2.068  13.745  0.0091  1.3348  1.4489
  713TMC3    H110599   0.826   2.226  13.584  1.2087  1.6199 -1.2200
  713TMC3    H210600   1.146   2.480  13.696  1.4993 -1.1115  1.8608
  713TMC3    C710601   0.890   2.478  13.621 -0.8357  0.0300  0.1595
  713TMC3    C810602   1.325   2.272  13.682  0.2565  0.1453  0.6422
  713TMC3    O110603   0.781   2.456  13.582 -0.4168 -0.7793  0.9729
  713TMC3    O210604   1.358   2.167  13.627 -0.2334  0.2556  0.1640
  714MPD2     C10605   3.484   0.238   1.113  0.0320  0.2282  1.0194
  714MPD2    C110606   3.525   0.139   1.034 -0.2250 -0.0846 -0.1764
  714MPD2    C210607   3.456   0.104   0.920 -0.3578  0.0526 -0.2342
  714MPD2    C310608   3.359   0.189   0.877 -0.2106 -0.5239 -0.1576
  714MPD2    C410609   3.321   0.293   0.963 -0.1918 -0.9540  0.3739
  714MPD2    C510610   3.377   0.313   1.081  0.0035  0.0058 -0.3535
  714MPD2     H10611   3.476   0.017   0.858 -0.0987 -1.8343  2.5277
  714MPD2    H110612   3.241   0.360   0.934 -1.5767 -1.8502  2.1923
  714MPD2    H210613   3.535   0.250   1.207 -0.7231 -0.5071  1.5178
  714MPD2    H310614   3.342   0.392   1.145  0.0048  1.7963 -2.5781
  714MPD2     N10615   3.283   0.154   0.762 -0.0087 -0.0267  0.2736
  714MPD2    H510616   3.304   0.065   0.718  0.9157 -0.2342  1.1111
  714MPD2    N110617   3.638   0.066   1.077 -0.7199  0.1816 -1.2120
  714MPD2    H710618   3.667   0.088   1.172 -0.2468  1.7736 -1.7323
  715TMC3    C110619   3.830   4.658   1.031  0.1980  0.0365 -0.5314
  715TMC3    C210620   3.881   4.559   0.949  0.4806 -0.0683  0.5251
  715TMC3    C310621   3.999   4.504   0.995  0.7144 -0.8630 -0.0217
  715TMC3    C410622   3.882   4.697   1.151  0.4533 -0.5285 -0.2306
  715TMC3    C510623   3.995   4.633   1.197  0.4805 -0.3266  0.0576
  715TMC3    C610624   4.051   4.535   1.118 -1.0090  0.1352  0.1702
  715TMC3     C10625   3.713   4.725   0.983  1.0397 -0.4718  0.1356
  715TMC3     O10626   3.700   4.734   0.863  0.1837 -0.4928 -0.1466
  715TMC3     H10627   3.842   4.541   0.850  1.0032 -1.2901  0.5446
  715TMC3    H110628   3.837   0.050   1.194  0.1737 -0.5104 -0.5597
  715TMC3    H210629   4.157   4.511   1.126 -1.3829 -1.4910  0.2199
  715TMC3    C710630   4.066   4.676   1.318 -0.6917 -0.1368 -0.1934
  715TMC3    C810631   4.062   4.390   0.924 -0.5328  0.5256 -0.8969
  715TMC3    O110632   4.180   4.632   1.346 -0.7549  0.3194  0.7145
  715TMC3    O210633   4.023   4.386   0.807 -0.0991 -0.1437 -0.6194
  716MPD2     C10634   3.430   3.837   9.882 -0.3972 -0.0972  0.2532
  716MPD2    C110635   3.347   3.842   9.774 -0.6962 -0.0374  0.0399
  716MPD2    C210636   3.317   3.726   9.704 -0.0402  0.4425  0.2295
  716MPD2    C310637   3.371   3.606   9.744 -0.9825  0.1841 -0.2814
  716MPD2    C410638   3.447   3.600   9.855 -0.3940  0.0929  0.6867
  716MPD2    C510639   3.473   3.712   9.926 -0.5248  0.0044 -0.5679
  716MPD2     H10640   3.250   3.732   9.620 -1.6555  0.3418  1.5190
  716MPD2    H110641   3.495   3.513   9.898  1.2484  0.3329 -0.6642
  716MPD2    H210642   3.455   3.919   9.949  0.3663 -1.3325  1.4948
  716MPD2    H310643   3.538   3.721  10.012  0.6261 -0.4701 -1.3849
  716MPD2     N10644   3.343   3.490   9.666 -0.9137  0.5476 -0.3723
  716MPD2    H510645   3.299   3.510   9.576 -0.4685  1.9573 -0.2765
  716MPD2    N110646   3.285   3.971   9.747  0.2162  0.4954  0.4064
  716MPD2    H710647   3.309   4.046   9.811  0.7077 -0.5661  1.4645
  717TMC3    C110648   3.373   3.272   9.590 -0.6868  0.2659 -0.0626
  717TMC3    C210649   3.247   3.272   9.540 -0.0897  0.0674 -0.4046
  717TMC3    C310650   3.202   3.160   9.470  0.4474  0.0057  0.4938
  717TMC3    C410651   3.453   3.160   9.578  0.0212 -0.3794 -0.1424
  717TMC3    C510652   3.400   3.053   9.508 -0.0454 -0.4687 -0.0144
  717TMC3    C610653   3.272   3.043   9.459 -0.4355 -0.5103  0.1330
  717TMC3     C10654   3.405   3.371   9.686  0.0260 -0.8445 -0.5745
  717TMC3     O10655   3.496   3.334   9.761 -0.6729 -0.2928 -0.2919
  717TMC3     H10656   3.186   3.361   9.549  1.1159  0.8224  0.2528
  717TMC3    H110657   3.556   3.159   9.612 -0.2457 -1.3751  0.6439
  717TMC3    H210658   3.242   2.957   9.400 -1.5366 -0.5056  0.6849
  717TMC3    C710659   3.484   2.927   9.510  0.1331  0.8818 -0.0800
  717TMC3    C810660   3.084   3.177   9.389  0.5337 -0.1679 -0.0077
  717TMC3    O110661   3.605   2.937   9.521  0.0101 -0.0428  0.0458
  717TMC3    O210662   3.045   3.289   9.377  0.1201 -0.1788 -0.1578
  718MPD2     C10663   2.400   2.389  11.978 -0.0022  0.4873 -0.6929
  718MPD2    C110664   2.448   2.277  12.054 -0.5530  0.3785  0.4247
  718MPD2    C210665   2.358   2.231  12.157 -0.2371  0.0922 -0.5401
  718MPD2    C310666   2.235   2.290  12.168  0.5013 -0.2559 -0.9850
  718MPD2    C410667   2.191   2.390  12.090 -0.1842  0.6891 -0.2900
  718MPD2    C510668   2.270   2.443  11.995  0.5422 -0.4764  0.2558
  718MPD2     H10669   2.392   2.169  12.240  2.6187  2.3378 -0.0158
  718MPD2    H110670   2.090   2.429  12.102 -0.5520 -0.3666 -0.0382
  718MPD2    H210671   2.471   2.433  11.909  0.6627  0.1582 -0.2268
  718MPD2    H310672   2.232   2.528  11.939  1.9441  0.4025  0.6504
  718MPD2     N10673   2.161   2.252  12.285  0.4454 -0.1867 -0.0808
  718MPD2    H510674   2.202   2.175  12.337  0.3974  0.8775  1.5249
  718MPD2    N110675   2.580   2.236  12.036  0.7500 -0.4621 -0.2355
  718MPD2    H710676   2.640   2.300  11.984 -1.3127  1.2721 -0.4581
  719TMC3    C110677   2.771   2.109  12.122 -0.2294  0.9521 -0.1416
  719TMC3    C210678   2.809   2.014  12.208 -0.4259 -0.2500  0.3494
  719TMC3    C310679   2.906   2.035  12.301 -0.8178  0.3365 -0.1602
  719TMC3    C410680   2.842   2.223  12.099 -0.0016  0.6695  0.5298
  719TMC3    C510681   2.951   2.241  12.183 -0.0869 -0.3870  1.0617
  719TMC3    C610682   2.981   2.149  12.282 -0.5120  0.2100  0.1836
  719TMC3     C10683   2.628   2.119  12.094  0.0407 -0.3939 -0.2477
  719TMC3     O10684   2.556   2.035  12.150  0.0111 -0.1232  0.2564
  719TMC3     H10685   2.758   1.918  12.203 -1.8255  0.5915 -1.4647
  719TMC3    H110686   2.816   2.300  12.028  1.1408 -0.2995 -0.9508
  719TMC3    H210687   3.055   2.167  12.359 -1.3345  3.2484  0.2840
  719TMC3    C710688   3.040   2.360  12.161  0.1327  0.0400 -0.3208
  719TMC3    C810689   2.869   2.022  12.438 -0.9276  0.4924  0.5623
  719TMC3    O110690   3.069   2.383  12.043  0.8241  0.2321  0.0792
  719TMC3    O210691   2.949   2.052  12.525  0.5411  0.2962  0.4956
  720MPD2     C10692   1.184   3.634  13.901  0.4496  0.0636  0.0613
  720MPD2    C110693   1.302   3.660  13.829  0.1017  0.2126 -0.5083
  720MPD2    C210694   1.423   3.653  13.894  0.3749 -0.4792  0.6435
  720MPD2    C310695   1.429   3.634  14.032  0.5142  0.3269  0.7177
  720MPD2    C410696   1.314   3.603  14.107  0.2972  0.1414  0.4710
  720MPD2    C510697   1.194   3.603  14.037  0.2260  0.8508 -0.0046
  720MPD2     H10698   1.514   3.671  13.838 -1.1182  2.5271 -0.8870
  720MPD2    H110699   1.307   3.586  14.214  2.4726 -0.2916  0.5422
  720MPD2    H210700   1.083   3.632  13.860  1.1268  0.9430 -1.6345
  720MPD2    H310701   1.100   3.579  14.085  2.2719 -3.3826  1.8893
  720MPD2     N10702   1.558   3.653  14.090 -0.4747 -0.1377  0.2431
  720MPD2    H510703   1.636   3.671  14.027 -0.6567  2.4513  0.7508
  720MPD2    N110704   1.301   3.668  13.688  0.8061 -0.0646  0.5961
  720MPD2    H710705   1.394   3.675  13.647  0.2421 -0.6087 -0.7818
  721TMC3    C110706   1.728   3.679  14.263 -0.5052 -0.0565  0.2734
  721TMC3    C210707   1.759   3.678  14.396 -0.5840  0.4782 -0.2237
  721TMC3    C310708   1.893   3.659  14.425  0.0929  0.4424 -0.3741
  721TMC3    C410709   1.830   3.674  14.168  0.1330 -0.2124  0.2742
  721TMC3    C510710   1.959   3.648  14.201  0.0782  0.1553 -0.1387
  721TMC3    C610711   1.996   3.651  14.332  0.5604 -0.7587  0.0641
  721TMC3     C10712   1.588   3.646  14.224  1.2034  0.0896  0.0353
  721TMC3     O10713   1.510   3.624  14.313 -0.5248 -0.7696  0.5741
  721TMC3     H10714   1.688   3.665  14.476  1.0762  0.2187  1.2084
  721TMC3    H110715   1.800   3.676  14.064  1.5244  0.1290 -0.1207
  721TMC3    H210716   2.100   3.636  14.362  1.1221  0.8340 -1.0809
  721TMC3    C710717   2.065   3.670  14.106  0.5861 -1.0408 -0.0113
  721TMC3    C810718   1.943   3.686  14.561  0.3047  0.5278  0.7131
  721TMC3    O110719   2.053   3.764  14.028 -0.0590  0.1078 -0.0287
  721TMC3    O210720   2.051   3.642  14.581 -0.1562  0.5515 -0.2671
  722MPD2     C10721   4.709   2.588  13.227  0.0716 -0.7849 -0.5502
  722MPD2    C110722   4.669   2.708  13.292  0.0615  0.4192  1.0494
  722MPD2    C210723   4.539   2.710  13.338  0.3127  0.2991 -0.1345
  722MPD2    C310724   4.450   2.603  13.327 -0.1441 -0.3090 -0.1223
  722MPD2    C410725   4.495   2.488  13.269  0.3017  0.7297  0.2094
  722MPD2    C510726   4.619   2.481  13.214 -0.2034  0.4997 -0.2512
  722MPD2     H10727   4.501   2.803  13.378 -1.0349  0.7107 -2.3555
  722MPD2    H110728   4.431   2.402  13.259  2.2820 -1.0638  2.9396
  722MPD2    H210729   0.061   2.577  13.165 -0.4769  0.1696 -1.5209
  722MPD2    H310730   4.661   2.397  13.162  1.5556  0.0679  1.8502
  722MPD2     N10731   4.320   2.624  13.376  0.7259  0.6196 -0.0803
  722MPD2    H510732   4.297   2.706  13.431 -0.8280 -0.8158  1.3878
  722MPD2    N110733   0.024   2.811  13.307 -0.1483  0.6073 -0.3773
  722MPD2    H710734   4.729   2.899  13.348 -2.0433 -0.3229  0.1718
  723TMC3    C110735   4.104   2.584  13.441  0.1456  0.6025  0.5826
  723TMC3    C210736   4.012   2.486  13.472  0.2150 -0.1210  0.5589
  723TMC3    C310737   3.877   2.514  13.474  0.8417 -0.7600 -0.2675
  723TMC3    C410738   4.064   2.706  13.396  0.0904 -0.2461 -0.0197
  723TMC3    C510739   3.931   2.730  13.401 -0.5550  1.0451  0.0858
  723TMC3    C610740   3.838   2.638  13.438 -0.3137 -1.0533  0.2845
  723TMC3     C10741   4.215   2.532  13.371 -0.1305  0.4050  0.1386
  723TMC3     O10742   4.214   2.417  13.328 -0.3051 -0.2538  0.7005
  723TMC3     H10743   4.044   2.388  13.503 -0.0198  0.0640  1.4106
  723TMC3    H110744   4.136   2.765  13.340  0.7955 -1.7332 -0.6863
  723TMC3    H210745   3.732   2.661  13.426 -0.2947 -0.2571  1.7103
  723TMC3    C710746   3.891   2.833  13.311  0.0827 -0.8463  0.0260
  723TMC3    C810747   3.786   2.413  13.420 -0.2774  0.1193  0.2702
  723TMC3    O110748   3.783   2.818  13.260 -0.5545  0.5227 -0.1957
  723TMC3    O210749   3.665   2.420  13.430 -0.0195  0.1316  0.5371
  724TMC3    C110750   1.185   0.325  10.408  0.0905  0.8374  0.3288
  724TMC3    C210751   1.047   0.347  10.391 -0.3953  0.7664 -0.1414
  724TMC3    C310752   0.998   0.466  10.427  0.2503  0.2096 -0.0034
  724TMC3    C410753   1.259   0.400  10.488 -0.0182  0.2985  0.3127
  724TMC3    C510754   1.200   0.512  10.542  0.7562 -0.6960  0.8022
  724TMC3    C610755   1.070   0.553  10.504  0.0435 -0.8691  0.7570
  724TMC3     C10756   1.258   0.223  10.331 -0.3843  0.0376  0.1065
  724TMC3     O10757   1.382   0.225  10.346 -0.4150 -0.1648 -0.0069
  724TMC3     H10758   0.981   0.282  10.335 -0.9886  1.1457  0.1251
  724TMC3    H110759   1.361   0.376  10.518  0.2771  2.9331  1.4246
  724TMC3    H210760   1.025   0.646  10.539  1.0118 -0.1665  0.1532
  724TMC3    C710761   1.260   0.593  10.645 -0.4650  0.9269  0.4026
  724TMC3    C810762   0.871   0.510  10.375  0.0275 -0.6204 -0.1068
  724TMC3    O110763   1.381   0.608  10.640 -0.6107 -0.0754 -0.1193
  724TMC3    O210764   0.793   0.421  10.345 -0.1580 -0.3656 -0.5463
  725TMC3    C110765   2.391   3.644  12.683  0.1191  0.0581 -0.2315
  725TMC3    C210766   2.284   3.662  12.597  0.1640  0.0644  0.6721
  725TMC3    C310767   2.277   3.571  12.500 -0.4179 -0.7587  0.6327
  725TMC3    C410768   2.497   3.558  12.650 -0.1319 -0.3022  0.0850
  725TMC3    C510769   2.476   3.473  12.546  0.3491 -0.3447 -0.9861
  725TMC3    C610770   2.364   3.475  12.468  0.1214  0.4185 -0.2471
  725TMC3     C10771   2.417   3.745  12.778 -0.0275  0.0803  0.0768
  725TMC3     O10772   2.532   3.783  12.806  0.1578 -0.0824  0.1002
  725TMC3     H10773   2.203   3.733  12.606 -1.4614 -1.7673  0.4386
  725TMC3    H110774   2.595   3.568  12.695 -0.9708 -0.4813  1.9535
  725TMC3    H210775   2.351   3.404  12.387 -0.4888  0.6838 -0.3729
  725TMC3    C710776   2.583   3.387  12.488  0.8105  0.2588  0.9077
  725TMC3    C810777   2.192   3.607  12.385  0.4822 -0.4485 -0.0467
  725TMC3    O110778   2.545   3.314  12.397 -0.0434  0.1685 -0.1896
  725TMC3    O210779   2.171   3.519  12.305 -0.1779  0.7580 -0.2467
  726MPD2     C10780   4.445   0.898  10.196 -0.0264  0.1102 -0.1676
  726MPD2    C110781   4.339   0.990  10.199  0.1605  0.0747 -0.2864
  726MPD2    C210782   4.215   0.951  10.246  0.2200 -0.2403  0.1200
  726MPD2    C310783   4.201   0.835  10.319 -0.0381  0.0187 -0.5776
  726MPD2    C410784   4.308   0.745  10.327 -0.0213  0.4214 -0.0901
  726MPD2    C510785   4.423   0.773  10.257  0.1259 -0.1108  0.1677
  726MPD2     H10786   4.132   1.020  10.231  0.8720  0.5931  0.3644
  726MPD2    H110787   4.297   0.656  10.389  0.5298  0.7282  0.4480
  726MPD2    H210788   4.538   0.926  10.148 -0.6089 -0.5970 -1.6881
  726MPD2    H310789   4.500   0.697  10.264 -1.3194 -1.6164 -0.2041
  726MPD2     N10790   4.081   0.799  10.390  0.6640  0.2005  0.4921
  726MPD2    H510791   4.079   0.712  10.442 -1.4661 -0.7133 -1.1576
  726MPD2    N110792   4.341   1.120  10.163  0.2481  0.3385  0.6852
  726MPD2    H710793   4.253   1.162  10.134 -0.0320 -1.0231 -0.4805
  727TMC3    C110794   4.424   1.331  10.088  0.2829  0.3805 -0.1427
  727TMC3    C210795   4.494   1.427  10.148  0.5209 -0.4609 -0.1113
  727TMC3    C310796   4.475   1.557  10.117  0.4479  0.6322  0.6395
  727TMC3    C410797   4.319   1.359  10.010 -0.6192  0.0019  0.8333
  727TMC3    C510798   4.300   1.488   9.976  0.0683 -0.0818  0.8570
  727TMC3    C610799   4.374   1.595  10.027 -0.9936 -0.1925 -0.0134
  727TMC3     C10800   4.450   1.200  10.155  0.1953 -0.0556  0.3263
  727TMC3     O10801   4.568   1.182  10.192  0.2911 -0.3016  0.1266
  727TMC3     H10802   4.578   1.403  10.213  0.9859  0.1567 -0.4799
  727TMC3    H110803   4.281   1.267   9.966 -0.7114 -0.0255  0.9714
  727TMC3    H210804   4.357   1.696   9.991  0.2975 -0.4355 -1.2965
  727TMC3    C710805   4.195   1.521   9.877 -0.2846 -0.6779  0.3417
  727TMC3    C810806   4.539   1.661  10.200 -0.0571  0.2616  0.1961
  727TMC3    O110807   4.199   1.634   9.830 -0.5177  0.5564 -0.2020
  727TMC3    O210808   4.596   1.608  10.295  0.5512  0.0775  0.2776
  728TMC3    C110809   3.999   4.298  15.228 -0.7942  0.1642 -0.1303
  728TMC3    C210810   4.129   4.316  15.255 -0.5636 -0.1350 -0.5996
  728TMC3    C310811   4.217   4.309  15.154  0.6198  0.5165 -0.1645
  728TMC3    C410812   3.951   4.274  15.105  0.9000 -0.4332  0.0791
  728TMC3    C510813   4.039   4.284  14.999  0.0288 -0.3012  0.0475
  728TMC3    C610814   4.170   4.303  15.023  0.3389  0.0937 -0.0363
  728TMC3     C10815   3.923   4.290  15.352 -0.3453  0.3194 -0.1135
  728TMC3     O10816   3.982   4.292  15.457  0.4703 -0.5069  0.1141
  728TMC3     H10817   4.174   4.334  15.352 -0.1970  0.1638 -0.8275
  728TMC3    H110818   3.852   4.238  15.079 -0.5218  3.3822  0.1466
  728TMC3    H210819   4.238   4.331  14.944  0.2881 -0.5216 -0.2987
  728TMC3    C710820   3.983   4.289  14.869 -0.3958 -0.5878 -0.5676
  728TMC3    C810821   4.351   4.349  15.160  0.2434  0.2092  0.7111
  728TMC3    O110822   3.863   4.284  14.855  0.5517  0.1661  0.1904
  728TMC3    O210823   4.383   4.425  15.251  0.1085  0.6672  0.8970
  729MPD2     C10824   1.476   0.664  16.461 -0.2419  0.0670 -0.0039
  729MPD2    C110825   1.596   0.617  16.507 -0.6442  0.1464  0.4205
  729MPD2    C210826   1.602   0.567  16.633 -0.1336  0.0781  0.2315
  729MPD2    C310827   1.496   0.597  16.725 -0.4094 -0.0833 -0.0996
  729MPD2    C410828   1.373   0.641  16.676  0.3901  0.6264  0.6972
  729MPD2    C510829   1.364   0.668  16.538  0.1860  1.0863  0.5114
  729MPD2     H10830   1.693   0.528  16.676 -0.3336  1.7644  2.2025
  729MPD2    H110831   1.296   0.665  16.748 -0.3839 -0.3276  0.1895
  729MPD2    H210832   1.477   0.704  16.360 -0.0122 -2.3273 -0.9434
  729MPD2    H310833   1.265   0.685  16.496  0.5781  0.5329 -0.6207
  729MPD2     N10834   1.495   0.574  16.861  0.4064  0.1152 -0.0280
  729MPD2    H510835   1.409   0.576  16.914 -0.8177  0.2982 -2.0426
  729MPD2    N110836   1.699   0.621  16.416 -0.4125 -0.5803 -0.2073
  729MPD2    H710837   1.682   0.666  16.327 -1.7142  1.9139  1.3140
  730TMC3    C110838   1.591   0.563  17.077  0.7312 -0.4664 -0.4141
  730TMC3    C210839   1.707   0.556  17.151 -0.6146  0.1162  0.5001
  730TMC3    C310840   1.755   0.672  17.215 -0.3925 -0.0179  0.1882
  730TMC3    C410841   1.521   0.679  17.094  0.1488  0.7630  0.4376
  730TMC3    C510842   1.557   0.781  17.174  0.4458 -0.4322  0.4301
  730TMC3    C610843   1.675   0.781  17.244 -0.4516  0.0439 -0.0820
  730TMC3     C10844   1.605   0.543  16.937 -0.2661 -0.4376 -0.5761
  730TMC3     O10845   1.713   0.503  16.901 -0.2795 -0.0413 -0.4483
  730TMC3     H10846   1.772   0.471  17.132  1.2073  1.5302  0.4353
  730TMC3    H110847   1.425   0.694  17.045 -0.0283  2.2967  1.2474
  730TMC3    H210848   1.703   0.870  17.299 -1.6960  0.6455 -0.4275
  730TMC3    C710849   1.500   0.905  17.146  0.1351  0.3309  0.1413
  730TMC3    C810850   1.899   0.687  17.212 -0.1488  0.0751 -0.3705
  730TMC3    O110851   1.451   0.921  17.035  0.0802  0.2862  0.4200
  730TMC3    O210852   1.957   0.594  17.161 -0.4937 -0.6530 -0.0251
  731MPD2     C10853   1.527   3.363  12.573 -0.1813 -0.0684  0.1806
  731MPD2    C110854   1.527   3.220  12.576 -0.1775  0.0429  0.0522
  731MPD2    C210855   1.422   3.148  12.630 -0.6491  0.3574  0.0396
  731MPD2    C310856   1.300   3.210  12.672  0.4884 -0.1387  0.5593
  731MPD2    C410857   1.296   3.349  12.665 -0.5844  0.3291  0.0081
  731MPD2    C510858   1.411   3.421  12.624 -0.1010  0.4116 -1.2043
  731MPD2     H10859   1.425   3.041  12.614 -0.7657  0.4046 -0.3008
  731MPD2    H110860   1.211   3.411  12.687  0.2940  1.4230  0.3136
  731MPD2    H210861   1.601   3.427  12.527  1.0179 -1.6572 -0.0978
  731MPD2    H310862   1.409   3.529  12.627  1.7347  0.3597  1.1851
  731MPD2     N10863   1.192   3.139  12.726  0.1937 -0.1713  0.2155
  731MPD2    H510864   1.198   3.038  12.729  0.4788 -0.1126  1.5477
  731MPD2    N110865   1.630   3.151  12.518 -0.0140 -0.4299 -0.0543
  731MPD2    H710866   1.683   3.203  12.449 -1.1140 -0.4586 -0.9216
  732TMC3    C110867   1.768   2.972  12.451  0.4445  0.9695 -0.0579
  732TMC3    C210868   1.771   3.025  12.324  0.7355 -0.3345  0.2666
  732TMC3    C310869   1.874   2.975  12.244  0.2069  0.0555 -0.3482
  732TMC3    C410870   1.861   2.880  12.496 -0.1489  0.1787 -0.2672
  732TMC3    C510871   1.958   2.842  12.408  0.4092  0.0541 -0.5577
  732TMC3    C610872   1.963   2.880  12.276 -0.6970 -0.1025 -0.1079
  732TMC3     C10873   1.673   3.025  12.544 -0.1586  0.2955  0.0754
  732TMC3     O10874   1.656   2.960  12.646  0.2590  0.0571 -0.1334
  732TMC3     H10875   1.701   3.096  12.282  0.6720  0.2991  1.4440
  732TMC3    H110876   1.862   2.835  12.595  0.8310  1.0808  0.1321
  732TMC3    H210877   2.037   2.839  12.209 -0.3249 -0.1877  0.3576
  732TMC3    C710878   2.063   2.753  12.456 -0.4026  0.5273 -0.0728
  732TMC3    C810879   1.868   2.979  12.099 -0.2055  0.5143  0.2959
  732TMC3    O110880   2.045   2.678  12.553 -0.8556 -0.0564  0.3542
  732TMC3    O210881   1.970   2.986  12.035  0.0743 -0.0443  0.2357
  733TMC3    C110882   1.888   2.166  12.615  0.1073 -0.2073  0.5521
  733TMC3    C210883   1.899   2.217  12.486 -0.8330  0.0018 -0.4915
  733TMC3    C310884   2.026   2.256  12.452  0.5820  0.7365 -0.0009
  733TMC3    C410885   1.989   2.171  12.707  0.4279  1.4775 -0.2837
  733TMC3    C510886   2.110   2.220  12.664 -0.1961 -0.2297 -0.0731
  733TMC3    C610887   2.137   2.256  12.538 -0.5543  0.1632 -0.6585
  733TMC3     C10888   1.755   2.121  12.655 -0.3849  0.4467 -0.0867
  733TMC3     O10889   1.667   2.165  12.585 -0.2264 -0.2740  0.4846
  733TMC3     H10890   1.815   2.213  12.417 -1.0913  1.3756 -0.2389
  733TMC3    H110891   1.988   2.137  12.810  0.7873 -0.6213 -0.9670
  733TMC3    H210892   2.227   2.304  12.501  0.0548  1.3421  2.3647
  733TMC3    C710893   2.228   2.183  12.738 -0.4016  0.1325  0.5531
  733TMC3    C810894   2.041   2.305  12.326  0.1946 -0.1206  0.1794
  733TMC3    O110895   2.232   2.173  12.859 -0.0627  0.3305 -0.4237
  733TMC3    O210896   1.950   2.351  12.261 -0.4766  0.3272  0.0209
  734MPD2     C10897   4.576   4.683  11.847  0.1704 -0.8464 -1.0421
  734MPD2    C110898   4.486   4.593  11.783  1.6823  0.6422 -0.4651
  734MPD2    C210899   4.473   4.595  11.645 -0.6256 -0.4890 -0.0079
  734MPD2    C310900   4.541   4.693  11.576  0.1213  0.4567  0.2051
  734MPD2    C410901   4.624   0.043  11.639 -0.7789 -0.0249  0.3732
  734MPD2    C510902   4.648   0.030  11.770 -0.0989 -0.1941 -0.9238
  734MPD2     H10903   4.414   4.523  11.589 -0.1407  0.0015 -1.1386
  734MPD2    H110904   4.673   0.119  11.579  0.3366  0.4311  1.8800
  734MPD2    H210905   4.592   4.690  11.954 -0.1689 -0.6209 -1.0076
  734MPD2    H310906   4.723   0.096  11.810  2.6963 -3.1048 -1.3342
  734MPD2     N10907   4.506   4.695  11.438 -0.2537  0.4194 -0.4917
  734MPD2    H510908   4.434   4.626  11.419 -0.1171  0.2130 -0.2789
  734MPD2    N110909   4.413   4.514  11.867 -0.3386  0.0216 -0.4357
  734MPD2    H710910   4.419   4.528  11.968 -0.6895  1.5866 -0.6363
  735TMC3    C110911   4.319   4.306  11.931 -0.5631 -0.1585 -0.9606
  735TMC3    C210912   4.227   4.219  11.890 -0.4355  0.4128 -0.4980
  735TMC3    C310913   4.247   4.083  11.875 -0.9254  0.4920 -0.2710
  735TMC3    C410914   4.444   4.255  11.957 -0.0038 -0.1641  0.0481
  735TMC3    C510915   4.461   4.121  11.952  0.0919 -0.0362  0.9847
  735TMC3    C610916   4.362   4.031  11.919  0.1905 -0.1560  0.3748
  735TMC3     C10917   4.333   4.410  11.831  0.1131  0.7476  0.6609
  735TMC3     O10918   4.273   4.393  11.724 -0.4631  0.7632  0.2051
  735TMC3     H10919   4.141   4.266  11.844 -2.0561 -1.1321  0.9086
  735TMC3    H110920   4.529   4.314  11.990  0.6493 -1.1677  0.1476
  735TMC3    H210921   4.386   3.929  11.891 -1.0738 -0.8750  1.8753
  735TMC3    C710922   4.598   4.069  11.958 -0.0572  0.4136 -0.0524
  735TMC3    C810923   4.217   4.033  11.739  0.2679  1.2062 -0.6241
  735TMC3    O110924   4.685   4.127  11.898  0.0366 -0.7980  0.0546
  735TMC3    O210925   4.191   3.918  11.720 -0.1576 -0.1687 -0.0995
  736MPD2     C10926   4.702   3.784  12.168  0.2587 -0.0331 -0.1732
  736MPD2    C110927   4.717   3.880  12.066 -0.1942 -0.5085 -0.2064
  736MPD2    C210928   0.099   3.898  12.003 -0.0551 -0.5471 -0.3545
  736MPD2    C310929   0.210   3.825  12.040 -1.1115 -0.4221 -0.1342
  736MPD2    C410930   0.200   3.727  12.140  0.0860  0.3281  0.3270
  736MPD2    C510931   0.074   3.712  12.199 -0.2919 -0.6255 -0.1984
  736MPD2     H10932   0.114   3.981  11.934 -2.3060  0.2540  0.1238
  736MPD2    H110933   0.277   3.658  12.172  0.1310 -0.0574 -0.6091
  736MPD2    H210934   4.610   3.784  12.225  0.1069  0.7313 -0.4223
  736MPD2    H310935   0.056   3.655  12.290 -0.7334 -0.5607 -0.2479
  736MPD2     N10936   0.337   3.833  11.975 -0.6133 -0.7441  0.9450
  736MPD2    H510937   0.406   3.762  11.996 -2.6907 -2.3940  2.2528
  736MPD2    N110938   4.606   3.960  12.040  0.0149  0.4366 -0.2052
  736MPD2    H710939   4.518   3.936  12.084  1.9650 -1.0800  2.8482
  737TMC3    C110940   0.499   3.913  11.834  0.3575 -0.6496  0.3712
  737TMC3    C210941   0.554   4.021  11.776  0.1160 -0.5054  0.4229
  737TMC3    C310942   0.617   4.016  11.658  0.0988  0.1925  0.1255
  737TMC3    C410943   0.504   3.795  11.772 -0.0064 -0.0181  0.1165
  737TMC3    C510944   0.564   3.794  11.650  0.0887 -0.1668  0.4197
  737TMC3    C610945   0.622   3.899  11.594  0.2435 -0.0848 -0.3923
  737TMC3     C10946   0.375   3.933  11.897 -0.7643  0.5827 -0.2036
  737TMC3     O10947   0.316   4.029  11.854 -0.0411 -0.0111 -0.1575
  737TMC3     H10948   0.537   4.116  11.826  0.3328 -1.1181  1.6711
  737TMC3    H110949   0.452   3.704  11.799 -1.2040  1.1259  1.6814
  737TMC3    H210950   0.685   3.891  11.507  1.5609  1.0684  0.4656
  737TMC3    C710951   0.593   3.663  11.584  0.1891 -0.2097 -0.1391
  737TMC3    C810952   0.674   4.133  11.600  0.8473 -0.3435 -0.1180
  737TMC3    O110953   0.552   3.570  11.655  0.1329  0.1509  0.4830
  737TMC3    O210954   0.701   4.223  11.682 -0.2226  0.4408  0.0752
  738MPD2     C10955   0.063   2.966  14.804  0.2994  0.2196 -0.3462
  738MPD2    C110956   0.145   2.912  14.899  0.4279 -0.4883 -0.0020
  738MPD2    C210957   0.267   2.962  14.929 -0.2575 -0.2024  0.3549
  738MPD2    C310958   0.315   3.075  14.857  0.2569 -0.4298  0.2163
  738MPD2    C410959   0.227   3.136  14.771 -0.7058  0.6324 -0.0846
  738MPD2    C510960   0.098   3.085  14.746  0.3312  0.3970 -0.1370
  738MPD2     H10961   0.328   2.896  14.989 -0.4658 -0.6679  0.0619
  738MPD2    H110962   0.262   3.230  14.731  1.3773  0.4847  1.4068
  738MPD2    H210963   4.711   2.914  14.768 -0.1127  0.8135 -0.1871
  738MPD2    H310964   0.033   3.141  14.680  1.9395 -0.0501 -2.1155
  738MPD2     N10965   0.447   3.125  14.865 -0.1686  0.0959  0.2306
  738MPD2    H510966   0.462   3.204  14.803  0.7180 -0.6329 -0.4773
  738MPD2    N110967   0.111   2.794  14.966 -0.0268  0.0487 -0.0093
  738MPD2    H710968   0.182   2.741  15.015  0.4223  0.0374 -0.6609
  739TMC3    C110969   0.673   3.131  14.896 -0.1089 -0.0151 -0.0548
  739TMC3    C210970   0.678   3.159  14.759  0.3882 -0.8311  0.7101
  739TMC3    C310971   0.794   3.220  14.711  0.6154  0.2978  0.3219
  739TMC3    C410972   0.769   3.172  14.980  0.3802  0.0417 -0.0584
  739TMC3    C510973   0.878   3.232  14.926 -0.3251 -0.2945 -0.1493
  739TMC3    C610974   0.893   3.262  14.796 -0.4627  0.1504  0.1131
  739TMC3     C10975   0.545   3.079  14.948  0.4149  0.0097  0.0037
  739TMC3     O10976   0.554   2.999  15.038 -0.4077 -0.3800  0.0755
  739TMC3     H10977   0.610   3.132  14.679 -0.5214  1.4682  0.7108
  739TMC3    H110978   0.755   3.150  15.085 -0.0858  1.6699  0.2312
  739TMC3    H210979   0.989   3.301  14.766 -2.1725  3.8278 -0.6007
  739TMC3    C710980   0.969   3.306  15.017  0.2479  0.0815 -0.0915
  739TMC3    C810981   0.802   3.252  14.572  0.0865  0.5210 -0.5085
  739TMC3    O110982   1.048   3.392  14.972 -0.0898 -0.0121  0.2517
  739TMC3    O210983   0.701   3.223  14.508  0.2854  0.0761  0.3077
  740TMC3    C110984   1.273   4.065  14.373 -0.9302 -0.2578  0.5180
  740TMC3    C210985   1.306   4.009  14.498 -1.2640 -0.3295 -0.2004
  740TMC3    C310986   1.424   3.950  14.507 -0.5434 -0.3188 -0.0377
  740TMC3    C410987   1.361   4.068  14.269  0.0772  0.2915  0.1778
  740TMC3    C510988   1.481   4.003  14.283 -0.6100 -1.2394 -0.6055
  740TMC3    C610989   1.512   3.948  14.399  0.0302 -0.2058  0.2056
  740TMC3     C10990   1.164   4.154  14.366  0.6990 -0.0833  0.0904
  740TMC3     O10991   1.185   4.262  14.312  0.1819 -0.5261 -0.1063
  740TMC3     H10992   1.234   4.010  14.579 -1.7478  2.2546 -0.6631
  740TMC3    H110993   1.337   4.116  14.175 -0.2888 -2.5981 -1.2191
  740TMC3    H210994   1.602   3.886  14.402 -1.6763 -2.6265  1.2078
  740TMC3    C710995   1.576   3.990  14.172  0.9432  0.7756 -0.9455
  740TMC3    C810996   1.461   3.856  14.616 -0.7307 -0.4248 -0.3708
  740TMC3    O110997   1.695   3.991  14.205  0.4080 -0.5580  0.2870
  740TMC3    O210998   1.570   3.808  14.615  1.0041  0.3365 -0.8039
  741TMC3    C110999   0.494   3.460  14.257  0.1489 -0.5383  0.9933
  741TMC3    C211000   0.417   3.357  14.219 -0.4715  0.3562  0.6595
  741TMC3    C311001   0.351   3.283  14.309  0.2214  0.2655  0.2140
  741TMC3    C411002   0.520   3.496  14.388 -0.4839  0.4260  0.4732
  741TMC3    C511003   0.444   3.425  14.474  0.2621  0.3744 -0.4896
  741TMC3    C611004   0.359   3.320  14.436 -0.9070  0.6190  1.1920
  741TMC3     C11005   0.528   3.551  14.149  0.3171 -0.3594  0.4858
  741TMC3     O11006   0.631   3.614  14.151 -0.8655 -0.1980  0.3831
  741TMC3     H11007   0.414   3.329  14.115 -2.5737 -2.6909  1.5123
  741TMC3    H111008   0.581   3.583  14.411  1.2818 -0.7064  0.1502
  741TMC3    H211009   0.292   3.278  14.510  0.2032 -3.7075 -0.2468
  741TMC3    C711010   0.493   3.426  14.612 -0.1834 -0.1430 -0.4594
  741TMC3    C811011   0.245   3.205  14.252 -1.1432 -0.5062  0.2126
  741TMC3    O111012   0.459   3.329  14.678  0.1231 -0.7738  0.0520
  741TMC3    O211013   0.223   3.225  14.135  0.0023  0.2145  0.5697
  742TMC3    C111014   0.765   1.984  15.177 -0.1343  0.2293  0.4487
  742TMC3    C211015   0.702   1.921  15.076 -0.3393  0.1732  0.6824
  742TMC3    C311016   0.737   1.947  14.944 -0.1239 -0.0248 -0.1598
  742TMC3    C411017   0.867   2.070  15.151 -0.1884  0.5347  0.5549
  742TMC3    C511018   0.891   2.101  15.018  0.0639 -0.3992 -0.1439
  742TMC3    C611019   0.818   2.047  14.913 -0.7865  0.7207  0.0719
  742TMC3     C11020   0.718   1.951  15.309  0.5827  0.1796 -0.6992
  742TMC3     O11021   0.661   1.842  15.324  0.2034  0.0976 -0.2799
  742TMC3     H11022   0.634   1.840  15.100  0.5263 -1.0621 -1.0566
  742TMC3    H111023   0.928   2.097  15.237 -0.5374 -2.2944  1.6915
  742TMC3    H211024   0.853   2.058  14.811 -0.9145 -1.2899 -0.1839
  742TMC3    C711025   1.026   2.095  14.991  0.1125  0.5018  0.5815
  742TMC3    C811026   0.653   1.906  14.833  0.2128  0.0058  0.4535
  742TMC3    O111027   1.055   1.984  14.941  0.1694 -0.2811  0.2372
  742TMC3    O211028   0.693   1.916  14.719 -0.5373  0.2157  0.1849
  743MPD2     C11029   3.409   2.215   1.528  0.5251  0.8242 -0.5377
  743MPD2    C111030   3.423   2.281   1.407  0.4187 -0.0201  0.5252
  743MPD2    C211031   3.528   2.365   1.407 -0.3286 -0.7659  0.2516
  743MPD2    C311032   3.616   2.391   1.511 -0.8164 -0.0659 -0.1577
  743MPD2    C411033   3.588   2.342   1.637 -0.3059 -0.4155 -0.1748
  743MPD2    C511034   3.490   2.243   1.640  0.6076 -0.0404 -0.2988
  743MPD2     H11035   3.549   2.417   1.315  1.9286  1.4857  2.0293
  743MPD2    H111036   3.643   2.357   1.730 -0.5822  1.7146 -0.3446
  743MPD2    H211037   3.329   2.142   1.527  0.1201  1.2619 -0.0721
  743MPD2    H311038   3.477   2.190   1.733  0.1096  1.3594  0.4279
  743MPD2     N11039   3.718   2.484   1.486 -0.1670  0.0072 -0.0387
  743MPD2    H511040   3.719   2.527   1.394  0.8242 -3.0846 -1.4699
  743MPD2    N111041   3.346   2.240   1.299 -0.2890  0.6619  0.2849
  743MPD2    H711042   3.288   2.158   1.313 -0.5540  0.6898 -0.6992
  744TMC3    C111043   3.266   2.230   1.075 -0.7609  0.5336 -0.1431
  744TMC3    C211044   3.168   2.140   1.117  0.2331  0.0351 -0.0818
  744TMC3    C311045   3.077   2.106   1.016 -0.1392  0.5475 -0.4244
  744TMC3    C411046   3.279   2.265   0.943 -0.6200  0.1384 -0.0173
  744TMC3    C511047   3.187   2.228   0.849  0.2739  0.1098 -0.3214
  744TMC3    C611048   3.076   2.156   0.888  0.3908  0.2944 -0.6911
  744TMC3     C11049   3.354   2.291   1.175  0.1731 -0.3245 -0.3690
  744TMC3     O11050   3.430   2.378   1.137  0.3187 -0.2470 -0.0179
  744TMC3     H11051   3.137   2.113   1.217  1.5123 -2.0248 -0.2352
  744TMC3    H111052   3.355   2.337   0.914  1.2316 -2.6310 -2.1316
  744TMC3    H211053   3.003   2.121   0.815  1.8457 -1.2370 -1.4243
  744TMC3    C711054   3.220   2.261   0.712 -0.2081 -1.1175  0.1488
  744TMC3    C811055   2.943   2.080   1.076 -0.0032  0.4510  0.1093
  744TMC3    O111056   3.310   2.338   0.688 -0.1936  0.2221 -0.0531
  744TMC3    O211057   2.932   1.996   1.168 -0.1911 -0.5966  0.0010
  745TMC3    C111058   0.693   1.366  13.434 -0.5018 -0.4257 -0.6236
  745TMC3    C211059   0.569   1.359  13.480 -0.7978 -0.0268  0.5313
  745TMC3    C311060   0.466   1.311  13.404 -0.1180  0.3224  0.8207
  745TMC3    C411061   0.720   1.317  13.308  0.0998 -0.7147 -0.3713
  745TMC3    C511062   0.619   1.248  13.246 -0.7854 -0.0742 -0.0920
  745TMC3    C611063   0.490   1.252  13.285  0.1574  0.1772  0.2036
  745TMC3     C11064   0.760   1.483  13.487 -0.8790  1.4854 -0.0439
  745TMC3     O11065   0.696   1.567  13.554 -1.0273 -0.2375 -0.0140
  745TMC3     H11066   0.559   1.399  13.580  0.6111  1.4426  0.0882
  745TMC3    H111067   0.816   1.339  13.263  1.1843 -1.5342  1.5269
  745TMC3    H211068   0.407   1.218  13.224 -1.0078  0.3071  1.7018
  745TMC3    C711069   0.645   1.218  13.106 -0.4589  0.6501 -0.2963
  745TMC3    C811070   0.357   1.403  13.378 -0.4240  0.2241  0.6746
  745TMC3    O111071   0.629   1.104  13.070 -0.1017  0.2453  0.4591
  745TMC3    O211072   0.280   1.393  13.286 -0.0841 -0.1672  0.2479
  746TMC3    C111073   3.216   3.616  10.970 -0.2456 -0.1484 -0.6964
  746TMC3    C211074   3.308   3.577  10.872 -0.2636 -0.2136  0.0345
  746TMC3    C311075   3.311   3.450  10.829 -0.1650 -1.0196  0.3085
  746TMC3    C411076   3.152   3.520  11.040  1.0468  0.1206  0.1269
  746TMC3    C511077   3.166   3.385  11.001 -0.1303  0.3105 -0.2022
  746TMC3    C611078   3.233   3.357  10.883 -0.0360  0.2965 -0.2635
  746TMC3     C11079   3.251   3.741  11.044 -0.0004 -0.6159  0.1429
  746TMC3     O11080   3.192   3.754  11.153  0.4378 -0.2873  0.3830
  746TMC3     H11081   3.366   3.649  10.815  2.0749 -2.7943 -0.8633
  746TMC3    H111082   3.092   3.543  11.128 -0.7371  1.4774 -1.4610
  746TMC3    H211083   3.231   3.259  10.837 -0.4053 -0.5853  1.6153
  746TMC3    C711084   3.061   3.287  11.026  0.1372 -0.0362 -0.0686
  746TMC3    C811085   3.344   3.432  10.694 -0.3319  0.3653 -1.0767
  746TMC3    O111086   3.067   3.177  10.968 -0.4507  0.5961  0.2897
  746TMC3    O211087   3.439   3.361  10.666 -0.1128  0.2450  0.4278
  747TMC3    C111088   0.965   3.547  10.617  0.0082 -0.9738  0.0232
  747TMC3    C211089   0.867   3.488  10.688  0.3396 -0.5176 -0.2442
  747TMC3    C311090   0.886   3.470  10.816  0.4794 -0.5256  0.0276
  747TMC3    C411091   1.077   3.593  10.667  0.0883 -0.1447  0.2791
  747TMC3    C511092   1.104   3.557  10.795  0.5722  0.5083 -0.3271
  747TMC3    C611093   1.009   3.502  10.877 -0.8614  0.4419 -0.0354
  747TMC3     C11094   0.919   3.615  10.498  0.3213  0.8529 -0.4713
  747TMC3     O11095   0.961   3.726  10.473  0.2049 -0.1280  0.2787
  747TMC3     H11096   0.771   3.472  10.640 -0.8102  1.8669  1.2805
  747TMC3    H111097   1.142   3.654  10.606 -0.6160 -0.1486 -0.4814
  747TMC3    H211098   1.032   3.463  10.975 -0.4784 -1.0760 -0.7244
  747TMC3    C711099   1.243   3.568  10.850 -0.2592 -0.5091 -0.3233
  747TMC3    C811100   0.770   3.441  10.904 -0.5627  0.0952  0.5894
  747TMC3    O111101   1.262   3.535  10.967  0.0225  0.0995  0.4007
  747TMC3    O211102   0.678   3.368  10.875 -0.0231 -0.8833  0.2436
  748MPD2     C11103   2.756   3.626   0.571  0.4735 -0.3162  0.3734
  748MPD2    C111104   2.799   3.625   0.700  0.7944 -0.1240 -0.1760
  748MPD2    C211105   2.900   3.712   0.740  0.8052 -0.1787  0.3914
  748MPD2    C311106   2.932   3.821   0.662  0.6014 -0.7853 -0.7873
  748MPD2    C411107   2.876   3.830   0.536  0.3773  1.2323 -0.1663
  748MPD2    C511108   2.796   3.728   0.492  0.3692 -0.3145 -0.0122
  748MPD2     H11109   2.954   3.698   0.833 -1.8671  0.2249  1.9813
  748MPD2    H111110   2.902   3.907   0.465  0.8541  0.1954 -1.1220
  748MPD2    H211111   2.689   3.551   0.530  1.5378 -3.0871  3.7410
  748MPD2    H311112   2.742   3.739   0.398  0.6332 -0.5113 -0.1882
  748MPD2     N11113   3.026   3.913   0.716  0.8982  0.1408 -0.3440
  748MPD2    H511114   3.048   3.908   0.815 -0.5959 -0.4414 -0.0461
  748MPD2    N111115   2.741   3.532   0.793 -0.1673 -0.7971 -0.0053
  748MPD2    H711116   2.676   3.464   0.755 -0.1984 -0.1016 -1.1689
  749TMC3    C111117   3.172   4.107   0.726  0.0156  0.1779  0.7810
  749TMC3    C211118   3.222   4.070   0.849 -0.5558 -0.3726 -0.6165
  749TMC3    C311119   3.271   4.166   0.934 -0.6383 -0.2773 -0.1960
  749TMC3    C411120   3.192   4.235   0.687 -0.4064  0.5890  0.2100
  749TMC3    C511121   3.247   4.325   0.774  0.1456  0.5073 -0.0577
  749TMC3    C611122   3.290   4.295   0.899  0.2000  1.1332 -0.0309
  749TMC3     C11123   3.087   4.015   0.645 -0.0530  0.1846  0.8933
  749TMC3     O11124   3.075   4.041   0.527 -0.1731  0.2869  0.2387
  749TMC3     H11125   3.213   3.968   0.884  2.8165 -0.4534  0.0273
  749TMC3    H111126   3.141   4.265   0.596 -0.5618 -1.1488 -0.2810
  749TMC3    H211127   3.338   4.366   0.965  1.7645 -1.0338  1.1621
  749TMC3    C711128   3.303   4.453   0.722 -0.6756 -0.4632 -0.1996
  749TMC3    C811129   3.351   4.121   1.053 -0.3030 -0.5583 -0.0392
  749TMC3    O111130   3.316   4.544   0.805 -0.4699  0.0252 -0.4536
  749TMC3    O211131   3.363   4.206   1.137  0.3157  0.3287  0.5383
  750MPD2     C11132   3.334   1.079  11.393  0.1921 -0.4769  0.5797
  750MPD2    C111133   3.319   0.985  11.492 -0.2621  0.3210  0.5823
  750MPD2    C211134   3.386   0.861  11.475  0.3411  0.6347 -0.5394
  750MPD2    C311135   3.466   0.841  11.360 -0.1336 -0.0875  0.2714
  750MPD2    C411136   3.470   0.935  11.260 -0.0083 -0.2436 -0.1736
  750MPD2    C511137   3.408   1.057  11.279 -0.0205 -0.4987 -0.6804
  750MPD2     H11138   3.380   0.788  11.555  1.3213 -0.3383 -1.3510
  750MPD2    H111139   3.523   0.923  11.166  2.2516 -0.5475  1.1186
  750MPD2    H211140   3.292   1.178  11.407  0.7428 -0.4288  1.9670
  750MPD2    H311141   3.411   1.127  11.197  1.2366  0.3836  0.1245
  750MPD2     N11142   3.530   0.717  11.333  0.4534 -0.6363  0.1516
  750MPD2    H511143   3.585   0.729  11.248  1.9731  0.2198  1.2735
  750MPD2    N111144   3.235   1.016  11.603  0.0518 -0.7015  0.0208
  750MPD2    H711145   3.194   1.109  11.603 -3.9073 -2.4617 -0.4482
  751TMC3    C111146   3.577   0.490  11.348  0.0680 -0.5236 -0.1590
  751TMC3    C211147   3.588   0.379  11.436  0.3263  0.6678 -0.4192
  751TMC3    C311148   3.624   0.255  11.392  0.0949 -0.8054  0.3029
  751TMC3    C411149   3.585   0.464  11.208  0.3830  0.7650 -0.3639
  751TMC3    C511150   3.607   0.332  11.164 -0.8510 -0.3835 -0.4026
  751TMC3    C611151   3.640   0.232  11.253  0.6723  0.1649  0.2627
  751TMC3     C11152   3.517   0.605  11.406 -0.3625 -0.4720  0.1113
  751TMC3     O11153   3.458   0.580  11.514 -0.3477 -0.6066  0.0375
  751TMC3     H11154   3.584   0.402  11.542  0.9142 -0.3130 -0.1798
  751TMC3    H111155   3.547   0.536  11.136 -0.7125  0.0053 -0.5394
  751TMC3    H211156   3.682   0.138  11.219  0.9892 -0.2055  1.7182
  751TMC3    C711157   3.498   0.289  11.074 -0.1123 -0.3477  0.6441
  751TMC3    C811158   3.551   0.143  11.449  0.1869 -0.0332  0.5741
  751TMC3    O111159   3.468   0.364  10.983  0.4341 -0.4478 -0.0559
  751TMC3    O211160   3.549   0.040  11.381  0.3270  0.1377  0.0221
  752TMC3    C111161   2.382   0.592  17.198  0.5144  0.1621  0.0989
  752TMC3    C211162   2.350   0.459  17.196  0.0463 -0.6447 -0.5209
  752TMC3    C311163   2.254   0.415  17.287 -0.3594  0.6131  0.3852
  752TMC3    C411164   2.327   0.675  17.291 -0.6759  0.0494 -0.1411
  752TMC3    C511165   2.239   0.626  17.385  0.3088  0.0341 -0.4883
  752TMC3    C611166   2.199   0.491  17.391  0.2525 -0.7190 -0.4624
  752TMC3     C11167   2.449   0.648  17.086 -0.1774  0.0664  0.6400
  752TMC3     O11168   2.532   0.739  17.100 -0.4303 -0.5605 -0.5152
  752TMC3     H11169   2.375   0.409  17.103 -2.7702  0.4244 -1.8682
  752TMC3    H111170   2.352   0.779  17.273  0.7558 -0.3268 -0.3618
  752TMC3    H211171   2.124   0.458  17.462  0.6723  0.7432  0.6721
  752TMC3    C711172   2.195   0.719  17.487  1.0009 -0.2251  0.5185
  752TMC3    C811173   2.240   0.269  17.288 -0.3336  0.2122 -0.3272
  752TMC3    O111174   2.094   0.689  17.542 -0.2162 -0.6212 -0.5273
  752TMC3    O211175   2.266   0.202  17.189 -0.2730 -0.3530  0.1268
  753TMC3    C111176   3.642   1.557  13.391  0.0357 -0.0497  0.5504
  753TMC3    C211177   3.753   1.521  13.461  0.5123  0.0886  0.0176
  753TMC3    C311178   3.830   1.419  13.405  0.6606 -0.6572 -0.0681
  753TMC3    C411179   3.603   1.496  13.276 -0.1222  0.0180 -0.2003
  753TMC3    C511180   3.685   1.407  13.216 -1.0545  0.2457 -0.0281
  753TMC3    C611181   3.793   1.358  13.286  0.2157  0.4481  0.0096
  753TMC3     C11182   3.574   1.677  13.439 -0.3507 -0.4650  0.3981
  753TMC3     O11183   3.643   1.759  13.496 -0.1330 -1.0371  0.3640
  753TMC3     H11184   3.777   1.576  13.551  0.6931 -0.8555  0.5545
  753TMC3    H111185   3.516   1.527  13.219 -0.9691 -0.3149  0.9256
  753TMC3    H211186   3.859   1.287  13.236  1.5630  1.4285  0.3790
  753TMC3    C711187   3.631   1.349  13.091  0.5302 -0.2542 -0.0308
  753TMC3    C811188   3.969   1.392  13.443  0.0126  0.4127  0.3824
  753TMC3    O111189   3.555   1.417  13.020  0.0471 -0.3203  0.1654
  753TMC3    O211190   4.008   1.282  13.408 -0.0637 -0.3403  0.1790
  754MPD2     C11191   3.367   0.029  13.043  0.1328  0.0905  0.4758
  754MPD2    C111192   3.351   4.631  13.024  0.2376 -0.3961 -0.4375
  754MPD2    C211193   3.224   4.571  13.026 -0.2842 -0.0358 -0.2730
  754MPD2    C311194   3.110   4.648  13.047 -0.1959 -0.2118 -0.6183
  754MPD2    C411195   3.128   0.042  13.067  0.3220  0.9595  0.5435
  754MPD2    C511196   3.247   0.103  13.064 -0.5897  0.1341 -0.5039
  754MPD2     H11197   3.218   4.471  12.985  1.3392 -0.8922  1.5846
  754MPD2    H111198   3.043   0.104  13.095 -1.4674 -1.0248 -0.4259
  754MPD2    H211199   3.460   0.086  13.047 -1.6639  3.2023 -2.2844
  754MPD2    H311200   3.253   0.211  13.075  2.0500 -0.3274  2.1803
  754MPD2     N11201   2.980   4.590  13.070  1.1847 -0.4989 -0.1274
  754MPD2    H511202   2.901   4.655  13.073  1.1092 -0.5833 -0.3481
  754MPD2    N111203   3.476   4.562  13.009 -0.4660  0.4899 -0.6070
  754MPD2    H711204   3.551   4.627  12.986 -0.6636  1.0929  0.4486
  755MPD2     C11205   2.289   0.323  13.222  0.9014  0.2366  0.4720
  755MPD2    C111206   2.242   0.205  13.279 -0.2435 -0.7863 -0.8891
  755MPD2    C211207   2.324   0.087  13.294  0.1979  0.0680 -0.0849
  755MPD2    C311208   2.449   0.092  13.230  0.3906 -0.2393 -0.1884
  755MPD2    C411209   2.491   0.207  13.162  0.6531  0.0955  0.1384
  755MPD2    C511210   2.416   0.323  13.161  0.1560  0.6637  0.4838
  755MPD2     H11211   2.274   4.735  13.333 -0.0289 -0.5723 -1.8629
  755MPD2    H111212   2.584   0.210  13.107  1.9886  1.3153  2.4585
  755MPD2    H211213   2.234   0.416  13.229 -0.2438 -0.3999  0.0072
  755MPD2    H311214   2.453   0.410  13.108 -1.4272  0.2750 -1.2532
  755MPD2     N11215   2.535   4.719  13.210 -0.4763 -0.2336  0.6905
  755MPD2    H511216   2.615   4.726  13.147 -0.4760  0.3082  0.7554
  755MPD2    N111217   2.110   0.200  13.326  0.2944 -0.1340 -0.4290
  755MPD2    H711218   2.094   0.121  13.388  2.4806 -1.1043 -1.1164
  756MPD2     C11219   2.851   1.529   9.692 -0.3590  0.2275  0.0582
  756MPD2    C111220   2.777   1.469   9.794 -0.0910  0.5864 -0.3109
  756MPD2    C211221   2.647   1.437   9.780 -0.3194 -0.1317 -0.4957
  756MPD2    C311222   2.580   1.464   9.660 -0.3283 -0.1042  0.0351
  756MPD2    C411223   2.650   1.532   9.558 -0.4406 -0.5472 -0.1091
  756MPD2    C511224   2.781   1.553   9.575  0.4577  0.5181  0.5284
  756MPD2     H11225   2.589   1.393   9.861 -1.3886  1.8909 -0.1696
  756MPD2    H111226   2.601   1.554   9.464 -1.9028 -1.7765  0.3648
  756MPD2    H211227   2.959   1.541   9.693 -0.1863 -1.4982  2.2301
  756MPD2    H311228   2.830   1.610   9.497  0.4459  2.5574  2.0030
  756MPD2     N11229   2.439   1.431   9.648  0.8378 -0.2608 -0.0913
  756MPD2    H511230   2.391   1.379   9.721  1.5819 -1.1772 -0.2629
  756MPD2    N111231   2.832   1.424   9.920 -1.0098  0.5978 -0.2083
  756MPD2    H711232   2.769   1.377   9.984 -1.4259 -0.0000 -1.0547
  757MPD2     C11233   2.043   0.799  10.011 -0.5177  0.7981 -0.2190
  757MPD2    C111234   2.158   0.868  10.025 -0.0853  0.1879 -0.8308
  757MPD2    C211235   2.166   0.981   9.953  0.2298  0.3266 -0.6726
  757MPD2    C311236   2.072   1.020   9.858  0.0832 -0.9319 -0.5726
  757MPD2    C411237   1.960   0.940   9.843  0.2766  0.5173  0.3358
  757MPD2    C511238   1.946   0.831   9.921 -0.6887  0.1915  0.0982
  757MPD2     H11239   2.248   1.051   9.965  0.6711  0.0073 -1.8936
  757MPD2    H111240   1.884   0.956   9.768  0.7259 -1.8688 -0.6245
  757MPD2    H211241   2.025   0.708  10.067 -2.1959 -0.4881 -2.8353
  757MPD2    H311242   1.857   0.769   9.918 -0.5068 -0.0854  0.3687
  757MPD2     N11243   2.089   1.146   9.791  0.7833  0.1537 -0.7339
  757MPD2    H511244   2.176   1.196   9.807  0.5893 -0.2619  1.6201
  757MPD2    N111245   2.255   0.816  10.113 -0.3752 -0.2615  0.5004
  757MPD2    H711246   2.237   0.723  10.150  1.0351 -1.1563 -1.0594
  758MPD2     C11247   3.017   0.295  15.592 -0.1681  0.1106  0.6974
  758MPD2    C111248   3.031   0.178  15.660  0.3223  0.2210 -0.2130
  758MPD2    C211249   2.953   0.144  15.772  0.3746 -0.0316 -0.1785
  758MPD2    C311250   2.868   0.246  15.818 -0.5209  0.0375  0.0482
  758MPD2    C411251   2.840   0.359  15.738  0.4045  0.0052 -0.5600
  758MPD2    C511252   2.917   0.381  15.632 -0.9603  0.6867  0.0805
  758MPD2     H11253   2.982   0.057  15.829 -1.3880 -0.7829 -0.4310
  758MPD2    H111254   2.773   0.438  15.772  0.5487  0.9064 -2.3901
  758MPD2    H211255   3.081   0.320  15.507  0.4218 -1.6229  0.6349
  758MPD2    H311256   2.896   0.470  15.574 -1.8065 -0.1484 -0.8962
  758MPD2     N11257   2.836   0.264  15.954 -0.2308 -0.0040  0.4324
  758MPD2    H511258   2.807   0.357  15.983 -2.5229 -0.0409 -1.8202
  758MPD2    N111259   3.145   0.101  15.627 -0.6054 -0.4672 -0.7606
  758MPD2    H711260   3.207   0.142  15.559  0.3166 -0.7200 -0.0762
  759MPD2     C11261   1.121   3.712   9.897  0.6603  0.4287 -0.1699
  759MPD2    C111262   1.136   3.575   9.877 -0.5539  0.5475 -0.5208
  759MPD2    C211263   1.195   3.544   9.754  0.2384  1.1258 -0.6377
  759MPD2    C311264   1.243   3.640   9.672  0.0459  0.3720 -0.1754
  759MPD2    C411265   1.234   3.772   9.701 -0.4604  0.7869 -0.2968
  759MPD2    C511266   1.171   3.813   9.815  0.3845 -0.0000  0.3660
  759MPD2     H11267   1.214   3.439   9.734  0.1601  1.0431 -0.2753
  759MPD2    H111268   1.290   3.848   9.647  0.4599 -0.0378 -0.5044
  759MPD2    H211269   1.077   3.746   9.990  0.6703 -0.5132  0.1879
  759MPD2    H311270   1.170   3.918   9.841 -1.3832 -0.3731  1.8194
  759MPD2     N11271   1.313   3.580   9.560  0.4480  0.0623  0.1370
  759MPD2    H511272   1.322   3.479   9.559 -0.1089 -0.0006  1.3057
  759MPD2    N111273   1.100   3.484   9.982 -0.4212 -0.4379 -0.3503
  759MPD2    H711274   1.061   3.528  10.065 -0.5374  1.4150 -1.3849
  760MPD2     C11275   1.407   0.128  12.078  0.4626 -0.3408  0.3814
  760MPD2    C111276   1.513   0.179  12.003 -0.0823 -0.3570  0.6395
  760MPD2    C211277   1.645   0.118  12.010  0.3170  0.1805 -0.6762
  760MPD2    C311278   1.663   0.001  12.085  0.6116 -0.0746 -0.4456
  760MPD2    C411279   1.551   4.676  12.140  0.1338 -0.6305 -0.6510
  760MPD2    C511280   1.427   0.008  12.142  0.4243  0.9925 -0.3282
  760MPD2     H11281   1.726   0.165  11.955  1.3579 -2.1749 -1.1453
  760MPD2    H111282   1.553   4.589  12.204  1.3341 -1.5563 -1.9474
  760MPD2    H211283   1.312   0.179  12.088  0.8741  0.3691  0.7261
  760MPD2    H311284   1.336   4.700  12.182 -0.5718  1.5404 -1.9896
  760MPD2     N11285   1.777   4.660  12.099 -0.0705  0.4235  0.5741
  760MPD2    H511286   1.777   4.572  12.150  0.2643 -1.4223 -2.6046
  760MPD2    N111287   1.516   0.308  11.952  0.5886  0.1742  0.1516
  760MPD2    H711288   1.608   0.345  11.929  1.7465 -1.0210  2.9483
  761MPD2     C11289   3.160   4.722  11.741  0.1481  0.2845  0.3695
  761MPD2    C111290   3.208   4.675  11.623 -0.2474  0.0924 -0.9245
  761MPD2    C211291   3.312   4.732  11.562  0.0992 -0.2874  0.5920
  761MPD2    C311292   3.368   0.106  11.618  0.1358 -0.2528 -0.6444
  761MPD2    C411293   3.304   0.171  11.724 -0.5241  0.4501 -0.3164
  761MPD2    C511294   3.203   0.109  11.787 -0.0776 -0.2299  0.7263
  761MPD2     H11295   3.356   4.694  11.471 -0.1087  0.9582 -0.0399
  761MPD2    H111296   3.339   0.270  11.753 -0.1814  0.3441 -0.3588
  761MPD2    H211297   3.069   4.681  11.783 -1.0892  0.6088 -2.0190
  761MPD2    H311298   3.153   0.160  11.869 -2.1059  1.0037 -1.3011
  761MPD2     N11299   3.477   0.177  11.560 -1.3793 -0.3289  0.0689
  761MPD2    H511300   3.502   0.265  11.603  1.2979 -0.7054 -0.7051
  761MPD2    N111301   3.152   4.545  11.578 -0.1997 -0.3567 -0.4666
  761MPD2    H711302   3.092   4.498  11.645  0.9025 -0.7892  0.2255
  762MPD2     C11303   2.849   3.897  11.009  0.6153 -0.7580  0.5580
  762MPD2    C111304   2.956   3.981  11.005  0.2133 -0.7075  0.0800
  762MPD2    C211305   3.004   4.016  10.881 -0.6486  0.4401 -0.4837
  762MPD2    C311306   2.941   3.981  10.766  0.1446 -0.3205  0.1457
  762MPD2    C411307   2.849   3.881  10.762 -1.0906  0.0738 -0.2566
  762MPD2    C511308   2.803   3.845  10.885  0.0097 -0.2709 -0.0201
  762MPD2     H11309   3.076   4.095  10.860  0.9331 -0.4269  1.6166
  762MPD2    H111310   2.804   3.838  10.673  2.5001 -2.0175 -1.0969
  762MPD2    H211311   2.789   3.867  11.095 -0.4672  2.2358  0.8231
  762MPD2    H311312   2.726   3.769  10.892 -1.5479  1.2675 -0.3051
  762MPD2     N11313   2.982   4.052  10.650  0.0839  0.7421  0.2175
  762MPD2    H511314   3.048   4.125  10.674 -1.2824  1.6905  1.0659
  762MPD2    N111315   3.007   4.027  11.125  0.0014 -1.0117  0.0491
  762MPD2    H711316   2.957   3.996  11.208  0.8032 -0.6466  0.6775
  763MPD2     C11317   0.471   0.064  16.066 -0.5044  0.0971 -0.0090
  763MPD2    C111318   0.340   0.084  16.033  0.4127  0.0674  0.4259
  763MPD2    C211319   0.278   0.202  16.058 -0.2961 -0.0955  0.5959
  763MPD2    C311320   0.362   0.310  16.100  0.1468  0.0732  0.4303
  763MPD2    C411321   0.499   0.284  16.116  0.8420  0.3004  0.3429
  763MPD2    C511322   0.551   0.163  16.104  0.2279  0.7022 -0.3377
  763MPD2     H11323   0.175   0.232  16.043  0.1522  0.9876 -0.3212
  763MPD2    H111324   0.574   0.362  16.130  1.7494 -0.8237  1.7205
  763MPD2    H211325   0.522   4.707  16.044 -3.5208 -1.2834 -1.1879
  763MPD2    H311326   0.656   0.135  16.101  0.1859  0.4757  0.2566
  763MPD2     N11327   0.308   0.443  16.103  0.4588 -0.1269  1.1787
  763MPD2    H511328   0.377   0.516  16.113  2.2036 -1.7456  1.0497
  763MPD2    N111329   0.261   4.722  15.968 -0.1712  0.9817  0.4829
  763MPD2    H711330   0.168   0.017  15.945 -1.1328 -0.2201  2.7325
  764MPD2     C11331   3.673   1.655  17.431 -0.0139 -0.1531 -0.1969
  764MPD2    C111332   3.542   1.638  17.386 -0.1693 -0.1744  0.4764
  764MPD2    C211333   3.459   1.543  17.451 -0.5514 -0.2211 -0.9101
  764MPD2    C311334   3.515   1.458  17.544 -0.3526 -0.6387  0.5126
  764MPD2    C411335   3.651   1.467  17.585 -0.4553  0.0577 -0.1758
  764MPD2    C511336   3.727   1.561  17.516  0.2360  0.2862 -0.1101
  764MPD2     H11337   3.354   1.552  17.427 -1.3625 -0.6799  2.4194
  764MPD2    H111338   3.696   1.419  17.671  3.4471  1.1175 -1.6182
  764MPD2    H211339   3.748   1.717  17.384 -1.0825  0.1849 -1.4616
  764MPD2    H311340   3.832   1.563  17.542  0.3161  0.8680 -0.4908
  764MPD2     N11341   3.423   1.375  17.612 -0.0249 -0.2293 -0.4181
  764MPD2    H511342   3.324   1.399  17.606 -0.2032 -1.2215 -1.5091
  764MPD2    N111343   3.489   1.705  17.276 -0.4883 -0.4125  0.1520
  764MPD2    H711344   3.395   1.683  17.244 -1.4576  3.0539  0.6313
  765MPD2     C11345   2.442   3.993  15.639  0.0051 -0.0058 -0.2834
  765MPD2    C111346   2.536   4.095  15.640 -0.2106 -0.2963 -0.1572
  765MPD2    C211347   2.666   4.069  15.607  0.5376 -0.2391  0.2071
  765MPD2    C311348   2.689   3.935  15.605  0.1509  0.6666  0.4390
  765MPD2    C411349   2.600   3.834  15.600 -0.7250 -0.7260 -0.5259
  765MPD2    C511350   2.475   3.866  15.612 -0.2469 -0.5473 -0.5220
  765MPD2     H11351   2.742   4.146  15.601 -1.3687  1.7275  1.4671
  765MPD2    H111352   2.615   3.728  15.585 -1.5016 -1.0065  0.6615
  765MPD2    H211353   2.347   4.013  15.686  0.0744  1.4758 -0.7696
  765MPD2    H311354   2.407   3.783  15.625 -0.7877 -0.1752 -0.9641
  765MPD2     N11355   2.822   3.899  15.583 -0.0815  0.5997  0.4293
  765MPD2    H511356   2.892   3.970  15.605  1.0918 -0.5671  0.4381
  765MPD2    N111357   2.489   4.220  15.686 -0.0069 -0.0831  0.6921
  765MPD2    H711358   2.392   4.228  15.716  0.3240  0.0623  1.7288
  766MPD2     C11359   2.021   4.438  15.287  0.2899 -0.2990  0.0618
  766MPD2    C111360   2.149   4.409  15.328  0.1005  0.3294 -0.0113
  766MPD2    C211361   2.227   4.339  15.233 -0.0175 -0.5094 -1.2599
  766MPD2    C311362   2.173   4.285  15.109  0.6910 -1.0792 -0.7269
  766MPD2    C411363   2.048   4.312  15.078 -0.2176  0.0270  0.1172
  766MPD2    C511364   1.977   4.391  15.167 -0.6533 -0.1042  0.3286
  766MPD2     H11365   2.331   4.318  15.255  0.2133  0.2439 -1.6318
  766MPD2    H111366   2.003   4.277  14.986 -3.2300  2.0297  0.7948
  766MPD2    H211367   1.949   4.486  15.351  0.0891 -0.1877 -0.2460
  766MPD2    H311368   1.874   4.412  15.139  0.7117  3.5219 -1.9567
  766MPD2     N11369   2.252   4.225  15.010  0.4011 -0.5157 -0.0850
  766MPD2    H511370   2.211   4.220  14.918  0.0657 -1.5068  0.1147
  766MPD2    N111371   2.206   4.446  15.443  0.2083  0.1349 -0.5401
  766MPD2    H711372   2.302   4.418  15.459  0.2390  0.3191 -0.4042
  767MPD2     C11373   1.975   4.575  14.868 -0.6576  0.0044  0.8716
  767MPD2    C111374   2.099   4.524  14.843 -0.5478  0.0835 -0.4878
  767MPD2    C211375   2.108   4.413  14.751  0.4067 -0.8152  1.0833
  767MPD2    C311376   1.998   4.362  14.692  0.1626 -0.3847  0.0351
  767MPD2    C411377   1.872   4.416  14.715  0.3299  0.4988 -0.6537
  767MPD2    C511378   1.867   4.517  14.805 -0.3312 -0.2267 -0.1107
  767MPD2     H11379   2.197   4.350  14.754  1.4828  0.6810  1.0277
  767MPD2    H111380   1.781   4.375  14.672 -0.2635  1.9026 -0.7379
  767MPD2    H211381   1.958   4.657  14.937 -1.2664 -0.2922  1.0736
  767MPD2    H311382   1.769   4.558  14.827 -1.3330 -2.0869 -1.0295
  767MPD2     N11383   2.015   4.259  14.601 -0.5267  0.3914  0.4426
  767MPD2    H511384   2.107   4.217  14.593 -0.3298  0.4228  2.6820
  767MPD2    N111385   2.200   4.566  14.923  0.0378 -0.2895  0.3472
  767MPD2    H711386   2.179   4.641  14.988  0.7760 -0.1037  0.3710
  768MPD2     C11387   2.997   3.208  10.428  0.4790  0.1746  0.6195
  768MPD2    C111388   2.964   3.100  10.510  0.5241  0.3408  0.0200
  768MPD2    C211389   3.057   3.036  10.595 -0.6016  0.5349  0.7352
  768MPD2    C311390   3.191   3.084  10.602 -0.9094  0.3194 -0.1815
  768MPD2    C411391   3.230   3.181  10.507 -0.3256 -0.5166 -1.1404
  768MPD2    C511392   3.129   3.242  10.431 -0.4273 -0.6640  0.1180
  768MPD2     H11393   3.020   2.957  10.660  0.3122  1.4102  2.3259
  768MPD2    H111394   3.332   3.219  10.499 -0.0309 -0.6408  2.1817
  768MPD2    H211395   2.927   3.260  10.363  1.0459  0.9652  0.6439
  768MPD2    H311396   3.160   3.317  10.359  0.8589 -1.1858  0.1249
  768MPD2     N11397   3.291   3.035  10.684 -0.0602  0.5629 -0.1825
  768MPD2    H511398   3.385   3.071  10.668  0.2767 -0.3573 -0.2739
  768MPD2    N111399   2.825   3.056  10.525  0.1238  0.1124  0.0863
  768MPD2    H711400   2.805   2.980  10.589  2.9015  0.0018  0.8197
  769MPD2     C11401   4.224   0.937  14.485 -0.2632 -0.4350 -0.1082
  769MPD2    C111402   4.128   0.920  14.585 -0.1504  0.3019 -0.6629
  769MPD2    C211403   4.173   0.923  14.719 -0.4682 -0.1732  0.6312
  769MPD2    C311404   4.300   0.963  14.752 -0.4303  0.1438  0.0344
  769MPD2    C411405   4.387   0.986  14.648 -0.1862 -0.4646 -0.4388
  769MPD2    C511406   4.352   0.968  14.517  0.0193  0.3470 -0.7162
  769MPD2     H11407   4.107   0.904  14.803  0.4676 -2.6126  0.8247
  769MPD2    H111408   4.491   1.014  14.664 -0.3715  0.2926 -0.5945
  769MPD2    H211409   4.196   0.932  14.380 -0.1527  0.6926 -0.1947
  769MPD2    H311410   4.433   0.972  14.446 -1.5513 -0.8850 -2.5920
  769MPD2     N11411   4.332   0.971  14.889 -0.1583  0.1240 -0.2322
  769MPD2    H511412   4.268   0.931  14.956 -0.8208  2.3097  0.4437
  769MPD2    N111413   3.994   0.892  14.570 -0.4826 -0.2494 -0.2019
  769MPD2    H711414   3.936   0.862  14.648  0.6681  2.0121  1.5377
  770MPD2     C11415   3.386   0.476  14.967  0.3288  0.5225  0.3104
  770MPD2    C111416   3.467   0.433  14.868  0.3303 -0.0777 -0.1884
  770MPD2    C211417   3.505   0.520  14.768  0.0318  0.0918 -0.2738
  770MPD2    C311418   3.465   0.649  14.764  0.1954  0.3635  0.4357
  770MPD2    C411419   3.384   0.697  14.863 -0.5638 -0.7501 -0.0159
  770MPD2    C511420   3.346   0.614  14.970  0.7575 -0.1458  0.0372
  770MPD2     H11421   3.584   0.490  14.699  2.2961 -0.3762  2.5385
  770MPD2    H111422   3.351   0.800  14.867 -3.6846 -1.7543 -0.4121
  770MPD2    H211423   3.357   0.407  15.046  0.9251 -0.3647 -0.2428
  770MPD2    H311424   3.285   0.649  15.052  0.1703  0.3932 -0.6238
  770MPD2     N11425   3.518   0.722  14.661  0.0951 -0.5324  0.0440
  770MPD2    H511426   3.574   0.677  14.589  0.3379  0.6057 -0.4911
  770MPD2    N111427   3.513   0.298  14.873  0.3556 -0.0435  0.0791
  770MPD2    H711428   3.478   0.232  14.942  0.7728 -1.1255 -0.7463
  771MPD2     C11429   4.639   3.790  13.839 -0.7703 -0.6138  0.0848
  771MPD2    C111430   4.639   3.873  13.732 -0.0159  0.6056  0.5369
  771MPD2    C211431   4.622   3.811  13.606  0.1793 -0.0445 -0.1974
  771MPD2    C311432   4.600   3.675  13.588  0.9213  0.3146  0.2706
  771MPD2    C411433   4.612   3.592  13.705 -0.5675 -0.2747  0.1035
  771MPD2    C511434   4.629   3.649  13.833  0.5227  0.1127  0.4440
  771MPD2     H11435   4.623   3.867  13.512 -1.1931  2.6127  1.3676
  771MPD2    H111436   4.600   3.485  13.713  3.9267 -0.5825  2.6590
  771MPD2    H211437   4.648   3.835  13.938  0.3622 -1.0559  0.1737
  771MPD2    H311438   4.648   3.588  13.920  3.2189  2.3551  1.4540
  771MPD2     N11439   4.594   3.616  13.462  0.0410  0.1864  0.3519
  771MPD2    H511440   4.606   3.679  13.383  1.8214 -0.7272 -0.0988
  771MPD2    N111441   4.649   4.008  13.724  0.4548  0.0773  0.2228
  771MPD2    H711442   4.651   4.049  13.631  0.0031  1.0212  0.6370
  772MPD2     C11443   4.224   4.589  13.628  0.2787 -0.5392  0.5344
  772MPD2    C111444   4.256   4.466  13.685  0.0718 -0.3765  0.4353
  772MPD2    C211445   4.155   4.388  13.731 -0.7067  0.5808 -0.0822
  772MPD2    C311446   4.022   4.424  13.724  1.0753 -0.3119  0.0683
  772MPD2    C411447   3.990   4.542  13.665 -0.2015 -0.1857 -0.0621
  772MPD2    C511448   4.091   4.621  13.612 -0.3607  0.3835  0.2618
  772MPD2     H11449   4.179   4.295  13.781  0.3078  2.6355  3.2325
  772MPD2    H111450   3.888   4.577  13.654  0.9420  2.2200 -3.0140
  772MPD2    H211451   4.292   4.662  13.586 -0.2372  0.2284  1.0383
  772MPD2    H311452   4.067   4.718  13.569  1.3319  0.3902 -0.6474
  772MPD2     N11453   3.917   4.339  13.754 -0.2564 -0.1221  0.2048
  772MPD2    H511454   3.828   4.373  13.719 -0.8085 -2.9803 -1.1909
  772MPD2    N111455   4.388   4.427  13.700 -0.3873  0.1233 -0.1887
  772MPD2    H711456   4.402   4.339  13.749 -0.8242  0.9747  1.4683
  773MPD2     C11457   3.635   0.074  17.315  0.5681  0.0019  0.3293
  773MPD2    C111458   3.551   4.700  17.318 -0.3982 -0.3739 -0.1033
  773MPD2    C211459   3.577   4.593  17.406  0.5426  0.4203 -0.3960
  773MPD2    C311460   3.705   4.586  17.467 -1.0303  0.0902  0.5627
  773MPD2    C411461   3.792   4.691  17.451 -0.4067  0.6630 -0.3081
  773MPD2    C511462   3.755   0.068  17.382 -0.0338 -0.5637 -0.5886
  773MPD2     H11463   3.508   4.510  17.412  0.5555  0.2782 -1.9888
  773MPD2    H111464   3.888   4.686  17.500  0.4633  0.8487 -1.9981
  773MPD2    H211465   3.611   0.167  17.265  1.1300 -0.4246 -0.7370
  773MPD2    H311466   3.827   0.148  17.369  0.6565 -1.1580 -0.4077
  773MPD2     N11467   3.743   4.467  17.541  0.0719 -0.6937 -0.0700
  773MPD2    H511468   3.688   4.382  17.532  0.3633 -0.5672 -2.8496
  773MPD2    N111469   3.423   4.718  17.265  1.0871  0.0328  0.4822
  773MPD2    H711470   3.353   4.649  17.289 -0.7419  1.7989  0.1969
  774MPD2     C11471   2.740   3.826  13.063  0.1189 -0.0755  0.2869
  774MPD2    C111472   2.752   3.912  13.172 -0.1991  0.6590  0.1508
  774MPD2    C211473   2.871   3.990  13.168 -0.5450  1.2545  0.0993
  774MPD2    C311474   2.959   3.990  13.059  0.2896  1.2932 -0.1110
  774MPD2    C411475   2.942   3.900  12.956 -0.0222  0.3443  0.4615
  774MPD2    C511476   2.829   3.823  12.960  0.0858  0.0085 -0.1809
  774MPD2     H11477   2.891   4.065  13.245 -1.6009  1.4291  0.1964
  774MPD2    H111478   3.012   3.900  12.874  0.6241 -2.0176  1.0319
  774MPD2    H211479   2.656   3.759  13.047 -1.9042  2.6465 -0.5259
  774MPD2    H311480   2.797   3.774  12.869  0.8224 -0.0874 -0.3928
  774MPD2     N11481   3.065   4.073  13.070  0.0130 -0.1170  1.0901
  774MPD2    H511482   3.060   4.147  13.139 -1.6125 -0.7255  1.6226
  774MPD2    N111483   2.659   3.908  13.282  0.6344 -0.6319 -0.5874
  774MPD2    H711484   2.593   3.831  13.279  0.1207 -0.2807  1.3022
  775MPD2     C11485   4.576   0.761  15.415  0.0817 -0.2896  0.1954
  775MPD2    C111486   4.577   0.880  15.477  0.1676 -0.2000  0.2968
  775MPD2    C211487   4.665   0.983  15.432  0.4600 -0.5117 -0.1029
  775MPD2    C311488   4.723   0.981  15.310  0.4752 -0.2467  0.7654
  775MPD2    C411489   4.690   0.868  15.235 -0.5340 -0.0207  0.5194
  775MPD2    C511490   4.630   0.752  15.292 -0.4760  0.8649  0.3335
  775MPD2     H11491   4.667   1.078  15.485  1.5302  0.1756 -1.3649
  775MPD2    H111492   4.725   0.845  15.135 -1.3999  0.3563  0.1209
  775MPD2    H211493   4.523   0.673  15.448  0.2207 -0.1145  0.8759
  775MPD2    H311494   4.621   0.672  15.220  4.4578  0.6286 -0.0336
  775MPD2     N11495   0.057   1.085  15.247  0.5714 -0.7569  0.7929
  775MPD2    H511496   0.088   1.071  15.151  0.8950  0.5562  0.7093
  775MPD2    N111497   4.514   0.887  15.605 -0.4397 -0.3579 -0.2897
  775MPD2    H711498   4.466   0.804  15.639 -0.9574  0.0849  0.0600
  776MPD2     C11499   2.477   1.304  11.756 -0.4768  0.2126 -0.1884
  776MPD2    C111500   2.607   1.339  11.736 -0.4296  0.6915 -0.0321
  776MPD2    C211501   2.637   1.452  11.660  0.4290  0.2532 -0.8941
  776MPD2    C311502   2.530   1.514  11.584 -0.0259  0.0315  0.1118
  776MPD2    C411503   2.398   1.474  11.608 -0.5116 -0.0023 -0.2778
  776MPD2    C511504   2.379   1.372  11.692 -0.6239 -0.1863 -0.2833
  776MPD2     H11505   2.735   1.498  11.658  0.4365  0.4472  2.6086
  776MPD2    H111506   2.317   1.529  11.562 -1.0901  1.3574  2.3672
  776MPD2    H211507   2.455   1.229  11.831 -1.2581  0.4011 -0.2322
  776MPD2    H311508   2.275   1.348  11.708 -1.0894  1.3876 -0.9204
  776MPD2     N11509   2.563   1.629  11.508  0.7107 -0.3285 -0.3695
  776MPD2    H511510   2.486   1.670  11.457  1.2016  1.1873  0.0996
  776MPD2    N111511   2.703   1.260  11.797  0.5961  0.1576 -0.1925
  776MPD2    H711512   2.678   1.186  11.861  0.5627 -0.3694 -0.8221
  777MPD2     C11513   3.441   3.352   0.502  0.1262  0.7388 -0.0865
  777MPD2    C111514   3.517   3.249   0.550  0.9962 -0.1608 -0.3653
  777MPD2    C211515   3.532   3.137   0.467 -0.2852  0.0839 -0.3548
  777MPD2    C311516   3.474   3.132   0.344  0.5845  0.0485 -0.3807
  777MPD2    C411517   3.402   3.240   0.293  0.0201 -0.0822  0.0787
  777MPD2    C511518   3.386   3.348   0.380 -0.8350  0.2653 -0.4408
  777MPD2     H11519   3.590   3.050   0.495 -0.0872 -0.0141 -1.0768
  777MPD2    H111520   3.350   3.237   0.198  1.1703  1.0675 -0.5857
  777MPD2    H211521   3.426   3.440   0.563  1.6239  1.6275 -0.9808
  777MPD2    H311522   3.312   3.418   0.341  0.3624  1.2071 -1.0217
  777MPD2     N11523   3.491   3.009   0.275  0.9468 -0.0213  0.1778
  777MPD2    H511524   3.525   2.939   0.339  1.3038  0.0756  0.0929
  777MPD2    N111525   3.563   3.267   0.687  0.1800 -0.0067  0.3681
  777MPD2    H711526   3.536   3.351   0.737 -1.2336 -0.3575  0.1954
  778MPD2     C11527   0.002   4.051  14.715 -0.8877  0.3246 -0.5037
  778MPD2    C111528   4.735   3.941  14.630 -0.3543  0.2281 -1.0285
  778MPD2    C211529   0.071   3.931  14.517  0.2241  0.0156  0.1527
  778MPD2    C311530   0.165   4.030  14.495  0.1034 -0.0837 -0.2652
  778MPD2    C411531   0.166   4.144  14.573  0.0838  1.2249  0.0060
  778MPD2    C511532   0.085   4.156  14.678  0.9876  0.6267  0.3242
  778MPD2     H11533   0.067   3.837  14.463  0.3143  0.4584 -0.6159
  778MPD2    H111534   0.239   4.222  14.557 -0.8590  2.1279  0.1097
  778MPD2    H211535   4.669   4.060  14.798  1.6032 -1.4594  1.7963
  778MPD2    H311536   0.097   4.234  14.752 -0.1121  0.7632  0.3711
  778MPD2     N11537   0.261   4.002  14.390  0.0054 -0.0848  0.0777
  778MPD2    H511538   0.258   3.912  14.343 -0.5463  0.0286 -0.0981
  778MPD2    N111539   4.641   3.837  14.651 -0.0781  0.7841  0.1413
  778MPD2    H711540   4.647   3.755  14.592 -0.2761 -0.0836  1.3316
  779MPD2     C11541   3.965   2.433  13.828 -0.5345  0.3104 -0.2211
  779MPD2    C111542   4.096   2.446  13.858 -0.0138 -0.5817  0.8943
  779MPD2    C211543   4.160   2.568  13.854 -0.3388 -0.6915  0.3374
  779MPD2    C311544   4.082   2.680  13.828 -0.6211 -0.2840  0.1931
  779MPD2    C411545   3.948   2.665  13.792 -1.1353 -0.1306 -0.2392
  779MPD2    C511546   3.889   2.543  13.796 -0.6284  0.1333  0.4442
  779MPD2     H11547   4.258   2.585  13.898 -0.4060  0.4955  0.0305
  779MPD2    H111548   3.889   2.756  13.792 -1.1167 -0.1166 -1.3852
  779MPD2    H211549   3.922   2.336  13.846  1.4277 -0.1014  2.2725
  779MPD2    H311550   3.784   2.529  13.777 -0.0232 -0.0190 -2.6825
  779MPD2     N11551   4.147   2.802  13.838 -0.0006 -0.4207  0.3231
  779MPD2    H511552   4.243   2.806  13.871 -0.5825 -2.0265  2.2005
  779MPD2    N111553   4.162   2.330  13.899 -0.2508 -0.2362 -0.6915
  779MPD2    H711554   4.113   2.242  13.890 -1.3337  0.5536 -2.5982
  780MPD2     C11555   4.226   2.277   1.035  1.0198 -0.0069 -0.6324
  780MPD2    C111556   4.160   2.193   0.946 -0.1981 -0.1400 -0.6605
  780MPD2    C211557   4.182   2.213   0.808  0.2244 -0.0591  0.4287
  780MPD2    C311558   4.270   2.309   0.760 -0.6267  0.1136  0.5703
  780MPD2    C411559   4.345   2.384   0.855 -0.0417  0.3025 -0.0820
  780MPD2    C511560   4.323   2.360   0.988 -0.5569  0.6585  0.2952
  780MPD2     H11561   4.130   2.151   0.735  0.4373  0.9133 -0.5513
  780MPD2    H111562   4.424   2.451   0.824  1.0212 -1.1283 -0.4726
  780MPD2    H211563   4.213   2.264   1.141  1.2711  2.0249 -0.3524
  780MPD2    H311564   4.382   2.404   1.068  0.9929  1.5667 -1.3721
  780MPD2     N11565   4.274   2.332   0.619  0.3380  0.3184 -0.2482
  780MPD2    H511566   4.214   2.274   0.561 -2.4487 -0.3498  3.3307
  780MPD2    N111567   4.078   2.091   1.003 -0.2229 -0.2941  0.5380
  780MPD2    H711568   4.064   2.089   1.103  2.0778 -0.2909  0.8684
  781MPD2     C11569   1.761   3.448  12.006 -0.3518  0.0960 -0.5038
  781MPD2    C111570   1.724   3.555  11.926 -0.0622  0.2791  0.1816
  781MPD2    C211571   1.738   3.540  11.784 -0.3437 -0.4045 -0.2728
  781MPD2    C311572   1.815   3.433  11.742 -0.2962 -0.0439  0.3053
  781MPD2    C411573   1.855   3.331  11.827 -0.0419  0.3910  0.0978
  781MPD2    C511574   1.825   3.340  11.959 -0.5683 -0.2118 -0.1272
  781MPD2     H11575   1.711   3.612  11.708 -2.5938 -0.6346  0.3061
  781MPD2    H111576   1.918   3.251  11.792  1.9181  1.6625  0.7388
  781MPD2    H211577   1.744   3.447  12.113 -0.1368  0.7014 -0.4685
  781MPD2    H311578   1.857   3.259  12.022  0.2129  1.0400  1.0910
  781MPD2     N11579   1.856   3.417  11.608  0.1799  0.3850 -0.0249
  781MPD2    H511580   1.918   3.339  11.590 -0.6705 -0.1380 -0.6446
  781MPD2    N111581   1.654   3.658  11.989  0.6049  0.4226 -0.6025
  781MPD2    H711582   1.646   3.654  12.090  1.3786 -2.0815 -0.6381
  782MPD2     C11583   3.157   0.661  10.366  0.5703  0.4725 -0.3636
  782MPD2    C111584   3.249   0.571  10.411  0.2036  0.4179 -0.6411
  782MPD2    C211585   3.346   0.613  10.492 -0.2798  0.3548  0.1027
  782MPD2    C311586   3.365   0.748  10.523 -0.0453 -0.2574 -0.2232
  782MPD2    C411587   3.262   0.836  10.489 -0.0954  0.3822  0.5923
  782MPD2    C511588   3.158   0.789  10.414 -0.6206  0.4463  1.0139
  782MPD2     H11589   3.417   0.541  10.532 -0.9340  0.6298  1.7687
  782MPD2    H111590   3.269   0.934  10.534  1.5561  0.8173 -0.6120
  782MPD2    H211591   3.072   0.622  10.310 -0.5182  0.0752  1.5551
  782MPD2    H311592   3.083   0.859  10.378 -0.1937 -0.4431 -1.6120
  782MPD2     N11593   3.478   0.777  10.597 -0.5467  0.2855 -0.0780
  782MPD2    H511594   3.525   0.707  10.653  0.7746  0.6778 -0.7105
  782MPD2    N111595   3.242   0.435  10.389 -0.6319 -0.4650 -0.4113
  782MPD2    H711596   3.310   0.378  10.439 -1.0099 -0.4018  0.1702
  783MPD2     C11597   3.337   4.687  11.061 -0.5679 -0.0010 -0.0989
  783MPD2    C111598   3.380   0.074  11.018 -0.1600  0.6564 -0.4888
  783MPD2    C211599   3.355   0.111  10.888  0.5040  0.1747  0.6806
  783MPD2    C311600   3.291   0.021  10.800 -0.0565 -0.9988  0.0619
  783MPD2    C411601   3.255   4.630  10.849 -0.4479  0.1275  0.3048
  783MPD2    C511602   3.272   4.597  10.980 -0.4989 -0.4778  0.2875
  783MPD2     H11603   3.373   0.206  10.840  2.8658 -0.0407  1.1075
  783MPD2    H111604   3.212   4.557  10.782  1.8904 -0.1146 -0.9180
  783MPD2    H211605   3.360   4.649  11.160 -0.9763  2.6333  1.0191
  783MPD2    H311606   3.233   4.503  11.017 -0.5700 -0.5033  0.1489
  783MPD2     N11607   3.283   0.052  10.664 -0.7844  0.0526 -0.3759
  783MPD2    H511608   3.320   0.144  10.644 -1.6587  0.2501 -1.0945
  783MPD2    N111609   3.456   0.161  11.103 -0.0597 -0.2896 -0.7447
  783MPD2    H711610   3.482   0.122  11.194 -1.7988  0.4144  0.0532
  784MPD2     C11611   1.755   0.280   0.469  0.5510  0.3326  0.2583
  784MPD2    C111612   1.730   0.384   0.557  0.3409 -0.2723  0.0033
  784MPD2    C211613   1.625   0.478   0.538  0.4290 -0.0914 -0.5435
  784MPD2    C311614   1.545   0.472   0.431 -0.5387 -0.0410 -0.0613
  784MPD2    C411615   1.589   0.385   0.330  0.8054  0.2437 -0.3332
  784MPD2    C511616   1.692   0.294   0.354  0.4438 -0.2931  0.1040
  784MPD2     H11617   1.593   0.550   0.613  1.7013 -0.3676  0.2555
  784MPD2    H111618   1.539   0.381   0.234 -0.8188 -0.7959  0.5624
  784MPD2    H211619   1.825   0.199   0.487  0.7245 -0.1596 -2.6644
  784MPD2    H311620   1.714   0.219   0.279  2.8139  1.1058 -0.5965
  784MPD2     N11621   1.433   0.555   0.423  0.4522  0.1982  0.2819
  784MPD2    H511622   1.419   0.622   0.497 -1.1549 -0.0346  0.1798
  784MPD2    N111623   1.796   0.401   0.686  0.5490  0.8955  0.0789
  784MPD2    H711624   1.767   0.477   0.747  1.3722  1.1110  0.2039
  785MPD2     C11625   2.001   4.042  11.605 -0.1198  0.1506 -0.0296
  785MPD2    C111626   1.881   4.095  11.650 -0.3181 -0.2797  0.9008
  785MPD2    C211627   1.759   4.044  11.602 -0.1112  0.6732  0.7263
  785MPD2    C311628   1.766   3.935  11.517 -0.0284  0.2888  0.7066
  785MPD2    C411629   1.891   3.889  11.469  0.2514 -0.0312 -0.0314
  785MPD2    C511630   2.005   3.943  11.516  0.2939 -0.2452 -0.0443
  785MPD2     H11631   1.664   4.089  11.629 -0.5933 -2.1933  3.8927
  785MPD2    H111632   1.903   3.819  11.387 -3.0498  1.8294 -2.0608
  785MPD2    H211633   2.090   4.099  11.630  1.1161 -2.6381  2.0036
  785MPD2    H311634   2.094   3.900  11.471  0.6700  0.1849  0.2856
  785MPD2     N11635   1.649   3.895  11.459  0.5820 -0.5899  0.2416
  785MPD2    H511636   1.572   3.932  11.515  0.0673  1.6906 -1.9638
  785MPD2    N111637   1.898   4.208  11.731  0.5540 -0.5564 -0.4029
  785MPD2    H711638   1.992   4.243  11.746  0.2306  0.7682 -1.4371
  786MPD2     C11639   0.212   1.716  14.645  0.4179 -0.5307 -0.6696
  786MPD2    C111640   0.342   1.722  14.592 -0.5015  0.6479 -0.1045
  786MPD2    C211641   0.453   1.761  14.672  0.5232  0.2912 -0.4468
  786MPD2    C311642   0.426   1.810  14.801  0.4529 -0.0953 -0.3723
  786MPD2    C411643   0.299   1.801  14.854 -0.4675  0.3577 -0.4180
  786MPD2    C511644   0.194   1.762  14.774 -0.3905  0.2317 -0.0446
  786MPD2     H11645   0.557   1.754  14.642  1.1480  0.6634  1.6153
  786MPD2    H111646   0.270   1.847  14.947  0.5848 -0.6881  0.4227
  786MPD2    H211647   0.129   1.689  14.581 -0.7030  2.5976 -0.5587
  786MPD2    H311648   0.095   1.776  14.816 -0.2906  3.2726 -0.8131
  786MPD2     N11649   0.524   1.875  14.880 -0.2718  0.2615 -0.0686
  786MPD2    H511650   0.502   1.900  14.976  3.2121  2.3221  0.2283
  786MPD2    N111651   0.379   1.693  14.458 -0.1200 -0.2447  0.1179
  786MPD2    H711652   0.479   1.699  14.439 -0.4760  1.4714 -1.2304
  787MPD2     C11653   0.801   1.267  14.340 -0.4410  0.0239  0.7558
  787MPD2    C111654   0.750   1.277  14.215 -0.4687 -0.4632  0.0666
  787MPD2    C211655   0.800   1.192  14.115  0.4480  0.5230  0.2588
  787MPD2    C311656   0.878   1.084  14.153  0.1438  0.0902 -0.7402
  787MPD2    C411657   0.911   1.066  14.286  0.6516  0.0442 -0.5604
  787MPD2    C511658   0.878   1.160  14.371  0.2119 -0.2538 -0.6513
  787MPD2     H11659   0.778   1.205  14.010 -0.9275 -0.5050  0.4171
  787MPD2    H111660   0.964   0.975  14.313  1.7179  0.3955 -1.4556
  787MPD2    H211661   0.777   1.334  14.422 -2.5950 -1.0687  1.0459
  787MPD2    H311662   0.917   1.162  14.472 -0.0124 -0.6770 -0.5585
  787MPD2     N11663   0.905   0.989  14.048  0.3795  0.2849  0.0353
  787MPD2    H511664   0.877   1.016  13.954  1.6818 -3.7039 -1.4953
  787MPD2    N111665   0.666   1.391  14.193 -0.6289 -0.1086 -0.0264
  787MPD2    H711666   0.643   1.451  14.272  0.9209 -0.7170  0.8996
  788MPD2     C11667   2.492   0.108   0.856 -0.4065  0.0573 -0.4786
  788MPD2    C111668   2.442   0.067   0.731 -0.5904  0.3332  0.5845
  788MPD2    C211669   2.387   0.168   0.652 -0.2041  0.5532 -0.0198
  788MPD2    C311670   2.377   0.302   0.693  0.0361  0.0658 -0.6124
  788MPD2    C411671   2.433   0.339   0.813 -0.1480  0.1165  0.7072
  788MPD2    C511672   2.486   0.241   0.892 -0.4135  0.0048  0.0291
  788MPD2     H11673   2.341   0.132   0.561 -0.4751  0.2036  0.2574
  788MPD2    H111674   2.433   0.436   0.860 -0.0538  0.8515 -0.8040
  788MPD2    H211675   2.540   0.038   0.924 -0.3487 -0.1604 -0.7409
  788MPD2    H311676   2.520   0.276   0.989 -2.1581  2.6059 -0.3112
  788MPD2     N11677   2.304   0.397   0.620 -0.2007 -0.7479  0.1837
  788MPD2    H511678   2.302   0.488   0.665  0.8769  0.8555 -2.9293
  788MPD2    N111679   2.430   4.670   0.696  0.3448 -0.0181 -0.5486
  788MPD2    H711680   2.418   4.656   0.597 -1.0435  0.2323 -0.4226
  789MPD2     C11681   2.763   4.403  15.929  0.2855 -0.2453 -0.5428
  789MPD2    C111682   2.655   4.338  15.988 -0.8648 -0.1184 -0.4369
  789MPD2    C211683   2.553   4.406  16.040  0.3181 -0.3498  0.7416
  789MPD2    C311684   2.564   4.547  16.044  0.3618  0.2505 -0.6341
  789MPD2    C411685   2.666   4.619  15.978 -0.0960 -0.2210 -0.7510
  789MPD2    C511686   2.768   4.545  15.915 -0.1043 -0.2734 -0.0242
  789MPD2     H11687   2.470   4.358  16.092 -1.6716  0.3750 -1.7565
  789MPD2    H111688   2.668   4.726  15.960  1.0049 -0.2834 -0.9499
  789MPD2    H211689   2.845   4.351  15.880 -0.7708 -0.4529 -2.0926
  789MPD2    H311690   2.849   4.602  15.870 -0.5655  1.0339  0.7976
  789MPD2     N11691   2.457   4.618  16.100 -0.5100 -0.6853  0.4165
  789MPD2    H511692   2.389   4.566  16.155  1.8563 -2.9877  1.1673
  789MPD2    N111693   2.658   4.193  16.000  0.4863  0.6138 -0.4199
  789MPD2    H711694   2.567   4.151  16.011  1.0327 -0.8527 -1.4487
  790MPD2     C11695   3.465   1.354  13.674 -0.2285 -0.0054  0.1193
  790MPD2    C111696   3.507   1.246  13.598  0.4620  0.4599  0.1614
  790MPD2    C211697   3.454   1.229  13.468  0.2667 -1.0407 -0.7184
  790MPD2    C311698   3.368   1.322  13.426 -0.0754  0.0048  0.3025
  790MPD2    C411699   3.331   1.428  13.501  0.6664  0.8442 -0.6376
  790MPD2    C511700   3.366   1.433  13.629 -0.4272 -0.2796  0.3255
  790MPD2     H11701   3.492   1.154  13.401 -1.1946  1.5418 -4.4261
  790MPD2    H111702   3.258   1.502  13.471 -1.0927 -0.3465  0.7146
  790MPD2    H211703   3.498   1.373  13.776 -1.2463 -5.1422  1.3955
  790MPD2    H311704   3.321   1.518  13.678 -1.2101 -0.7147  0.3508
  790MPD2     N11705   3.318   1.291  13.302 -0.0650 -0.2550  0.2845
  790MPD2    H511706   3.348   1.205  13.257  0.1496 -0.8524  1.5825
  790MPD2    N111707   3.574   1.144  13.663 -0.2313  0.3778 -0.1580
  790MPD2    H711708   3.574   1.144  13.765 -3.0837  0.6462 -0.1434
  791MPD2     C11709   2.686   1.333  12.782 -0.6590  0.4495 -0.3173
  791MPD2    C111710   2.745   1.228  12.845 -0.5022 -0.5353  0.4085
  791MPD2    C211711   2.680   1.104  12.852 -0.2820  0.4753 -0.2710
  791MPD2    C311712   2.545   1.103  12.809 -0.0749 -0.7022  0.0420
  791MPD2    C411713   2.482   1.216  12.761 -0.4443 -0.2209 -0.4666
  791MPD2    C511714   2.557   1.323  12.734  0.5259  1.0715  0.0126
  791MPD2     H11715   2.735   1.018  12.887  1.2951  1.3143 -0.6693
  791MPD2    H111716   2.387   1.207  12.709  0.9860 -1.0051 -2.9818
  791MPD2    H211717   2.740   1.424  12.758  0.5185 -0.2414 -0.2620
  791MPD2    H311718   2.515   1.401  12.671  0.6264  0.9671 -0.1850
  791MPD2     N11719   2.473   0.988  12.832 -0.2145  0.3634 -0.5570
  791MPD2    H511720   2.538   0.913  12.852 -0.1321  0.4484 -0.5036
  791MPD2    N111721   2.882   1.248  12.876  0.1472 -0.3592 -0.0238
  791MPD2    H711722   2.913   1.337  12.838 -1.1496 -1.0394 -2.6095
  792MPD2     C11723   3.394   1.534  11.588 -0.3537 -0.3699  0.3361
  792MPD2    C111724   3.362   1.566  11.459  0.4105 -0.6536  0.2058
  792MPD2    C211725   3.237   1.528  11.416  0.3149 -0.1460  0.6758
  792MPD2    C311726   3.148   1.465  11.493 -0.3971 -0.1519  0.1237
  792MPD2    C411727   3.188   1.434  11.622  0.3474 -0.3279 -0.3287
  792MPD2    C511728   3.311   1.462  11.664  0.4434 -0.2465 -0.1484
  792MPD2     H11729   3.208   1.547  11.313 -1.1258  0.6889  1.2444
  792MPD2    H111730   3.127   1.379  11.693 -2.9321  1.8667 -1.4473
  792MPD2    H211731   3.491   1.563  11.628 -0.6466  1.1334 -0.0232
  792MPD2    H311732   3.340   1.454  11.768 -1.6133  0.6856  0.4748
  792MPD2     N11733   3.020   1.428  11.443 -0.1849  0.1974 -0.0594
  792MPD2    H511734   2.962   1.387  11.516  0.6166 -1.1299 -0.1666
  792MPD2    N111735   3.462   1.626  11.383  0.1006 -0.6139 -0.2833
  792MPD2    H711736   3.555   1.636  11.423 -0.7720  0.8830  1.3824
  793MPD2     C11737   2.516   1.566  10.599 -0.2199  0.3033  0.7616
  793MPD2    C111738   2.637   1.504  10.628 -0.5274  0.3433 -0.7437
  793MPD2    C211739   2.668   1.457  10.755 -0.4666  0.2611  0.0292
  793MPD2    C311740   2.567   1.452  10.854 -0.3563  0.7567  0.2430
  793MPD2    C411741   2.438   1.502  10.825  0.4187  0.3217  0.2410
  793MPD2    C511742   2.418   1.559  10.696  0.6308 -0.1975  0.0716
  793MPD2     H11743   2.770   1.430  10.781 -1.0015 -0.2818  1.5263
  793MPD2    H111744   2.357   1.506  10.897  0.6974  0.1805  0.5630
  793MPD2    H211745   2.495   1.604  10.500  1.0113  0.8767  0.7210
  793MPD2    H311746   2.325   1.599  10.657  1.4668  1.7047  0.0323
  793MPD2     N11747   2.607   1.416  10.984 -0.1912 -0.3224  0.4120
  793MPD2    H511748   2.705   1.389  10.986  0.3660  1.9117  2.4210
  793MPD2    N111749   2.741   1.497  10.539 -0.4968  0.7291 -0.1893
  793MPD2    H711750   2.833   1.472  10.572 -1.2109 -0.1223  1.1539
  794MPD2     C11751   2.911   0.596  17.102  0.8384  0.1131 -0.1599
  794MPD2    C111752   2.990   0.544  17.005  0.0020  0.4991 -0.1777
  794MPD2    C211753   3.030   0.623  16.899  0.5262 -0.2569  0.8299
  794MPD2    C311754   2.982   0.750  16.881 -0.4704  0.2577 -0.0847
  794MPD2    C411755   2.894   0.798  16.984 -0.1975 -0.5456  0.3702
  794MPD2    C511756   2.869   0.724  17.097 -0.1644  0.0340 -0.8726
  794MPD2     H11757   3.077   0.571  16.816  0.5236  0.2007  0.5429
  794MPD2    H111758   2.862   0.901  16.981  0.2757 -0.4320 -0.8437
  794MPD2    H211759   2.893   0.538  17.192  0.0164  0.1065 -0.3279
  794MPD2    H311760   2.809   0.757  17.181  0.5797 -1.3092  0.1901
  794MPD2     N11761   3.001   0.832  16.769 -0.1567  0.6101 -0.6971
  794MPD2    H511762   2.965   0.927  16.770  1.6734  1.3098 -1.7348
  794MPD2    N111763   3.035   0.407  17.001  0.0573  0.1820  0.3030
  794MPD2    H711764   3.099   0.373  16.930  0.2040  2.7704 -0.8190
  795MPD2     C11765   0.798   2.987  13.614 -0.0204 -0.6312 -0.2489
  795MPD2    C111766   0.735   2.887  13.544 -0.1251 -0.1532  0.2375
  795MPD2    C211767   0.786   2.755  13.550 -0.0127 -0.0094 -0.4844
  795MPD2    C311768   0.900   2.729  13.610 -0.2931 -0.7668 -0.2912
  795MPD2    C411769   0.961   2.829  13.676  0.0875  0.1747 -0.0618
  795MPD2    C511770   0.920   2.959  13.672 -0.0957 -0.1139 -0.1141
  795MPD2     H11771   0.734   2.671  13.506  0.6211 -0.8971  0.4781
  795MPD2    H111772   1.049   2.805  13.734 -0.7726 -2.6426  0.1014
  795MPD2    H211773   0.759   3.087  13.623 -0.7703 -0.7716 -2.0014
  795MPD2    H311774   0.975   3.041  13.717 -0.4816  0.9875 -1.6528
  795MPD2     N11775   0.954   2.603  13.639 -0.0612  0.2221 -1.2106
  795MPD2    H511776   1.042   2.598  13.689 -2.5000  0.7737  3.1046
  795MPD2    N111777   0.604   2.899  13.497  0.0218 -0.1089 -0.1209
  795MPD2    H711778   0.550   2.816  13.480 -0.9716  0.1678  1.8027
  796MPD2     C11779   0.660   4.172  15.512  0.4562  0.0749 -0.1995
  796MPD2    C111780   0.718   4.231  15.621  0.3610  0.0321 -0.2958
  796MPD2    C211781   0.666   4.354  15.647 -0.5736  0.8078 -0.2697
  796MPD2    C311782   0.574   4.420  15.571 -0.1918 -0.2596  0.2101
  796MPD2    C411783   0.518   4.363  15.459 -0.5651  0.6426  0.0968
  796MPD2    C511784   0.569   4.237  15.437 -0.7018  0.1156 -0.4022
  796MPD2     H11785   0.695   4.410  15.736 -0.8530  0.2727  0.1572
  796MPD2    H111786   0.440   4.400  15.394 -0.2464  0.3940 -0.4287
  796MPD2    H211787   0.675   4.068  15.485  2.4460  0.2952  0.0597
  796MPD2    H311788   0.528   4.180  15.354 -1.0026  1.3066 -1.0776
  796MPD2     N11789   0.557   4.552  15.603 -0.5578 -0.6251 -0.1149
  796MPD2    H511790   0.599   4.589  15.688  0.2545 -0.0871 -0.7434
  796MPD2    N111791   0.810   4.168  15.704  0.8336  0.3064  0.4797
  796MPD2    H711792   0.835   4.073  15.677 -0.5382 -0.2407  1.1213
  797MPD2     C11793   1.408   3.625  17.115 -0.5009  0.2365 -0.4651
  797MPD2    C111794   1.479   3.732  17.170 -0.3587 -0.1056 -0.8204
  797MPD2    C211795   1.469   3.861  17.126 -0.2761  0.2849 -0.2965
  797MPD2    C311796   1.395   3.890  17.010  1.0325  0.0016 -0.2591
  797MPD2    C411797   1.334   3.784  16.946  0.4979  0.2725 -0.4345
  797MPD2    C511798   1.336   3.657  17.003 -0.1951 -0.6588  0.0083
  797MPD2     H11799   1.534   3.932  17.175 -0.2307  0.1070 -0.0998
  797MPD2    H111800   1.283   3.801  16.851 -1.6329 -1.3616  0.4129
  797MPD2    H211801   1.404   3.524  17.154  0.3825  1.0052  1.6277
  797MPD2    H311802   1.267   3.585  16.962 -0.8447 -0.7934  1.3589
  797MPD2     N11803   1.381   4.023  16.970 -0.4264  0.5421  0.0640
  797MPD2    H511804   1.339   4.035  16.879 -0.6769 -1.9849 -0.1505
  797MPD2    N111805   1.559   3.718  17.283  0.7193 -0.0100  1.0895
  797MPD2    H711806   1.611   3.800  17.309 -0.3316  0.5289  1.5040
  798MPD2     C11807   1.918   4.337  17.229  0.6500  0.3021  0.1832
  798MPD2    C111808   1.791   4.285  17.227 -0.0979  0.4545 -0.1548
  798MPD2    C211809   1.769   4.174  17.293 -0.5228 -0.3761 -0.4793
  798MPD2    C311810   1.868   4.099  17.366 -0.1389  0.4663  0.6665
  798MPD2    C411811   1.993   4.147  17.369 -0.1126  0.1514 -0.4497
  798MPD2    C511812   2.014   4.272  17.298 -0.0923  0.4622  0.0880
  798MPD2     H11813   1.672   4.128  17.290 -0.7686  0.1743 -0.9023
  798MPD2    H111814   2.074   4.097  17.421 -2.3408  0.3352  3.2302
  798MPD2    H211815   1.950   4.424  17.173  2.1095  0.5330  1.3811
  798MPD2    H311816   2.113   4.316  17.289 -0.6898  1.2580 -2.4374
  798MPD2     N11817   1.834   3.983  17.436  0.3929  0.3925 -0.3183
  798MPD2    H511818   1.738   3.949  17.429 -0.3348  1.9709  2.0225
  798MPD2    N111819   1.671   4.337  17.169  0.4022  0.1441 -0.4363
  798MPD2    H711820   1.598   4.268  17.153  2.1348 -1.5005 -1.2904
  799MPD2     C11821   0.488   0.839  14.235 -0.1617 -0.4767  0.0461
  799MPD2    C111822   0.403   0.759  14.158  0.5286 -0.9996 -0.1864
  799MPD2    C211823   0.352   0.802  14.040 -0.1145  0.0648 -0.2299
  799MPD2    C311824   0.394   0.917  13.979 -0.7793 -0.1888  0.3390
  799MPD2    C411825   0.485   0.997  14.050 -0.3662  0.5275  0.0792
  799MPD2    C511826   0.529   0.957  14.175 -0.3117 -0.4180 -0.3375
  799MPD2     H11827   0.286   0.732  13.991 -1.9059  1.4473  0.1604
  799MPD2    H111828   0.535   1.087  14.016 -0.2244  1.0949  1.8164
  799MPD2    H211829   0.545   0.799  14.319  0.6901  0.3236 -0.1499
  799MPD2    H311830   0.615   1.007  14.218  2.1986 -2.5974 -2.7935
  799MPD2     N11831   0.359   0.957  13.841  0.1800  0.3732 -0.0006
  799MPD2    H511832   0.409   1.037  13.805  1.2194 -0.0459  0.5098
  799MPD2    N111833   0.380   0.621  14.191  0.0428  0.0319  0.4239
  799MPD2    H711834   0.319   0.560  14.138  0.7870  0.2240 -0.6555
  800MPD2     C11835   0.239   1.896  13.497  0.1805  0.5166  0.2422
  800MPD2    C111836   0.356   1.851  13.555 -0.0340 -0.0781 -0.0886
  800MPD2    C211837   0.388   1.714  13.541 -0.6470  0.5625  0.7734
  800MPD2    C311838   0.317   1.635  13.463  0.5315 -0.3735 -0.0817
  800MPD2    C411839   0.221   1.690  13.376  0.3016  0.3300  0.1442
  800MPD2    C511840   0.178   1.816  13.403  0.2802  0.5229  0.3292
  800MPD2     H11841   0.462   1.662  13.601 -0.2771  2.3464  1.8711
  800MPD2    H111842   0.162   1.628  13.310  0.1830 -0.1196  0.6700
  800MPD2    H211843   0.202   1.998  13.510  0.8622  0.6920  0.8074
  800MPD2    H311844   0.081   1.844  13.363 -0.5550  0.1054  2.0672
  800MPD2     N11845   0.373   1.507  13.461 -0.2410 -0.9768  0.1184
  800MPD2    H511846   0.443   1.490  13.533  0.0981 -0.0505  0.0021
  800MPD2    N111847   0.426   1.947  13.643  0.4561  0.0811  0.1776
  800MPD2    H711848   0.405   2.046  13.636 -0.2949 -0.2818 -2.8080
  801MPD2     C11849   0.608   2.661  13.804  0.2913 -0.3808  0.3815
  801MPD2    C111850   0.678   2.599  13.901  0.6825  0.2333  0.5063
  801MPD2    C211851   0.723   2.676  14.003 -0.4146  0.3274 -0.0872
  801MPD2    C311852   0.697   2.810  14.012 -1.1061 -0.0659  1.1340
  801MPD2    C411853   0.622   2.873  13.910 -0.3826 -0.1021 -0.1656
  801MPD2    C511854   0.582   2.798  13.810 -0.6221  0.3359 -0.1415
  801MPD2     H11855   0.781   2.612  14.069  0.9235  1.6267 -0.0095
  801MPD2    H111856   0.602   2.979  13.921  1.4466  0.2948 -0.7750
  801MPD2    H211857   0.579   2.618  13.709 -0.5979 -0.8252  0.8561
  801MPD2    H311858   0.520   2.845  13.734 -2.0492  1.4943  1.7385
  801MPD2     N11859   0.728   2.881  14.123  0.2996 -0.6107  0.0791
  801MPD2    H511860   0.703   2.979  14.121 -3.5634 -1.5982 -0.1111
  801MPD2    N111861   0.692   2.466  13.905  0.1846  0.0742  0.2068
  801MPD2    H711862   0.750   2.421  13.975 -1.5708  0.2089  1.7611
  802MPD2     C11863   4.652   2.791  17.269  0.1033  0.0236  0.7069
  802MPD2    C111864   0.042   2.806  17.335  0.4095  0.7436  0.0410
  802MPD2    C211865   0.128   2.695  17.334  0.7069  0.0215 -0.6220
  802MPD2    C311866   0.099   2.586  17.258 -0.1258 -0.3648  0.0015
  802MPD2    C411867   4.717   2.577  17.195 -0.6042  0.1389  0.3576
  802MPD2    C511868   4.622   2.678  17.206  0.0810  0.4598 -0.1923
  802MPD2     H11869   0.217   2.701  17.395 -0.4046 -1.2143  1.1025
  802MPD2    H111870   4.701   2.490  17.133 -1.7808  0.0378  0.7967
  802MPD2    H211871   4.563   2.849  17.292  1.1635  0.3137  4.0492
  802MPD2    H311872   4.539   2.668  17.136  0.6883 -0.9762 -0.6990
  802MPD2     N11873   0.193   2.483  17.259  0.7888  0.1682 -0.5974
  802MPD2    H511874   0.285   2.503  17.296  0.9689 -0.9426 -0.4374
  802MPD2    N111875   0.078   2.918  17.413  0.4854  0.4453  0.5587
  802MPD2    H711876   0.157   2.906  17.475  1.3896  0.4521 -0.5872
  803MPD2     C11877   1.326   1.052  11.898 -0.6025  0.2597  0.0213
  803MPD2    C111878   1.426   1.007  11.985  0.1995  0.0101  0.2651
  803MPD2    C211879   1.388   0.930  12.088 -0.5548 -0.4605  0.1603
  803MPD2    C311880   1.266   0.886  12.113 -0.5567  0.0573 -0.0626
  803MPD2    C411881   1.164   0.938  12.035 -0.1661 -0.7180  0.9315
  803MPD2    C511882   1.193   1.028  11.932 -0.1047 -1.4092 -0.2030
  803MPD2     H11883   1.462   0.915  12.166 -1.4653 -1.6639  0.7722
  803MPD2    H111884   1.061   0.914  12.061 -0.6502  1.4600  1.0221
  803MPD2    H211885   1.344   1.111  11.810 -1.6393 -0.4622 -0.6797
  803MPD2    H311886   1.111   1.065  11.872  0.5914 -1.4668 -1.1811
  803MPD2     N11887   1.230   0.801  12.220  0.4795 -0.7930  0.0963
  803MPD2    H511888   1.133   0.779  12.238 -0.2729  1.8937 -0.7419
  803MPD2    N111889   1.563   1.049  11.966  0.6791 -0.4346 -0.0018
  803MPD2    H711890   1.630   1.024  12.038  0.9334 -0.7253 -0.3387
  804MPD2     C11891   1.027   2.347  16.819 -0.3982 -0.9145  0.2376
  804MPD2    C111892   1.051   2.302  16.948 -0.3857  0.2310 -0.2101
  804MPD2    C211893   1.131   2.379  17.028 -0.0217  0.6828 -0.1246
  804MPD2    C311894   1.181   2.503  16.987  0.1163  0.2652 -0.0608
  804MPD2    C411895   1.146   2.551  16.859  0.9921  0.5180 -0.9721
  804MPD2    C511896   1.064   2.474  16.777 -0.2509 -0.1177  0.0474
  804MPD2     H11897   1.158   2.348  17.129 -0.5621  0.0321 -0.1787
  804MPD2    H111898   1.182   2.648  16.825 -1.4114  2.0417  0.8094
  804MPD2    H211899   0.952   2.292  16.763  0.8548 -2.3127 -0.0454
  804MPD2    H311900   1.030   2.510  16.681  1.6459 -2.4445 -1.5183
  804MPD2     N11901   1.244   2.575  17.088 -0.0390 -0.4332  0.1228
  804MPD2    H511902   1.260   2.533  17.179 -0.8770  1.6736  1.2472
  804MPD2    N111903   0.993   2.183  16.996  0.0060 -0.2631 -0.2383
  804MPD2    H711904   0.989   2.169  17.097 -1.5423 -0.1595 -0.2860
  805MPD2     C11905   0.284   0.878  15.186  0.0184 -0.6838 -0.4635
  805MPD2    C111906   0.362   0.973  15.132  0.0054  0.4707 -0.7091
  805MPD2    C211907   0.473   1.005  15.209  0.1070 -0.3336  0.2485
  805MPD2    C311908   0.489   0.956  15.341  0.2647  0.5099  0.7201
  805MPD2    C411909   0.395   0.868  15.393  0.4905  0.9491  0.3085
  805MPD2    C511910   0.293   0.831  15.312  0.7801 -0.4438 -0.7566
  805MPD2     H11911   0.555   1.065  15.172 -0.4698  1.9345  2.6076
  805MPD2    H111912   0.393   0.844  15.499 -0.0018  1.3718  0.3917
  805MPD2    H211913   0.207   0.824  15.130 -1.4887  0.4086  0.5589
  805MPD2    H311914   0.215   0.767  15.353  1.5419 -0.7151  0.2838
  805MPD2     N11915   0.609   0.984  15.414 -0.5877 -0.4403  0.3569
  805MPD2    H511916   0.674   1.046  15.367 -0.1312 -1.1293  0.0720
  805MPD2    N111917   0.344   1.019  15.000 -0.2178 -0.3365  0.2787
  805MPD2    H711918   0.424   1.068  14.960 -0.3311 -1.5856 -1.4588
  806MPD2     C11919   0.671   0.076   0.068 -0.5341  0.2526 -0.1756
  806MPD2    C111920   0.691   0.186   0.153 -0.1290 -0.0828 -0.2038
  806MPD2    C211921   0.766   0.287   0.106 -0.1853 -0.7611 -1.0480
  806MPD2    C311922   0.811   0.295  17.722  0.0165 -1.3178 -0.2204
  806MPD2    C411923   0.770   0.193  17.635 -0.0668  0.0949 -0.3115
  806MPD2    C511924   0.708   0.078  17.680 -0.5258  0.4395  0.4711
  806MPD2     H11925   0.792   0.365   0.176 -0.3982 -2.1607  0.5812
  806MPD2    H111926   0.804   0.182  17.533  1.8940  2.5413  0.0845
  806MPD2    H211927   0.624   4.724   0.109  0.6974  0.8769  2.5817
  806MPD2    H311928   0.695   4.731  17.612  0.3238  1.8512 -1.4215
  806MPD2     N11929   0.875   0.410  17.675  0.2788 -0.1174  0.0730
  806MPD2    H511930   0.892   0.485  17.742  0.7949  0.2560 -0.4721
  806MPD2    N111931   0.644   0.171   0.288  0.2375  0.0661 -0.4974
  806MPD2    H711932   0.581   0.092   0.300  0.4393  0.3141  2.0826
  807MPD2     C11933   0.310   4.390   0.681 -0.2431 -0.1042  0.6382
  807MPD2    C111934   0.432   4.418   0.741 -0.0363 -0.5340  0.0406
  807MPD2    C211935   0.475   4.327   0.834  0.1743  0.0342  1.0446
  807MPD2    C311936   0.401   4.222   0.875  0.2814  0.0587 -0.2942
  807MPD2    C411937   0.282   4.195   0.811  1.0425 -0.2787  0.0010
  807MPD2    C511938   0.242   4.275   0.710  0.2170  0.3786 -0.1100
  807MPD2     H11939   0.570   4.354   0.879  0.3904 -1.5439  1.5213
  807MPD2    H111940   0.210   4.124   0.849  0.4499 -0.7891 -2.0592
  807MPD2    H211941   0.256   4.452   0.610 -3.1616 -0.2263  2.7266
  807MPD2    H311942   0.139   4.266   0.680  0.4354  1.4430 -1.1540
  807MPD2     N11943   0.449   4.146   0.982 -0.4883 -0.6366  0.0713
  807MPD2    H511944   0.533   4.183   1.025 -0.5519  3.4727 -3.4217
  807MPD2    N111945   0.500   4.539   0.717  0.1418 -0.1434 -0.6069
  807MPD2    H711946   0.580   4.549   0.779 -0.8380 -3.1754  1.1548
  808MPD2     C11947   1.295   1.473   9.946  0.0960  0.2475  0.1700
  808MPD2    C111948   1.185   1.560   9.932  0.3471  0.4111  0.0852
  808MPD2    C211949   1.214   1.693   9.899 -0.2207  0.0694 -0.8955
  808MPD2    C311950   1.345   1.741   9.905 -0.3256  0.3899  1.0198
  808MPD2    C411951   1.447   1.649   9.905  0.5673 -0.0437 -0.0242
  808MPD2    C511952   1.422   1.519   9.925  0.3137 -0.1243 -0.3072
  808MPD2     H11953   1.130   1.759   9.882 -0.5493  0.4219  2.0360
  808MPD2    H111954   1.553   1.673   9.908  0.2210  1.4556  0.1311
  808MPD2    H211955   1.288   1.371   9.983 -0.8148 -0.0857 -0.8986
  808MPD2    H311956   1.507   1.455   9.946 -0.0309 -0.6613 -0.5468
  808MPD2     N11957   1.385   1.876   9.892 -0.0691  0.3451  0.3901
  808MPD2    H511958   1.484   1.898   9.891 -0.3274  1.6136  1.6368
  808MPD2    N111959   1.057   1.521   9.963 -0.0529  0.6342  0.3756
  808MPD2    H711960   0.990   1.598   9.966  0.2956  0.9996 -1.2672
  809MPD2     C11961   2.149   2.278   9.718  0.8355 -0.3437  0.3971
  809MPD2    C111962   2.073   2.392   9.726  0.0600 -0.2539 -0.0436
  809MPD2    C211963   1.937   2.379   9.724 -0.7533  0.1868 -0.0023
  809MPD2    C311964   1.878   2.251   9.737 -0.8092 -0.3135 -0.2506
  809MPD2    C411965   1.957   2.134   9.735 -0.5328 -0.1699  0.7033
  809MPD2    C511966   2.094   2.152   9.724 -0.3255  0.2133 -0.5188
  809MPD2     H11967   1.874   2.467   9.729 -1.3957 -0.3253  0.6960
  809MPD2    H111968   1.918   2.033   9.733 -1.5138  0.2331 -0.4245
  809MPD2    H211969   2.256   2.291   9.714  0.7978 -0.7542 -1.5794
  809MPD2    H311970   2.160   2.067   9.710 -2.4784 -1.7084  0.9029
  809MPD2     N11971   1.734   2.224   9.743 -0.4579 -0.1608  0.1537
  809MPD2    H511972   1.710   2.126   9.742  1.1194 -0.5598  0.6545
  809MPD2    N111973   2.130   2.521   9.732 -0.3144  0.3338 -0.1898
  809MPD2    H711974   2.072   2.604   9.728 -1.5138 -0.4997 -0.1578
  810MPD2     C11975   0.325   1.177  10.337  0.7528  0.3781  0.9753
  810MPD2    C111976   0.275   1.286  10.273  0.3870 -0.3944 -0.0696
  810MPD2    C211977   0.297   1.415  10.319  0.6298 -0.1708 -0.2665
  810MPD2    C311978   0.362   1.432  10.442  0.2046 -0.1141  0.0264
  810MPD2    C411979   0.409   1.322  10.506 -0.1514  0.0392  0.0004
  810MPD2    C511980   0.398   1.193  10.452 -0.6132 -0.3765 -0.5313
  810MPD2     H11981   0.256   1.504  10.271  1.2523  0.0050 -0.4756
  810MPD2    H111982   0.462   1.330  10.600 -2.6926  0.5483  1.3765
  810MPD2    H211983   0.304   1.074  10.313  1.6530  0.5161 -0.4201
  810MPD2    H311984   0.439   1.105  10.500  1.8649 -0.8790 -3.5196
  810MPD2     N11985   0.383   1.551  10.514  0.5317 -0.0017 -0.4111
  810MPD2    H511986   0.452   1.541  10.588 -1.3945  0.0388  1.4063
  810MPD2    N111987   0.202   1.252  10.156 -0.3507  0.1344  0.0572
  810MPD2    H711988   0.207   1.155  10.125  0.9267  0.4995 -0.8911
  811MPD2     C11989   4.370   1.381   9.419 -1.0424 -0.3180  0.1840
  811MPD2    C111990   4.436   1.447   9.520  0.0879 -0.0955  0.0173
  811MPD2    C211991   4.392   1.576   9.561  0.1637 -0.4275 -0.3889
  811MPD2    C311992   4.281   1.632   9.497 -0.0989  0.2228 -0.3747
  811MPD2    C411993   4.216   1.565   9.395 -0.2975 -0.3957  0.1372
  811MPD2    C511994   4.263   1.440   9.356  0.2152  0.7615  0.2007
  811MPD2     H11995   4.444   1.637   9.634  1.0687 -2.8281  0.9573
  811MPD2    H111996   4.127   1.603   9.347  0.9686  0.0340 -1.8454
  811MPD2    H211997   4.405   1.283   9.391 -0.8505  0.8236 -3.5516
  811MPD2    H311998   4.212   1.378   9.283  2.5053  0.5535 -1.2051
  811MPD2     N11999   4.246   1.756   9.552 -0.0669 -0.1168  0.2626
  811MPD2    H512000   4.303   1.784   9.631  1.6533  0.7463 -1.3026
  811MPD2    N112001   4.539   1.379   9.587 -0.1606  0.8050  0.7778
  811MPD2    H712002   4.551   1.282   9.562  1.8704  0.8063  1.6876
  812MPD2     C12003   3.288   1.307  12.099 -0.1559  0.4123  0.3399
  812MPD2    C112004   3.394   1.392  12.136 -0.1155 -0.1247 -0.2801
  812MPD2    C212005   3.494   1.345  12.220  0.3001 -0.2629  0.4616
  812MPD2    C312006   3.494   1.215  12.272  0.5917  0.3365  0.1435
  812MPD2    C412007   3.378   1.137  12.237 -0.3494  0.6240 -0.1245
  812MPD2    C512008   3.281   1.178  12.150 -0.3474 -0.0681 -0.0191
  812MPD2     H12009   3.585   1.403  12.232  0.7325 -0.6208 -1.1153
  812MPD2    H112010   3.355   1.039  12.277  1.8431  0.7893  1.5386
  812MPD2    H212011   3.209   1.340  12.034 -0.7799 -1.2764  0.2359
  812MPD2    H312012   3.203   1.108  12.120 -0.2800 -0.2313  0.1807
  812MPD2     N12013   3.596   1.177  12.368  0.1422  0.3284  0.1681
  812MPD2    H512014   3.671   1.242  12.390  1.1542  0.1127 -2.5892
  812MPD2    N112015   3.393   1.518  12.075  0.4288 -0.2731  0.0891
  812MPD2    H712016   3.300   1.550  12.051  1.6466  2.0301 -1.6242
  813MPD2     C12017   3.454   2.658  13.225  0.4324  0.3930 -0.0143
  813MPD2    C112018   3.415   2.781  13.177 -0.0485 -0.3345 -1.6209
  813MPD2    C212019   3.278   2.806  13.158  0.2337  0.7233  0.6952
  813MPD2    C312020   3.185   2.712  13.195  0.0578  0.0261  0.1681
  813MPD2    C412021   3.229   2.597  13.259  0.3077  0.5192  0.5326
  813MPD2    C512022   3.363   2.566  13.267 -0.1774 -0.4020  0.2663
  813MPD2     H12023   3.237   2.900  13.121 -0.4636  0.0751 -0.1811
  813MPD2    H112024   3.160   2.521  13.293  0.4365  0.8627  1.5650
  813MPD2    H212025   3.560   2.635  13.221  0.5821  1.6798 -3.1893
  813MPD2    H312026   3.399   2.474  13.312 -0.5583 -0.5580  0.2581
  813MPD2     N12027   3.048   2.739  13.171  0.4963 -0.2745  0.0997
  813MPD2    H512028   3.026   2.823  13.119 -0.1840 -0.7375 -0.3521
  813MPD2    N112029   3.506   2.888  13.172 -0.0435  0.3518 -0.2359
  813MPD2    H712030   3.596   2.876  13.218  1.4976  1.2857 -3.0504
  814MPD2     C12031   3.845   3.788  12.503  0.3265  0.0843 -0.1292
  814MPD2    C112032   3.867   3.831  12.371  0.3861  0.1245 -0.7773
  814MPD2    C212033   3.904   3.959  12.340  0.9475 -0.3731 -0.4777
  814MPD2    C312034   3.920   4.049  12.439  0.5490 -0.6288  0.2934
  814MPD2    C412035   3.889   4.018  12.564  0.0488  0.2179  0.0917
  814MPD2    C512036   3.852   3.888  12.598  0.5734  0.0164  0.1902
  814MPD2     H12037   3.924   3.987  12.238  0.9513 -0.5374 -0.5218
  814MPD2    H112038   3.900   4.093  12.641 -1.0140 -0.1356  0.5975
  814MPD2    H212039   3.807   3.692  12.537 -0.1309  0.7849  1.3576
  814MPD2    H312040   3.821   3.859  12.697 -0.6396  0.1946 -0.1406
  814MPD2     N12041   3.958   4.180  12.406 -0.2182 -0.0165  0.3891
  814MPD2    H512042   3.956   4.248  12.481  1.1978  0.0141  0.3825
  814MPD2    N112043   3.825   3.753  12.266 -0.6303  0.6899  0.4183
  814MPD2    H712044   3.789   3.800  12.183  1.1773  0.9840 -0.2077
  815MPD2     C12045   4.474   2.910  11.707 -0.2642  0.0384 -0.6095
  815MPD2    C112046   4.403   2.823  11.630  0.3561  0.1445  0.1502
  815MPD2    C212047   4.275   2.790  11.671 -0.4459 -0.2732 -0.8161
  815MPD2    C312048   4.224   2.823  11.794  0.1214  0.5281 -0.4137
  815MPD2    C412049   4.302   2.901  11.876  0.3552  0.3128 -0.6470
  815MPD2    C512050   4.424   2.950  11.825 -0.2223 -0.3327  0.0904
  815MPD2     H12051   4.217   2.725  11.607 -1.0798 -0.7140  0.2032
  815MPD2    H112052   4.270   2.941  11.972  2.0633  3.3951 -1.3991
  815MPD2    H212053   4.574   2.942  11.679 -0.6788  2.8706  1.2315
  815MPD2    H312054   4.468   3.032  11.879  0.9049  0.3048 -1.8077
  815MPD2     N12055   4.087   2.799  11.822 -0.2616 -0.2006 -0.8808
  815MPD2    H512056   4.034   2.735  11.764  1.9312 -2.9048  0.1246
  815MPD2    N112057   4.456   2.794  11.498 -0.1810  0.3567  0.1568
  815MPD2    H712058   4.547   2.823  11.466 -0.1536  1.7845  1.4992
  816MPD2     C12059   4.482   1.724  17.000 -0.2125  0.4043 -0.2201
  816MPD2    C112060   4.430   1.819  16.917 -0.2789  0.6010  0.2818
  816MPD2    C212061   4.509   1.873  16.813  0.6819  0.4855 -0.0561
  816MPD2    C312062   4.630   1.808  16.774 -0.4042  0.8399 -0.1973
  816MPD2    C412063   4.672   1.701  16.856  0.1704 -0.9106  0.2053
  816MPD2    C512064   4.604   1.669  16.972  0.2580 -0.1023  0.2791
  816MPD2     H12065   4.469   1.943  16.740 -2.1621  1.2294  2.2566
  816MPD2    H112066   0.021   1.637  16.837  1.9604  2.2254 -2.3730
  816MPD2    H212067   4.422   1.674  17.075 -1.8671  1.3657 -0.8993
  816MPD2    H312068   4.630   1.585  17.036  1.3962  0.1620  0.1570
  816MPD2     N12069   4.695   1.844  16.657 -0.2870 -0.1830 -0.1883
  816MPD2    H512070   4.666   1.933  16.618 -3.2520 -0.3599  1.6004
  816MPD2    N112071   4.299   1.862  16.945  0.3250 -0.7586  0.6186
  816MPD2    H712072   4.264   1.809  17.024  0.1197 -0.2737  0.8529
  817MPD2     C12073   3.534   4.097   9.499 -0.1172 -0.3279 -0.0377
  817MPD2    C112074   3.501   4.012   9.397 -0.2371  0.1940 -0.1117
  817MPD2    C212075   3.422   4.055   9.294  0.1656  0.4124  0.1075
  817MPD2    C312076   3.384   4.189   9.278 -0.4938  0.3364  0.7220
  817MPD2    C412077   3.433   4.279   9.372 -0.1420  0.2405  0.1204
  817MPD2    C512078   3.507   4.230   9.480  0.2050  0.0115  0.4355
  817MPD2     H12079   3.397   3.987   9.213  2.1282 -1.1718  0.8287
  817MPD2    H112080   3.416   4.386   9.377 -1.9453  0.0750 -2.3031
  817MPD2    H212081   3.585   4.072   9.592  0.3273 -1.9470 -0.7184
  817MPD2    H312082   3.553   4.297   9.552 -0.8023  0.1066  0.9852
  817MPD2     N12083   3.292   4.216   9.173 -0.1397  0.1264 -0.4603
  817MPD2    H512084   3.261   4.138   9.116  0.7514 -0.5289 -0.0411
  817MPD2    N112085   3.528   3.873   9.397 -0.4073 -0.1380 -0.0793
  817MPD2    H712086   3.479   3.813   9.332 -0.5003  2.7831 -2.6764
  818MPD2     C12087   2.840   4.287  10.184 -0.4023 -1.6825  0.1800
  818MPD2    C112088   2.714   4.224  10.205  0.4613 -0.0335 -0.2681
  818MPD2    C212089   2.674   4.132  10.116 -0.0756  0.0449  0.1783
  818MPD2    C312090   2.747   4.092  10.005  0.0054 -0.2047 -0.1844
  818MPD2    C412091   2.868   4.144   9.989 -0.1187  0.4309  0.4040
  818MPD2    C512092   2.905   4.253  10.073 -0.8920  0.1630 -0.0536
  818MPD2     H12093   2.576   4.085  10.119  1.6494 -3.4926  1.5011
  818MPD2    H112094   2.924   4.126   9.898 -0.8280 -0.8579  0.2324
  818MPD2    H212095   2.887   4.365  10.243  0.6024 -1.4044 -0.9796
  818MPD2    H312096   2.985   4.319  10.042  0.9463 -2.2954 -0.5412
  818MPD2     N12097   2.692   3.992   9.926  0.6542 -0.0093  0.1372
  818MPD2    H512098   2.607   3.943   9.951  0.7041  0.4886  1.3380
  818MPD2    N112099   2.632   4.245  10.312  0.0484  0.2200 -0.2314
  818MPD2    H712100   2.536   4.213  10.307 -0.4309  1.5425  0.6645
  819MPD2     C12101   0.914   0.687  15.328 -0.3334 -0.4194 -0.4736
  819MPD2    C112102   0.929   0.551  15.343 -0.2969 -0.3351 -0.5402
  819MPD2    C212103   1.029   0.498  15.422  0.3656 -0.1838 -0.3811
  819MPD2    C312104   1.124   0.584  15.476  0.1347 -0.2319  0.1522
  819MPD2    C412105   1.108   0.719  15.465  0.1690 -0.0805  0.5562
  819MPD2    C512106   0.998   0.773  15.397  0.2980  0.9085 -0.2334
  819MPD2     H12107   1.034   0.392  15.445 -0.4638 -0.2925 -0.6962
  819MPD2    H112108   1.170   0.793  15.512  0.1728 -0.2110  0.7546
  819MPD2    H212109   0.841   0.729  15.260 -2.0209  0.2470  1.7825
  819MPD2    H312110   1.000   0.881  15.387  0.4574  0.9293  0.0139
  819MPD2     N12111   1.221   0.534  15.555 -0.3600  0.0357 -0.2436
  819MPD2    H512112   1.228   0.433  15.554  0.3247  0.0887 -0.9954
  819MPD2    N112113   0.830   0.470  15.287 -0.0203 -0.2068 -0.0789
  819MPD2    H712114   0.767   0.507  15.217  1.2563  2.2054  0.0183
  820MPD2     C12115   0.221   0.484  14.591  1.0700  0.1056  0.0818
  820MPD2    C112116   0.332   0.549  14.632 -0.0200 -0.1402 -0.2952
  820MPD2    C212117   0.431   0.483  14.701  0.2573  0.3383 -0.2189
  820MPD2    C312118   0.408   0.354  14.741 -0.8928 -0.3219 -0.0286
  820MPD2    C412119   0.292   0.284  14.698 -0.9570  0.0415 -1.0194
  820MPD2    C512120   0.199   0.353  14.629  0.5178  0.1277  0.4188
  820MPD2     H12121   0.526   0.531  14.723  0.2347  0.0639  0.4478
  820MPD2    H112122   0.277   0.180  14.722  0.4192 -0.0816 -0.7109
  820MPD2    H212123   0.139   0.529  14.537 -0.4154 -1.6026  0.9023
  820MPD2    H312124   0.106   0.307  14.597  0.5580  0.1739  0.2376
  820MPD2     N12125   0.489   0.280  14.831  0.0855 -0.0519  0.4984
  820MPD2    H512126   0.464   0.190  14.872  2.2940  0.1363  2.2351
  820MPD2    N112127   0.337   0.685  14.592 -0.6410 -0.6241 -0.6402
  820MPD2    H712128   0.253   0.715  14.544 -0.4968 -0.0458 -0.5415
  821MPD2     C12129   0.728   1.222  12.825 -0.2289 -0.3325  0.1422
  821MPD2    C112130   0.721   1.332  12.906  0.1595  0.5662  0.2034
  821MPD2    C212131   0.767   1.455  12.857 -0.5407 -0.0693 -0.0738
  821MPD2    C312132   0.825   1.478  12.732  0.1423 -0.1698 -0.5557
  821MPD2    C412133   0.826   1.364  12.652  0.3107 -0.2599  0.1357
  821MPD2    C512134   0.774   1.243  12.699  0.3302  0.5428 -0.0099
  821MPD2     H12135   0.773   1.531  12.933 -0.4258 -0.6213  0.4689
  821MPD2    H112136   0.865   1.365  12.551 -1.6504  2.6372 -0.6004
  821MPD2    H212137   0.679   1.127  12.843  0.5222 -0.5040  1.2819
  821MPD2    H312138   0.766   1.163  12.626  0.3112 -0.7019  1.3491
  821MPD2     N12139   0.866   1.602  12.683  0.0837  0.1635  0.6169
  821MPD2    H512140   0.916   1.592  12.595  0.3488 -0.5269  0.8395
  821MPD2    N112141   0.686   1.326  13.043  1.0954 -0.0416  0.0211
  821MPD2    H712142   0.696   1.411  13.098  0.0192 -0.2148  0.4808
  822MPD2     C12143   1.759   1.976  15.502  0.1917  0.2228 -0.8043
  822MPD2    C112144   1.735   1.924  15.633  0.1791  0.1310 -0.0474
  822MPD2    C212145   1.643   1.986  15.714 -0.7821 -0.0741 -0.7226
  822MPD2    C312146   1.574   2.108  15.682  0.3158 -0.0836  0.4884
  822MPD2    C412147   1.599   2.156  15.552 -0.1878 -0.3785 -0.0434
  822MPD2    C512148   1.686   2.083  15.466 -0.2214  0.0525  0.6030
  822MPD2     H12149   1.630   1.942  15.812  0.5831 -0.0886 -0.5514
  822MPD2    H112150   1.554   2.244  15.509  0.1963 -0.1004  0.1309
  822MPD2    H212151   1.819   1.924  15.428  0.4649  0.0686 -0.4731
  822MPD2    H312152   1.695   2.111  15.362 -2.9188  2.1418  0.9461
  822MPD2     N12153   1.496   2.177  15.778 -0.9761  0.4877 -0.4215
  822MPD2    H512154   1.467   2.126  15.861 -3.1016  0.7169 -1.0367
  822MPD2    N112155   1.806   1.810  15.686  0.3093  0.2378 -0.0334
  822MPD2    H712156   1.777   1.776  15.777 -0.5392  0.2776 -0.2912
  823MPD2     C12157   1.300   2.290  16.601 -0.2835  0.5775  0.2954
  823MPD2    C112158   1.331   2.221  16.483 -0.3281  0.0517  0.3908
  823MPD2    C212159   1.372   2.088  16.494 -0.2290 -0.3113  0.2267
  823MPD2    C312160   1.374   2.028  16.618  0.7471  0.1935  0.1752
  823MPD2    C412161   1.320   2.093  16.730  0.4237  0.0679  1.4454
  823MPD2    C512162   1.303   2.230  16.723  0.0436 -0.3257  0.6658
  823MPD2     H12163   1.392   2.036  16.401  1.0722  0.9400 -0.1810
  823MPD2    H112164   1.314   2.060  16.834 -0.3264 -0.2671  1.2948
  823MPD2    H212165   1.274   2.395  16.599 -2.8725 -0.0758 -0.5901
  823MPD2    H312166   1.263   2.281  16.810 -1.4511 -0.8990  0.3130
  823MPD2     N12167   1.407   1.890  16.626  0.1297 -0.3695  0.1334
  823MPD2    H512168   1.379   1.859  16.719 -0.4316  0.9029  0.3859
  823MPD2    N112169   1.349   2.290  16.359 -1.0311 -0.1516  0.4729
  823MPD2    H712170   1.339   2.391  16.368  2.3101  0.3568 -1.6879
  824MPD2     C12171   1.987   1.028  15.482 -0.1672 -0.2083 -0.1838
  824MPD2    C112172   2.101   1.106  15.493 -0.4586  0.5091  0.9989
  824MPD2    C212173   2.214   1.061  15.431  0.3252  0.1810  0.2096
  824MPD2    C312174   2.221   0.933  15.371 -0.4251  0.3370 -0.5424
  824MPD2    C412175   2.111   0.854  15.387  0.1480 -0.2331  0.6881
  824MPD2    C512176   1.991   0.896  15.444  0.1176  0.3930  0.1041
  824MPD2     H12177   2.299   1.128  15.437 -1.2089  2.2083 -0.7294
  824MPD2    H112178   2.124   0.750  15.359  1.5281 -0.1890  1.1829
  824MPD2    H212179   1.891   1.063  15.518 -0.0673 -0.2108  0.0803
  824MPD2    H312180   1.912   0.828  15.472  0.1709 -1.0183 -3.1954
  824MPD2     N12181   2.348   0.892  15.329  0.3229  0.8935 -0.4866
  824MPD2    H512182   2.421   0.963  15.338  0.0507  1.1947 -0.6547
  824MPD2    N112183   2.112   1.230  15.561  0.0451  0.3981 -0.0142
  824MPD2    H712184   2.203   1.274  15.557  0.5500 -0.7026 -0.4381
  825MPD2     C12185   3.053   0.985  14.853 -0.3014 -0.0646 -0.2097
  825MPD2    C112186   2.946   1.034  14.921 -0.0689 -0.9303  0.0193
  825MPD2    C212187   2.922   1.167  14.907  0.0233  0.1712  0.1011
  825MPD2    C312188   2.986   1.253  14.822  0.3919 -0.3522  0.1013
  825MPD2    C412189   3.090   1.193  14.749  0.4579  1.1323  0.2761
  825MPD2    C512190   3.119   1.061  14.763 -0.4150 -0.4611  0.4083
  825MPD2     H12191   2.838   1.208  14.962 -0.5581 -2.3248  1.0761
  825MPD2    H112192   3.139   1.249  14.670 -0.3759 -0.6069 -1.4683
  825MPD2    H212193   3.090   0.883  14.859 -0.7573 -0.3131 -1.6242
  825MPD2    H312194   3.204   1.025  14.707 -0.8423 -0.1400 -0.4372
  825MPD2     N12195   2.941   1.389  14.805 -0.2944  0.1981  0.4737
  825MPD2    H512196   2.867   1.420  14.866 -0.5573  0.2215  0.1479
  825MPD2    N112197   2.872   0.945  15.008 -0.3861  0.4661 -0.4566
  825MPD2    H712198   2.890   0.845  15.005 -2.0137  0.1602 -0.3844
  826MPD2     C12199   2.341   0.310  13.583  0.0666  1.0882 -0.3656
  826MPD2    C112200   2.376   0.429  13.527  0.9609  0.3223 -0.4956
  826MPD2    C212201   2.299   0.547  13.534 -0.7782  0.5550 -0.1825
  826MPD2    C312202   2.183   0.540  13.603 -0.0940  0.1112 -0.4122
  826MPD2    C412203   2.150   0.424  13.664  0.4424  1.1835 -0.2614
  826MPD2    C512204   2.231   0.311  13.655  0.1609 -0.5817  0.7043
  826MPD2     H12205   2.337   0.643  13.501 -1.0526 -0.2322 -2.7872
  826MPD2    H112206   2.059   0.413  13.722 -0.1305  0.1222 -1.3530
  826MPD2    H212207   2.401   0.219  13.578 -0.5494  0.5314  2.1673
  826MPD2    H312208   2.190   0.219  13.694  0.6439 -1.0786  0.0429
  826MPD2     N12209   2.099   0.645  13.633  0.2403 -0.6871  0.5718
  826MPD2    H512210   2.037   0.626  13.711  0.1316 -0.8704  0.4429
  826MPD2    N112211   2.504   0.424  13.465 -0.2111  0.8221  0.1468
  826MPD2    H712212   2.552   0.335  13.466 -0.8363  0.4754 -0.6766
  827MPD2     C12213   2.946   2.258  10.005 -0.0028  0.0840  0.1292
  827MPD2    C112214   2.913   2.207  10.129 -0.0241  0.1838 -0.0545
  827MPD2    C212215   2.783   2.160  10.160  0.3518 -0.5071  0.6976
  827MPD2    C312216   2.697   2.145  10.052 -0.6024 -0.1908 -0.2344
  827MPD2    C412217   2.744   2.182   9.931 -0.4566 -0.3325 -0.4733
  827MPD2    C512218   2.864   2.233   9.905  0.2755 -0.1519 -0.1094
  827MPD2     H12219   2.754   2.123  10.258  0.1287  2.4793  1.7746
  827MPD2    H112220   2.680   2.164   9.845  0.2227 -2.4259 -0.5296
  827MPD2    H212221   3.042   2.305   9.987 -0.1223 -0.0744 -0.9006
  827MPD2    H312222   2.900   2.248   9.804  1.8585 -2.1999  0.1549
  827MPD2     N12223   2.572   2.086  10.077 -0.1793  0.1592 -0.0134
  827MPD2    H512224   2.556   2.056  10.172 -1.2154 -1.8620 -0.8458
  827MPD2    N112225   3.013   2.230  10.223 -0.0689 -0.0872 -0.0240
  827MPD2    H712226   3.107   2.259  10.198 -1.1674  1.9368 -1.7658
  828MPD2     C12227   1.353   1.910  11.537  0.3299  0.0300 -0.6728
  828MPD2    C112228   1.242   1.961  11.474  0.6260  0.3562  0.0964
  828MPD2    C212229   1.263   2.048  11.373 -0.8483  0.1394  0.8531
  828MPD2    C312230   1.386   2.108  11.347  0.6016 -0.3865 -0.1593
  828MPD2    C412231   1.499   2.059  11.414  0.2919  0.5464  0.0578
  828MPD2    C512232   1.481   1.956  11.503  0.4755  0.6833  0.5636
  828MPD2     H12233   1.181   2.072  11.307 -0.4275  1.2515  0.7228
  828MPD2    H112234   1.598   2.102  11.405  0.2641  0.1678 -2.1091
  828MPD2    H212235   1.356   1.828  11.608 -0.4141  0.8707  0.3176
  828MPD2    H312236   1.564   1.927  11.566  0.8879  0.2925 -0.1655
  828MPD2     N12237   1.407   2.211  11.256  0.4365 -0.4681 -0.2696
  828MPD2    H512238   1.494   2.263  11.260 -0.2880  0.4721  2.8099
  828MPD2    N112239   1.113   1.923  11.508 -0.1784 -0.0048  0.3125
  828MPD2    H712240   1.037   1.967  11.457  0.5867 -1.3553 -1.9862
  829MPD2     C12241   0.559   2.578  11.812 -0.4691  0.4129 -0.9588
  829MPD2    C112242   0.664   2.553  11.728 -0.3615  0.6577  0.0428
  829MPD2    C212243   0.690   2.417  11.691 -0.0014 -0.9586 -0.1174
  829MPD2    C312244   0.624   2.317  11.756  0.1309 -0.8462  0.1257
  829MPD2    C412245   0.525   2.347  11.843 -0.2882 -0.3824 -0.3302
  829MPD2    C512246   0.483   2.479  11.860 -0.0221 -0.7450  0.4005
  829MPD2     H12247   0.764   2.396  11.614 -0.5378 -2.0348 -0.3403
  829MPD2    H112248   0.468   2.264  11.882 -2.1215 -0.6815 -3.6164
  829MPD2    H212249   0.548   2.681  11.846  1.5967 -0.0086  0.9410
  829MPD2    H312250   0.404   2.506  11.929  0.4515  1.6492  0.0174
  829MPD2     N12251   0.644   2.180  11.736  0.0669  0.0107 -0.0161
  829MPD2    H512252   0.592   2.115  11.795 -1.3293 -0.5952 -1.9410
  829MPD2    N112253   0.737   2.664  11.687  0.0132  0.2517  0.3836
  829MPD2    H712254   0.700   2.759  11.698  0.4093  0.5379 -0.7408
  830MPD2     C12255   2.006   0.371  15.640 -0.4310  0.1620  0.2466
  830MPD2    C112256   1.886   0.398  15.578  0.1108  0.1910  0.2556
  830MPD2    C212257   1.879   0.433  15.446  0.4728 -0.5482 -0.1089
  830MPD2    C312258   2.005   0.454  15.378 -0.3933  0.1260 -0.2431
  830MPD2    C412259   2.120   0.430  15.443  0.5099 -0.3255 -1.0486
  830MPD2    C512260   2.124   0.384  15.573 -0.4002  0.1140 -0.3830
  830MPD2     H12261   1.789   0.463  15.395 -0.9687  0.4608  3.0261
  830MPD2    H112262   2.212   0.427  15.385  0.7463 -2.7721 -0.5610
  830MPD2    H212263   2.010   0.339  15.743  1.2383 -1.6075 -0.3567
  830MPD2    H312264   2.221   0.374  15.620 -0.0961 -0.5696 -1.1505
  830MPD2     N12265   2.016   0.510  15.253 -0.3560  0.0202  0.1040
  830MPD2    H512266   2.107   0.537  15.216  0.5638 -4.8646 -1.2568
  830MPD2    N112267   1.771   0.361  15.652  0.6864  0.6406  0.3233
  830MPD2    H712268   1.787   0.342  15.750 -1.6789 -2.8007  0.0217
  831MPD2     C12269   1.878   2.174  16.154  0.1399 -0.4094 -0.3373
  831MPD2    C112270   1.883   2.077  16.051 -0.5925  0.9107 -0.0852
  831MPD2    C212271   1.787   1.981  16.041  0.0276  0.5466  0.1242
  831MPD2    C312272   1.681   1.963  16.131  0.1720 -0.1974  0.0702
  831MPD2    C412273   1.675   2.056  16.232 -0.4821 -0.6207  0.6453
  831MPD2    C512274   1.762   2.163  16.235  0.5184 -0.1699  0.5965
  831MPD2     H12275   1.806   1.911  15.961  0.0800  0.9670 -0.2351
  831MPD2    H112276   1.590   2.055  16.299  0.6391  0.8508  2.1102
  831MPD2    H212277   1.948   2.254  16.172  2.7172 -2.7085 -0.1667
  831MPD2    H312278   1.749   2.228  16.322  1.9857  2.0325 -0.8141
  831MPD2     N12279   1.581   1.856  16.121 -0.5714  0.3437  0.3199
  831MPD2    H512280   1.507   1.853  16.190 -1.5826  0.4299 -0.7583
  831MPD2    N112281   1.988   2.070  15.948 -0.3244 -0.1235 -0.3335
  831MPD2    H712282   1.981   1.993  15.882  1.1983 -0.3707 -0.1988
  832MPD2     C12283   0.187   2.785  17.003 -0.1445  0.1715 -1.0476
  832MPD2    C112284   0.158   2.919  17.016 -0.1719  0.7792  0.1587
  832MPD2    C212285   0.047   2.971  16.949 -0.5964 -0.4369  0.1205
  832MPD2    C312286   4.699   2.875  16.888  0.5927  1.3083 -0.0634
  832MPD2    C412287   0.003   2.746  16.866  0.6644  0.5284 -0.3781
  832MPD2    C512288   0.116   2.700  16.924  0.1306 -0.0981 -0.2901
  832MPD2     H12289   0.002   3.069  16.962  0.6281 -0.0166  1.1321
  832MPD2    H112290   4.679   2.673  16.812 -1.5308  2.3598 -0.3885
  832MPD2    H212291   0.273   2.756  17.062 -1.0763 -0.1953  0.1361
  832MPD2    H312292   0.151   2.597  16.914  0.0249 -0.3315  1.8833
  832MPD2     N12293   4.576   2.904  16.833  0.9164  0.2587  0.8373
  832MPD2    H512294   4.524   2.822  16.803  0.6245  0.1676  1.5863
  832MPD2    N112295   0.238   2.999  17.106  0.4155  0.0862 -0.3898
  832MPD2    H712296   0.316   2.950  17.149 -1.0367  0.2033  2.4211
  833MPD2     C12297   2.280   0.083  12.795 -0.2081  0.4978 -0.2417
  833MPD2    C112298   2.283   0.165  12.691 -0.3375 -0.5337  0.0342
  833MPD2    C212299   2.401   0.165  12.617  0.5096 -0.5751  0.2578
  833MPD2    C312300   2.509   0.091  12.661 -0.1422  1.1700 -0.0811
  833MPD2    C412301   2.499   0.015  12.775  0.9428  0.3380  0.3143
  833MPD2    C512302   2.382   0.000  12.836  0.0458  0.8182 -0.9396
  833MPD2     H12303   2.414   0.214  12.521  0.6137  2.0982  1.6320
  833MPD2    H112304   2.578   4.684  12.807  0.5372 -0.7176 -0.8677
  833MPD2    H212305   2.188   0.077  12.852 -0.4042 -0.6912 -0.6841
  833MPD2    H312306   2.368   4.672  12.922 -2.8893  0.0018 -2.0578
  833MPD2     N12307   2.621   0.075  12.593 -0.0188 -0.4640  0.2204
  833MPD2    H512308   2.685   4.735  12.616  1.1713  0.3285 -0.4601
  833MPD2    N112309   2.158   0.223  12.652  0.7392  0.5168  0.0936
  833MPD2    H712310   2.075   0.195  12.702  0.0397  2.5371  0.0876
  834MPD2     C12311   2.643   3.962  12.174 -0.0108 -0.0970 -0.4754
  834MPD2    C112312   2.559   4.048  12.105 -0.2951 -0.6798  0.1732
  834MPD2    C212313   2.563   4.187  12.126 -0.1517 -0.1031 -0.6381
  834MPD2    C312314   2.646   4.240  12.217  0.3735 -1.0016 -0.8959
  834MPD2    C412315   2.733   4.159  12.288 -0.5428  0.0973  1.1529
  834MPD2    C512316   2.737   4.020  12.255 -0.1286 -0.4519 -0.1718
  834MPD2     H12317   2.498   4.253  12.070 -0.5803  0.5087  0.5708
  834MPD2    H112318   2.815   4.197  12.348  1.1638  0.4351 -1.3745
  834MPD2    H212319   2.634   3.858  12.145  0.4516 -0.1935 -0.2727
  834MPD2    H312320   2.813   3.961  12.305 -0.8046 -1.2807 -0.1295
  834MPD2     N12321   2.638   4.381  12.228  0.5515 -0.1709 -0.3033
  834MPD2    H512322   2.569   4.419  12.163 -1.3837 -0.1636  1.7685
  834MPD2    N112323   2.468   3.996  12.009  0.2296  0.1118  0.6972
  834MPD2    H712324   2.487   3.897  11.996  0.9292  0.5658 -1.7140
  835MPD2     C12325   2.375   2.358  10.795  0.0920 -0.9152  0.5445
  835MPD2    C112326   2.289   2.455  10.841  0.4268  0.0224  0.5481
  835MPD2    C212327   2.289   2.494  10.975  0.0611 -0.0313 -0.0259
  835MPD2    C312328   2.389   2.447  11.056  0.0086 -0.2640  0.4747
  835MPD2    C412329   2.481   2.360  11.007 -0.7500 -0.6889 -0.0885
  835MPD2    C512330   2.475   2.316  10.875  0.0882 -0.1040  0.1902
  835MPD2     H12331   2.218   2.565  11.016  0.6304  0.0085  0.8918
  835MPD2    H112332   2.556   2.307  11.065 -0.6080 -1.5584 -1.0788
  835MPD2    H212333   2.382   2.340  10.688  0.5083  0.8800  0.2836
  835MPD2    H312334   2.549   2.247  10.838 -0.8413 -1.7679  1.4312
  835MPD2     N12335   2.388   2.459  11.193 -0.1862 -0.3026  0.0368
  835MPD2    H512336   2.460   2.408  11.244  0.0182 -0.5979 -0.5467
  835MPD2    N112337   2.188   2.514  10.760  0.4458 -0.2509  0.2818
  835MPD2    H712338   2.122   2.576  10.806 -1.4348  0.2548 -3.0990
  836MPD2     C12339   1.944   2.218  11.967 -0.8970 -0.1034 -0.1653
  836MPD2    C112340   1.921   2.275  11.845  0.0738  0.4452 -0.6006
  836MPD2    C212341   1.792   2.274  11.798 -0.4160  0.1378  0.6735
  836MPD2    C312342   1.688   2.220  11.874 -0.2627 -0.7509  0.0044
  836MPD2    C412343   1.713   2.156  11.999 -0.3144 -0.6385 -0.4653
  836MPD2    C512344   1.840   2.170  12.044  0.1451  0.5406 -0.0851
  836MPD2     H12345   1.772   2.311  11.699 -1.1496 -0.7242  0.4990
  836MPD2    H112346   1.638   2.120  12.068  2.4395 -2.6848  1.4779
  836MPD2    H212347   2.047   2.205  12.000 -0.6565  0.7776 -0.5667
  836MPD2    H312348   1.871   2.134  12.141  0.4177 -0.2356 -0.4580
  836MPD2     N12349   1.551   2.210  11.824  0.2761  0.7032  0.0692
  836MPD2    H512350   1.473   2.181  11.882  0.4027 -0.5292 -0.3798
  836MPD2    N112351   2.040   2.311  11.773 -0.3928 -0.1752 -0.4922
  836MPD2    H712352   2.126   2.279  11.815  0.1098 -0.6022 -1.8432
  837MPD2     C12353   4.621   2.200   9.931  0.1065  0.4623  0.2908
  837MPD2    C112354   4.530   2.273   9.858  0.3128  0.0747 -0.5283
  837MPD2    C212355   4.553   2.398   9.816 -0.3404  0.3840  0.3935
  837MPD2    C312356   4.669   2.456   9.844  0.3916 -0.5555  0.0146
  837MPD2    C412357   0.028   2.397   9.923 -1.1081 -0.2054  0.1668
  837MPD2    C512358   0.000   2.270   9.972 -0.9060  0.1962  0.5622
  837MPD2     H12359   4.478   2.453   9.760  1.3623  1.5936 -0.7441
  837MPD2    H112360   0.115   2.448   9.961 -0.3164 -1.4873  0.0812
  837MPD2    H212361   4.593   2.109   9.982 -0.6677 -0.4923 -1.8217
  837MPD2    H312362   0.069   2.217  10.036 -0.8498  0.4341  0.6992
  837MPD2     N12363   4.680   2.583   9.786 -0.8289  0.0805 -0.1813
  837MPD2    H512364   4.596   2.608   9.735 -0.3735  1.1245 -0.4345
  837MPD2    N112365   4.412   2.216   9.811  0.4383  0.4291  0.2124
  837MPD2    H712366   4.347   2.263   9.749  0.4977  0.2113 -0.0114
  838MPD2     C12367   4.017   0.586  12.112  0.0628 -0.5298  0.2232
  838MPD2    C112368   3.969   0.476  12.047  0.3928  0.1269 -0.3383
  838MPD2    C212369   3.886   0.389  12.118 -0.2772  0.2653 -0.2180
  838MPD2    C312370   3.827   0.424  12.233 -0.3027  0.0694  0.6168
  838MPD2    C412371   3.862   0.547  12.291 -0.2408  0.1364  0.6577
  838MPD2    C512372   3.964   0.620  12.241  0.0471 -1.0507  0.0194
  838MPD2     H12373   3.867   0.295  12.066 -3.2219 -0.4161  2.0958
  838MPD2    H112374   3.829   0.573  12.391 -0.0449 -0.8326  0.9766
  838MPD2    H212375   4.098   0.642  12.067  0.6768 -2.2323 -0.8050
  838MPD2    H312376   3.997   0.703  12.303 -1.1752 -2.4284  2.5171
  838MPD2     N12377   3.734   0.335  12.280  0.0409  0.7338  0.6023
  838MPD2    H512378   3.728   0.244  12.237  0.1750  0.4786  1.1234
  838MPD2    N112379   4.007   0.441  11.913 -0.2550  0.2870  0.7758
  838MPD2    H712380   3.968   0.352  11.885 -0.5537  0.4766  0.5857
  839MPD2     C12381   3.537   0.025  11.923  0.1164 -0.0188  0.3390
  839MPD2    C112382   3.600   4.687  11.824 -0.2101  0.1068  0.6603
  839MPD2    C212383   3.706   0.014  11.760 -0.0909 -0.3187 -0.9107
  839MPD2    C312384   3.730   0.147  11.780  0.1335  0.0752 -0.2981
  839MPD2    C412385   3.656   0.222  11.865  0.1885 -0.0589 -0.2125
  839MPD2    C512386   3.556   0.159  11.936 -0.2442 -0.4772 -0.6984
  839MPD2     H12387   3.769   4.681  11.705  0.2125 -0.2230 -0.6807
  839MPD2    H112388   3.664   0.330  11.867  1.1379 -0.0852 -2.9763
  839MPD2    H212389   3.459   4.721  11.985 -0.0282 -1.4050 -0.7441
  839MPD2    H312390   3.496   0.209  12.010 -1.0459  0.4143 -1.9508
  839MPD2     N12391   3.827   0.219  11.713  0.1752  0.0074  0.2725
  839MPD2    H512392   3.850   0.312  11.748 -0.1020 -0.1213  0.7970
  839MPD2    N112393   3.575   4.555  11.780 -0.0594 -0.1576  0.1386
  839MPD2    H712394   3.635   4.524  11.704  1.6964 -0.1039  1.4863
  840MPD2     C12395   3.531   2.470  10.060  0.2799 -0.9313 -0.0152
  840MPD2    C112396   3.557   2.462  10.194  0.4043  0.4773 -0.5201
  840MPD2    C212397   3.649   2.549  10.250 -0.0250  1.2571  0.7918
  840MPD2    C312398   3.727   2.631  10.167 -0.0632 -0.3383  0.3078
  840MPD2    C412399   3.702   2.632  10.036  0.8993 -0.0374 -0.2283
  840MPD2    C512400   3.606   2.550   9.982 -0.3846  0.3392 -0.2255
  840MPD2     H12401   3.648   2.560  10.358 -3.1680  5.7438  0.2976
  840MPD2    H112402   3.740   2.704   9.964  1.6762 -0.6500 -0.4267
  840MPD2    H212403   3.458   2.414  10.003  0.5672 -1.7035  0.3713
  840MPD2    H312404   3.591   2.549   9.875  2.9832  0.6397 -0.7037
  840MPD2     N12405   3.823   2.729  10.207 -0.1893  0.4989 -0.5357
  840MPD2    H512406   3.852   2.791  10.132  0.7481  1.5623  0.6925
  840MPD2    N112407   3.451   2.391  10.265 -0.0311  0.2413 -0.1995
  840MPD2    H712408   3.385   2.343  10.205  1.1966  0.5450 -1.8119
  841MPD2     C12409   3.283   2.546  14.272  0.2068 -0.3333  0.2464
  841MPD2    C112410   3.338   2.437  14.333  0.8046  0.3185  0.6009
  841MPD2    C212411   3.469   2.435  14.380 -0.2729  0.0723 -0.6193
  841MPD2    C312412   3.543   2.554  14.365 -0.4102 -0.6698  0.3325
  841MPD2    C412413   3.494   2.660  14.296  0.5535 -0.1951 -0.6473
  841MPD2    C512414   3.367   2.648  14.238 -0.1577  0.1795  0.5356
  841MPD2     H12415   3.514   2.356  14.439 -0.8351 -0.4241 -0.8569
  841MPD2    H112416   3.544   2.751  14.264 -0.6140  0.6815  0.0012
  841MPD2    H212417   3.186   2.550  14.225 -0.0972 -0.1000  0.8994
  841MPD2    H312418   3.326   2.734  14.184  3.1515  0.9650 -0.7273
  841MPD2     N12419   3.667   2.562  14.429 -0.0988 -0.2441  0.0533
  841MPD2    H512420   3.699   2.480  14.479 -0.6561 -1.1750 -1.1534
  841MPD2    N112421   3.262   2.320  14.353 -0.2428 -0.3858  0.1485
  841MPD2    H712422   3.317   2.238  14.373 -0.1497 -0.8165 -1.8436
  842MPD2     C12423   4.032   3.653  16.581 -0.0031  0.3097  0.3821
  842MPD2    C112424   3.974   3.539  16.632  0.1313 -0.1517  0.3674
  842MPD2    C212425   4.054   3.453  16.708 -0.0759  0.1885  0.3033
  842MPD2    C312426   4.178   3.493  16.750 -0.2338 -0.7869  0.2150
  842MPD2    C412427   4.231   3.605  16.694  0.7925  1.0959  0.3347
  842MPD2    C512428   4.155   3.689  16.617  0.1629 -0.1618  0.3503
  842MPD2     H12429   4.004   3.365  16.746  0.4701  0.2558  1.1774
  842MPD2    H112430   4.331   3.638  16.721  1.6516 -0.7895 -0.5779
  842MPD2    H212431   3.976   3.714  16.511  0.2940  1.6053  1.2671
  842MPD2    H312432   4.202   3.781  16.585 -0.2652  0.8118  2.5305
  842MPD2     N12433   4.258   3.435  16.856  0.1482  0.1853  0.3081
  842MPD2    H512434   4.349   3.479  16.850  0.4308 -0.4105  0.2863
  842MPD2    N112435   3.845   3.508  16.586 -0.1116  0.4747 -0.1989
  842MPD2    H712436   3.807   3.571  16.515 -2.1142  0.4897  0.8712
  843MPD2     C12437   1.116   4.319  17.263  0.2315 -0.5145 -0.4220
  843MPD2    C112438   1.183   4.220  17.329  0.3873  0.3173 -0.2368
  843MPD2    C212439   1.297   4.250  17.401 -0.4240 -0.0356  0.3298
  843MPD2    C312440   1.351   4.373  17.404 -0.6562 -0.7130 -0.9818
  843MPD2    C412441   1.282   4.474  17.332 -0.1678 -0.2314 -0.1340
  843MPD2    C512442   1.166   4.444  17.263 -0.2533  0.2256 -0.5164
  843MPD2     H12443   1.341   4.172  17.462 -0.4220 -1.2415 -1.2168
  843MPD2    H112444   1.335   4.569  17.324 -0.2628  0.0125  2.0922
  843MPD2    H212445   1.016   4.305  17.224 -0.5966  0.9179  1.1669
  843MPD2    H312446   1.102   4.518  17.217 -1.7302 -0.6228  0.1521
  843MPD2     N12447   1.472   4.395  17.477  0.1568 -0.1660  0.5236
  843MPD2    H512448   1.512   4.489  17.482 -0.2164  0.0524 -0.6831
  843MPD2    N112449   1.127   4.088  17.325 -0.1207  0.2217  0.5875
  843MPD2    H712450   1.041   4.081  17.272  1.1210  2.5672 -1.7079
  844MPD2     C12451   4.423   2.893  16.188 -0.1660  0.2510 -0.2772
  844MPD2    C112452   4.542   2.822  16.178 -0.2914  0.6543 -0.2541
  844MPD2    C212453   4.643   2.847  16.274  0.2355  0.6998 -0.2849
  844MPD2    C312454   4.627   2.951  16.370  0.5495  0.2709 -0.5030
  844MPD2    C412455   4.503   3.016  16.372  0.5464  0.3101 -0.8689
  844MPD2    C512456   4.403   2.985  16.286 -0.1220 -0.8331  0.7541
  844MPD2     H12457   0.005   2.801  16.277  1.2422  2.7192 -2.2086
  844MPD2    H112458   4.475   3.085  16.451 -0.3143 -0.3373 -0.6050
  844MPD2    H212459   4.336   2.883  16.123  0.8344  0.9638 -1.7297
  844MPD2    H312460   4.315   3.049  16.293 -0.8181 -1.7663  0.5792
  844MPD2     N12461   4.718   2.975  16.469  0.2332 -0.1877 -0.0536
  844MPD2    H512462   0.061   2.912  16.478  1.6441  1.2776 -2.1626
  844MPD2    N112463   4.565   2.732  16.075 -0.1501  0.0058 -0.0944
  844MPD2    H712464   4.661   2.699  16.073 -1.0317 -2.5293 -0.7014
  845MPD2     C12465   0.199   3.785  17.064 -0.2513 -0.1744 -0.0978
  845MPD2    C112466   0.098   3.696  17.087 -0.0276  0.1927  0.1626
  845MPD2    C212467   0.101   3.573  17.035  0.6547  0.5664 -0.5216
  845MPD2    C312468   0.211   3.531  16.953  0.3881 -0.1278 -0.2879
  845MPD2    C412469   0.322   3.618  16.941 -0.3787 -0.2093 -0.1094
  845MPD2    C512470   0.307   3.741  16.995 -0.3781  0.7230  0.0369
  845MPD2     H12471   0.021   3.500  17.044 -0.0282  1.1984 -1.5115
  845MPD2    H112472   0.414   3.588  16.893  0.3278 -1.3999  1.9533
  845MPD2    H212473   0.187   3.890  17.090 -0.0605 -0.3141  0.5399
  845MPD2    H312474   0.381   3.814  16.965 -0.0858  0.8717  1.1261
  845MPD2     N12475   0.196   3.410  16.876  0.3563 -1.0190  0.8106
  845MPD2    H512476   0.112   3.354  16.884  1.7104 -3.2084 -0.4422
  845MPD2    N112477   4.726   3.741  17.167  0.1449  0.3041  0.1017
  845MPD2    H712478   4.729   3.841  17.185 -1.5247  0.5206 -0.8000
  846MPD2     C12479   1.728   3.891  13.690 -0.0050 -0.4918 -0.2888
  846MPD2    C112480   1.587   3.925  13.690  0.7290  0.1195  0.0600
  846MPD2    C212481   1.519   3.948  13.808  0.0576 -0.6232  0.1940
  846MPD2    C312482   1.586   3.941  13.930 -0.4025 -0.1255  0.4592
  846MPD2    C412483   1.717   3.905  13.929  0.1123 -0.0543 -0.9325
  846MPD2    C512484   1.786   3.876  13.815 -0.2518  0.0103  0.1693
  846MPD2     H12485   1.415   3.980  13.801  0.3708  0.1518 -0.8279
  846MPD2    H112486   1.777   3.909  14.020  1.0554  0.9644 -1.6065
  846MPD2    H212487   1.789   3.878  13.602  1.6301 -2.2188  1.0948
  846MPD2    H312488   1.887   3.837  13.825 -0.3071  0.2458  1.7325
  846MPD2     N12489   1.516   3.969  14.048 -0.0897  0.0687  0.5136
  846MPD2    H512490   1.415   3.958  14.051  0.2175 -2.9749  0.0969
  846MPD2    N112491   1.523   3.940  13.567  0.2997  0.1254 -0.4121
  846MPD2    H712492   1.433   3.985  13.570  0.7107  0.9508 -0.4357
  847MPD2     C12493   1.517   0.480  14.287  0.6802  0.0241 -0.3196
  847MPD2    C112494   1.586   0.598  14.293 -0.5471 -0.6654 -0.6213
  847MPD2    C212495   1.713   0.596  14.330 -0.4561 -0.8890  0.0788
  847MPD2    C312496   1.778   0.480  14.371  0.1670 -0.1668  0.1470
  847MPD2    C412497   1.713   0.360  14.368  0.0760 -0.2256 -0.3025
  847MPD2    C512498   1.583   0.361  14.325  0.0928  0.5090  0.5767
  847MPD2     H12499   1.766   0.690  14.323 -1.3492 -0.4092 -0.2982
  847MPD2    H112500   1.768   0.268  14.387  1.9587  0.6720 -1.4129
  847MPD2    H212501   1.417   0.465  14.248  0.8077 -0.0418 -0.6177
  847MPD2    H312502   1.531   0.267  14.307 -2.1090  1.2223  3.2710
  847MPD2     N12503   1.913   0.487  14.409 -1.4229  0.2207  0.3458
  847MPD2    H512504   1.945   0.583  14.419 -0.8879  0.1065 -0.2812
  847MPD2    N112505   1.529   0.725  14.291 -0.0659 -0.3756  0.0068
  847MPD2    H712506   1.589   0.806  14.303  0.1707 -0.7023  0.9917
  848MPD2     C12507   4.000   3.319  16.347 -0.1452  0.0886  0.1096
  848MPD2    C112508   4.131   3.340  16.388 -0.3367 -0.4008  0.0270
  848MPD2    C212509   4.188   3.459  16.368 -0.2249  0.5864  0.3261
  848MPD2    C312510   4.127   3.551  16.273 -0.7246 -0.5469 -0.6222
  848MPD2    C412511   4.010   3.523  16.218 -0.4583  0.4548 -0.4822
  848MPD2    C512512   3.943   3.408  16.258 -0.4426  0.4767  0.1525
  848MPD2     H12513   4.274   3.489  16.425  0.9437 -2.9213  0.4450
  848MPD2    H112514   3.960   3.582  16.142  1.5917  1.2908 -1.2044
  848MPD2    H212515   3.936   3.233  16.367  1.0910 -1.0848 -0.9932
  848MPD2    H312516   3.847   3.384  16.213 -0.0754 -1.2125  0.2736
  848MPD2     N12517   4.185   3.666  16.223  0.7615 -0.3159 -0.0744
  848MPD2    H512518   4.124   3.723  16.166  1.1052 -0.8028 -0.9181
  848MPD2    N112519   4.207   3.247  16.469  0.3443 -0.5938  0.2258
  848MPD2    H712520   4.292   3.277  16.515 -0.9619  1.2026  1.5016
  849MPD2     C12521   2.890   3.209  14.652 -0.4726 -0.3642 -0.0279
  849MPD2    C112522   3.026   3.235  14.645 -0.3650  0.7021  0.2784
  849MPD2    C212523   3.098   3.226  14.765  0.0299  0.9133  0.1739
  849MPD2    C312524   3.042   3.176  14.885 -0.3882 -0.6628  0.4619
  849MPD2    C412525   2.907   3.143  14.891  0.9415  0.4449 -0.1891
  849MPD2    C512526   2.842   3.165  14.774  0.5384  1.5806  0.0707
  849MPD2     H12527   3.199   3.265  14.754  0.3282  0.4578  1.2604
  849MPD2    H112528   2.865   3.099  14.980  2.8920 -0.6203  0.1926
  849MPD2    H212529   2.811   3.230  14.581 -0.3801  0.4399  0.1066
  849MPD2    H312530   2.739   3.131  14.779  0.8357  1.1486  3.0393
  849MPD2     N12531   3.120   3.156  14.999 -0.3871 -0.1937 -0.1788
  849MPD2    H512532   3.066   3.154  15.084  0.6511 -2.1344  0.4231
  849MPD2    N112533   3.078   3.273  14.521  0.0419 -0.6663  0.5113
  849MPD2    H712534   3.017   3.285  14.441  0.4580 -0.9492  0.1539
  850MPD2     C12535   1.665   1.490  14.372 -0.3650  0.1630  0.4748
  850MPD2    C112536   1.670   1.584  14.474 -0.5498 -0.1233 -0.4393
  850MPD2    C212537   1.799   1.614  14.518 -0.2707 -0.4753 -0.1778
  850MPD2    C312538   1.913   1.548  14.476 -0.2088 -0.3114 -1.1062
  850MPD2    C412539   1.903   1.448  14.381  0.2464  0.4281 -0.2273
  850MPD2    C512540   1.784   1.427  14.324 -0.2461  0.0895 -0.1205
  850MPD2     H12541   1.809   1.696  14.588  0.8030 -0.9705  0.2484
  850MPD2    H112542   1.980   1.379  14.349  0.8832 -0.5765  3.4545
  850MPD2    H212543   1.573   1.455  14.326  0.2473  0.3294 -0.8779
  850MPD2    H312544   1.784   1.361  14.238 -1.4364  1.1761 -0.9384
  850MPD2     N12545   2.043   1.564  14.532 -0.0719 -0.5587  0.1272
  850MPD2    H512546   2.117   1.516  14.482 -0.8468 -3.0069  1.3352
  850MPD2    N112547   1.540   1.623  14.537 -0.2769  0.5167 -0.1633
  850MPD2    H712548   1.459   1.593  14.485 -1.4079  2.1514  0.6700
  851MPD2     C12549   2.096   1.409  15.173  0.0779  0.4215 -0.3968
  851MPD2    C112550   1.991   1.384  15.083 -0.8637 -0.4334  0.4389
  851MPD2    C212551   1.981   1.247  15.039 -0.5788  0.0944  0.0929
  851MPD2    C312552   2.069   1.152  15.078  0.5149  0.0135 -0.2648
  851MPD2    C412553   2.177   1.184  15.158 -0.3882 -0.5395  0.4257
  851MPD2    C512554   2.185   1.311  15.214 -0.1746  0.2114 -0.1061
  851MPD2     H12555   1.903   1.210  14.974 -1.8531  2.1333  0.4488
  851MPD2    H112556   2.254   1.118  15.196 -2.3426 -2.5731  0.8689
  851MPD2    H212557   2.107   1.505  15.221  0.4585  1.2773 -2.1819
  851MPD2    H312558   2.257   1.339  15.290 -0.1945  1.6772 -0.6156
  851MPD2     N12559   2.042   1.020  15.036  0.0355  0.1498  0.8103
  851MPD2    H512560   1.943   1.005  15.018  0.5877 -1.5424 -0.7018
  851MPD2    N112561   1.907   1.491  15.049 -0.2254  0.2621 -0.5432
  851MPD2    H712562   1.931   1.580  15.092  0.1204  0.6920 -1.6230
  852MPD2     C12563   1.339   4.039  10.740  0.2552  0.0842  0.4439
  852MPD2    C112564   1.437   4.039  10.834 -0.0714 -0.9247 -0.7077
  852MPD2    C212565   1.553   4.106  10.802  0.2224 -0.4091  0.2910
  852MPD2    C312566   1.564   4.184  10.693 -0.2106  0.0337  0.1778
  852MPD2    C412567   1.461   4.186  10.598 -0.3983  0.6046  0.6268
  852MPD2    C512568   1.344   4.118  10.623 -0.0578 -0.3284  1.3087
  852MPD2     H12569   1.626   4.107  10.882  0.6953 -0.1404 -0.1426
  852MPD2    H112570   1.458   4.253  10.513  0.8371  0.3645  0.3947
  852MPD2    H212571   1.247   3.985  10.762  0.8515 -0.8643  0.5924
  852MPD2    H312572   1.266   4.117  10.548  0.6786 -0.4074  0.5434
  852MPD2     N12573   1.672   4.272  10.695  0.3171 -0.1286 -0.0143
  852MPD2    H512574   1.738   4.261  10.771 -1.0620 -0.8134  1.0856
  852MPD2    N112575   1.432   3.975  10.955  0.0467  0.1615  0.0269
  852MPD2    H712576   1.518   3.959  11.006  0.4297  0.2656 -0.5806
  853MPD2     C12577   3.648   3.223  12.455 -1.1972  0.0862  0.0500
  853MPD2    C112578   3.527   3.261  12.415 -0.7587 -1.0958 -0.2622
  853MPD2    C212579   3.471   3.228  12.290 -0.5798 -0.1252 -0.1459
  853MPD2    C312580   3.560   3.165  12.202  0.6410  0.9702  0.8218
  853MPD2    C412581   3.692   3.142  12.237 -0.6327  0.2097  0.1462
  853MPD2    C512582   3.731   3.160  12.361  0.1028  0.5721  0.2101
  853MPD2     H12583   3.373   3.255  12.253 -1.4931  0.0438  2.4185
  853MPD2    H112584   3.764   3.103  12.165  2.1424  0.5096  2.7709
  853MPD2    H212585   3.700   3.261  12.542 -0.9469 -0.8046  0.2897
  853MPD2    H312586   3.833   3.134  12.388 -0.5329 -1.0152  1.0865
  853MPD2     N12587   3.515   3.145  12.065  0.1709  0.0323 -0.1522
  853MPD2    H512588   3.591   3.146  11.997 -1.7208  0.0772 -2.2531
  853MPD2    N112589   3.457   3.336  12.509 -0.1106 -0.1317  0.1191
  853MPD2    H712590   3.513   3.348  12.593  0.6951 -1.6859 -0.2015
  854MPD2     C12591   0.677   3.933  12.249  0.1482  0.2908  0.1024
  854MPD2    C112592   0.549   3.913  12.299  0.1254 -0.0711 -0.5434
  854MPD2    C212593   0.522   3.805  12.381  0.3336  0.4181 -0.4328
  854MPD2    C312594   0.626   3.718  12.419 -0.4508  0.5747 -0.8107
  854MPD2    C412595   0.758   3.750  12.380 -0.2448  0.7068 -0.1672
  854MPD2    C512596   0.777   3.850  12.291 -1.3508  0.3546 -0.4659
  854MPD2     H12597   0.420   3.780  12.410  0.2999 -1.4508 -2.2041
  854MPD2    H112598   0.849   3.698  12.407 -2.8014 -2.8376  1.5341
  854MPD2    H212599   0.705   4.026  12.200  2.8611 -0.0881  0.8944
  854MPD2    H312600   0.878   3.879  12.264 -1.3736  1.9231  1.1051
  854MPD2     N12601   0.613   3.594  12.492  0.0843  0.7551 -0.1665
  854MPD2    H512602   0.696   3.536  12.499 -1.0804 -0.7229  1.2970
  854MPD2    N112603   0.448   4.009  12.257  0.2326  0.3187 -0.1870
  854MPD2    H712604   0.478   4.082  12.193 -2.1547 -0.6158 -2.3948
  855MPD2     C12605   0.740   3.624  13.384  0.4687 -0.5241 -0.2862
  855MPD2    C112606   0.690   3.499  13.378  0.1586 -0.4065 -0.0071
  855MPD2    C212607   0.664   3.437  13.259  0.6248 -0.1636 -0.0120
  855MPD2    C312608   0.689   3.505  13.140 -0.3293  0.5566 -0.1477
  855MPD2    C412609   0.738   3.636  13.141  0.0533 -0.4083  0.4481
  855MPD2    C512610   0.768   3.686  13.265 -0.7411  0.5818 -1.0266
  855MPD2     H12611   0.629   3.335  13.265 -2.1674  0.7014 -1.2797
  855MPD2    H112612   0.760   3.696  13.053 -0.3798  0.1368  0.7045
  855MPD2    H212613   0.757   3.679  13.476 -1.1034 -1.5701  0.6182
  855MPD2    H312614   0.803   3.789  13.272 -2.2214  0.9989  0.4710
  855MPD2     N12615   0.652   3.458  13.015 -0.2644  0.3868  0.0125
  855MPD2    H512616   0.684   3.518  12.940 -2.1696  3.1857  1.4640
  855MPD2    N112617   0.658   3.430  13.489  0.2414  0.5026  0.7034
  855MPD2    H712618   0.613   3.341  13.473  0.9768  0.3851 -0.7458
  856MPD2     C12619   2.727   3.965  14.133  0.8764  1.0084  1.1408
  856MPD2    C112620   2.751   4.095  14.088  0.0359  0.1911 -0.2325
  856MPD2    C212621   2.650   4.169  14.034 -0.0694  0.4955  0.5951
  856MPD2    C312622   2.522   4.131  14.025  0.5289 -0.4565  0.7479
  856MPD2    C412623   2.497   3.999  14.066 -0.1294 -0.5447 -0.5592
  856MPD2    C512624   2.600   3.919  14.115 -0.5107  0.4600  0.3738
  856MPD2     H12625   2.675   4.271  14.008  2.8737  0.1353  2.0496
  856MPD2    H112626   2.396   3.962  14.050 -0.2666 -0.1445 -0.6244
  856MPD2    H212627   2.793   3.895  14.183 -0.8979 -2.3651 -1.1778
  856MPD2    H312628   2.584   3.817  14.148 -0.8124  0.9471  1.7296
  856MPD2     N12629   2.425   4.206  13.962  0.2384  0.1365 -0.1280
  856MPD2    H512630   2.333   4.162  13.963 -1.4861  3.6983 -0.5555
  856MPD2    N112631   2.872   4.157  14.109  0.7892 -0.2313  0.6339
  856MPD2    H712632   2.889   4.245  14.061 -1.0474  0.3265  1.0055
  857MPD2     C12633   3.746   1.996  13.133  0.1325 -0.1003  0.0215
  857MPD2    C112634   3.853   2.072  13.090  0.2780 -0.3914  0.1229
  857MPD2    C212635   3.880   2.193  13.147  0.2346 -0.3157  0.3909
  857MPD2    C312636   3.805   2.233  13.254  0.8502  0.0533 -0.5817
  857MPD2    C412637   3.696   2.159  13.301 -0.4018 -0.3259 -0.4373
  857MPD2    C512638   3.665   2.039  13.236 -0.1727  0.0266  0.3521
  857MPD2     H12639   3.964   2.253  13.112  1.5603 -3.2834 -1.5216
  857MPD2    H112640   3.633   2.190  13.383  1.5378 -1.4222  1.4571
  857MPD2    H212641   3.706   1.909  13.084  0.8180 -0.1881 -0.3783
  857MPD2    H312642   3.576   1.984  13.264  0.2128 -0.1594  1.2325
  857MPD2     N12643   3.848   2.346  13.324  0.1133 -0.7135  0.8786
  857MPD2    H512644   3.928   2.397  13.288 -0.0677  0.0530  1.5489
  857MPD2    N112645   3.925   2.014  12.980  0.7425 -0.7538 -0.0949
  857MPD2    H712646   3.891   1.931  12.934  1.2242 -0.1537 -1.5558
  858MPD2     C12647   0.470   1.146  16.507 -0.2112 -0.1556 -0.1339
  858MPD2    C112648   0.426   1.017  16.527  0.4367  0.3956  0.4483
  858MPD2    C212649   0.434   0.968  16.656  0.7372  0.1776 -0.1115
  858MPD2    C312650   0.488   1.044  16.761 -0.1054 -0.3088  0.1073
  858MPD2    C412651   0.524   1.170  16.738 -0.6099 -0.2061 -0.1202
  858MPD2    C512652   0.517   1.223  16.607  0.6270 -0.0914 -0.1520
  858MPD2     H12653   0.385   0.874  16.677  1.0326  0.4574  1.7920
  858MPD2    H112654   0.556   1.232  16.821 -0.9568 -1.0447  0.6286
  858MPD2    H212655   0.481   1.185  16.406  0.8524  0.0882  0.0790
  858MPD2    H312656   0.528   1.330  16.597 -1.4337  0.0299 -0.9418
  858MPD2     N12657   0.480   1.003  16.897 -0.2090  0.2118 -0.6873
  858MPD2    H512658   0.484   1.070  16.973  0.8580 -1.4964  0.7818
  858MPD2    N112659   0.377   0.943  16.417  0.3821  0.3986  0.1840
  858MPD2    H712660   0.391   0.988  16.328  0.8573  1.3751  0.7567
  859MPD2     C12661   3.519   2.976  15.203 -0.5641 -0.6416 -0.2667
  859MPD2    C112662   3.587   2.997  15.317  0.3941  0.1613  0.5843
  859MPD2    C212663   3.607   2.891  15.404 -0.8959 -0.3486  0.1531
  859MPD2    C312664   3.569   2.765  15.373 -0.0359  0.6255  0.6051
  859MPD2    C412665   3.491   2.754  15.260  0.0805 -0.0565  0.0762
  859MPD2    C512666   3.463   2.856  15.175 -0.5864  0.0339 -0.6619
  859MPD2     H12667   3.666   2.913  15.492  0.4027 -1.6490 -0.3958
  859MPD2    H112668   3.455   2.657  15.227  0.9399  0.1941 -1.6084
  859MPD2    H212669   3.511   3.063  15.139 -1.0851  0.0472  0.7272
  859MPD2    H312670   3.403   2.828  15.089  0.4087  2.2507 -2.0704
  859MPD2     N12671   3.610   2.647  15.445  0.0876 -0.0174  0.1114
  859MPD2    H512672   3.585   2.557  15.404  1.4673  0.8816 -2.6687
  859MPD2    N112673   3.641   3.123  15.321 -0.4465 -0.1367 -0.0716
  859MPD2    H712674   3.613   3.193  15.253  2.4656 -0.8072 -1.9615
  860MPD2     C12675   1.776   2.994  11.829  1.3193 -0.2187 -0.0844
  860MPD2    C112676   1.691   2.992  11.933 -1.0573 -0.1292 -0.1815
  860MPD2    C212677   1.553   2.989  11.908 -0.8845  0.0363 -0.1288
  860MPD2    C312678   1.500   2.990  11.779  1.0290 -0.3813  0.2489
  860MPD2    C412679   1.590   2.981  11.671  0.9031  0.0955  0.7783
  860MPD2    C512680   1.725   2.992  11.697  0.3523  0.7728 -0.2254
  860MPD2     H12681   1.475   2.983  11.983 -0.4831  3.9241  0.5889
  860MPD2    H112682   1.559   2.981  11.567 -1.1342 -0.9975  1.3800
  860MPD2    H212683   1.883   2.977  11.834  1.1075 -1.0971  1.2597
  860MPD2    H312684   1.796   2.991  11.615  1.3606  2.8034  0.6225
  860MPD2     N12685   1.357   2.994  11.762  0.2711  0.0329  0.3014
  860MPD2    H512686   1.301   2.987  11.846  0.9672  0.3671  0.7871
  860MPD2    N112687   1.737   2.977  12.065  0.1914 -0.0181  0.7070
  860MPD2    H712688   1.665   2.980  12.137 -0.9735  2.2108 -0.5476
  861MPD2     C12689   0.079   1.669  10.872 -0.3480 -0.6180  0.3246
  861MPD2    C112690   0.071   1.803  10.912 -0.1897 -0.1862 -0.5353
  861MPD2    C212691   4.711   1.888  10.854 -0.5826  0.7836 -0.6464
  861MPD2    C312692   4.630   1.838  10.756  0.0813 -0.2516 -0.7154
  861MPD2    C412693   4.645   1.716  10.707 -0.4659 -0.0596  0.3798
  861MPD2    C512694   4.735   1.631  10.764  0.4548 -0.1438  0.0952
  861MPD2     H12695   4.709   1.993  10.880 -2.5868  0.8532 -1.1192
  861MPD2    H112696   4.605   1.675  10.615  3.0288  0.4808 -1.3958
  861MPD2    H212697   0.162   1.606  10.901  1.5419  1.6738 -0.1331
  861MPD2    H312698   0.014   1.535  10.716 -2.4528  0.3085 -1.7555
  861MPD2     N12699   4.516   1.907  10.701  0.5093  0.3245 -0.0196
  861MPD2    H512700   4.465   1.863  10.625  0.4633 -1.7911  1.2152
  861MPD2    N112701   0.158   1.856  11.011 -0.1904  0.3785 -0.7968
  861MPD2    H712702   0.172   1.955  11.027 -2.5092  0.6739 -0.6598
  862MPD2     C12703   4.108   1.878  10.115  0.1821 -0.1895  0.4413
  862MPD2    C112704   4.156   1.836  10.236 -0.7457 -0.2298  0.5198
  862MPD2    C212705   4.140   1.704  10.277 -0.0121  0.4382 -0.2124
  862MPD2    C312706   4.071   1.610  10.202 -0.1107 -0.6253 -0.1710
  862MPD2    C412707   4.011   1.660  10.090 -0.3763 -0.4175  0.6918
  862MPD2    C512708   4.041   1.785  10.042  0.0154  0.6708  0.3920
  862MPD2     H12709   4.170   1.675  10.377 -0.3848  1.9930  0.3380
  862MPD2    H112710   3.940   1.605  10.029  1.7987 -1.0083 -1.3084
  862MPD2    H212711   4.125   1.976  10.074 -0.7918  0.0213  0.5265
  862MPD2    H312712   3.979   1.827   9.964 -0.9247 -1.3588  0.0545
  862MPD2     N12713   4.040   1.481  10.249  0.8862  0.1573  0.2698
  862MPD2    H512714   3.979   1.426  10.189 -0.3379  0.9837  0.7649
  862MPD2    N112715   4.209   1.921  10.332  0.0256  0.9520  0.2977
  862MPD2    H712716   4.216   1.887  10.428 -1.9138 -1.1535 -0.3310
  863MPD2     C12717   3.429   0.276  16.352 -0.1301  0.8309 -0.1760
  863MPD2    C112718   3.329   0.232  16.435 -0.4724  0.6760  0.2464
  863MPD2    C212719   3.364   0.165  16.553  0.0113  0.1685  0.4109
  863MPD2    C312720   3.498   0.150  16.586 -0.2326  0.1568 -0.2178
  863MPD2    C412721   3.595   0.205  16.505  0.3291 -0.6762  0.8306
  863MPD2    C512722   3.565   0.265  16.386 -0.0825 -0.1348  0.4945
  863MPD2     H12723   3.285   0.123  16.614 -1.3226 -0.0738 -1.4960
  863MPD2    H112724   3.700   0.194  16.531  0.3754 -0.9246  0.5387
  863MPD2    H212725   3.395   0.316  16.257 -1.6849 -0.2133 -0.0582
  863MPD2    H312726   3.644   0.312  16.330  1.9250 -1.0859  2.5525
  863MPD2     N12727   3.539   0.096  16.716  0.1742  0.0324 -0.3718
  863MPD2    H512728   3.638   0.096  16.737  0.1391 -0.7906 -0.2171
  863MPD2    N112729   3.195   0.255  16.394 -0.1860 -0.1768 -0.2923
  863MPD2    H712730   3.179   0.288  16.300 -1.3373  1.4124  0.4663
  864MPD2     C12731   3.677   1.436  16.988  0.1831 -0.6524 -0.2920
  864MPD2    C112732   3.717   1.418  16.854 -0.4312  0.8977  0.1713
  864MPD2    C212733   3.846   1.460  16.822  0.5048 -0.2991 -0.1979
  864MPD2    C312734   3.922   1.523  16.921  0.7545 -0.2072  0.3009
  864MPD2    C412735   3.881   1.531  17.052  0.1435  0.0916  0.4055
  864MPD2    C512736   3.757   1.492  17.084 -0.0575  0.2894 -0.1530
  864MPD2     H12737   3.874   1.448  16.718 -1.6764  0.0168 -0.8300
  864MPD2    H112738   3.940   1.572  17.133  0.5865 -0.8651  0.5688
  864MPD2    H212739   3.587   1.385  17.021  0.2336 -0.8054 -0.3859
  864MPD2    H312740   3.726   1.496  17.188  1.6888  1.3843  0.3154
  864MPD2     N12741   4.057   1.570  16.898  0.0115  0.4402 -0.1625
  864MPD2    H512742   4.114   1.585  16.981  1.0380 -0.1142 -0.7624
  864MPD2    N112743   3.635   1.330  16.772  0.0263 -0.0820  0.8258
  864MPD2    H712744   3.544   1.313  16.813 -0.8824 -1.1052 -1.5825
  865MPD2     C12745   4.391   1.575  16.016  0.3846 -0.2408 -0.3873
  865MPD2    C112746   4.425   1.463  16.093 -0.6802  0.0251 -0.1893
  865MPD2    C212747   4.451   1.478  16.231 -0.5884 -0.4004 -0.2337
  865MPD2    C312748   4.428   1.603  16.292  0.1829 -0.0704 -0.1588
  865MPD2    C412749   4.377   1.705  16.212 -0.0898 -0.5976  0.3975
  865MPD2    C512750   4.365   1.693  16.077  0.4244  0.3741 -0.3989
  865MPD2     H12751   4.500   1.396  16.283  0.9651  0.0447 -1.0207
  865MPD2    H112752   4.358   1.795  16.269 -0.1033 -0.5780  0.3623
  865MPD2    H212753   4.370   1.567  15.910 -0.3731 -1.2891 -0.1572
  865MPD2    H312754   4.329   1.778  16.020 -0.5692 -0.5063 -1.0885
  865MPD2     N12755   4.419   1.615  16.432 -0.1988 -0.4932  1.0669
  865MPD2    H512756   4.352   1.686  16.459 -0.1581  0.1797 -0.6062
  865MPD2    N112757   4.440   1.340  16.032 -0.3097  0.2973 -0.0231
  865MPD2    H712758   4.428   1.333  15.932  0.4352  1.0124 -0.1668
  866MPD2     C12759   0.618   2.374  10.922  0.1527  0.2306 -0.5667
  866MPD2    C112760   0.562   2.250  10.935 -0.4171 -0.9929 -0.1243
  866MPD2    C212761   0.422   2.238  10.930  0.0720 -0.4325 -0.3515
  866MPD2    C312762   0.345   2.352  10.911 -0.5523 -1.1930 -0.1807
  866MPD2    C412763   0.406   2.477  10.910  0.0628  0.1504  0.2635
  866MPD2    C512764   0.544   2.486  10.917 -0.2833  0.3744 -0.5560
  866MPD2     H12765   0.366   2.146  10.940  0.2177 -0.2800  1.8896
  866MPD2    H112766   0.354   2.571  10.898 -1.8013 -0.6658  2.0720
  866MPD2    H212767   0.722   2.404  10.935  0.5702 -1.5454  0.1078
  866MPD2    H312768   0.593   2.582  10.927  3.9150 -1.8513  0.4162
  866MPD2     N12769   0.206   2.353  10.928  0.4836  0.3174 -0.3226
  866MPD2    H512770   0.156   2.438  10.904  0.9492  0.8438  0.5712
  866MPD2    N112771   0.650   2.140  10.926 -0.5079 -0.0874 -0.4361
  866MPD2    H712772   0.747   2.168  10.918 -0.7376  1.3437  1.7061
  867MPD2     C12773   3.434   1.466  16.347  0.0444 -0.3481  0.0132
  867MPD2    C112774   3.362   1.427  16.459 -0.6378 -0.3370  0.1637
  867MPD2    C212775   3.349   1.511  16.563  0.3265  0.5686 -0.1693
  867MPD2    C312776   3.409   1.633  16.559  0.3932 -0.3896  0.0873
  867MPD2    C412777   3.492   1.668  16.442  0.4366  0.6311  0.5952
  867MPD2    C512778   3.496   1.588  16.335 -0.5010  0.2324 -0.5443
  867MPD2     H12779   3.269   1.484  16.631  0.3734  0.0019 -0.3412
  867MPD2    H112780   3.539   1.765  16.441 -0.4361  1.0577  0.8941
  867MPD2    H212781   3.441   1.394  16.266 -1.3975 -2.1801  1.5328
  867MPD2    H312782   3.554   1.607  16.246  0.2026 -4.7324 -1.1621
  867MPD2     N12783   3.403   1.723  16.668 -0.4362 -0.4104  0.2989
  867MPD2    H512784   3.469   1.800  16.663 -1.2665  0.2428 -0.6184
  867MPD2    N112785   3.302   1.297  16.450  0.1533  0.0599 -0.1379
  867MPD2    H712786   3.324   1.252  16.362 -0.2050 -1.2676  0.4555
  868MPD2     C12787   3.994   4.615  12.823 -0.1364 -1.2987  0.3262
  868MPD2    C112788   4.075   4.722  12.828  0.6681 -0.4007 -0.0919
  868MPD2    C212789   4.024   0.099  12.893  0.1204 -0.4400  1.1829
  868MPD2    C312790   3.911   0.093  12.968 -0.2266 -0.9882  0.4552
  868MPD2    C412791   3.830   4.716  12.957 -0.2067 -0.7590  0.3643
  868MPD2    C512792   3.862   4.611  12.879  0.4921  0.1072 -0.0156
  868MPD2     H12793   4.070   0.197  12.900 -0.0902 -0.1392 -1.5301
  868MPD2    H112794   3.743   4.702  13.020 -0.2026 -3.0731 -0.1290
  868MPD2    H212795   4.028   4.529  12.767  0.5057  0.4076 -1.8875
  868MPD2    H312796   3.797   4.524  12.883  1.8992 -0.9823 -0.7033
  868MPD2     N12797   3.878   0.210  13.051 -0.2682 -0.2431 -0.1916
  868MPD2    H512798   3.950   0.282  13.049  2.5559 -3.1096 -1.6965
  868MPD2    N112799   4.207   4.709  12.780  0.1858 -0.2869  0.1768
  868MPD2    H712800   4.243   4.620  12.747  1.4845  0.2566  0.1164
  869MPD2     C12801   0.604   2.490   0.633 -0.1492  0.1826  0.0965
  869MPD2    C112802   0.620   2.524   0.499 -0.4298  0.2807 -0.2936
  869MPD2    C212803   0.714   2.616   0.464 -0.1867 -0.2918  0.4826
  869MPD2    C312804   0.785   2.686   0.557 -0.5532 -0.6386  0.5760
  869MPD2    C412805   0.763   2.654   0.690  0.5990 -0.4756 -0.3167
  869MPD2    C512806   0.669   2.566   0.728 -0.4452 -0.0003 -0.3718
  869MPD2     H12807   0.712   2.658   0.364 -0.7110  0.7175  0.9112
  869MPD2    H112808   0.826   2.700   0.766  0.5042  0.9124 -1.0638
  869MPD2    H212809   0.528   2.415   0.653 -0.4168  0.6894  0.9594
  869MPD2    H312810   0.657   2.539   0.833  4.2159  0.6947  0.3373
  869MPD2     N12811   0.881   2.784   0.524  0.4201  0.0258  0.3014
  869MPD2    H512812   0.922   2.834   0.602 -0.3632  2.4223 -0.8185
  869MPD2    N112813   0.530   2.463   0.405  0.2868  0.0090  0.3419
  869MPD2    H712814   0.477   2.384   0.440  0.5856 -1.9941 -3.7507
  870MPD2     C12815   1.786   1.305   1.408  0.3341  0.1414  0.7317
  870MPD2    C112816   1.691   1.255   1.322  0.1781  0.2238  0.4170
  870MPD2    C212817   1.579   1.330   1.304  0.1724  0.0133 -0.3640
  870MPD2    C312818   1.561   1.457   1.356 -0.5010  0.6241  0.4225
  870MPD2    C412819   1.659   1.506   1.445 -0.0528  0.7357 -0.5205
  870MPD2    C512820   1.766   1.425   1.477  0.0980 -0.0461  0.4774
  870MPD2     H12821   1.508   1.300   1.229 -0.5374  0.1281  0.2606
  870MPD2    H112822   1.663   1.604   1.491 -1.2029 -0.8906  2.9572
  870MPD2    H212823   1.872   1.242   1.426 -2.0002 -3.8344 -2.0179
  870MPD2    H312824   1.848   1.458   1.540  1.0570  0.2325 -0.9095
  870MPD2     N12825   1.446   1.529   1.327  0.1986 -0.3483  0.5256
  870MPD2    H512826   1.397   1.502   1.242  1.0874 -1.8658  0.5017
  870MPD2    N112827   1.712   1.120   1.265 -0.3548  0.1867  1.0494
  870MPD2    H712828   1.803   1.075   1.272 -0.2276  0.2551 -0.1843
  871MPD2     C12829   1.732   1.359  16.148 -0.1468  0.7558  0.3345
  871MPD2    C112830   1.736   1.312  16.274  0.0694 -0.5631 -0.6033
  871MPD2    C212831   1.789   1.187  16.298  0.0318 -0.2158  0.0029
  871MPD2    C312832   1.848   1.108  16.194 -0.2732  0.0789  0.1123
  871MPD2    C412833   1.831   1.150  16.060  0.2779 -0.4513 -0.5554
  871MPD2    C512834   1.783   1.282  16.043  0.3883  0.1464 -0.1408
  871MPD2     H12835   1.788   1.159  16.402 -1.4122 -0.0543  0.0357
  871MPD2    H112836   1.875   1.096  15.977 -1.4802  0.3796 -2.0073
  871MPD2    H212837   1.698   1.460  16.131 -1.2644  0.7243  2.3015
  871MPD2    H312838   1.788   1.317  15.940  1.1548  0.4883  0.0167
  871MPD2     N12839   1.909   0.983  16.221 -0.1952 -0.1328 -0.0208
  871MPD2    H512840   1.911   0.941  16.314 -2.2880  0.0778  0.0999
  871MPD2    N112841   1.693   1.397  16.378  0.2403 -0.0265  0.1240
  871MPD2    H712842   1.695   1.494  16.348  0.8317  0.8557  2.9994
  872MPD2     C12843   2.466   3.466  13.871 -0.2716  0.0710  0.3933
  872MPD2    C112844   2.415   3.599  13.863 -0.2842 -0.2191  0.1389
  872MPD2    C212845   2.313   3.635  13.946  0.7889  0.7810  0.3823
  872MPD2    C312846   2.258   3.538  14.032  0.4739 -0.2087 -0.2446
  872MPD2    C412847   2.312   3.410  14.035  0.0193  0.5545  0.6387
  872MPD2    C512848   2.410   3.375  13.955 -0.1722 -0.4296 -0.0243
  872MPD2     H12849   2.283   3.739  13.953  1.7858  1.1579 -0.9219
  872MPD2    H112850   2.267   3.329  14.091  1.0386  1.7986  3.2714
  872MPD2    H212851   2.542   3.423  13.807  0.0301  0.4140  0.5268
  872MPD2    H312852   2.453   3.275  13.958 -1.3111 -0.9400 -0.5638
  872MPD2     N12853   2.152   3.564  14.119 -0.4304 -0.0715 -0.2410
  872MPD2    H512854   2.127   3.490  14.185 -0.2618 -2.0633 -2.4287
  872MPD2    N112855   2.469   3.691  13.779  0.2411 -0.7133 -0.0335
  872MPD2    H712856   2.447   3.789  13.795  2.5301  0.2615 -2.9150
  873MPD2     C12857   3.731   3.657   0.470  0.3711 -1.0914  0.4183
  873MPD2    C112858   3.831   3.605   0.553  0.2300 -0.3152  0.3848
  873MPD2    C212859   3.878   3.474   0.535  0.0793 -0.1848  0.2572
  873MPD2    C312860   3.826   3.399   0.429  0.0482  0.2868  0.2372
  873MPD2    C412861   3.732   3.460   0.342  0.0086 -0.0825 -0.3938
  873MPD2    C512862   3.689   3.590   0.358 -0.3133  0.1029  0.0325
  873MPD2     H12863   3.944   3.432   0.609  0.1157  2.4036  1.6961
  873MPD2    H112864   3.698   3.411   0.252 -0.5840  1.6596 -1.1301
  873MPD2    H212865   3.688   3.755   0.489  1.1023 -0.8051  0.6172
  873MPD2    H312866   3.614   3.623   0.286 -0.5221 -0.4136  0.0073
  873MPD2     N12867   3.866   3.267   0.403  0.4158  0.0550 -0.1173
  873MPD2    H512868   3.839   3.231   0.311 -0.6546 -0.0864  0.2530
  873MPD2    N112869   3.864   3.687   0.665 -0.2914 -0.0157 -0.4183
  873MPD2    H712870   3.801   3.766   0.673  0.8834  1.1253 -2.3187
  874MPD2     C12871   3.623   3.809  15.973 -0.6117 -0.3410  0.4118
  874MPD2    C112872   3.681   3.779  16.095  0.1370 -0.4712  0.2056
  874MPD2    C212873   3.810   3.821  16.115  0.1467 -0.1591  0.3835
  874MPD2    C312874   3.879   3.902  16.027  0.5010  0.2279 -0.6571
  874MPD2    C412875   3.817   3.936  15.913  0.1808 -0.2082 -0.4654
  874MPD2    C512876   3.687   3.896  15.891 -0.1774 -0.0616 -0.1453
  874MPD2     H12877   3.862   3.793  16.206 -0.5540  1.4493  1.2864
  874MPD2    H112878   3.864   4.004  15.843  0.6821  0.8069  0.8619
  874MPD2    H212879   3.525   3.770  15.952 -0.2410 -1.0571  0.0073
  874MPD2    H312880   3.619   3.939  15.819  0.6341  1.4572  0.0117
  874MPD2     N12881   4.014   3.940  16.055 -0.5199  0.2572 -0.6068
  874MPD2    H512882   4.038   3.928  16.152 -0.4799  0.8083 -0.5447
  874MPD2    N112883   3.607   3.694  16.182 -0.0916  0.0274 -0.0239
  874MPD2    H712884   3.520   3.663  16.141 -1.0714  0.7743  1.5028
  875MPD2     C12885   0.067   2.012  14.359 -0.4349  0.3755  0.5082
  875MPD2    C112886   4.687   2.088  14.364  0.0057 -0.0709 -0.3540
  875MPD2    C212887   4.676   2.181  14.468 -0.1676 -0.0980  1.2222
  875MPD2    C312888   0.041   2.183  14.565  0.1417 -0.0501  0.3558
  875MPD2    C412889   0.161   2.121  14.545 -0.4030 -0.1949 -0.0858
  875MPD2    C512890   0.167   2.022  14.453 -0.0388  0.2763 -0.0129
  875MPD2     H12891   4.594   2.251  14.479  3.2312  3.8924  1.2856
  875MPD2    H112892   0.239   2.138  14.618  0.0581  0.9309 -0.8392
  875MPD2    H212893   0.082   1.952  14.270 -0.6763 -0.4228  1.0048
  875MPD2    H312894   0.261   1.970  14.440 -0.3536 -0.6420  1.4732
  875MPD2     N12895   0.032   2.262  14.680 -0.5012  0.1781  0.1582
  875MPD2    H512896   0.118   2.257  14.734  0.3907  0.8676 -1.2142
  875MPD2    N112897   4.591   2.090  14.261 -0.0112 -0.3842  0.1357
  875MPD2    H712898   4.514   2.155  14.274  0.0372 -0.3137  0.0701
  876MPD2     C12899   3.699   3.421  15.866  0.2470  0.6934  0.2585
  876MPD2    C112900   3.832   3.447  15.872  0.5199 -0.2878  0.1261
  876MPD2    C212901   3.912   3.350  15.931  0.3858 -0.5150 -0.2642
  876MPD2    C312902   3.870   3.225  15.968 -0.1853  0.4043  0.3526
  876MPD2    C412903   3.730   3.208  15.967 -0.1937 -0.2023 -0.2319
  876MPD2    C512904   3.649   3.307  15.925  0.3344  0.3884 -0.4144
  876MPD2     H12905   4.019   3.367  15.934  0.2966 -0.2720  1.7491
  876MPD2    H112906   3.667   3.125  15.996  0.5178 -0.6780 -0.0567
  876MPD2    H212907   3.635   3.498  15.827 -1.8674  0.5093  3.3458
  876MPD2    H312908   3.542   3.289  15.933  0.4098 -0.7635 -1.8797
  876MPD2     N12909   3.958   3.124  16.012 -0.6093  0.4106  0.5719
  876MPD2    H512910   4.057   3.125  15.989 -1.3396 -1.5444 -2.7836
  876MPD2    N112911   3.887   3.565  15.813  0.3789  0.0706  0.1725
  876MPD2    H712912   3.816   3.625  15.771  0.2941 -0.3880 -0.3315
  877MPD2     C12913   3.710   3.926  15.187  0.1978  0.6042  0.4410
  877MPD2    C112914   3.849   3.941  15.199 -0.4404  1.0062  0.9003
  877MPD2    C212915   3.913   3.955  15.078  0.0980  0.3229  0.0888
  877MPD2    C312916   3.849   3.938  14.960 -0.8175  0.0444  0.5499
  877MPD2    C412917   3.715   3.912  14.953  0.4926 -0.5272  0.0771
  877MPD2    C512918   3.646   3.925  15.067  0.5251  0.6423  0.0826
  877MPD2     H12919   4.020   3.975  15.074 -0.1031  0.6220 -3.2590
  877MPD2    H112920   3.661   3.883  14.863  1.4470  0.3952 -0.8032
  877MPD2    H212921   3.650   3.928  15.278 -0.3915 -0.6101  0.0794
  877MPD2    H312922   3.543   3.896  15.053  0.8071 -1.2308  2.0636
  877MPD2     N12923   3.908   3.925  14.831  0.3701 -0.1268 -0.7116
  877MPD2    H512924   3.856   3.888  14.752 -0.4406  0.1311 -0.2980
  877MPD2    N112925   3.926   3.933  15.323 -0.7504  0.4905  0.3418
  877MPD2    H712926   4.027   3.939  15.324 -0.8386  1.8628  0.3032
  878MPD2     C12927   3.837   3.408  13.765  0.6350  0.1671  0.3588
  878MPD2    C112928   3.728   3.346  13.703  0.5543 -0.1831 -0.0223
  878MPD2    C212929   3.631   3.294  13.783 -0.0247 -0.5232  0.4087
  878MPD2    C312930   3.648   3.300  13.924 -0.0948 -0.9937  0.8863
  878MPD2    C412931   3.769   3.346  13.983  0.4898  0.3558 -0.1493
  878MPD2    C512932   3.857   3.397  13.897  0.3814  0.5118 -0.5166
  878MPD2     H12933   3.539   3.255  13.740 -0.8201 -0.3900  1.9888
  878MPD2    H112934   3.778   3.366  14.089 -1.8120 -2.3974  0.5711
  878MPD2    H212935   3.912   3.452  13.701  1.3436  0.6992  1.5556
  878MPD2    H312936   3.942   3.446  13.942  0.6253 -0.7516  0.4245
  878MPD2     N12937   3.537   3.267  14.010 -0.1331 -0.4859  0.2003
  878MPD2    H512938   3.453   3.232  13.963 -0.2600 -0.6460  0.5430
  878MPD2    N112939   3.738   3.326  13.564 -0.3468 -0.1384  0.1214
  878MPD2    H712940   3.813   3.374  13.515 -0.4551  0.7503  0.8154
  879MPD2     C12941   3.975   4.630  16.731 -0.3028  0.1365  0.4666
  879MPD2    C112942   3.983   4.508  16.797 -0.0795  0.4458  0.8612
  879MPD2    C212943   3.883   4.418  16.783 -0.3549 -0.5353 -0.2391
  879MPD2    C312944   3.769   4.461  16.711  0.1309 -0.1645  0.5922
  879MPD2    C412945   3.767   4.581  16.646 -0.0182  0.4665 -0.1575
  879MPD2    C512946   3.865   4.668  16.664  0.6233  0.4898  0.8006
  879MPD2     H12947   3.880   4.323  16.835 -2.9812  0.3178  1.1975
  879MPD2    H112948   3.682   4.606  16.584  0.8434 -1.4346 -2.1110
  879MPD2    H212949   4.051   4.703  16.754 -0.6194  0.5607  0.1740
  879MPD2    H312950   3.842   0.031  16.627 -1.5860  0.3303  1.7464
  879MPD2     N12951   3.661   4.380  16.689  0.1868  0.0729 -0.5756
  879MPD2    H512952   3.596   4.400  16.615 -0.8204 -2.3360 -0.3400
  879MPD2    N112953   4.100   4.481  16.864  0.4073  0.0525  0.0128
  879MPD2    H712954   4.175   4.548  16.847 -0.2366  0.2754 -1.9550
  880MPD2     C12955   0.571   1.062   0.111 -0.4602 -0.2925 -0.7541
  880MPD2    C112956   0.659   1.110   0.204 -0.5922  0.3771  0.0759
  880MPD2    C212957   0.758   1.026   0.247  0.0173 -0.2577 -0.6510
  880MPD2    C312958   0.770   0.891   0.207  0.7665 -0.0170  0.6098
  880MPD2    C412959   0.672   0.843   0.124  0.7255 -0.3272 -0.4123
  880MPD2    C512960   0.575   0.925   0.069  0.0881 -0.0138  0.6245
  880MPD2     H12961   0.841   1.061   0.307 -1.6809  0.9496  0.9671
  880MPD2    H112962   0.670   0.737   0.102  2.8894  0.1098 -2.7188
  880MPD2    H212963   0.492   1.122   0.067  1.2721  1.4134 -1.5376
  880MPD2    H312964   0.505   0.889  17.738  0.2610  0.0458  0.4324
  880MPD2     N12965   0.866   0.813   0.266 -0.1859  0.3879 -0.0572
  880MPD2    H512966   0.913   0.860   0.343  0.0486  0.7580 -0.4275
  880MPD2    N112967   0.652   1.244   0.251 -0.2519 -0.6244  0.0641
  880MPD2    H712968   0.577   1.298   0.209  0.5911 -1.1073 -2.0550
  881MPD2     C12969   0.782   2.106  17.548  0.2179 -0.6779  1.1584
  881MPD2    C112970   0.799   1.973  17.517  0.4430 -0.2183 -0.1070
  881MPD2    C212971   0.801   1.885  17.623  0.1178 -0.2414 -0.1182
  881MPD2    C312972   0.772   1.924   0.009  0.5471 -0.3474 -0.2495
  881MPD2    C412973   0.739   2.056   0.032 -0.2040 -0.3773  0.0259
  881MPD2    C512974   0.740   2.146  17.670 -0.2424 -0.1580 -0.3580
  881MPD2     H12975   0.851   1.789  17.610  0.7606  0.1668 -0.6717
  881MPD2    H112976   0.709   2.092   0.130  2.6462 -1.3246  1.2297
  881MPD2    H212977   0.784   2.185  17.474 -0.4505 -1.2740  0.5090
  881MPD2    H312978   0.713   2.248  17.693 -2.0006 -0.7107 -0.0021
  881MPD2     N12979   0.778   1.834   0.114 -0.3574  0.3187  0.5292
  881MPD2    H512980   0.750   1.876   0.202 -1.3436  0.2057  0.2641
  881MPD2    N112981   0.837   1.945  17.388 -0.0346 -0.2916  0.2254
  881MPD2    H712982   0.857   2.025  17.329  1.3346  0.0613  1.1556
  882MPD2     C12983   3.863   3.776  14.016  0.9277  1.0673  0.1421
  882MPD2    C112984   3.835   3.823  14.142  0.2258 -0.3659  0.0852
  882MPD2    C212985   3.711   3.820  14.198  0.6270  0.2582 -0.0403
  882MPD2    C312986   3.606   3.757  14.126 -0.2272 -1.2158  0.4160
  882MPD2    C412987   3.634   3.700  14.002 -0.7297  0.3356  0.0556
  882MPD2    C512988   3.762   3.718  13.945  0.6329  0.0323 -0.1982
  882MPD2     H12989   3.696   3.846  14.302  1.5241  0.9074 -0.0718
  882MPD2    H112990   3.557   3.645  13.949 -1.8757  3.3167 -1.3422
  882MPD2    H212991   3.965   3.792  13.980  1.0051 -1.7150 -0.8923
  882MPD2    H312992   3.793   3.664  13.857 -0.2562 -0.0040 -0.4910
  882MPD2     N12993   3.472   3.743  14.161 -0.1284  0.4327  0.0489
  882MPD2    H512994   3.410   3.686  14.104  3.3818 -4.0695  0.6323
  882MPD2    N112995   3.944   3.866  14.219 -0.5547 -0.5946  0.5129
  882MPD2    H712996   4.037   3.837  14.192  0.1096  1.7287  0.2731
  883MPD2     C12997   1.093   3.473  16.183 -0.5866  0.1775  0.3645
  883MPD2    C112998   1.116   3.557  16.080 -0.1589  0.7892  0.2983
  883MPD2    C212999   1.196   3.668  16.104 -0.5123  0.5672  0.0789
  883MPD2    C313000   1.241   3.697  16.235 -0.4639  0.2858  0.1714
  883MPD2    C413001   1.201   3.617  16.343 -0.2702  0.3367  0.3475
  883MPD2    C513002   1.130   3.502  16.316  0.2108  0.6177 -0.0348
  883MPD2     H13003   1.217   3.729  16.017  0.4502 -1.5280 -1.1232
  883MPD2    H113004   1.234   3.635  16.445  2.0349 -0.3389 -0.2776
  883MPD2    H213005   1.034   3.383  16.169  0.9044 -0.1213 -3.9540
  883MPD2    H313006   1.097   3.440  16.398  1.3771  1.3476  0.9714
  883MPD2     N13007   1.333   3.806  16.238  0.0209  0.7605  0.2743
  883MPD2    H513008   1.349   3.847  16.146 -0.9770 -1.5044 -0.8946
  883MPD2    N113009   1.065   3.548  15.946  0.1816  0.2233 -0.2358
  883MPD2    H713010   1.105   3.614  15.880 -0.8366  0.9342 -0.1338
  884MPD2     C13011   3.251   4.410  15.093  0.6973 -0.1389 -0.9313
  884MPD2    C113012   3.221   4.514  15.004  0.3053  0.1050 -0.2459
  884MPD2    C213013   3.096   4.559  14.988 -0.1013  0.5851 -0.2616
  884MPD2    C313014   2.995   4.503  15.061 -0.6104 -0.4191  0.6537
  884MPD2    C413015   3.023   4.405  15.155 -0.7018 -0.1378  0.1092
  884MPD2    C513016   3.150   4.355  15.172  0.2630 -0.0540  0.2985
  884MPD2     H13017   3.079   4.635  14.913  0.5005  0.8336 -0.1480
  884MPD2    H113018   2.950   4.363  15.223 -0.6732  1.4609  1.1401
  884MPD2    H213019   3.350   4.366  15.094  1.0139  0.5936  0.5073
  884MPD2    H313020   3.170   4.282  15.249  2.4520  1.5429  1.2153
  884MPD2     N13021   2.866   4.557  15.038  0.0118 -0.0136 -0.2629
  884MPD2    H513022   2.849   4.633  14.973  0.4079  1.0640  0.9086
  884MPD2    N113023   3.312   4.585  14.926  0.2743 -0.1427 -0.0102
  884MPD2    H713024   3.286   4.656  14.858  1.0632 -0.0234 -0.1868
  885MPD2     C13025   1.412   0.306  17.688 -1.2343 -0.0449 -0.0616
  885MPD2    C113026   1.446   0.182  17.657 -0.6499 -0.8571  0.2930
  885MPD2    C213027   1.462   0.152  17.527  0.5331 -0.6029 -0.8516
  885MPD2    C313028   1.422   0.239  17.428  0.8054 -0.4018 -0.3272
  885MPD2    C413029   1.382   0.364  17.459 -0.2508  0.2743  0.2129
  885MPD2    C513030   1.385   0.397  17.590  0.3969  0.4340  0.4204
  885MPD2     H13031   1.512   0.058  17.506 -1.4248 -2.1050  1.2667
  885MPD2    H113032   1.369   0.445  17.388 -0.7821 -0.1683 -0.1949
  885MPD2    H213033   1.400   0.346   0.045  1.3444 -2.1015  1.0623
  885MPD2    H313034   1.361   0.501  17.611 -0.6907  0.2604  0.0196
  885MPD2     N13035   1.435   0.202  17.291  0.3215 -0.0324 -0.0725
  885MPD2    H513036   1.492   0.122  17.268 -1.3718 -1.1785 -0.3199
  885MPD2    N113037   1.444   0.096   0.019  0.1639  0.0670 -0.4585
  885MPD2    H713038   1.419   0.142   0.106  3.5423  1.2480 -0.1022
  886MPD2     C13039   2.704   2.876  14.954  0.5643  0.0295  0.3824
  886MPD2    C113040   2.739   2.911  15.079  0.9652  0.2507  0.6281
  886MPD2    C213041   2.672   3.016  15.131  0.1085 -0.1369 -0.4910
  886MPD2    C313042   2.574   3.078  15.057  0.0750  0.3349  0.3192
  886MPD2    C413043   2.536   3.029  14.932 -0.6360  0.2699 -0.2750
  886MPD2    C513044   2.604   2.926  14.882 -0.1400 -0.7163 -0.5392
  886MPD2     H13045   2.711   3.051  15.226  1.4111 -2.8354 -0.0447
  886MPD2    H113046   2.460   3.076  14.870 -0.9716  1.6664  1.1967
  886MPD2    H213047   2.762   2.808  14.893 -1.3563 -0.9768 -0.3376
  886MPD2    H313048   2.580   2.881  14.786 -0.0812  2.4561 -2.0591
  886MPD2     N13049   2.534   3.205  15.096  0.5298 -0.0543  0.3030
  886MPD2    H513050   2.485   3.262  15.027  0.2659 -0.3431  0.2527
  886MPD2    N113051   2.850   2.853  15.149  0.0015  0.0232 -0.1351
  886MPD2    H713052   2.861   2.888  15.243  3.7229  0.4303 -0.7217
  887MPD2     C13053   3.402   3.067  15.572 -0.6585  0.3480  0.0774
  887MPD2    C113054   3.298   3.072  15.486 -0.2342  0.0514 -0.2923
  887MPD2    C213055   3.236   3.192  15.464 -0.0005 -0.8214  1.0203
  887MPD2    C313056   3.289   3.309  15.513 -0.0148 -0.0801  0.0785
  887MPD2    C413057   3.401   3.307  15.599 -0.2990 -0.6366 -0.3080
  887MPD2    C513058   3.454   3.181  15.617 -0.3123 -0.0270  0.1309
  887MPD2     H13059   3.147   3.181  15.404  0.7811 -1.3643 -0.0376
  887MPD2    H113060   3.446   3.394  15.646  0.6743 -1.4252  0.2107
  887MPD2    H213061   3.445   2.972  15.601 -0.5503  0.7547  1.2469
  887MPD2    H313062   3.540   3.167  15.680 -0.7169  2.3211  1.1843
  887MPD2     N13063   3.223   3.427  15.482  0.0730  0.0853 -0.0806
  887MPD2    H513064   3.124   3.430  15.464 -0.2384  0.5265  1.7114
  887MPD2    N113065   3.229   2.965  15.431  0.3285 -0.0520 -0.4077
  887MPD2    H713066   3.170   2.986  15.351 -2.2340  2.1743  2.0806
  888MPD2     C13067   4.659   3.383  14.601 -0.7249  0.0523 -0.3566
  888MPD2    C113068   4.673   3.397  14.737  0.0848  0.0152 -0.0856
  888MPD2    C213069   0.024   3.486  14.790 -0.6200 -0.0785 -0.6274
  888MPD2    C313070   0.101   3.559  14.701 -0.0783 -0.1794  0.0304
  888MPD2    C413071   0.102   3.530  14.563 -0.4892  0.5638 -0.4401
  888MPD2    C513072   0.015   3.442  14.514 -0.1587  0.8199 -0.0739
  888MPD2     H13073   0.034   3.502  14.896 -1.3065 -0.1671 -0.5485
  888MPD2    H113074   0.165   3.575  14.487 -0.7456  2.2256  0.3272
  888MPD2    H213075   4.584   3.318  14.557 -0.4960 -1.5249  1.5782
  888MPD2    H313076   0.000   3.429  14.407 -0.3762 -4.1060  0.5609
  888MPD2     N13077   0.183   3.660  14.756  0.2803  0.4683  0.3553
  888MPD2    H513078   0.164   3.678  14.854 -0.3070 -2.3759  0.7521
  888MPD2    N113079   4.590   3.324  14.828 -0.3881  0.1117 -0.4751
  888MPD2    H713080   4.613   3.336  14.927 -1.2993  1.0120 -0.3720
  889MPD2     C13081   3.892   3.037  13.090 -0.3566 -0.0273 -0.0727
  889MPD2    C113082   3.966   3.040  13.209 -0.8691  0.1092 -0.5333
  889MPD2    C213083   4.061   3.141  13.223  0.2920 -0.2429  0.7340
  889MPD2    C313084   4.096   3.232  13.123  1.4690  0.3984 -0.6744
  889MPD2    C413085   3.999   3.249  13.019  1.4446  0.3584  0.4254
  889MPD2    C513086   3.901   3.147  13.009 -0.1877  0.3475 -0.9226
  889MPD2     H13087   4.139   3.134  13.298  1.1264  0.4262 -0.0789
  889MPD2    H113088   4.003   3.333  12.951 -0.0895  0.5686  0.6042
  889MPD2    H213089   3.813   2.963  13.085 -0.0178 -0.1251 -3.8337
  889MPD2    H313090   3.831   3.163  12.928  0.6654  2.2434 -1.2923
  889MPD2     N13091   4.213   3.310  13.142 -0.9148  0.1281 -0.4699
  889MPD2    H513092   4.260   3.280  13.227 -3.3373  3.1859  1.9677
  889MPD2    N113093   3.983   2.931  13.290 -0.5097 -0.1592 -0.3168
  889MPD2    H713094   4.062   2.936  13.354 -0.1068 -0.4831 -0.7886
  890MPD2     C13095   4.042   4.385  14.378 -0.3160 -0.0781 -0.2944
  890MPD2    C113096   4.148   4.446  14.449 -0.0212  0.4848  0.5550
  890MPD2    C213097   4.164   4.417  14.583  0.5394 -0.3198  0.3968
  890MPD2    C313098   4.061   4.349  14.648 -0.5105 -0.4672  0.0147
  890MPD2    C413099   3.959   4.291  14.578 -0.6613  0.0857  0.1837
  890MPD2    C513100   3.947   4.315  14.442  0.1559  0.3031  0.9455
  890MPD2     H13101   4.235   4.465  14.649 -0.4809  0.7469  0.7158
  890MPD2    H113102   3.877   4.239  14.627 -0.2033 -0.3851  0.4482
  890MPD2    H213103   4.006   4.410  14.279  0.2566  1.1491 -0.2028
  890MPD2    H313104   3.856   4.282  14.392 -0.2754  1.0033  1.2828
  890MPD2     N13105   4.080   4.333  14.781 -0.0471 -0.2727  0.1388
  890MPD2    H513106   4.161   4.384  14.815 -1.1252  1.7833 -0.3885
  890MPD2    N113107   4.232   4.540  14.385 -0.1947 -0.1168 -0.9748
  890MPD2    H713108   4.203   4.567  14.292 -0.1657 -0.8269 -1.1846
  891MPD2     C13109   2.112   3.226  16.194  0.8996  0.3884  0.0223
  891MPD2    C113110   2.024   3.175  16.284  0.1578  0.3988 -0.7851
  891MPD2    C213111   2.076   3.094  16.387  0.3400 -0.1886 -0.5288
  891MPD2    C313112   2.219   3.083  16.406 -0.3879  0.4797  0.2632
  891MPD2    C413113   2.300   3.134  16.312  0.5063  0.5872  0.0812
  891MPD2    C513114   2.250   3.210  16.206 -0.6280 -0.7003  0.1127
  891MPD2     H13115   2.016   3.037  16.457  2.8625 -2.2083 -0.0356
  891MPD2    H113116   2.407   3.119  16.322  0.6117  2.6083  2.2033
  891MPD2    H213117   2.075   3.282  16.108 -1.8054 -1.2302  0.1296
  891MPD2    H313118   2.320   3.251  16.135 -0.2440  1.0351  1.5050
  891MPD2     N13119   2.262   3.030  16.528 -0.0126 -0.3262 -0.1609
  891MPD2    H513120   2.188   2.990  16.585  0.4201  0.0340  0.6577
  891MPD2    N113121   1.891   3.202  16.255 -0.3842 -0.1964 -0.3879
  891MPD2    H713122   1.861   3.244  16.167 -0.3565 -0.1677 -0.3836
  892MPD2     C13123   3.028   3.957  15.049 -0.3102 -0.0663  0.7543
  892MPD2    C113124   2.949   3.953  14.936 -0.2751 -0.2559  0.0681
  892MPD2    C213125   2.991   3.891  14.819  0.7705 -0.1536  0.3843
  892MPD2    C313126   3.110   3.823  14.816 -0.0217  0.4088 -0.1977
  892MPD2    C413127   3.186   3.826  14.924  0.1221 -0.2988  0.0836
  892MPD2    C513128   3.153   3.887  15.039 -0.5793  0.2173 -0.0850
  892MPD2     H13129   2.933   3.904  14.728 -0.2215 -1.3252  0.8436
  892MPD2    H113130   3.285   3.785  14.912 -0.2258 -1.4741  1.2775
  892MPD2    H213131   3.006   4.011  15.141  1.1903  0.5174  0.7704
  892MPD2    H313132   3.230   3.889  15.116 -0.3429 -0.5328 -0.3026
  892MPD2     N13133   3.159   3.763  14.698 -0.1612 -0.6926 -0.7569
  892MPD2    H513134   3.258   3.755  14.678  0.2890  2.2848  0.3461
  892MPD2    N113135   2.841   4.037  14.941  0.4486 -0.1036  0.1862
  892MPD2    H713136   2.812   4.078  15.029 -1.2023 -0.5572 -0.1592
  893MPD2     C13137   4.410   2.397   1.648  0.1606 -0.1527  0.7057
  893MPD2    C113138   4.400   2.333   1.531  0.1592  0.3753 -0.0138
  893MPD2    C213139   4.278   2.295   1.486 -0.0117 -0.5997  0.0455
  893MPD2    C313140   4.169   2.301   1.576 -0.2514  0.1340 -0.8593
  893MPD2    C413141   4.186   2.347   1.707 -0.8773  0.6560 -0.3550
  893MPD2    C513142   4.303   2.401   1.739 -0.2227 -0.2659 -0.3569
  893MPD2     H13143   4.268   2.258   1.385 -0.5586  1.1974 -0.5485
  893MPD2    H113144   4.112   2.337   1.785  0.3738  3.0328  1.1308
  893MPD2    H213145   4.503   2.424   1.696 -0.2848  0.9079  0.9795
  893MPD2    H313146   4.324   2.421   1.844 -0.3550  1.6464 -0.6802
  893MPD2     N13147   4.042   2.241   1.557 -0.6291  0.2951  0.0723
  893MPD2    H513148   3.974   2.234   1.632  0.5569  1.7034  1.2909
  893MPD2    N113149   4.524   2.317   1.454 -0.3918 -0.2306 -0.3860
  893MPD2    H713150   4.612   2.346   1.496 -0.7426  1.5918 -0.9057
  894MPD2     C13151   2.765   4.219   0.779  0.0842  0.1892  0.0166
  894MPD2    C113152   2.786   4.333   0.856  0.3601 -0.3540  0.5012
  894MPD2    C213153   2.840   4.449   0.790  0.4790 -0.2649 -0.1805
  894MPD2    C313154   2.890   4.445   0.661  0.0663 -0.6496 -0.3769
  894MPD2    C413155   2.892   4.326   0.596  0.0330 -0.2255  0.0210
  894MPD2    C513156   2.832   4.221   0.656  0.2765 -0.4033  0.2074
  894MPD2     H13157   2.839   4.548   0.835  2.3128  0.1375 -1.0109
  894MPD2    H113158   2.932   4.309   0.497 -2.3131  0.1071 -1.0018
  894MPD2    H213159   2.725   4.128   0.820  0.2279  0.2035  0.1845
  894MPD2    H313160   2.844   4.135   0.590  2.3028  1.3796 -1.7735
  894MPD2     N13161   2.937   4.566   0.614 -0.3058  0.1362  0.3440
  894MPD2    H513162   2.911   4.652   0.661 -1.6114 -1.0316  1.7388
  894MPD2    N113163   2.749   4.341   0.989 -0.2536 -0.2242 -0.4068
  894MPD2    H713164   2.757   4.430   1.038  0.5330 -1.3364  1.4538
  895MPD2     C13165   2.011   2.696  13.306  1.0267  0.6516 -0.1484
  895MPD2    C113166   1.909   2.689  13.211  0.0550  0.7177  0.0025
  895MPD2    C213167   1.896   2.589  13.128  0.1965  0.0247  0.1791
  895MPD2    C313168   1.978   2.479  13.144  0.0892 -1.0347 -0.5889
  895MPD2    C413169   2.068   2.474  13.247  0.0611  0.2977 -0.4313
  895MPD2    C513170   2.087   2.585  13.326  0.1904  0.0406  0.5122
  895MPD2     H13171   1.804   2.583  13.070  1.3721 -0.7167 -1.5993
  895MPD2    H113172   2.132   2.392  13.275 -1.5327 -0.8713 -0.2041
  895MPD2    H213173   2.022   2.779  13.375 -0.7482  0.9967 -0.2714
  895MPD2    H313174   2.158   2.581  13.408  0.2516 -1.9599  0.3607
  895MPD2     N13175   1.962   2.373  13.060  0.8613 -0.3587 -0.1191
  895MPD2    H513176   2.019   2.292  13.083 -0.3666 -1.1602  0.1129
  895MPD2    N113177   1.814   2.792  13.189 -0.1470 -0.2732 -0.1828
  895MPD2    H713178   1.737   2.765  13.129 -0.7806 -2.1027  1.4220
  896MPD2     C13179   0.616   0.194   1.215  0.1389  0.2480  0.0387
  896MPD2    C113180   0.529   0.300   1.235  0.1080  0.0573 -0.3245
  896MPD2    C213181   0.405   0.275   1.292 -0.4265  0.2645 -0.1302
  896MPD2    C313182   0.367   0.137   1.326  0.5008 -0.1387  0.1765
  896MPD2    C413183   0.466   0.040   1.316  0.2105  0.1500  0.1811
  896MPD2    C513184   0.587   0.068   1.265  0.2250  0.1484 -0.2509
  896MPD2     H13185   0.338   0.359   1.309 -1.1710 -0.6508  1.4673
  896MPD2    H113186   0.451   4.674   1.349  2.3587 -0.9312 -2.1619
  896MPD2    H213187   0.711   0.197   1.162  1.1473  1.2545  1.8842
  896MPD2    H313188   0.652   4.726   1.229 -0.3591 -0.7997  0.7411
  896MPD2     N13189   0.235   0.118   1.370 -0.0231  0.3917  0.4348
  896MPD2    H513190   0.174   0.199   1.365  0.5082  0.8581  1.4686
  896MPD2    N113191   0.566   0.417   1.175 -0.2405  0.4739 -0.0112
  896MPD2    H713192   0.653   0.409   1.124 -0.0237  1.2321  0.2354
  897MPD2     C13193   0.684   2.779  10.121 -0.1264 -0.4223 -0.4379
  897MPD2    C113194   0.569   2.843  10.086  0.0679 -0.1121  1.1989
  897MPD2    C213195   0.466   2.848  10.175 -0.1384  0.1255 -0.8336
  897MPD2    C313196   0.466   2.783  10.294 -0.0913  0.5536  0.5258
  897MPD2    C413197   0.573   2.698  10.322 -0.0437  0.1302 -0.3416
  897MPD2    C513198   0.681   2.699  10.237 -0.3468 -0.3955  0.4794
  897MPD2     H13199   0.403   2.936  10.170 -1.4887 -0.9062 -1.6624
  897MPD2    H113200   0.578   2.636  10.411 -3.3496  0.9635  0.4182
  897MPD2    H213201   0.766   2.768  10.050  1.1384  1.6922  0.6906
  897MPD2    H313202   0.759   2.628  10.264 -0.9855 -1.2485  0.1044
  897MPD2     N13203   0.365   2.819  10.384 -0.4405 -0.8124 -0.0192
  897MPD2    H513204   0.288   2.868  10.339  1.8763  0.4106 -2.6496
  897MPD2    N113205   0.572   2.912   9.965 -0.1662 -0.1715  0.4948
  897MPD2    H713206   0.661   2.905   9.917 -0.5315  1.3655 -0.3816
  898MPD2     C13207   2.557   2.950  17.565  0.3311  0.3313 -0.1949
  898MPD2    C113208   2.614   3.018  17.463 -0.4435  0.0406 -0.1605
  898MPD2    C213209   2.562   3.145  17.436 -0.1490 -0.3259 -0.1818
  898MPD2    C313210   2.454   3.199  17.505 -0.2546 -0.1889  0.4370
  898MPD2    C413211   2.404   3.130  17.613  0.1520 -0.1728 -0.0944
  898MPD2    C513212   2.453   3.004  17.643  0.2143  0.5689  1.0828
  898MPD2     H13213   2.604   3.198  17.350  0.3189 -0.3357  0.0404
  898MPD2    H113214   2.315   3.162  17.667 -0.3181  0.2992 -1.1632
  898MPD2    H213215   2.592   2.855  17.604 -0.8595 -0.0364 -0.0209
  898MPD2    H313216   2.410   2.957  17.730 -0.3844  0.2510  0.6189
  898MPD2     N13217   2.398   3.328  17.468  0.2946  0.0834 -0.0114
  898MPD2    H513218   2.431   3.368  17.380 -0.9423  0.7567 -0.1731
  898MPD2    N113219   2.725   2.956  17.403  0.1711 -0.5028 -0.3440
  898MPD2    H713220   2.748   2.865  17.440 -2.0946 -0.7665  0.4366
  899MPD2     C13221   3.280   4.112  16.948  0.7701 -0.4507 -0.1564
  899MPD2    C113222   3.356   4.176  17.046  0.2011 -0.2545  0.2641
  899MPD2    C213223   3.361   4.117  17.177  0.3739 -0.6898 -0.9651
  899MPD2    C313224   3.287   4.000  17.202  0.2483 -0.7205 -0.2453
  899MPD2    C413225   3.226   3.930  17.096  0.3146  0.5727 -0.2561
  899MPD2    C513226   3.223   3.987  16.971  0.3373  0.8569  0.0716
  899MPD2     H13227   3.420   4.167  17.252 -2.4869 -0.4038  1.0739
  899MPD2    H113228   3.172   3.836  17.100  3.8456 -1.4628 -0.0625
  899MPD2    H213229   3.273   4.148  16.846 -1.5345 -1.1411 -0.2468
  899MPD2    H313230   3.185   3.933  16.885  0.1338 -0.0607  0.7323
  899MPD2     N13231   3.275   3.941  17.328 -0.4507 -0.6204  0.4462
  899MPD2    H513232   3.238   3.847  17.330  0.0173 -0.8195 -0.0119
  899MPD2    N113233   3.417   4.302  17.013 -0.4436 -0.6330  0.2208
  899MPD2    H713234   3.405   4.340  16.920 -0.3940  2.3553  1.4321
  900MPD2     C13235   3.058   0.718  12.734  0.6136 -0.1861  0.2497
  900MPD2    C113236   2.986   0.618  12.674  0.6026 -0.3709 -0.3720
  900MPD2    C213237   2.868   0.647  12.603  0.0341 -0.1390  0.2236
  900MPD2    C313238   2.822   0.776  12.598  0.6912  0.4120 -0.3274
  900MPD2    C413239   2.890   0.874  12.663 -0.0543 -0.7815  1.2931
  900MPD2    C513240   3.011   0.846  12.727  0.1917 -0.4391  0.1113
  900MPD2     H13241   2.809   0.568  12.559  0.3256 -2.2769  3.6977
  900MPD2    H113242   2.851   0.975  12.666  0.3134 -0.6235  0.7565
  900MPD2    H213243   3.149   0.700  12.790 -0.1752  0.6063  1.7712
  900MPD2    H313244   3.062   0.928  12.775 -0.0273 -0.5583  0.5501
  900MPD2     N13245   2.705   0.814  12.525 -0.0524  0.4127  0.1751
  900MPD2    H513246   2.654   0.736  12.485 -1.7859  1.6963 -0.1249
  900MPD2    N113247   3.030   0.485  12.674 -0.5234  0.4476 -1.0173
  900MPD2    H713248   2.983   0.420  12.612  1.1126 -1.8065  0.1221
  901MPD2     C13249   2.858   4.210  12.692 -0.2706 -0.3993 -0.2443
  901MPD2    C113250   2.988   4.228  12.655 -0.3930  0.1862  0.1675
  901MPD2    C213251   3.036   4.356  12.644  0.1189 -0.3141 -0.4083
  901MPD2    C313252   2.966   4.464  12.681  0.3521  0.1070  0.8746
  901MPD2    C413253   2.832   4.451  12.726  0.0825 -0.3557 -1.2365
  901MPD2    C513254   2.784   4.324  12.738 -0.2639 -0.0109 -0.4547
  901MPD2     H13255   3.142   4.368  12.623 -0.7483  0.7749 -4.0682
  901MPD2    H113256   2.760   4.530  12.743 -2.2960 -2.9595  0.7132
  901MPD2    H213257   2.823   4.109  12.706 -1.6625  0.2107  0.6775
  901MPD2    H313258   2.684   4.313  12.780 -0.0019  0.4892  0.2928
  901MPD2     N13259   3.017   4.593  12.660 -0.5986  0.1863 -0.0499
  901MPD2    H513260   3.108   4.583  12.616  0.6912  0.6947  2.5013
  901MPD2    N113261   3.059   4.115  12.611  0.5206 -0.0328 -0.1788
  901MPD2    H713262   3.029   4.022  12.638  1.5893 -0.8738 -1.8642
  902MPD2     C13263   2.920   3.349  12.594 -0.1233  0.1507 -0.1892
  902MPD2    C113264   2.812   3.316  12.520 -0.4871 -0.5984 -0.2896
  902MPD2    C213265   2.819   3.228  12.410  0.2151 -0.2917 -0.1236
  902MPD2    C313266   2.942   3.159  12.390 -0.2925  0.0242  0.5920
  902MPD2    C413267   3.050   3.190  12.465  0.1137 -1.0496  0.0763
  902MPD2    C513268   3.037   3.289  12.562  0.5464  0.2170 -0.9189
  902MPD2     H13269   2.735   3.199  12.348  0.2944  1.2256 -0.9384
  902MPD2    H113270   3.147   3.142  12.453 -0.3326 -2.0813  0.6018
  902MPD2    H213271   2.926   3.430  12.666 -2.1287 -2.0845  2.5138
  902MPD2    H313272   3.123   3.316  12.622  0.4971 -1.5929 -0.0465
  902MPD2     N13273   2.954   3.068  12.286  0.0844  0.4248  0.0032
  902MPD2    H513274   2.869   3.052  12.232 -0.8537  0.9219  1.3469
  902MPD2    N113275   2.693   3.389  12.560 -0.4003 -0.1450  0.4142
  902MPD2    H713276   2.708   3.457  12.634  0.7626  3.0217 -2.7011
  903MPD2     C13277   2.523   2.544  12.402 -1.0509 -0.1883  0.0381
  903MPD2    C113278   2.520   2.653  12.315  0.1481  0.2911 -0.3447
  903MPD2    C213279   2.400   2.722  12.308 -0.2341 -0.3335  0.1768
  903MPD2    C313280   2.289   2.683  12.382  0.1479  0.1496 -0.3727
  903MPD2    C413281   2.292   2.566  12.455  0.3664 -0.3522  0.5936
  903MPD2    C513282   2.415   2.510  12.475 -0.2542 -0.0897  0.5630
  903MPD2     H13283   2.389   2.804  12.239 -0.1202  0.9693  1.6910
  903MPD2    H113284   2.206   2.528  12.509 -2.3240  0.4478 -3.0946
  903MPD2    H213285   2.612   2.485  12.421 -1.1114 -0.5615 -0.8532
  903MPD2    H313286   2.424   2.435  12.553 -0.4620  1.8974  2.4716
  903MPD2     N13287   2.181   2.770  12.387  0.4266 -0.2756 -0.5264
  903MPD2    H513288   2.191   2.853  12.329  0.0482  0.8770  1.0680
  903MPD2    N113289   2.631   2.703  12.246 -0.7090  0.4827  0.7896
  903MPD2    H713290   2.637   2.797  12.208 -1.8390 -0.6003 -2.0842
  904MPD2     C13291   1.307   2.464  13.991  0.1544  0.7086 -1.0301
  904MPD2    C113292   1.411   2.552  13.993 -0.2161 -0.2349  0.5677
  904MPD2    C213293   1.536   2.504  13.980  0.4823 -0.1996 -0.5274
  904MPD2    C313294   1.562   2.369  13.968 -0.1419 -0.6767  0.5569
  904MPD2    C413295   1.460   2.287  13.991  0.0551 -0.0001  0.5110
  904MPD2    C513296   1.334   2.332  14.009  0.0290  1.1730  0.1300
  904MPD2     H13297   1.616   2.574  13.959  2.2042 -2.5327 -1.7962
  904MPD2    H113298   1.469   2.179  13.982  0.1289  0.0294  0.1933
  904MPD2    H213299   1.205   2.501  13.980  0.7631  2.4596 -0.7420
  904MPD2    H313300   1.250   2.265  14.025  1.0253  0.5179  2.5213
  904MPD2     N13301   1.688   2.326  13.916  0.7272  0.1929  0.2297
  904MPD2    H513302   1.747   2.404  13.891  0.9619 -0.4059 -1.1288
  904MPD2    N113303   1.399   2.686  13.953  0.1222 -0.1295 -0.5053
  904MPD2    H713304   1.485   2.741  13.952 -1.2841  2.0718 -2.5471
  905MPD2     C13305   1.118   2.719  13.255  0.8189 -0.8981  0.0393
  905MPD2    C113306   1.251   2.732  13.260 -0.0631  0.3855  0.5743
  905MPD2    C213307   1.338   2.668  13.171 -0.1572  0.8132  1.1079
  905MPD2    C313308   1.284   2.584  13.076 -0.0862 -0.5061 -0.4888
  905MPD2    C413309   1.143   2.571  13.070  0.6649  0.3142  0.8469
  905MPD2    C513310   1.064   2.638  13.162 -0.5897  0.0601  0.3081
  905MPD2     H13311   1.446   2.674  13.182 -0.2712  1.0086  2.1314
  905MPD2    H113312   1.097   2.509  12.994  2.9430  0.0683 -0.3490
  905MPD2    H213313   1.047   2.751  13.330  0.5301  0.9103 -1.0019
  905MPD2    H313314   0.957   2.621  13.165 -0.8845  1.7609 -0.6100
  905MPD2     N13315   1.357   2.503  12.987  0.2141 -0.3037  0.6405
  905MPD2    H513316   1.305   2.432  12.937 -0.4764 -0.1268  1.1142
  905MPD2    N113317   1.290   2.799  13.381  0.4336  0.3272 -0.1245
  905MPD2    H713318   1.215   2.826  13.444  1.4542  1.5474  0.5698
  906MPD2     C13319   4.038   3.141  10.928 -0.6526 -0.4524 -0.0417
  906MPD2    C113320   4.032   3.016  10.868 -0.7281  0.0566 -0.2079
  906MPD2    C213321   4.023   2.907  10.946  0.2867 -0.2138  0.0500
  906MPD2    C313322   4.033   2.915  11.086  0.0962 -0.0260  1.1256
  906MPD2    C413323   4.042   3.041  11.145  0.1393 -0.1810 -0.1938
  906MPD2    C513324   4.048   3.145  11.063 -0.5592 -0.2383 -0.1208
  906MPD2     H13325   4.016   2.806  10.907  0.7965  0.2555 -1.2634
  906MPD2    H113326   4.057   3.052  11.252  1.9789 -1.9443 -0.2779
  906MPD2    H213327   4.043   3.237  10.877 -0.2644 -1.4222 -1.8032
  906MPD2    H313328   4.072   3.239  11.112  2.5433 -0.1058 -1.9056
  906MPD2     N13329   4.034   2.807  11.173 -0.6607 -0.3730 -0.0547
  906MPD2    H513330   4.017   2.825  11.272 -1.1448  0.5790 -0.3031
  906MPD2    N113331   4.013   2.997  10.728  0.0872  0.6516  0.3091
  906MPD2    H713332   3.996   2.906  10.687  0.3696  1.2148 -1.0510
  907MPD2     C13333   2.702   1.881  15.261 -0.5697 -0.1983 -0.0479
  907MPD2    C113334   2.780   1.783  15.201  0.0360 -0.4361 -0.4687
  907MPD2    C213335   2.874   1.719  15.279  0.5232 -0.0524  0.0654
  907MPD2    C313336   2.882   1.732  15.411  0.0929 -0.2381 -0.5731
  907MPD2    C413337   2.808   1.827  15.471  0.0573 -0.0049  0.2945
  907MPD2    C513338   2.701   1.891  15.398 -0.8868 -0.1163 -0.4075
  907MPD2     H13339   2.929   1.637  15.234 -0.2186  0.1262 -1.1958
  907MPD2    H113340   2.810   1.848  15.577 -0.4785 -0.0836  0.3197
  907MPD2    H213341   2.624   1.935  15.209 -1.8356 -0.8585  1.1709
  907MPD2    H313342   2.642   1.968  15.446 -0.2416 -0.4759  0.9434
  907MPD2     N13343   2.989   1.668  15.471 -0.0634  0.3049  0.1069
  907MPD2    H513344   3.046   1.606  15.415 -1.1582  0.8330 -1.5692
  907MPD2    N113345   2.774   1.733  15.071 -0.0482 -0.6555  0.0944
  907MPD2    H713346   2.829   1.651  15.051  1.4840  0.1662  0.9102
  908MPD2     C13347   4.530   3.256   9.450  0.1730 -0.6128 -0.9021
  908MPD2    C113348   4.589   3.139   9.415 -0.0489  0.1197 -0.1980
  908MPD2    C213349   4.718   3.120   9.454 -0.3770  0.6798  0.2640
  908MPD2    C313350   0.054   3.221   9.516  0.2357 -0.3844 -0.2308
  908MPD2    C413351   4.736   3.349   9.530 -0.0435 -0.2336  0.0137
  908MPD2    C513352   4.601   3.359   9.503  0.4447  0.1763 -0.2142
  908MPD2     H13353   0.038   3.028   9.451  0.5085  1.3428 -4.5403
  908MPD2    H113354   0.055   3.434   9.569  2.3370 -1.0877 -1.5114
  908MPD2    H213355   4.423   3.265   9.440  0.0383 -1.5103 -0.2623
  908MPD2    H313356   4.548   3.452   9.522  0.9691  0.1614  1.3342
  908MPD2     N13357   0.188   3.189   9.560  0.0411 -0.3865 -0.1292
  908MPD2    H513358   0.213   3.092   9.548  0.2958 -0.7311  3.1987
  908MPD2    N113359   4.511   3.045   9.339  0.2362 -0.6481  0.6171
  908MPD2    H713360   4.415   3.066   9.314  1.4333  1.2656 -2.3842
  909MPD2     C13361   0.401   1.265  12.065 -0.5479 -1.0660  0.3658
  909MPD2    C113362   0.430   1.377  11.983  0.4839  0.5330 -0.2519
  909MPD2    C213363   0.384   1.502  12.030 -0.0182  0.1939 -0.1755
  909MPD2    C313364   0.323   1.516  12.154  0.6423  0.2667 -0.1802
  909MPD2    C413365   0.293   1.405  12.231 -0.3753  0.7984  0.4350
  909MPD2    C513366   0.320   1.281  12.172 -0.4908  0.4501  0.0333
  909MPD2     H13367   0.406   1.588  11.969  1.2105 -1.1301 -1.5775
  909MPD2    H113368   0.261   1.419  12.334  0.1760  0.5631  0.6359
  909MPD2    H213369   0.424   1.161  12.044 -1.1827 -1.0638 -0.3499
  909MPD2    H313370   0.306   1.189  12.227  0.5886 -0.1086 -0.6409
  909MPD2     N13371   0.295   1.650  12.199  0.2184 -0.0858 -0.2734
  909MPD2    H513372   0.309   1.717  12.124 -1.3995  1.8203  1.1461
  909MPD2    N113373   0.490   1.374  11.855  0.0061  0.1803  0.5898
  909MPD2    H713374   0.493   1.461  11.802  2.9512  0.9714  2.0351
  910MPD2     C13375   2.451   2.694  16.191  0.8535  0.3611  0.2929
  910MPD2    C113376   2.441   2.582  16.109  0.0069 -0.1025 -0.1173
  910MPD2    C213377   2.402   2.585  15.976 -1.0429  0.2329 -0.7988
  910MPD2    C313378   2.355   2.709  15.928 -0.0699  0.2448 -0.4182
  910MPD2    C413379   2.348   2.819  16.015  0.3436  0.6749 -0.1734
  910MPD2    C513380   2.392   2.812  16.140 -0.0651  0.0527 -0.4143
  910MPD2     H13381   2.395   2.493  15.919 -4.1592  0.2198 -0.3831
  910MPD2    H113382   2.314   2.916  15.979  0.7852  0.2518 -1.7336
  910MPD2    H213383   2.484   2.701  16.294 -3.3674 -0.5881  1.7320
  910MPD2    H313384   2.393   2.905  16.195 -0.2528 -1.2066  1.7293
  910MPD2     N13385   2.302   2.729  15.804 -0.6812 -0.2648  0.0444
  910MPD2    H513386   2.283   2.826  15.782 -0.7434 -0.1567  0.5919
  910MPD2    N113387   2.480   2.461  16.155  0.6901 -0.0368 -0.5644
  910MPD2    H713388   2.465   2.380  16.095  2.7768  0.6280 -1.9641
  911MPD2     C13389   0.192   2.944  16.010 -0.3010  0.7259 -0.1646
  911MPD2    C113390   0.211   3.015  16.127  0.0062 -0.2784  0.2655
  911MPD2    C213391   0.121   3.105  16.168  0.1510  0.5213 -0.4277
  911MPD2    C313392   4.731   3.115  16.101 -0.1698 -0.4548 -0.0665
  911MPD2    C413393   4.710   3.039  15.988 -0.2068  0.0370 -0.0001
  911MPD2    C513394   0.071   2.951  15.953  0.4510  0.2646  0.3302
  911MPD2     H13395   0.136   3.160  16.260 -0.8907  0.3565 -0.1585
  911MPD2    H113396   4.626   3.047  15.919 -0.7100 -2.4184  0.3333
  911MPD2    H213397   0.258   2.866  15.972 -3.2485 -1.7755 -0.1317
  911MPD2    H313398   0.060   2.885  15.868  0.0174 -0.7567  1.1711
  911MPD2     N13399   4.638   3.214  16.138 -0.2309  0.7788 -0.4101
  911MPD2    H513400   4.553   3.212  16.083 -0.8646  0.6736  0.5621
  911MPD2    N113401   0.334   2.980  16.191 -0.1971 -0.2493 -0.1218
  911MPD2    H713402   0.393   2.922  16.134  0.5269  0.1419  0.2314
  912MPD2     C13403   4.204   3.277  15.647 -0.6341 -0.5994 -0.0509
  912MPD2    C113404   4.272   3.222  15.757  0.3663 -0.0976  0.0072
  912MPD2    C213405   4.327   3.095  15.756 -0.6687 -0.1470  0.0648
  912MPD2    C313406   4.328   3.019  15.638  0.0462 -0.4074 -0.1082
  912MPD2    C413407   4.276   3.078  15.522 -0.2572 -0.6232  0.0824
  912MPD2    C513408   4.224   3.208  15.533 -0.0964 -0.2626  0.0291
  912MPD2     H13409   4.381   3.056  15.841 -0.1068 -1.4657 -0.8857
  912MPD2    H113410   4.270   3.025  15.427  3.3140 -1.3422  0.2881
  912MPD2    H213411   4.169   3.380  15.652  3.5231  0.7916  0.3037
  912MPD2    H313412   4.186   3.260  15.446  2.2937  3.2192  1.0367
  912MPD2     N13413   4.389   2.896  15.648  0.0841 -0.3174 -0.1088
  912MPD2    H513414   4.406   2.866  15.743  3.9909  2.9133  0.1874
  912MPD2    N113415   4.274   3.311  15.869  0.4271  0.8263  0.2069
  912MPD2    H713416   4.228   3.401  15.857 -0.6068  0.0263 -1.7117
  913MPD2     C13417   0.820   4.255  10.354  0.5548  0.1969 -0.7469
  913MPD2    C113418   0.841   4.313  10.474  0.0760 -0.7644  0.1538
  913MPD2    C213419   0.800   4.444  10.482 -0.0535 -0.0902  0.0684
  913MPD2    C313420   0.740   4.519  10.375  0.6320  0.4055  0.0347
  913MPD2    C413421   0.726   4.457  10.251  0.1303  0.2431  0.1144
  913MPD2    C513422   0.752   4.320  10.252 -0.2754  0.5266  0.1881
  913MPD2     H13423   0.810   4.502  10.573  0.5199  0.1441 -0.1471
  913MPD2    H113424   0.678   4.500  10.165  0.4089  0.9672  0.3196
  913MPD2    H213425   0.856   4.154  10.339  0.0351 -0.1018 -0.0060
  913MPD2    H313426   0.732   4.266  10.161 -0.3934  1.1119 -0.1362
  913MPD2     N13427   0.710   4.642  10.401  0.0024  0.1041  0.3493
  913MPD2    H513428   0.714   4.667  10.499  1.0876  0.1750  0.2860
  913MPD2    N113429   0.885   4.234  10.582 -0.2042 -0.2735  0.6669
  913MPD2    H713430   0.912   4.140  10.554 -0.6839 -0.3334  0.4093
  914MPD2     C13431   3.684   4.457  12.155 -0.5922  0.0151 -0.0475
  914MPD2    C113432   3.567   4.481  12.218  0.0480 -0.2629  0.2164
  914MPD2    C213433   3.495   4.372  12.262  0.1996  0.3319 -0.0802
  914MPD2    C313434   3.528   4.243  12.225  0.3945 -0.0034 -0.0059
  914MPD2    C413435   3.644   4.230  12.152 -0.1483 -0.1101  0.7294
  914MPD2    C513436   3.719   4.334  12.113 -0.0229  0.4297 -0.5553
  914MPD2     H13437   3.409   4.394  12.324  2.1612  0.5033  2.5879
  914MPD2    H113438   3.680   4.136  12.112 -0.4944 -0.7724  2.0014
  914MPD2    H213439   3.753   4.530  12.116  0.0860 -0.3894  0.3781
  914MPD2    H313440   3.810   4.308  12.061 -0.4184  0.4422 -1.2523
  914MPD2     N13441   3.443   4.140  12.261  0.1435  0.0559  0.4462
  914MPD2    H513442   3.361   4.165  12.315  1.6527  2.6427  1.5052
  914MPD2    N113443   3.549   4.617  12.257  0.4709  0.0411  0.3478
  914MPD2    H713444   3.625   4.683  12.246  1.6035 -1.2854  0.0931
  915MPD2     C13445   1.580   4.385  15.148 -0.1380  0.0699  0.0531
  915MPD2    C113446   1.493   4.481  15.121 -0.1900 -0.6718 -0.2976
  915MPD2    C213447   1.429   4.550  15.225 -0.1728 -0.3901 -1.0734
  915MPD2    C313448   1.459   4.518  15.357  0.0894 -0.5319 -0.3235
  915MPD2    C413449   1.558   4.436  15.385 -0.0741  0.2209 -0.1427
  915MPD2    C513450   1.606   4.368  15.279  0.0226 -0.0714  0.0901
  915MPD2     H13451   1.346   4.618  15.210  0.4953  0.8084  0.6115
  915MPD2    H113452   1.595   4.431  15.486 -1.1145 -0.3669  0.2160
  915MPD2    H213453   1.626   4.318  15.076 -1.0736 -3.3265  2.6314
  915MPD2    H313454   1.678   4.290  15.301 -1.1137 -0.2794  3.0314
  915MPD2     N13455   1.378   4.581  15.462  0.6753 -0.4189  0.7574
  915MPD2    H513456   1.304   4.636  15.418  1.5731  2.4087  2.8192
  915MPD2    N113457   1.453   4.498  14.986 -0.2268 -0.2707  0.2105
  915MPD2    H713458   1.499   4.438  14.918  0.4588  1.3237 -0.7411
  916MPD2     C13459   4.053   2.780  15.496 -0.0650  0.6234  0.8326
  916MPD2    C113460   4.094   2.695  15.596 -0.4617  0.1953  0.1934
  916MPD2    C213461   4.135   2.567  15.565  0.2114  0.2417  0.1009
  916MPD2    C313462   4.140   2.527  15.432 -0.1062 -0.0163  0.1311
  916MPD2    C413463   4.093   2.606  15.329  0.4133 -0.0273 -0.0290
  916MPD2    C513464   4.052   2.734  15.359  0.0650  0.4375  0.1872
  916MPD2     H13465   4.170   2.492  15.635  0.6956  0.2341 -0.1459
  916MPD2    H113466   4.070   2.575  15.228  1.2798 -0.1612 -0.1841
  916MPD2    H213467   4.035   2.884  15.519  1.7437  1.4723 -1.5533
  916MPD2    H313468   4.007   2.785  15.276 -0.2711 -0.8795 -0.4371
  916MPD2     N13469   4.201   2.397  15.406 -0.0548 -0.4114 -0.4422
  916MPD2    H513470   4.225   2.329  15.478 -0.4507 -0.4790 -0.3738
  916MPD2    N113471   4.090   2.746  15.725  0.2047  0.3195  0.2275
  916MPD2    H713472   4.047   2.835  15.750  0.4468  0.8692 -1.2822
  917MPD2     C13473   3.886   4.637  11.159  0.0408 -0.2452  0.2389
  917MPD2    C113474   3.995   4.652  11.239  0.1259 -0.3461  0.3097
  917MPD2    C213475   4.083   0.012  11.211  0.7745 -0.0324  0.2920
  917MPD2    C313476   4.064   0.102  11.105 -0.0909 -0.2869 -0.3332
  917MPD2    C413477   3.967   0.071  11.015  0.0936  0.3579 -0.0139
  917MPD2    C513478   3.878   4.704  11.046  0.0876 -0.6479 -0.2279
  917MPD2     H13479   4.162   0.024  11.284  0.7835  0.7882  0.1544
  917MPD2    H113480   3.965   0.123  10.920  1.5524  0.3638 -0.0417
  917MPD2    H213481   3.811   4.566  11.190 -0.3480  0.2657  0.4745
  917MPD2    H313482   3.792   4.677  10.986 -0.8779 -1.1731  1.3998
  917MPD2     N13483   4.152   0.211  11.080 -0.0737 -0.4878 -0.8609
  917MPD2    H513484   4.134   0.264  10.995 -0.6757  1.7900  0.6755
  917MPD2    N113485   4.006   4.565  11.352  0.0992 -0.3878  0.4921
  917MPD2    H713486   3.926   4.506  11.371 -1.2181  0.7339 -1.5753
  918MPD2     C13487   4.230   0.289  12.151  0.0105 -0.3133 -0.7709
  918MPD2    C113488   4.319   0.272  12.044 -0.8228  0.6142 -0.1394
  918MPD2    C213489   4.283   0.175  11.952 -0.4410 -0.0848  0.3929
  918MPD2    C313490   4.179   0.084  11.981 -0.5386 -0.4801  0.3199
  918MPD2    C413491   4.110   0.098  12.100  0.1169 -0.5506 -0.5544
  918MPD2    C513492   4.130   0.207  12.180  0.5173 -0.6241 -0.1540
  918MPD2     H13493   4.328   0.166  11.854  0.9456 -0.1781  1.0311
  918MPD2    H113494   4.025   0.032  12.114 -0.5531  0.6338  0.9208
  918MPD2    H213495   4.241   0.371  12.222 -3.6257 -1.7166  1.3563
  918MPD2    H313496   4.057   0.227  12.258  1.8259 -0.5657  1.0390
  918MPD2     N13497   4.141   4.736  11.875 -0.6488 -0.0787  0.2068
  918MPD2    H513498   4.206   4.724  11.798 -0.2104  2.1584  0.2476
  918MPD2    N113499   4.434   0.353  12.018 -0.3909  0.0983  0.3032
  918MPD2    H713500   4.493   0.332  11.939 -0.0069 -0.3058  0.6950
  919MPD2     C13501   0.726   4.367  11.413 -0.7329 -1.1808  0.0598
  919MPD2    C113502   0.661   4.250  11.380  0.9638 -0.3389 -0.4447
  919MPD2    C213503   0.616   4.237  11.245 -0.5953 -0.1033  1.2013
  919MPD2    C313504   0.634   4.347  11.158 -0.1619 -0.3528  0.3687
  919MPD2    C413505   0.693   4.459  11.202 -0.0536  0.3246  0.0869
  919MPD2    C513506   0.734   4.476  11.333 -0.3860  0.8520 -0.0298
  919MPD2     H13507   0.565   4.146  11.216 -0.9410  0.3566  0.3569
  919MPD2    H113508   0.723   4.543  11.141 -0.5225  0.6240  0.2687
  919MPD2    H213509   0.759   4.379  11.516  2.0253  0.7016 -1.0492
  919MPD2    H313510   0.797   4.563  11.350  1.6905 -0.6344 -0.1625
  919MPD2     N13511   0.590   4.349  11.024 -0.4270  0.6547 -0.3969
  919MPD2    H513512   0.600   4.438  10.976 -0.9314 -0.0514 -1.8046
  919MPD2    N113513   0.650   4.136  11.465 -0.4988  0.9702  0.5093
  919MPD2    H713514   0.602   4.054  11.429 -2.0686  1.9446  0.3577
  920MPD2     C13515   4.532   4.634  10.551  0.0705 -0.3656 -0.4140
  920MPD2    C113516   4.553   4.505  10.515 -0.2282 -0.0492  0.4022
  920MPD2    C213517   4.683   4.456  10.521 -0.9050  0.7202  0.1059
  920MPD2    C313518   0.051   4.530  10.566  0.2365 -0.0272 -0.1383
  920MPD2    C413519   0.027   4.663  10.596 -0.0033  0.0960 -0.6153
  920MPD2    C513520   4.635   4.716  10.592 -0.7663  0.3724 -1.0943
  920MPD2     H13521   4.689   4.350  10.497 -3.1145  0.4277  0.8666
  920MPD2    H113522   0.111   4.730  10.612  0.0193  0.2489 -1.3360
  920MPD2    H213523   4.432   4.676  10.557  0.7322  1.0231  0.7713
  920MPD2    H313524   4.627   0.086  10.613  1.6904  0.0793  1.2831
  920MPD2     N13525   0.183   4.472  10.580  0.2656  0.8709 -0.2373
  920MPD2    H513526   0.192   4.373  10.563 -2.1154  0.4684  0.8326
  920MPD2    N113527   4.453   4.416  10.470 -0.0784 -0.0027  0.7181
  920MPD2    H713528   4.483   4.320  10.455  1.0281  0.3200  0.8348
  921MPD2     C13529   1.219   3.269  16.692  0.5094 -0.0000  0.0069
  921MPD2    C113530   1.204   3.240  16.562 -0.0697  0.2209 -1.0146
  921MPD2    C213531   1.076   3.204  16.518 -0.3721 -0.1203  0.2953
  921MPD2    C313532   0.977   3.183  16.604  0.6199  0.2357 -0.6194
  921MPD2    C413533   0.990   3.210  16.734  0.1303 -0.6527  0.0050
  921MPD2    C513534   1.116   3.254  16.778  0.2616 -0.0841  0.1739
  921MPD2     H13535   1.057   3.173  16.416  0.1851  0.0956  0.1306
  921MPD2    H113536   0.916   3.202  16.813  0.3546  0.4426  0.3210
  921MPD2    H213537   1.316   3.294  16.732  0.2095  2.5438 -0.8531
  921MPD2    H313538   1.142   3.268  16.882  0.8144  0.4486 -0.0368
  921MPD2     N13539   0.866   3.127  16.546  0.6033 -0.2896  0.2349
  921MPD2    H513540   0.882   3.101  16.449  1.8455  0.1589  0.3152
  921MPD2    N113541   1.324   3.242  16.480  0.0697  0.4157  0.9430
  921MPD2    H713542   1.408   3.265  16.532 -0.5510  0.5193  1.8926
  922MPD2     C13543   2.260   1.021  17.112 -0.8908  0.2128  0.3933
  922MPD2    C113544   2.191   1.066  17.221 -0.3287 -0.2279  1.3538
  922MPD2    C213545   2.084   0.993  17.267 -0.3313  0.5316 -0.2333
  922MPD2    C313546   2.060   0.876  17.200 -0.3939  0.9530 -0.1604
  922MPD2    C413547   2.132   0.832  17.093 -1.2365 -0.0999 -0.9315
  922MPD2    C513548   2.233   0.906  17.049  0.7969  0.4901 -0.2277
  922MPD2     H13549   2.014   1.025  17.342 -0.9445 -1.0917 -0.1211
  922MPD2    H113550   2.100   0.744  17.039 -1.3952  0.6170 -2.0236
  922MPD2    H213551   2.334   1.085  17.065  1.6318 -1.7914  1.6805
  922MPD2    H313552   2.283   0.876  16.958 -0.5097  1.5771 -1.3153
  922MPD2     N13553   1.945   0.811  17.244  0.0537  0.2564 -0.5888
  922MPD2    H513554   1.887   0.857  17.314  1.2159  1.5175 -0.4559
  922MPD2    N113555   2.216   1.189  17.286 -0.1867  0.4725 -0.8097
  922MPD2    H713556   2.156   1.200  17.367  1.5493 -0.8876  0.6503
  923MPD2     C13557   2.647   3.016   9.178 -0.1068 -1.0572  0.7257
  923MPD2    C113558   2.700   3.140   9.192 -0.3910  0.3214 -0.0179
  923MPD2    C213559   2.819   3.162   9.259 -1.2359 -0.3623 -0.4096
  923MPD2    C313560   2.876   3.055   9.321  0.3150  0.3571 -0.0838
  923MPD2    C413561   2.810   2.931   9.313  0.3513 -0.2002 -0.1502
  923MPD2    C513562   2.696   2.915   9.247  0.9486 -0.2655  0.2172
  923MPD2     H13563   2.851   3.264   9.274 -0.3048 -0.5348 -1.2541
  923MPD2    H113564   2.848   2.839   9.358 -1.0174  0.1059  1.6513
  923MPD2    H213565   2.573   3.004   9.100  0.0202  1.0750  0.2813
  923MPD2    H313566   2.651   2.818   9.229  0.9063  0.0129 -1.1391
  923MPD2     N13567   3.008   3.058   9.378  0.1079 -0.0719  0.4402
  923MPD2    H513568   3.044   2.976   9.425  0.9180 -0.0331 -0.1083
  923MPD2    N113569   2.636   3.236   9.108 -0.3094 -0.6427  0.3733
  923MPD2    H713570   2.546   3.206   9.071 -0.6750  1.1588 -0.2103
  924MPD2     C13571   2.697   0.888  15.742  0.8668 -0.3118 -0.6578
  924MPD2    C113572   2.751   0.960  15.843  0.2201 -0.7279  0.1384
  924MPD2    C213573   2.864   1.036  15.820 -0.2375  0.5295 -0.3038
  924MPD2    C313574   2.919   1.041  15.692 -0.5875 -0.6160  0.2401
  924MPD2    C413575   2.864   0.971  15.588  0.7174  0.4674 -0.3524
  924MPD2    C513576   2.750   0.894  15.615  0.7163 -0.3442 -0.1922
  924MPD2     H13577   2.909   1.089  15.903 -1.0202  0.4008  0.2048
  924MPD2    H113578   2.917   0.965  15.493  1.2274 -0.2567 -0.0204
  924MPD2    H213579   2.613   0.823  15.764  0.8731  0.0550  0.4540
  924MPD2    H313580   2.705   0.824  15.546  2.6201 -0.4307 -1.3457
  924MPD2     N13581   3.016   1.144  15.679  0.3593  0.0555 -0.0958
  924MPD2    H513582   3.050   1.189  15.764 -3.3542 -0.6771  1.7532
  924MPD2    N113583   2.708   0.939  15.974 -0.0122  0.6378 -0.3109
  924MPD2    H713584   2.629   0.877  15.977  0.9611 -0.7480 -2.7821
  925MPD2     C13585   2.053   3.846  14.776  0.2755  0.6443  0.2734
  925MPD2    C113586   1.916   3.840  14.741 -0.0924  0.6611 -0.0769
  925MPD2    C213587   1.818   3.914  14.815  0.6232  0.0425  0.2827
  925MPD2    C313588   1.857   3.979  14.931 -0.2692 -1.0655 -0.4465
  925MPD2    C413589   1.995   3.981  14.963  0.4237 -0.6925  0.0608
  925MPD2    C513590   2.093   3.915  14.887 -0.2913  0.0965  0.8192
  925MPD2     H13591   1.716   3.916  14.778  1.1323 -0.0020 -1.1410
  925MPD2    H113592   2.026   4.022  15.058 -1.5364  0.3003  0.2727
  925MPD2    H213593   2.131   3.787  14.729  0.9170  0.3094  1.7742
  925MPD2    H313594   2.196   3.924  14.921 -0.3857 -0.2984  1.2130
  925MPD2     N13595   1.765   4.036  15.026  0.2547  0.4363  0.2760
  925MPD2    H513596   1.800   4.058  15.119 -1.2651 -1.2536  1.2374
  925MPD2    N113597   1.868   3.775  14.630  0.1965 -0.7538  0.7630
  925MPD2    H713598   1.771   3.780  14.600  1.0341  1.4663 -1.5009
  926MPD2     C13599   4.522   2.134  13.399  0.7839 -0.4704  0.1050
  926MPD2    C113600   4.627   2.220  13.434 -0.0864 -0.5664  0.4460
  926MPD2    C213601   0.003   2.225  13.360 -0.1535 -0.7217 -0.1591
  926MPD2    C313602   0.013   2.157  13.241  0.5593 -0.2174 -1.1107
  926MPD2    C413603   4.647   2.074  13.204 -0.0439  0.3315 -0.1548
  926MPD2    C513604   4.531   2.067  13.280 -0.0140 -0.0518 -0.3140
  926MPD2     H13605   0.080   2.288  13.402 -0.7398 -0.7252  0.9308
  926MPD2    H113606   4.655   2.016  13.112  3.0263 -0.7626  0.8088
  926MPD2    H213607   4.435   2.125  13.463 -0.2343  0.1976 -1.1726
  926MPD2    H313608   4.446   2.002  13.261  0.2659 -0.8156  1.0290
  926MPD2     N13609   0.119   2.170  13.153 -0.0599 -0.2539 -0.0361
  926MPD2    H513610   0.105   2.119  13.066 -1.9478 -1.9676  1.2604
  926MPD2    N113611   4.624   2.307  13.545  0.5173 -0.3472  0.0554
  926MPD2    H713612   4.699   2.373  13.561 -1.2629  1.8546 -0.6629
  927MPD2     C13613   0.178   4.402  17.723 -0.2939  0.3495 -0.3626
  927MPD2    C113614   0.191   4.272   0.018 -0.3582  0.0192 -0.3819
  927MPD2    C213615   0.316   4.223   0.044  0.6240  0.1826 -0.0319
  927MPD2    C313616   0.423   4.305   0.030  0.0491  0.3653 -0.6682
  927MPD2    C413617   0.416   4.433  17.730  0.3446 -0.2639  0.6262
  927MPD2    C513618   0.289   4.480  17.700 -0.4997 -0.5096 -0.5637
  927MPD2     H13619   0.332   4.128   0.093 -1.0870  0.1790  0.5119
  927MPD2    H113620   0.504   4.495  17.726  0.3260 -0.3290 -0.9136
  927MPD2    H213621   0.089   4.435  17.671 -0.2847  1.3505  0.2535
  927MPD2    H313622   0.290   4.582  17.662 -2.0086 -0.9809 -1.8628
  927MPD2     N13623   0.541   4.234   0.044  0.0124 -0.1913 -0.3123
  927MPD2    H513624   0.546   4.134   0.026  3.3116 -0.0476 -0.1148
  927MPD2    N113625   0.073   4.200   0.036 -0.0080 -0.1430 -1.2047
  927MPD2    H713626   4.723   4.248   0.014 -0.2742  0.1633  0.5434
  928MPD2     C13627   3.092   2.104   0.400  0.4344 -0.0412 -0.2867
  928MPD2    C113628   3.153   2.194   0.478 -0.7632 -0.2612  0.3508
  928MPD2    C213629   3.202   2.308   0.412  0.2065 -0.3351 -0.6406
  928MPD2    C313630   3.213   2.318   0.271 -0.6191  0.1427  0.2016
  928MPD2    C413631   3.167   2.209   0.200 -0.1480  0.2562  0.2105
  928MPD2    C513632   3.098   2.108   0.264  0.3784 -0.4077  0.1639
  928MPD2     H13633   3.230   2.397   0.468  0.1513 -1.2575  0.8298
  928MPD2    H113634   3.172   2.211   0.092  1.0365  1.7860  0.2999
  928MPD2    H213635   3.038   2.026   0.452 -0.8296  1.3055  0.4174
  928MPD2    H313636   3.059   2.030   0.201  0.7002 -1.4517  1.2601
  928MPD2     N13637   3.277   2.421   0.200  0.3814 -0.5697 -0.4637
  928MPD2    H513638   3.281   2.403   0.100 -2.1933  0.0353 -0.6845
  928MPD2    N113639   3.155   2.179   0.620  0.0826 -0.7425 -0.3675
  928MPD2    H713640   3.108   2.096   0.655  0.3704 -0.7728 -0.0475
  929MPD2     C13641   3.159   3.245  10.099 -0.2063  0.0625  0.0855
  929MPD2    C113642   3.030   3.199  10.084 -1.2984  0.0245  0.0502
  929MPD2    C213643   2.928   3.279  10.032 -0.8127 -0.3062 -0.2036
  929MPD2    C313644   2.963   3.404   9.987 -0.7255 -0.2993  0.3981
  929MPD2    C413645   3.091   3.450   9.993 -0.1648  0.5052 -0.1604
  929MPD2    C513646   3.186   3.369  10.048 -0.2519  0.1509  0.2935
  929MPD2     H13647   2.822   3.258  10.044 -0.9078  0.1731 -0.1770
  929MPD2    H113648   3.115   3.548   9.956 -0.7426  0.0141 -1.8312
  929MPD2    H213649   3.247   3.189  10.129  0.0771  0.3057 -0.2953
  929MPD2    H313650   3.289   3.401  10.056 -1.4781  3.8216  1.0606
  929MPD2     N13651   2.871   3.490   9.927  0.3703 -0.0746 -0.5693
  929MPD2    H513652   2.904   3.582   9.900 -2.6505  0.4799 -2.4255
  929MPD2    N113653   3.007   3.065  10.116  0.2849 -0.0285  0.5995
  929MPD2    H713654   3.085   3.016  10.159  1.0232  1.1427  0.5933
  930MPD2     C13655   0.349   0.116  13.929  0.3282  0.2357 -0.3911
  930MPD2    C113656   0.358   0.213  13.828 -0.4455 -0.6287 -0.5236
  930MPD2    C213657   0.305   0.172  13.704  0.0918 -0.1674 -0.4461
  930MPD2    C313658   0.271   0.044  13.679 -0.4017 -0.2368  0.1715
  930MPD2    C413659   0.288   4.682  13.779 -0.4878 -0.4278  0.1500
  930MPD2    C513660   0.307   4.724  13.907 -1.1399  0.7085  0.2236
  930MPD2     H13661   0.322   0.241  13.623  0.7277  0.7521  0.4819
  930MPD2    H113662   0.278   4.574  13.775 -0.7937 -0.3539 -1.1182
  930MPD2    H213663   0.376   0.140  14.031  0.6986 -1.3601 -0.1109
  930MPD2    H313664   0.308   4.658  13.993 -1.6900  0.6126  0.1567
  930MPD2     N13665   0.248   0.007  13.544  0.1394  0.0559  0.0245
  930MPD2    H513666   0.235   0.080  13.476 -0.2888  1.8120  1.9993
  930MPD2    N113667   0.409   0.345  13.838  0.1228  0.6627  0.3838
  930MPD2    H713668   0.413   0.394  13.749 -1.2267 -0.6861 -0.4159
  931MPD2     C13669   0.150   3.457   0.141 -0.0810  0.5246  0.1938
  931MPD2    C113670   0.043   3.496   0.228 -0.5064  0.4668 -0.1656
  931MPD2    C213671   0.025   3.427   0.343  0.0459  0.4030 -0.8026
  931MPD2    C313672   0.109   3.317   0.376 -0.0381  0.2104 -0.0377
  931MPD2    C413673   0.200   3.277   0.277 -0.4716  0.3766  0.0947
  931MPD2    C513674   0.223   3.348   0.160 -0.3306  0.2094  0.1077
  931MPD2     H13675   4.677   3.453   0.407  0.1947  1.0092 -0.8499
  931MPD2    H113676   0.263   3.192   0.303 -0.2736  0.0946 -1.2931
  931MPD2    H213677   0.169   3.519   0.054  0.8032  0.6863  0.4975
  931MPD2    H313678   0.309   3.324   0.098 -2.0162  0.7979 -2.4969
  931MPD2     N13679   0.109   3.234   0.494 -0.4851 -0.0669  0.1647
  931MPD2    H513680   0.186   3.169   0.495  0.9349  1.6268  1.1183
  931MPD2    N113681   4.721   3.624   0.196 -0.0907  0.3095  0.2924
  931MPD2    H713682   0.014   3.668   0.109  1.7230  1.3416  1.4252
  932MPD2     C13683   2.190   3.333  11.854  0.1474  0.2228 -0.2020
  932MPD2    C113684   2.262   3.369  11.740  0.3327  0.0373  0.9608
  932MPD2    C213685   2.295   3.270  11.654  0.1517 -0.1537 -0.2493
  932MPD2    C313686   2.259   3.138  11.667 -0.4148  0.4376  0.3196
  932MPD2    C413687   2.195   3.104  11.783 -0.1460  0.0711 -0.8334
  932MPD2    C513688   2.165   3.203  11.877 -0.2354  0.2391  0.0579
  932MPD2     H13689   2.356   3.297  11.569  0.6017 -2.5285 -0.6630
  932MPD2    H113690   2.172   2.999  11.795  0.3931 -0.0779 -1.0861
  932MPD2    H213691   2.157   3.406  11.926  1.1868  1.3202 -0.8435
  932MPD2    H313692   2.114   3.181  11.970 -1.0608 -0.7433 -0.6269
  932MPD2     N13693   2.277   3.030  11.577 -0.3951  0.3346  0.0453
  932MPD2    H513694   2.270   2.936  11.614 -1.0072  0.3019 -0.1596
  932MPD2    N113695   2.307   3.503  11.717  0.0236  0.1668 -0.1884
  932MPD2    H713696   2.361   3.525  11.634  1.5844 -2.8694  0.0180
  933MPD2     C13697   2.646   2.044   1.128 -0.5850  0.1973  0.0130
  933MPD2    C113698   2.704   2.142   1.048 -0.2658 -0.8656  0.6475
  933MPD2    C213699   2.617   2.237   0.992 -0.3154  0.5519 -0.0641
  933MPD2    C313700   2.481   2.239   1.015 -0.0679 -0.2321  0.1728
  933MPD2    C413701   2.428   2.145   1.102 -0.5251  0.2480 -0.5037
  933MPD2    C513702   2.517   2.057   1.151  0.8837  0.2311 -0.5753
  933MPD2     H13703   2.660   2.309   0.923 -1.0141  0.9015 -0.1247
  933MPD2    H113704   2.322   2.137   1.122 -0.0635  0.1560  1.9467
  933MPD2    H213705   2.708   1.970   1.176  1.0932  1.6903  0.1241
  933MPD2    H313706   2.468   1.979   1.207  0.4194 -0.2013 -1.5880
  933MPD2     N13707   2.404   2.338   0.953  0.0334 -0.2080  0.2157
  933MPD2    H513708   2.445   2.409   0.893 -1.8236  0.5487 -0.1501
  933MPD2    N113709   2.839   2.153   1.014  1.0061  0.3522  0.2632
  933MPD2    H713710   2.866   2.219   0.942  0.9171 -1.1952 -1.1966
  934MPD2     C13711   4.068   0.173   1.777 -0.1059 -0.2158  0.2189
  934MPD2    C113712   4.160   0.085   1.718  0.0956  0.3184 -0.4119
  934MPD2    C213713   4.131   0.035   1.592 -0.1635 -0.3932 -0.5451
  934MPD2    C313714   4.023   0.078   1.521  0.1651  0.1143  0.8424
  934MPD2    C413715   3.941   0.171   1.580 -0.3789 -0.1123 -0.0890
  934MPD2    C513716   3.965   0.215   1.705 -0.1158  0.4694 -0.1129
  934MPD2     H13717   4.201   4.700   1.550 -1.2959 -1.7538 -0.1111
  934MPD2    H113718   3.866   0.218   1.518 -1.5926  1.8557  2.8505
  934MPD2    H213719   4.087   0.222   1.872  0.3354  1.3566 -0.6944
  934MPD2    H313720   3.891   0.281   1.749 -1.1872 -1.9195  1.6905
  934MPD2     N13721   3.987   0.021   1.396 -0.4298  0.0463  0.6679
  934MPD2    H513722   3.894   0.044   1.362  0.0854  0.9730 -0.1185
  934MPD2    N113723   4.270   0.032   1.795 -0.0525 -0.3780  0.3243
  934MPD2    H713724   4.325   4.697   1.749  1.7003  2.1813 -1.5185
  935MPD2     C13725   4.360   3.982   0.925 -0.8016  0.3456  0.1304
  935MPD2    C113726   4.284   4.034   0.822 -0.2312  0.1942 -0.1863
  935MPD2    C213727   4.215   4.149   0.846  0.2322 -0.7091  0.0152
  935MPD2    C313728   4.216   4.207   0.971 -0.1257  0.2436  0.5320
  935MPD2    C413729   4.271   4.140   1.078  0.1978  0.4947 -0.1142
  935MPD2    C513730   4.350   4.033   1.050 -0.1072  0.6406 -0.4185
  935MPD2     H13731   4.145   4.189   0.774 -0.3725 -0.4956  0.7102
  935MPD2    H113732   4.281   4.175   1.180  2.3761 -0.3611 -0.0389
  935MPD2    H213733   4.436   3.905   0.910 -0.3771  1.4969 -3.5918
  935MPD2    H313734   4.394   3.984   1.136  0.5166  3.8833  1.1101
  935MPD2     N13735   4.142   4.321   1.010  0.0975 -0.0012  0.2656
  935MPD2    H513736   4.136   4.351   1.106  1.1358  1.4702 -0.1136
  935MPD2    N113737   4.265   3.969   0.699 -0.3534 -0.1378 -0.4357
  935MPD2    H713738   4.223   4.031   0.630 -0.3495 -0.1989 -0.4934
  936MPD2     C13739   2.504   2.102  12.803 -0.3276  0.0433  0.3196
  936MPD2    C113740   2.451   2.101  12.678  0.0377 -0.7244  0.4842
  936MPD2    C213741   2.520   2.065  12.567  0.1540 -0.2193  0.0824
  936MPD2    C313742   2.658   2.046  12.570 -0.0661  0.7464 -0.6595
  936MPD2    C413743   2.718   2.047  12.698  0.1261  0.0841  0.4752
  936MPD2    C513744   2.638   2.080  12.806 -0.3785  0.3834  0.1311
  936MPD2     H13745   2.467   2.080  12.474  1.3538 -1.0770 -0.7349
  936MPD2    H113746   2.820   2.020  12.720 -0.2216 -2.8588 -1.5591
  936MPD2    H213747   2.443   2.124  12.889  2.6429  2.6503  1.7379
  936MPD2    H313748   2.690   2.077  12.901 -1.0789  0.9027  0.5338
  936MPD2     N13749   2.731   2.017  12.448 -0.5102 -0.0992 -0.0361
  936MPD2    H513750   2.669   2.001  12.369 -1.7924  1.0284  0.7429
  936MPD2    N113751   2.321   2.142  12.645  0.1738 -1.2640 -0.2140
  936MPD2    H713752   2.290   2.134  12.549 -1.6458 -4.0060  0.5872
  937MPD2     C13753   0.573   3.448  11.376  0.2986 -0.1795  0.5079
  937MPD2    C113754   0.656   3.557  11.367 -0.0602  0.0165 -0.3313
  937MPD2    C213755   0.712   3.577  11.240  0.0546  0.0639  0.2026
  937MPD2    C313756   0.713   3.482  11.139 -0.6462  0.0634  0.7506
  937MPD2    C413757   0.641   3.369  11.160  0.9267 -0.3042 -0.6240
  937MPD2    C513758   0.568   3.360  11.276  0.1552  0.1114 -0.7183
  937MPD2     H13759   0.760   3.672  11.218 -2.2718  0.8587 -1.4103
  937MPD2    H113760   0.629   3.287  11.089 -2.3781  1.2495 -1.8755
  937MPD2    H213761   0.515   3.428  11.466  1.7810 -0.5217  1.3817
  937MPD2    H313762   0.514   3.269  11.296  2.0793 -0.6670  0.9663
  937MPD2     N13763   0.783   3.514  11.022  0.1635 -0.7435  0.4238
  937MPD2    H513764   0.845   3.594  11.027  0.1137 -0.7362  0.8947
  937MPD2    N113765   0.651   3.665  11.458 -0.4984 -0.2736  0.7323
  937MPD2    H713766   0.680   3.751  11.412  0.4166 -0.6974  0.5088
  938MPD2     C13767   3.496   0.067   0.416  0.5559 -0.6053  0.0930
  938MPD2    C113768   3.526   0.030   0.538 -0.4968 -0.1002 -0.7977
  938MPD2    C213769   3.470   4.655   0.602  0.2581 -0.4534 -0.4232
  938MPD2    C313770   3.383   4.572   0.525  0.1346 -0.0715 -0.0772
  938MPD2    C413771   3.371   4.597   0.389 -0.0953  0.1169  0.2005
  938MPD2    C513772   3.419   4.716   0.341  0.1291 -0.1251  0.2264
  938MPD2     H13773   3.510   4.617   0.695 -3.2695  1.6882  1.9317
  938MPD2    H113774   3.302   4.544   0.324 -0.4986  3.0618 -1.7972
  938MPD2    H213775   3.531   0.154   0.362  0.7028 -1.3499 -1.0394
  938MPD2    H313776   3.390   0.003   0.239 -0.0892  0.7900  0.4945
  938MPD2     N13777   3.317   4.461   0.584  0.2229  0.2883  0.9605
  938MPD2    H513778   3.300   4.378   0.528  2.7715 -0.5582  1.4805
  938MPD2    N113779   3.600   0.123   0.620  0.2878  0.1188 -0.2706
  938MPD2    H713780   3.644   0.083   0.703 -0.5649 -0.1976  0.0295
  939MPD2     C13781   4.703   0.583   0.805  0.0673  0.9772 -0.0418
  939MPD2    C113782   4.579   0.616   0.755 -0.5021 -0.5035  0.7989
  939MPD2    C213783   4.540   0.570   0.626 -0.3500 -0.4964  0.2312
  939MPD2    C313784   4.626   0.478   0.560 -0.3641 -0.0147 -0.6078
  939MPD2    C413785   0.018   0.456   0.608  0.4870  0.3550 -0.5889
  939MPD2    C513786   0.059   0.508   0.729 -0.1538  0.1240  0.6775
  939MPD2     H13787   4.444   0.601   0.586 -0.0578  0.4494  0.2630
  939MPD2    H113788   0.095   0.403   0.553 -0.6794 -1.7263 -0.1927
  939MPD2    H213789   0.012   0.623   0.895  0.2211 -1.9329  1.1848
  939MPD2    H313790   0.157   0.488   0.771 -0.2037 -0.7038  0.4042
  939MPD2     N13791   4.581   0.425   0.445 -1.0096  0.5664 -0.1310
  939MPD2    H513792   4.486   0.445   0.416 -0.6829  2.4103  0.1103
  939MPD2    N113793   4.498   0.704   0.832 -1.1504  0.1885 -0.7305
  939MPD2    H713794   4.538   0.732   0.920  1.0573 -3.6849 -0.5150
  940MPD2     C13795   3.054   2.203  13.182 -0.0763 -0.2114  0.1721
  940MPD2    C113796   2.979   2.106  13.107 -0.5322  0.1915  0.5852
  940MPD2    C213797   3.026   2.055  12.990 -0.0572 -0.1832 -0.1387
  940MPD2    C313798   3.140   2.102  12.937 -0.2052 -0.0094 -0.3685
  940MPD2    C413799   3.206   2.206  12.999 -0.0329  0.1544  0.1160
  940MPD2    C513800   3.172   2.247  13.126  0.0605  0.1542  0.1527
  940MPD2     H13801   2.972   1.982  12.931  0.4575  0.0874 -0.9377
  940MPD2    H113802   3.303   2.242  12.967  0.7393 -1.0202  1.0964
  940MPD2    H213803   3.030   2.236  13.282 -1.5469 -3.1269  0.7968
  940MPD2    H313804   3.232   2.321  13.178  1.3084 -0.9258  0.2485
  940MPD2     N13805   3.187   2.044  12.814  0.0331 -0.5507  0.1110
  940MPD2    H513806   3.251   2.101  12.760 -0.5567  1.5963  1.6788
  940MPD2    N113807   2.864   2.042  13.170 -0.9786  0.2109 -0.2897
  940MPD2    H713808   2.826   1.962  13.120  2.4021 -0.6390 -1.4889
  941MPD2     C13809   1.991   1.704   9.829  0.5749 -0.2616 -0.0793
  941MPD2    C113810   2.115   1.638   9.854 -0.0233 -0.4723  0.4536
  941MPD2    C213811   2.117   1.539   9.945 -0.1998  0.0767  0.1492
  941MPD2    C313812   1.998   1.487   9.988  0.1493 -0.1027  0.1498
  941MPD2    C413813   1.879   1.544   9.947 -0.6052 -0.6089 -0.9701
  941MPD2    C513814   1.873   1.662   9.878  0.1344  1.4541 -0.4836
  941MPD2     H13815   2.209   1.489   9.974  0.1778  1.5365  1.4799
  941MPD2    H113816   1.792   1.498   9.991 -0.0908  0.8747  1.5763
  941MPD2    H213817   1.986   1.806   9.792  0.8543 -0.2052  0.0357
  941MPD2    H313818   1.781   1.720   9.876 -0.9176 -0.2056 -0.6469
  941MPD2     N13819   1.987   1.374  10.071 -0.5572  0.2962 -0.5092
  941MPD2    H513820   1.892   1.341  10.089 -0.0979 -1.2889 -1.0176
  941MPD2    N113821   2.238   1.682   9.808  0.6107 -0.1693 -0.0866
  941MPD2    H713822   2.318   1.638   9.853  0.1527  0.5577  1.4236
  942MPD2     C13823   1.635   3.501  10.396 -0.0402 -0.0619  0.5155
  942MPD2    C113824   1.642   3.442  10.275 -0.1974 -1.0641  0.0954
  942MPD2    C213825   1.701   3.515  10.176 -0.4739  0.2587 -0.1367
  942MPD2    C313826   1.757   3.641  10.195 -0.4191 -0.4552 -0.7370
  942MPD2    C413827   1.740   3.696  10.318 -0.0115 -0.6185  0.1867
  942MPD2    C513828   1.670   3.629  10.413 -0.1901  0.3936  0.7382
  942MPD2     H13829   1.704   3.477  10.075 -0.8464  0.4063 -0.2047
  942MPD2    H113830   1.774   3.793  10.353 -1.8968 -0.0274  0.3840
  942MPD2    H213831   1.581   3.459  10.480  1.2006 -1.3081  0.6764
  942MPD2    H313832   1.654   3.680  10.507  1.3374  0.7351  0.8099
  942MPD2     N13833   1.829   3.708  10.093 -0.4735  0.3040  0.4558
  942MPD2    H513834   1.859   3.804  10.108 -2.7240  0.8636  1.4078
  942MPD2    N113835   1.606   3.311  10.245  0.2982  0.3911 -0.2049
  942MPD2    H713836   1.612   3.275  10.150  0.2644 -2.0199  0.7172
  943MPD2     C13837   1.598   0.443  10.819  0.0500  0.1118 -0.4071
  943MPD2    C113838   1.604   0.485  10.946  0.3515 -0.8516  0.5001
  943MPD2    C213839   1.712   0.560  10.986 -0.5889  0.2985  0.0011
  943MPD2    C313840   1.812   0.597  10.899  0.3220  0.5348  0.1680
  943MPD2    C413841   1.802   0.557  10.771 -0.2892 -0.2686  0.1657
  943MPD2    C513842   1.696   0.486  10.727  0.2077 -0.0247 -0.2247
  943MPD2     H13843   1.733   0.568  11.092 -2.1421  3.1561  0.0923
  943MPD2    H113844   1.877   0.588  10.698 -1.4295  2.8849  0.3208
  943MPD2    H213845   1.518   0.386  10.773 -0.4030  1.4953 -1.3437
  943MPD2    H313846   1.692   0.464  10.621 -0.7235  0.2021 -0.2408
  943MPD2     N13847   1.922   0.670  10.930  0.3464  0.0048  0.2498
  943MPD2    H513848   1.993   0.659  10.857 -0.5610  0.7035 -0.7377
  943MPD2    N113849   1.493   0.452  11.029  0.4049 -0.1017 -0.5551
  943MPD2    H713850   1.422   0.395  10.983  0.4601  0.0898 -0.8734
  944MPD2     C13851   1.358   0.120  11.101 -0.0119  0.7557 -0.1512
  944MPD2    C113852   1.267   0.113  10.996  0.6756  0.0894 -0.2037
  944MPD2    C213853   1.135   0.082  11.018 -0.0945  0.1905  0.2280
  944MPD2    C313854   1.079   0.062  11.148  0.3843 -0.3138  0.1850
  944MPD2    C413855   1.171   0.086  11.252  0.4908  0.3140  0.2554
  944MPD2    C513856   1.305   0.112  11.226 -0.2610 -0.4453 -0.5778
  944MPD2     H13857   1.063   0.082  10.937  1.7588 -3.4395 -1.4067
  944MPD2    H113858   1.133   0.099  11.353 -1.3796  1.6758 -0.6271
  944MPD2    H213859   1.466   0.130  11.095 -0.1064  0.7142 -1.8439
  944MPD2    H313860   1.372   0.114  11.311 -0.1903  1.0540 -0.6671
  944MPD2     N13861   0.935   0.057  11.162 -0.3833 -0.3739  0.2963
  944MPD2    H513862   0.889   0.038  11.074 -0.4607  0.0968  0.2378
  944MPD2    N113863   1.313   0.107  10.858  0.4902 -0.1601  0.3112
  944MPD2    H713864   1.243   0.090  10.786  1.8543 -0.0794 -1.0106
    1TMC1    C113865   4.447   0.928  14.097  0.1788  0.0250 -0.0754
    1TMC1    C213866   4.318   0.892  14.093 -0.0061  0.0517 -0.5136
    1TMC1    C313867   4.274   0.771  14.142 -0.7020 -0.3673  0.0331
    1TMC1    C413868   4.542   0.843  14.148  1.0367 -0.0901  0.4545
    1TMC1    C513869   4.498   0.719  14.191  0.2348 -0.2267 -0.5220
    1TMC1    C613870   4.370   0.677  14.184 -1.1691 -0.0232 -0.3573
    1TMC1     C13871   4.483   1.070  14.092 -1.0225  0.2845  0.4731
    1TMC1     O13872   4.603   1.095  14.106  0.1083  0.1186 -0.1051
    1TMC1     H13873   4.235   0.954  14.062 -0.0998 -1.1413 -2.6433
    1TMC1    H113874   4.647   0.867  14.160  1.2423  0.7573 -3.2840
    1TMC1    H213875   4.352   0.571  14.201 -1.5622  0.4644  2.2338
    1TMC1    C713876   4.599   0.627  14.233 -0.0141 -0.0872  0.2622
    1TMC1    C813877   4.134   0.740  14.119  0.2299 -0.2414 -0.8587
    1TMC1    O113878   4.571   0.531  14.302  0.1113  0.3881  0.1577
    1TMC1    O213879   4.056   0.811  14.058 -0.0509 -0.0535  0.2730
    1TMC1    O313880   4.700   0.632  14.139 -0.1155 -0.2965  1.1199
    1TMC1    H313881   4.714   0.713  14.086  1.0015 -0.3227  1.3847
    1TMC1    O513882   4.096   0.646  14.207 -0.0386  0.2610  0.7689
    1TMC1    H513883   4.160   0.592  14.257  0.1866  0.5512  0.7904
    2MPD2     C13884   4.328   1.547  14.196 -0.1432  0.0449  0.1709
    2MPD2    C113885   4.241   1.490  14.108  0.0785 -0.3092  0.3589
    2MPD2    C213886   4.258   1.363  14.065  0.1689 -0.2673 -0.1262
    2MPD2    C313887   4.362   1.282  14.113 -1.1318 -0.5280  0.7423
    2MPD2    C413888   4.441   1.331  14.218 -0.2538 -0.6577 -0.0506
    2MPD2    C513889   4.419   1.460  14.259 -0.2419  0.3602 -0.1801
    2MPD2     H13890   4.195   1.316  13.990  1.1681 -0.0858 -1.0790
    2MPD2    H113891   4.528   1.288  14.266 -0.7003 -1.1177  0.3659
    2MPD2    H213892   4.314   1.645  14.240  2.1396  0.2241  0.4806
    2MPD2    H313893   4.486   1.498  14.334 -0.8280 -0.3430  0.7043
    2MPD2     N13894   4.372   1.154  14.072  1.0232 -0.1217  0.3620
    2MPD2    H513895   4.298   1.119  14.012  0.0303  1.9142  0.4043
    2MPD2    N113896   4.145   1.583  14.054 -0.6074  0.2398 -0.1623
    2MPD2    H713897   4.166   1.680  14.074 -1.8390  0.6440 -0.8265
    3TMC2    C113898   3.978   1.667  13.912  0.5884 -0.0713 -0.0095
    3TMC2    C213899   4.002   1.789  13.967 -0.8001 -0.9166 -0.4313
    3TMC2    C313900   3.911   1.887  13.935  0.2755 -0.4867 -0.7985
    3TMC2    C413901   3.858   1.641  13.846  0.2866 -0.5188  0.8151
    3TMC2    C513902   3.772   1.740  13.824 -0.5668  0.4598 -0.4855
    3TMC2    C613903   3.801   1.867  13.860  0.1893 -0.1433  0.6380
    3TMC2     C13904   4.057   1.555  13.955 -0.1278 -0.3136 -0.3876
    3TMC2     O13905   4.030   1.443  13.918 -0.3847  0.1656 -0.4231
    3TMC2     H13906   4.103   1.813  13.997 -1.2450 -1.8742  1.8496
    3TMC2    H113907   3.841   1.538  13.816  1.0591 -0.6052  0.6739
    3TMC2    H213908   3.725   1.942  13.841  1.5720  1.0658 -0.1073
    3TMC2    C713909   3.640   1.700  13.862 -0.4570 -0.3566 -0.2091
    3TMC2    C813910   3.951   2.020  13.981  0.1262 -0.1085 -0.0280
    3TMC2    O113911   3.625   1.591  13.912 -0.1627  0.1948  0.0641
    3TMC2    O213912   4.031   2.046  14.065  0.4472 -0.0588  0.2408
    3TMC2    O513913   3.956   2.090  13.868 -0.1664  0.7651 -0.4897
    3TMC2    H513914   3.937   2.053  13.779 -0.4784 -2.2709  0.8076
    4TMC2    C113915   2.864   2.299  13.764  0.7859  0.4501  0.7195
    4TMC2    C213916   2.879   2.433  13.801  0.0559  0.4014  0.1857
    4TMC2    C313917   2.988   2.477  13.874  0.2250  0.4015  0.5350
    4TMC2    C413918   2.963   2.218  13.796 -0.1345  0.1440 -0.9096
    4TMC2    C513919   3.072   2.262  13.863 -0.1381 -0.1502  0.2151
    4TMC2    C613920   3.090   2.393  13.911 -0.3895 -0.4182 -0.6830
    4TMC2     C13921   2.735   2.242  13.722  0.0369  0.2375 -0.4395
    4TMC2     O13922   2.714   2.128  13.758 -0.2227 -0.4560  0.0111
    4TMC2     H13923   2.802   2.509  13.791 -0.4995  0.1397  2.5808
    4TMC2    H113924   2.946   2.120  13.753 -1.3977 -1.0330  2.2852
    4TMC2    H213925   3.173   2.420  13.976 -1.3600 -0.7177  0.6875
    4TMC2    C713926   3.169   2.160  13.896 -0.0597  0.3350  0.1938
    4TMC2    C813927   2.960   2.602  13.950 -0.2632 -0.2158 -0.1337
    4TMC2    O113928   3.278   2.204  13.921 -0.0574  0.6103  0.9421
    4TMC2    O213929   2.856   2.605  14.018 -0.6825 -0.2768  0.4044
    4TMC2    O513930   3.079   2.649  13.990  0.3372  0.3181  0.6425
    4TMC2    H513931   3.153   2.632  13.928  0.6579  0.0803  1.0977
    5MPD2     C13932   2.354   2.190  13.408  0.5804  0.4227  0.4394
    5MPD2    C113933   2.442   2.272  13.347  0.6106 -0.4352  0.0937
    5MPD2    C213934   2.549   2.313  13.418 -0.6342 -0.8624 -0.0614
    5MPD2    C313935   2.567   2.265  13.548  0.2508  0.2008  0.7531
    5MPD2    C413936   2.473   2.183  13.612 -0.9224 -0.6470 -0.2543
    5MPD2    C513937   2.368   2.154  13.538  0.5860 -0.1971  0.1061
    5MPD2     H13938   2.630   2.373  13.378 -1.5438  0.8241  0.6307
    5MPD2    H113939   2.471   2.158  13.717 -1.1223 -1.3886 -0.4394
    5MPD2    H213940   2.265   2.158  13.355 -0.6506 -0.0427  2.7594
    5MPD2    H313941   2.285   2.108  13.590  0.8388 -1.7945 -0.9156
    5MPD2     N13942   2.683   2.307  13.610  1.5772 -0.5812 -0.3807
    5MPD2    H513943   2.741   2.375  13.563 -0.3846 -0.2265 -2.3055
    5MPD2    N113944   2.420   2.306  13.215 -0.3785  0.0268  0.3162
    5MPD2    H713945   2.332   2.278  13.175 -0.8961  0.0116  1.4542
    6MPD1     C13946   2.089   3.829  13.586  0.2775  0.5839  0.0881
    6MPD1    C113947   2.178   3.892  13.504 -0.8565 -0.1913 -0.5260
    6MPD1    C213948   2.242   3.813  13.410 -0.3888  0.0412  0.1216
    6MPD1    C313949   2.195   3.685  13.395 -0.4862 -0.3758 -1.1002
    6MPD1    C413950   2.100   3.627  13.475  0.1725 -0.1625  0.2514
    6MPD1    C513951   2.046   3.703  13.576 -0.0799 -0.0606  0.3584
    6MPD1     H13952   2.322   3.861  13.355  0.6801 -1.1863  0.5998
    6MPD1    H113953   2.079   3.522  13.459  0.5594 -0.5469  2.1803
    6MPD1    H213954   2.054   3.874  13.678 -1.5500 -1.4012  0.3613
    6MPD1    H313955   1.990   3.660  13.659  0.7153 -3.2331 -0.7373
    6MPD1     N13956   2.251   3.597  13.293 -0.2566 -0.1239  0.1255
    6MPD1    H513957   2.191   3.519  13.270  0.6483 -0.9424  0.5336
    6MPD1    N113958   2.232   4.017  13.530 -0.8263 -0.2799 -0.1868
    6MPD1    H613959   2.155   4.078  13.556 -0.7020  0.6138 -1.9959
    6MPD1    H713960   2.267   4.064  13.448  2.0941 -2.1884 -0.0423
    7MPD2     C13961   1.967   3.070  12.862 -0.7905 -0.1900 -0.8162
    7MPD2    C113962   2.103   3.056  12.870 -0.8968  0.6885 -0.0881
    7MPD2    C213963   2.168   2.935  12.870 -0.3549  0.2783 -0.7782
    7MPD2    C313964   2.089   2.826  12.867 -0.6729 -0.4155 -0.0290
    7MPD2    C413965   1.955   2.832  12.848 -0.2943  0.7052  0.1929
    7MPD2    C513966   1.894   2.957  12.842  0.2551 -0.3515 -0.5887
    7MPD2     H13967   2.276   2.931  12.875 -0.5478 -0.9230  2.6405
    7MPD2    H113968   1.901   2.739  12.837 -1.6353  1.3221  1.4573
    7MPD2    H213969   1.908   3.160  12.858  0.5638  0.6944 -0.9596
    7MPD2    H313970   1.787   2.971  12.830  0.2249  0.0873  0.1585
    7MPD2     N13971   2.140   2.697  12.870  0.1312 -0.2101  0.0933
    7MPD2    H513972   2.074   2.625  12.841  1.0436 -0.2845 -1.8449
    7MPD2    N113973   2.187   3.164  12.895  0.3377 -0.1343  0.3356
    7MPD2    H713974   2.279   3.139  12.930  0.0808 -1.2138  0.2547
    8TMC3    C113975   2.300   2.539  12.876 -0.3230 -0.1834  0.0437
    8TMC3    C213976   2.325   2.461  12.985 -0.1595 -0.1676  0.1742
    8TMC3    C313977   2.455   2.420  13.008  0.7147 -0.1190  0.0893
    8TMC3    C413978   2.399   2.566  12.783  0.1419  0.1176  0.4749
    8TMC3    C513979   2.528   2.521  12.802  0.1064 -0.1781  0.9109
    8TMC3    C613980   2.553   2.439  12.912  0.1547 -0.1802  0.8553
    8TMC3     C13981   2.260   2.665  12.918  0.0688  0.2224 -0.1132
    8TMC3     O13982   2.346   2.741  12.954 -0.1946  0.3592  0.6472
    8TMC3     H13983   2.248   2.455  13.062  1.3232 -0.6964  1.6025
    8TMC3    H113984   2.389   2.652  12.718  1.3763 -1.1492 -1.3667
    8TMC3    H213985   2.655   2.403  12.918  0.0661 -0.2509  2.0280
    8TMC3    C713986   2.633   2.619  12.776  0.7899 -0.6520  0.5784
    8TMC3    C813987   2.512   2.375  13.132  0.2125  0.0319  0.3364
    8TMC3    O113988   2.744   2.573  12.770  0.1562 -0.2895  0.3330
    8TMC3    O213989   2.630   2.396  13.153  0.1627  0.3240  0.2572
    9TMC3    C113990   2.366   3.516  13.118 -0.6307  0.1581 -0.1191
    9TMC3    C213991   2.489   3.487  13.067 -0.0069 -0.8385  0.1608
    9TMC3    C313992   2.494   3.399  12.959 -0.3681 -0.7876  0.5366
    9TMC3    C413993   2.252   3.448  13.069 -0.0661 -0.2345 -0.4305
    9TMC3    C513994   2.261   3.373  12.955  0.3184 -0.2785 -0.1824
    9TMC3    C613995   2.380   3.343  12.901 -0.3133 -0.7350  0.1362
    9TMC3     C13996   2.361   3.623  13.214 -0.0505 -0.1670  0.6708
    9TMC3     O13997   2.456   3.703  13.236 -0.1066  0.1520  0.0549
    9TMC3     H13998   2.574   3.541  13.105 -0.3312 -0.1058 -0.1487
    9TMC3    H113999   2.153   3.479  13.103 -0.6045 -0.1134 -2.0993
    9TMC3    H214000   2.386   3.281  12.812  2.2220 -0.6570  0.2462
    9TMC3    C714001   2.146   3.291  12.921 -0.7599 -0.2674 -0.5364
    9TMC3    C814002   2.615   3.341  12.914 -0.1231  0.0322 -0.4996
    9TMC3    O114003   2.037   3.352  12.898  0.1867 -0.0660 -0.5930
    9TMC3    O214004   2.698   3.412  12.861 -0.0488 -0.3399  0.3631
   10MPD2     C14005   2.800   2.865  12.773  0.3661 -0.0461 -1.2544
   10MPD2    C114006   2.668   2.861  12.817  0.4342  0.1941 -0.3909
   10MPD2    C214007   2.606   2.972  12.868 -0.0188  0.3265  0.0204
   10MPD2    C314008   2.672   3.096  12.869 -0.4634  0.7008 -0.2693
   10MPD2    C414009   2.800   3.098  12.813  0.0644 -0.3522  0.4712
   10MPD2    C514010   2.860   2.985  12.765  0.1151  0.4410  0.4144
   10MPD2     H14011   2.504   2.963  12.903  1.0668 -2.5718  2.4642
   10MPD2    H114012   2.857   3.188  12.791 -1.5112  0.7060  0.7118
   10MPD2    H214013   2.849   2.776  12.736 -0.2774 -0.8479 -0.1723
   10MPD2    H314014   2.953   2.994  12.710 -0.9273 -2.6879 -1.7998
   10MPD2     N14015   2.595   3.203  12.925  0.0033  0.3072  0.4220
   10MPD2    H514016   2.515   3.169  12.977  1.2427  0.1676  2.2171
   10MPD2    N114017   2.589   2.742  12.815  0.3061  0.4632  0.0019
   10MPD2    H714018   2.498   2.761  12.855  0.3302  3.4322 -1.3014
   11MPD2     C14019   3.348   1.680  13.936  0.5009  0.0976  0.5902
   11MPD2    C114020   3.412   1.789  13.882 -0.2695  0.9481  0.0659
   11MPD2    C214021   3.325   1.902  13.867  0.0886  0.1483  0.1687
   11MPD2    C314022   3.197   1.908  13.913  0.5336 -0.1614 -0.7107
   11MPD2    C414023   3.138   1.793  13.953  0.1217  0.8122  0.2776
   11MPD2    C514024   3.213   1.685  13.963  0.0308 -0.3548  0.3379
   11MPD2     H14025   3.367   1.998  13.838  0.7241 -0.7376 -1.8094
   11MPD2    H114026   3.035   1.783  13.986 -0.0050  0.9498 -0.0758
   11MPD2    H214027   3.393   1.583  13.955  0.2927  0.0298  0.7427
   11MPD2    H314028   3.173   1.590  13.995 -0.2171 -0.4626 -0.2847
   11MPD2     N14029   3.122   2.032  13.918 -0.6881  0.1837 -0.0501
   11MPD2    H514030   3.025   2.027  13.948 -0.1578  0.0362  1.5931
   11MPD2    N114031   3.546   1.796  13.842  0.3618 -0.4865 -0.6947
   11MPD2    H714032   3.578   1.881  13.795 -1.3607 -0.3964 -1.7217
    1MPD1     C14033   1.175   3.034  17.365 -0.1365 -0.3726  0.9569
    1MPD1    C114034   1.185   2.995  17.240  0.2660 -0.7381  0.3992
    1MPD1    C214035   1.269   3.066  17.157  1.0377  0.3311 -0.0805
    1MPD1    C314036   1.369   3.147  17.204 -0.8616  0.4510  0.0426
    1MPD1    C414037   1.367   3.175  17.341 -0.5082 -0.9202  0.4200
    1MPD1    C514038   1.266   3.126  17.416  0.2508 -0.7482 -0.0820
    1MPD1     H14039   1.276   3.035  17.053 -0.0088 -1.3649  0.3489
    1MPD1    H114040   1.438   3.239  17.392  0.3155 -2.5793  1.3380
    1MPD1    H214041   1.096   2.996  17.428 -1.1016 -1.2431 -0.8102
    1MPD1    H314042   1.253   3.160  17.518 -1.9913  0.0537 -0.6258
    1MPD1     N14043   1.476   3.200  17.125 -0.2965  0.6663 -0.0713
    1MPD1    H514044   1.540   3.262  17.174 -0.0674 -0.1000  0.5979
    1MPD1    N114045   1.087   2.918  17.178  0.4259 -0.0690 -0.1943
    1MPD1    H614046   1.124   2.865  17.099 -0.1318  2.6548 -2.2993
    1MPD1    H714047   1.043   2.853  17.242  1.7663  0.9244  1.7286
    2MPD1     C14048   2.029   4.024  17.036  0.1366  0.0650 -0.3842
    2MPD1    C114049   1.940   4.024  16.929 -0.7981 -0.3994  0.0397
    2MPD1    C214050   1.867   3.907  16.914 -0.7180 -0.2419 -0.1360
    2MPD1    C314051   1.873   3.803  17.005 -0.4883 -0.2737 -0.3901
    2MPD1    C414052   1.966   3.800  17.105 -0.1531 -0.2135 -0.0646
    2MPD1    C514053   2.042   3.918  17.123 -0.1682  0.2021 -0.2663
    2MPD1     H14054   1.799   3.908  16.830 -1.4134 -0.0552  0.4261
    2MPD1    H114055   1.987   3.714  17.167  1.1587 -0.7844 -1.2986
    2MPD1    H214056   2.098   4.106  17.057 -0.6174  0.5211  0.3211
    2MPD1    H314057   2.113   3.920  17.206  0.4119  1.9760 -0.8117
    2MPD1     N14058   1.800   3.688  16.968 -0.4751 -0.1443 -0.7630
    2MPD1    H514059   1.739   3.688  16.886  0.4842 -0.9720 -1.4728
    2MPD1    N114060   1.953   4.131  16.839 -0.0918  1.0483  0.1884
    2MPD1    H614061   1.979   4.214  16.893 -1.2096  1.1261  0.6221
    2MPD1    H714062   1.869   4.143  16.783 -1.4955  2.7291  2.6501
    3TMC3    C114063   1.741   3.463  16.954 -0.2072  0.2737  0.1500
    3TMC3    C214064   1.757   3.463  16.812 -0.3728  0.3340  0.1205
    3TMC3    C314065   1.692   3.371  16.748 -0.1948  0.1127 -0.7648
    3TMC3    C414066   1.668   3.374  17.031 -0.6120  1.1502 -0.4057
    3TMC3    C514067   1.597   3.284  16.949 -0.0201  0.5473 -0.0114
    3TMC3    C614068   1.604   3.280  16.813 -0.3033 -0.3259 -0.4372
    3TMC3     C14069   1.793   3.568  17.036  0.2023 -0.5512  0.3682
    3TMC3     O14070   1.820   3.548  17.150 -0.2085 -0.5393  0.2607
    3TMC3     H14071   1.808   3.540  16.756 -1.3533  0.7987 -0.1415
    3TMC3    H114072   1.651   3.396  17.136 -0.0413 -0.5130  0.0324
    3TMC3    H214073   1.531   3.229  16.752 -1.2684 -0.7435  1.0559
    3TMC3    C714074   1.488   3.204  16.990  0.2028  0.0089  0.1642
    3TMC3    C814075   1.662   3.388  16.605  0.4943 -0.2618 -0.0349
    3TMC3    O114076   1.410   3.159  16.908  0.4611  0.0141  0.1538
    3TMC3    O214077   1.540   3.375  16.580  0.3423 -0.5783  0.3554
    4MPD1     C14078   1.759   3.632  16.169 -0.1282 -0.0647 -0.2325
    4MPD1    C114079   1.878   3.626  16.238  0.3589 -0.8355 -0.5273
    4MPD1    C214080   1.878   3.536  16.343 -0.1177  0.0249  0.1331
    4MPD1    C314081   1.757   3.495  16.406 -0.5726 -0.0167  0.1825
    4MPD1    C414082   1.635   3.524  16.344  0.4847 -0.1308  0.9271
    4MPD1    C514083   1.637   3.595  16.223  0.4480 -0.8673 -0.8721
    4MPD1     H14084   1.976   3.514  16.383 -0.3882 -1.5439 -0.0727
    4MPD1    H114085   1.537   3.495  16.381 -0.2382 -0.7018 -1.4807
    4MPD1    H214086   1.755   3.668  16.067  1.2846  2.6372  0.6603
    4MPD1    H314087   1.540   3.616  16.180  0.0517  0.4158  0.6194
    4MPD1     N14088   1.768   3.425  16.530  0.1045 -0.0845  0.0700
    4MPD1    H514089   1.859   3.409  16.571  0.1547  1.7571  0.6968
    4MPD1    N114090   1.998   3.662  16.181  0.1200 -0.4309  0.3715
    4MPD1    H614091   2.067   3.678  16.254 -1.7815  0.2338  2.0275
    4MPD1    H714092   1.993   3.744  16.121 -0.6516 -2.0099 -1.7045
    1TCq1    O114093   3.287   3.094  11.092  0.5716 -0.0587 -0.2875
    1TCq1    C114094   3.304   3.022  11.207 -0.2935 -0.3662  0.8458
    1TCq1    O214095   3.386   3.054  11.295  0.7086  0.1499 -0.0175
    1TCq1    C214096   3.167   2.992  11.248 -0.6343  0.0685 -0.5883
    1TCq1    C314097   3.100   2.894  11.181 -0.7083  0.5164 -0.5519
    1TCq1    C414098   2.964   2.901  11.177 -1.0544  0.0213  0.4103
    1TCq1    C514099   2.895   2.967  11.279  0.1097  0.1242 -0.1838
    1TCq1    C614100   2.968   3.060  11.348 -0.2202  0.2151 -0.7155
    1TCq1    C714101   3.106   3.080  11.328 -0.3324 -0.0846  0.5823
    1TCq1    C814102   2.898   3.132  11.458  0.0835 -0.4745  0.0334
    1TCq1    O414103   2.954   3.230  11.510  0.6543 -0.1331  0.2183
    1TCq1    C914104   2.895   2.792  11.114 -0.2028  0.3240  0.6879
    1TCq1    O514105   2.778   2.768  11.146 -0.2331 -0.0624 -0.2032
    1TCq1    O614106   2.966   2.706  11.053 -0.1529  0.4084  0.4803
    1TCq1    H114107   3.206   3.083  11.039  0.4384 -1.0914  0.1284
    1TCq1    H214108   3.151   2.828  11.112  0.4222 -1.4422  2.1586
    1TCq1    H314109   2.788   2.951  11.287  0.0567  0.1744 -0.7977
    1TCq1    H414110   3.159   3.149  11.393 -1.7382  1.1922  0.3715
    2MPD1     C14111   2.564   3.210  11.829  0.5100  0.7676 -0.4310
    2MPD1    C114112   2.547   3.076  11.795 -0.0270 -0.1121  0.6038
    2MPD1    C214113   2.621   3.037  11.686  0.0010  0.0784 -0.2084
    2MPD1    C314114   2.703   3.117  11.612 -0.7280 -0.0334  0.1776
    2MPD1    C414115   2.696   3.253  11.638 -0.2157 -0.3247 -0.2631
    2MPD1    C514116   2.625   3.298  11.748  0.6098  0.0262  0.2936
    2MPD1     H14117   2.636   2.932  11.663 -1.0647 -0.1921  0.3374
    2MPD1    H114118   2.740   3.330  11.576 -0.4047 -0.9981 -1.2430
    2MPD1    H214119   2.530   3.251  11.924  0.1610  0.1251 -0.2768
    2MPD1    H314120   2.629   3.401  11.781 -0.8291 -0.0387  0.6674
    2MPD1     N14121   2.787   3.061  11.508  0.5504  0.4455 -0.3124
    2MPD1    H514122   2.787   2.965  11.475 -1.7986  1.5822 -3.6654
    2MPD1    N114123   2.496   2.983  11.887 -0.3342  0.5415 -0.7126
    2MPD1    H614124   2.444   2.911  11.838 -0.4286 -0.3321  0.6893
    2MPD1    H714125   2.437   3.029  11.957  1.6488  1.6945  0.1951
    1TMC1    C114126   0.294   3.578   0.545 -1.7135  0.7296 -0.1803
    1TMC1    C214127   0.230   3.686   0.486  0.0873  0.2175  0.5875
    1TMC1    C314128   0.192   3.790   0.567 -0.4477  0.7497 -1.6168
    1TMC1    C414129   0.310   3.569   0.683 -0.1802 -0.2019  0.0938
    1TMC1    C514130   0.280   3.677   0.754 -0.6346  0.3740 -0.0063
    1TMC1    C614131   0.207   3.778   0.698 -0.1350 -0.0355  0.1677
    1TMC1     C14132   0.402   3.511   0.471  0.5929 -0.1743 -0.5814
    1TMC1     O14133   0.439   3.410   0.528  0.5164 -0.3286 -0.0089
    1TMC1     H14134   0.238   3.703   0.379 -3.6840  0.2218  0.3062
    1TMC1    H114135   0.371   3.491   0.729 -0.3235 -0.1320  0.3992
    1TMC1    H214136   0.195   3.867   0.759 -2.1766 -1.1657  1.4391
    1TMC1    C714137   0.277   3.648   0.895  0.1090  0.3134  0.1284
    1TMC1    C814138   0.108   3.887   0.510 -0.6823 -0.0115 -0.2128
    1TMC1    O114139   0.338   3.559   0.950 -0.2549  0.8233 -0.6257
    1TMC1    O214140   0.122   3.957   0.413 -0.5379 -0.4611 -0.0355
    1TMC1    O314141   0.164   3.707   0.945  0.4696 -0.1575 -0.0969
    1TMC1    H314142   0.114   3.774   0.893  1.9950  0.6576 -0.5235
    1TMC1    O514143   4.726   3.855   0.561  0.0317  0.5321 -0.4174
    1TMC1    H514144   0.002   3.783   0.627  0.3144  0.5868 -0.4090
    2MPD1     C14145   0.766   3.427   0.123 -0.5240  0.1130  0.2873
    2MPD1    C114146   0.658   3.494   0.067 -0.6819 -0.1715  0.4156
    2MPD1    C214147   0.548   3.531   0.142 -0.1579 -0.3524 -0.0316
    2MPD1    C314148   0.539   3.494   0.272 -0.1607 -0.2946  0.0115
    2MPD1    C414149   0.651   3.423   0.330  1.0369 -0.1914  0.1833
    2MPD1    C514150   0.766   3.386   0.257 -0.0786  0.6459 -0.4346
    2MPD1     H14151   0.464   3.588   0.104 -1.0700  0.0286  2.5681
    2MPD1    H114152   0.649   3.410   0.438 -1.2292  1.2285  0.3286
    2MPD1    H214153   0.857   3.406   0.068 -0.3823 -0.6882  0.8241
    2MPD1    H314154   0.853   3.341   0.304 -0.3367 -0.3552 -0.9096
    2MPD1     N14155   0.441   3.551   0.346 -0.5024  0.9111  0.5140
    2MPD1    H514156   0.377   3.613   0.299 -0.2472 -1.3049 -2.7946
    2MPD1    N114157   0.678   3.533  17.680 -0.4047 -0.4710 -0.3590
    2MPD1    H614158   0.593   3.545  17.625 -0.8121  0.0712  0.3885
    2MPD1    H714159   0.749   3.483  17.628  1.3640 -0.4727  2.0619
    1MPD1     C14160   4.468   3.741  11.503  0.2936 -0.5612 -0.8048
    1MPD1    C114161   4.538   3.737  11.617  0.0068 -0.0906  0.0187
    1MPD1    C214162   4.598   3.857  11.647 -0.0969 -0.2475 -0.8290
    1MPD1    C314163   4.586   3.973  11.568  0.3621  0.5812  0.2855
    1MPD1    C414164   4.529   3.958  11.444 -0.3347  0.1208 -0.1763
    1MPD1    C514165   4.463   3.843  11.411 -0.6913  0.7406  0.1848
    1MPD1     H14166   4.670   3.862  11.728 -2.0429 -0.1675  0.9115
    1MPD1    H114167   4.494   4.044  11.389 -0.2532 -0.1206 -0.6080
    1MPD1    H214168   4.423   3.649  11.467  0.6978 -0.8063 -0.6811
    1MPD1    H314169   4.413   3.838  11.315 -0.5028 -0.4686  0.1421
    1MPD1     N14170   4.648   4.086  11.618 -0.0873 -0.5073  0.3485
    1MPD1    H514171   4.677   4.078  11.715 -2.6634  0.6536  1.2062
    1MPD1    N114172   4.584   3.615  11.675 -0.2785  0.7204 -0.4062
    1MPD1    H614173   4.575   3.624  11.776  3.9710 -0.5506  0.0810
    1MPD1    H714174   4.524   3.539  11.643  0.0880  0.0236  0.5403
    2MPD1     C14175   3.429   3.536  11.336  0.2389 -0.0748 -0.2047
    2MPD1    C114176   3.502   3.647  11.303  0.1103  0.3144  0.6581
    2MPD1    C214177   3.558   3.654  11.175  0.5180 -0.0966  0.1101
    2MPD1    C314178   3.545   3.540  11.095 -0.0324 -0.2622 -0.0180
    2MPD1    C414179   3.474   3.426  11.132  0.5878 -0.0653  0.3080
    2MPD1    C514180   3.417   3.427  11.255  0.0118  0.6263  1.2940
    2MPD1     H14181   3.604   3.746  11.141 -2.3268  1.6821  1.1264
    2MPD1    H114182   3.464   3.333  11.077  0.2106 -0.5523  1.2124
    2MPD1    H214183   3.385   3.525  11.435 -1.9176 -0.6230 -1.2155
    2MPD1    H314184   3.363   3.344  11.299 -1.0889  1.8648  2.2614
    2MPD1     N14185   3.619   3.533  10.972  0.2016 -0.0539  0.3144
    2MPD1    H514186   3.623   3.444  10.925  2.6966 -1.1080  2.5757
    2MPD1    N114187   3.482   3.761  11.383  0.4571 -0.0330  0.2616
    2MPD1    H614188   3.473   3.715  11.474 -2.9185  0.6714  0.2955
    2MPD1    H714189   3.562   3.822  11.399  0.0483  1.5469 -3.8741
    3MPD1     C14190   3.498   3.047  10.224 -0.4989  0.1562 -1.0288
    3MPD1    C114191   3.520   3.000  10.353 -0.8089 -0.6566 -0.0101
    3MPD1    C214192   3.578   3.087  10.447  0.5308 -0.3476 -0.1473
    3MPD1    C314193   3.626   3.211  10.418  0.1917  0.0926  1.0115
    3MPD1    C414194   3.606   3.254  10.287  0.0089  0.6405 -0.0009
    3MPD1    C514195   3.539   3.177  10.199  0.3080 -0.2309 -0.9471
    3MPD1     H14196   3.591   3.051  10.548  0.1148  2.0375  0.7601
    3MPD1    H114197   3.648   3.346  10.248  1.0457 -0.0784 -0.6047
    3MPD1    H214198   3.445   2.982  10.156  0.3736  0.9666 -2.4820
    3MPD1    H314199   3.524   3.211  10.097  1.0687  1.2089 -0.5748
    3MPD1     N14200   3.694   3.289  10.515 -0.1081  0.1694  0.5227
    3MPD1    H514201   3.690   3.266  10.614 -0.9949 -0.4942  0.3325
    3MPD1    N114202   3.465   2.878  10.397 -0.2257  0.1372 -0.2351
    3MPD1    H614203   3.492   2.841  10.488 -0.3797 -0.4769 -0.4319
    3MPD1    H714204   3.470   2.811  10.320  1.5778 -0.2348  0.2050
    4MPD2     C14205   0.084   4.394  11.002 -0.3875 -0.8259 -0.1161
    4MPD2    C114206   0.179   4.325  11.068 -0.0176  0.2235  0.3324
    4MPD2    C214207   0.234   4.207  11.027 -0.0867 -0.3711 -0.3445
    4MPD2    C314208   0.192   4.152  10.906 -0.4121  0.1604  0.0220
    4MPD2    C414209   0.097   4.224  10.832 -0.6035  0.1992  1.0728
    4MPD2    C514210   0.044   4.342  10.882  0.2558 -1.0174 -0.5279
    4MPD2     H14211   0.310   4.154  11.084  0.4711 -1.8955 -2.5148
    4MPD2    H114212   0.049   4.194  10.740  1.8915 -0.1472 -0.1093
    4MPD2    H214213   0.033   4.480  11.044  0.0625  0.4241 -2.1047
    4MPD2    H314214   4.704   4.402  10.834 -0.5950 -1.2148  0.5886
    4MPD2     N14215   0.234   4.029  10.864  0.1472 -0.3447 -0.4416
    4MPD2    H514216   0.290   3.979  10.931 -1.0805 -2.5115 -1.0219
    4MPD2    N114217   0.210   4.355  11.199  0.1817  0.0029  0.3399
    4MPD2    H714218   0.274   4.289  11.242  1.0438 -0.0836 -1.0420
    5TMC3    C114219   0.168   4.396  11.427  0.4013 -0.7071 -0.6863
    5TMC3    C214220   0.058   4.382  11.503  0.3702  0.6122  0.1659
    5TMC3    C314221   0.045   4.279  11.593  0.4602 -0.1073  0.2171
    5TMC3    C414222   0.279   4.310  11.449 -0.6320 -0.3691  0.1335
    5TMC3    C514223   0.264   4.208  11.539 -0.9896 -0.3182 -0.4425
    5TMC3    C614224   0.154   4.199  11.619 -0.1001  0.0666 -0.3555
    5TMC3     C14225   0.146   4.439  11.290  0.1467  0.3198  0.1994
    5TMC3     O14226   0.059   4.525  11.271  0.3180  0.4178 -0.1411
    5TMC3     H14227   4.706   4.438  11.470  1.1552  0.8123 -1.6161
    5TMC3    H114228   0.373   4.335  11.401  0.4398  0.9515  2.9133
    5TMC3    H214229   0.149   4.127  11.700 -0.5658  1.8281  1.1901
    5TMC3    C714230   0.286   4.084  11.473  0.3302 -0.4776  1.3259
    5TMC3    C814231   4.660   4.205  11.555  0.0350 -0.6229  0.1034
    5TMC3    O114232   0.320   4.104  11.359  0.2824  0.2722  0.4041
    5TMC3    O214233   4.625   4.236  11.443 -0.2925 -0.3799  0.5287
    6TMC3    C114234   3.798   3.571  10.814  0.0188 -0.4065  0.7224
    6TMC3    C214235   3.740   3.485  10.721 -0.2216 -0.5157  0.3048
    6TMC3    C314236   3.823   3.465  10.615 -0.1897  0.1282 -0.4445
    6TMC3    C414237   3.919   3.629  10.804 -0.5882  0.2198 -0.1938
    6TMC3    C514238   4.003   3.591  10.703  0.4760 -0.1517 -0.5106
    6TMC3    C614239   3.949   3.520  10.597  0.2188 -0.6767 -0.0606
    6TMC3     C14240   3.711   3.620  10.927 -0.4329 -0.0254 -1.2668
    6TMC3     O14241   3.747   3.727  10.976 -0.4276 -0.2994  0.3704
    6TMC3     H14242   3.649   3.426  10.719 -0.7143  0.3189 -1.6852
    6TMC3    H114243   3.959   3.681  10.889 -0.1648  1.3945 -1.1156
    6TMC3    H214244   4.004   3.493  10.508  0.7936  1.1576 -0.2767
    6TMC3    C714245   4.141   3.569  10.735 -0.8216  0.8783 -0.0471
    6TMC3    C814246   3.755   3.413  10.498  0.3199 -0.0847  0.3375
    6TMC3    O114247   4.193   3.647  10.815  0.1298  0.2419 -0.0476
    6TMC3    O214248   3.786   3.471  10.392 -0.3102  0.5868  0.2716
    7MPD2     C14249   0.234   3.580  11.403  0.3380  0.1846 -0.3191
    7MPD2    C114250   0.239   3.681  11.315 -0.0859 -0.3535 -0.5176
    7MPD2    C214251   0.262   3.811  11.360  0.1790  0.5739  0.6134
    7MPD2    C314252   0.253   3.847  11.495  0.9166 -0.0983 -0.2407
    7MPD2    C414253   0.223   3.745  11.577  0.0985  0.4647  0.0810
    7MPD2    C514254   0.226   3.614  11.533 -0.2375  0.5554  0.5273
    7MPD2     H14255   0.249   3.900  11.299  2.2755  0.0865 -0.5029
    7MPD2    H114256   0.216   3.759  11.685  0.9188  0.2445  0.1616
    7MPD2    H214257   0.223   3.476  11.377 -1.2874 -0.0921  1.4400
    7MPD2    H314258   0.226   3.528  11.600 -0.5451  0.7325  0.7513
    7MPD2     N14259   0.259   3.972  11.545  0.3250  0.6947 -0.0247
    7MPD2    H514260   0.226   3.986  11.640 -0.3311  1.0599 -0.3079
    7MPD2    N114261   0.225   3.655  11.178 -0.2060  0.3263  0.1206
    7MPD2    H714262   0.206   3.558  11.156 -0.2782  0.8401 -2.1134
    8TMC3    C114263   0.231   3.699  10.942  0.0658 -0.4961  0.5975
    8TMC3    C214264   0.119   3.638  10.917 -0.6283  0.8802 -0.0916
    8TMC3    C314265   0.065   3.662  10.800  0.0380  0.3028  0.8370
    8TMC3    C414266   0.302   3.782  10.859 -1.0910  0.5539  0.9558
    8TMC3    C514267   0.228   3.821  10.749  0.0555  0.4773  0.2229
    8TMC3    C614268   0.115   3.752  10.716  0.0366 -0.2021  0.1500
    8TMC3     C14269   0.262   3.743  11.079 -0.2256  0.3516  0.1795
    8TMC3     O14270   0.324   3.847  11.088  0.0938 -0.3444 -0.5358
    8TMC3     H14271   0.065   3.588  10.997 -1.1945  0.4447 -0.7428
    8TMC3    H114272   0.402   3.816  10.879 -1.2729  0.9395  1.1996
    8TMC3    H214273   0.060   3.779  10.626  1.0495 -0.5975 -0.6032
    8TMC3    C714274   0.193   3.959  10.750  0.9360 -0.8001 -0.1979
    8TMC3    C814275   4.671   3.621  10.772  0.3545  0.4323  0.0421
    8TMC3    O114276   0.118   4.003  10.660  0.6465  0.3128 -0.2372
    8TMC3    O214277   4.594   3.684  10.700  0.1320  0.1507 -0.3488
    9MPD2     C14278   4.544   3.284  10.823  0.3167 -0.0246  0.0815
    9MPD2    C114279   4.536   3.423  10.803 -0.1206 -0.1840  0.1713
    9MPD2    C214280   4.408   3.481  10.777 -0.4908  0.3009  0.0788
    9MPD2    C314281   4.303   3.396  10.737  0.2813 -0.5978  0.2520
    9MPD2    C414282   4.323   3.258  10.729  0.7949  0.2723  0.6508
    9MPD2    C514283   4.436   3.205  10.791  0.3165 -0.2249  0.0846
    9MPD2     H14284   4.402   3.588  10.761  0.2776  0.2764 -0.4147
    9MPD2    H114285   4.251   3.189  10.686  0.9808  0.2998  0.2977
    9MPD2    H214286   4.640   3.237  10.840  1.1660  1.2724 -1.1060
    9MPD2    H314287   4.458   3.099  10.782 -1.9666 -0.6142 -0.7507
    9MPD2     N14288   4.177   3.445  10.698 -0.1619  0.4328 -0.2405
    9MPD2    H514289   4.098   3.394  10.660  0.1547 -1.0784  1.1280
    9MPD2    N114290   4.656   3.497  10.816 -0.4846  0.0325 -0.5268
    9MPD2    H714291   0.009   3.457  10.843 -1.0730  0.0716  1.4812
    1MPD1     C14292   3.366   1.503  14.881  0.1934 -0.3573 -0.5812
    1MPD1    C114293   3.345   1.604  14.787  0.3937 -0.1090 -0.0665
    1MPD1    C214294   3.384   1.736  14.810  0.1409 -0.2528 -0.1273
    1MPD1    C314295   3.402   1.773  14.944  0.1610  0.4792 -0.1105
    1MPD1    C414296   3.426   1.681  15.040 -0.0629  0.6404  0.1391
    1MPD1    C514297   3.419   1.546  15.004 -0.8327 -0.0611  0.3318
    1MPD1     H14298   3.379   1.813  14.733  0.5638  0.8735  0.9533
    1MPD1    H114299   3.462   1.714  15.137  0.7149 -1.0905  0.4418
    1MPD1    H214300   3.350   1.398  14.863  1.3368 -0.8000  0.9954
    1MPD1    H314301   3.441   1.473  15.081  1.3031  1.5918  1.2580
    1MPD1     N14302   3.413   1.908  14.988  0.0391 -0.8014  0.4918
    1MPD1    H514303   3.443   1.912  15.085 -1.0136  2.1508  0.6858
    1MPD1    N114304   3.307   1.565  14.658 -0.7842  0.9615 -0.2806
    1MPD1    H614305   3.286   1.643  14.595 -1.9252  2.4403  1.9358
    1MPD1    H714306   3.242   1.487  14.651  0.3573 -0.0995  0.9215
    2TMC2    C114307   3.439   2.295  15.166  0.7449  0.1567 -0.0199
    2TMC2    C214308   3.460   2.401  15.083 -1.4677  0.4316 -0.2079
    2TMC2    C314309   3.460   2.381  14.948  0.5809  0.2567 -0.2411
    2TMC2    C414310   3.431   2.167  15.116 -0.3230  0.2191  0.0344
    2TMC2    C514311   3.428   2.146  14.981 -0.0287  0.0007 -0.0410
    2TMC2    C614312   3.441   2.254  14.896  0.1334  0.0901 -0.3306
    2TMC2     C14313   3.472   2.315  15.305 -0.0487 -0.2956  0.6869
    2TMC2     O14314   3.484   2.431  15.334  0.0496 -0.0897 -0.2311
    2TMC2     H14315   3.468   2.504  15.115  0.2663  0.1050  0.3935
    2TMC2    H114316   3.404   2.092  15.189 -2.3176  0.2597 -0.6682
    2TMC2    H214317   3.416   2.240  14.791 -0.1378  1.5557 -0.4535
    2TMC2    C714318   3.378   2.025  14.919 -0.2340 -0.6415 -0.0938
    2TMC2    C814319   3.440   2.500  14.868  0.0786 -0.0584 -0.6144
    2TMC2    O114320   3.329   2.037  14.808 -0.4415  0.7812 -0.2181
    2TMC2    O214321   3.495   2.602  14.907  0.1579  0.1916  0.1544
    2TMC2    O514322   3.335   2.486  14.776  0.5217  0.1955  0.4868
    2TMC2    H514323   3.294   2.397  14.775  0.4503  0.2208  1.0455
    3MPD1     C14324   3.599   2.182  15.762 -0.0549 -0.3763  0.0239
    3MPD1    C114325   3.641   2.078  15.682 -0.6551  0.1157  0.8473
    3MPD1    C214326   3.592   2.074  15.552 -0.3003  0.1122 -0.9743
    3MPD1    C314327   3.529   2.188  15.506  0.3090  0.2467 -0.0013
    3MPD1    C414328   3.498   2.293  15.584 -0.6998 -0.1357  0.1113
    3MPD1    C514329   3.523   2.288  15.715 -0.1912  0.2694 -0.7240
    3MPD1     H14330   3.631   2.000  15.484 -1.1136 -1.0424 -0.2066
    3MPD1    H114331   3.436   2.373  15.543  0.4283  1.4596  1.5304
    3MPD1    H214332   3.625   2.188  15.866  0.6799  1.1281 -0.2358
    3MPD1    H314333   3.478   2.358  15.785 -0.4347  2.1945 -2.8144
    3MPD1     N14334   3.514   2.197  15.366  0.1176  0.3593  0.1175
    3MPD1    H514335   3.528   2.111  15.313  1.5887  0.7194 -0.0783
    3MPD1    N114336   3.709   1.970  15.746  0.6421 -0.2635  0.5596
    3MPD1    H614337   3.759   1.994  15.831 -0.1121  1.0263  0.6285
    3MPD1    H714338   3.771   1.919  15.684 -1.8500 -0.6175 -1.6553
    1TMC1    C114339   2.401   1.064  13.145 -0.0170 -0.1572 -0.3513
    1TMC1    C214340   2.406   0.935  13.189 -0.1760  0.1070 -0.4538
    1TMC1    C314341   2.282   0.869  13.197  0.1474  0.4284  0.0859
    1TMC1    C414342   2.287   1.125  13.113  0.3134  0.6185 -0.1688
    1TMC1    C514343   2.170   1.046  13.118  0.4692 -0.1831  0.0239
    1TMC1    C614344   2.163   0.918  13.157 -0.6103 -0.1063 -0.2790
    1TMC1     C14345   2.511   1.154  13.165  0.4799 -0.1564  0.2108
    1TMC1     O14346   2.503   1.270  13.128  0.0726  0.3209 -0.0964
    1TMC1     H14347   2.498   0.880  13.200 -0.7058 -0.8539 -0.8972
    1TMC1    H114348   2.289   1.229  13.081 -0.7294  0.4767 -0.6808
    1TMC1    H214349   2.073   0.858  13.149 -0.7596 -0.0252  0.7821
    1TMC1    C714350   2.044   1.116  13.092  0.6324 -0.4977  0.6007
    1TMC1    C814351   2.291   0.724  13.184  0.0755  0.1326 -0.6060
    1TMC1    O114352   1.937   1.105  13.152  0.6991  0.2694  0.3569
    1TMC1    O214353   2.346   0.662  13.092  0.3714  0.4775 -0.4894
    1TMC1    O314354   2.069   1.187  12.977 -0.1602  0.6979 -0.6491
    1TMC1    H314355   2.157   1.162  12.942  0.3765  2.1333 -0.3216
    1TMC1    O514356   2.186   0.678  13.255  0.1654 -0.1789  0.3043
    1TMC1    H514357   2.177   0.730  13.338 -1.4389  0.3425 -0.1980
    2MPD2     C14358   2.783   1.244  13.246 -0.1850  0.1559  0.0617
    2MPD2    C114359   2.719   1.142  13.303  0.0013 -0.1200 -0.0823
    2MPD2    C214360   2.779   1.072  13.406 -0.4588  0.6835  0.3080
    2MPD2    C314361   2.894   1.120  13.465 -0.8669  0.2769 -0.3167
    2MPD2    C414362   2.957   1.227  13.413 -0.4789 -0.4345  0.2801
    2MPD2    C514363   2.898   1.291  13.307 -0.0106 -0.0936  0.2222
    2MPD2     H14364   2.731   0.983  13.446  0.2580  0.9051  1.6480
    2MPD2    H114365   3.042   1.276  13.460 -1.2790 -0.1097  1.3934
    2MPD2    H214366   2.757   1.287  13.150  3.9910 -0.1222 -1.2032
    2MPD2    H314367   2.950   1.376  13.264  0.0262  1.2025  2.7904
    2MPD2     N14368   2.937   1.051  13.576 -0.6081  0.1876  0.1354
    2MPD2    H514369   2.883   0.968  13.596 -0.0594 -0.5955 -1.6474
    2MPD2    N114370   2.595   1.094  13.252  0.0783  0.6460 -0.1238
    2MPD2    H714371   2.556   1.009  13.293 -0.6091  0.9601 -0.1312
    3TCq1    O114372   2.992   0.954  14.185  0.9558  0.4816 -0.2387
    3TCq1    C114373   3.109   0.985  14.126  0.6133  0.1349  0.2829
    3TCq1    O214374   3.161   1.089  14.156  0.0901 -0.5368  0.1571
    3TCq1    C214375   3.089   0.942  13.990  0.3139  0.8054  0.2138
    3TCq1    C314376   3.062   0.805  13.970 -0.4512 -0.5480  0.1595
    3TCq1    C414377   3.034   0.771  13.840 -0.1849  0.3603  0.0557
    3TCq1    C514378   3.030   0.858  13.739 -0.1184  0.3577  0.2634
    3TCq1    C614379   3.063   0.988  13.769  0.0995  0.8747 -0.7105
    3TCq1    C714380   3.104   1.034  13.890 -0.1613 -0.5080 -0.4358
    3TCq1    C814381   3.037   1.092  13.666 -0.0899 -0.5438 -0.0955
    3TCq1    O414382   3.098   1.201  13.668  0.7340 -0.2104  0.6181
    3TCq1    C914383   2.987   0.638  13.811 -0.0443 -0.2137  0.5505
    3TCq1    O514384   3.066   0.545  13.843  0.2748 -0.0801 -0.4723
    3TCq1    O614385   2.899   0.631  13.721  0.9040 -0.5971  0.1288
    3TCq1    H114386   2.951   0.885  14.127 -1.1022 -0.3445  2.1884
    3TCq1    H214387   3.070   0.726  14.044  0.2849 -1.7489 -1.2104
    3TCq1    H314388   3.000   0.819  13.642 -0.3437  0.5810  0.2419
    3TCq1    H414389   3.132   1.137  13.906  0.5180 -0.3448 -2.6641
    1MPD2     C14390   1.837   2.658  14.547  0.4552  0.1875  0.9348
    1MPD2    C114391   1.799   2.611  14.673  0.1347  0.1916 -0.0984
    1MPD2    C214392   1.890   2.527  14.744  0.2337 -0.0812  0.6739
    1MPD2    C314393   2.009   2.488  14.689  0.3909  1.0288  0.6149
    1MPD2    C414394   2.040   2.529  14.560  0.2054 -0.3650  0.1365
    1MPD2    C514395   1.950   2.605  14.491  0.4717  0.4376  0.0046
    1MPD2     H14396   1.861   2.485  14.840 -0.2526  1.3027  1.1365
    1MPD2    H114397   2.127   2.486  14.512 -0.0219 -1.0120  0.3021
    1MPD2    H214398   1.771   2.723  14.490  2.2387 -1.4382 -3.0171
    1MPD2    H314399   1.978   2.619  14.387  2.3887 -0.2774  0.4174
    1MPD2     N14400   2.095   2.396  14.751 -0.1776 -0.7819 -0.3093
    1MPD2    H514401   2.175   2.364  14.697  0.8621 -2.7367  2.3629
    1MPD2    N114402   1.674   2.650  14.714  0.1687  0.6349  0.5660
    1MPD2    H714403   1.632   2.734  14.677 -2.4423  0.1964  2.5555
    2TMC3    C114404   1.477   2.638  14.852  0.0753  0.5979 -0.7746
    2TMC3    C214405   1.408   2.535  14.913 -0.5210 -0.6696 -0.4738
    2TMC3    C314406   1.295   2.481  14.858  0.2034 -0.4263 -0.3518
    2TMC3    C414407   1.423   2.700  14.744 -0.4040  0.0257  0.5714
    2TMC3    C514408   1.300   2.654  14.703  0.0213 -0.1734 -0.6519
    2TMC3    C614409   1.235   2.546  14.751 -0.4608  0.1871  0.7866
    2TMC3     C14410   1.620   2.607  14.837  1.0219 -0.1710  0.3169
    2TMC3     O14411   1.651   2.508  14.904 -0.1305 -0.1545  0.8352
    2TMC3     H14412   1.449   2.496  15.006 -1.2847  0.3614  0.3056
    2TMC3    H114413   1.468   2.786  14.696 -1.2392 -0.2644 -0.7248
    2TMC3    H214414   1.151   2.493  14.708  0.4347 -0.7901  0.2292
    2TMC3    C714415   1.238   2.705  14.577 -0.1981 -1.0700  0.0014
    2TMC3    C814416   1.319   2.349  14.809 -0.2750  0.2440 -0.2570
    2TMC3    O114417   1.141   2.647  14.526  1.0028  0.6968 -0.5465
    2TMC3    O214418   1.222   2.289  14.768  0.3971  0.0066  0.7990
    3TCq1    O114419   1.729   3.383  13.712  0.3422  0.1678 -0.0806
    3TCq1    C114420   1.814   3.417  13.813 -0.8928  0.3536 -0.2214
    3TCq1    O214421   1.888   3.511  13.809  0.1700 -0.7074 -0.2986
    3TCq1    C214422   1.779   3.355  13.937  0.1172 -0.3509  0.6226
    3TCq1    C314423   1.869   3.365  14.041  0.0400 -0.0056  0.1661
    3TCq1    C414424   1.829   3.316  14.165 -0.7225 -0.0265 -0.5358
    3TCq1    C514425   1.707   3.265  14.187 -0.7159  0.6290  0.2646
    3TCq1    C614426   1.621   3.258  14.080  0.4599  0.6095  0.2756
    3TCq1    C714427   1.650   3.304  13.955  0.0481 -0.1939  0.7244
    3TCq1    C814428   1.497   3.185  14.079 -0.4169 -0.0462  0.3085
    3TCq1    O414429   1.426   3.178  13.984  0.2272  0.5124  0.2429
    3TCq1    C914430   1.925   3.302  14.273  0.0516  0.1944  0.0979
    3TCq1    O514431   1.896   3.258  14.386 -0.0989 -0.1344  0.0066
    3TCq1    O614432   2.033   3.352  14.244 -0.4319  0.3634 -0.2125
    3TCq1    H114433   1.697   3.293  13.735  0.4672  0.0687 -0.2899
    3TCq1    H214434   1.967   3.410  14.032 -0.4614 -0.0479 -5.1303
    3TCq1    H314435   1.692   3.220  14.284 -0.9093  1.0323  0.4203
    3TCq1    H414436   1.579   3.312  13.874 -1.2075  2.0495  2.0541
    4MPD2     C14437   1.266   2.992  14.154  0.0380  0.9107  0.2328
    4MPD2    C114438   1.374   3.025  14.232 -0.1785 -0.4104 -0.4559
    4MPD2    C214439   1.400   2.944  14.341  0.6889  0.3060  0.3830
    4MPD2    C314440   1.299   2.858  14.385  0.9393  0.9858 -0.2889
    4MPD2    C414441   1.189   2.830  14.306 -0.0330 -0.9499 -0.2313
    4MPD2    C514442   1.178   2.898  14.187 -0.4409 -0.5981  0.0792
    4MPD2     H14443   1.482   2.967  14.408  2.9369 -0.7271 -2.0196
    4MPD2    H114444   1.117   2.751  14.325  0.8006 -1.5958  0.2263
    4MPD2    H214445   1.244   3.059  14.071  1.4979 -0.0928 -0.9769
    4MPD2    H314446   1.103   2.867  14.115  1.8550 -1.3418 -1.9743
    4MPD2     N14447   1.317   2.794  14.510 -0.2606  0.5127  0.2280
    4MPD2    H514448   1.397   2.819  14.568  1.6719 -0.0883 -2.1660
    4MPD2    N114449   1.475   3.123  14.204 -0.6024  0.0457  0.7595
    4MPD2    H714450   1.553   3.137  14.267 -1.6277  0.2937  1.9858
    5TMC2    C114451   2.076   2.016  14.819  0.0126  0.0883  0.2794
    5TMC2    C214452   2.060   1.977  14.949  0.2782 -0.1694 -0.5267
    5TMC2    C314453   2.099   2.066  15.048 -0.1335  0.8024 -0.2682
    5TMC2    C414454   2.128   2.139  14.789  0.4076  0.5128  0.6721
    5TMC2    C514455   2.166   2.227  14.888  0.3119  0.3665  0.5375
    5TMC2    C614456   2.160   2.191  15.024  0.1305 -0.7969  0.4575
    5TMC2     C14457   1.961   2.002  14.734 -0.0032  0.4120  0.0656
    5TMC2     O14458   1.980   1.977  14.616  0.6215  0.3355  0.2260
    5TMC2     H14459   2.013   1.881  14.970 -0.9108  0.1505 -1.6844
    5TMC2    H114460   2.126   2.176  14.687 -1.3502 -0.2901  0.4187
    5TMC2    H214461   2.180   2.271  15.094 -1.0381 -1.1944  1.2406
    5TMC2    C714462   2.083   2.345  14.874  0.1133 -0.0961 -0.8032
    5TMC2    C814463   2.117   2.012  15.182 -0.3570  0.7158  0.2304
    5TMC2    O114464   2.015   2.378  14.968  0.0326  0.1829  0.2994
    5TMC2    O214465   2.028   1.968  15.250 -0.1127 -0.1681  0.2954
    5TMC2    O514466   2.249   2.031  15.215  1.1335 -0.1741  0.4201
    5TMC2    H514467   2.308   2.071  15.147  0.3125 -1.1663 -0.8854
    6MPD2     C14468   1.467   2.133  14.643  0.3010  0.6992 -0.1681
    6MPD2    C114469   1.518   2.217  14.745  0.5985 -0.4203  0.0536
    6MPD2    C214470   1.650   2.198  14.781  0.2905  0.2486  0.8627
    6MPD2    C314471   1.732   2.102  14.730 -0.5176 -0.3195  0.4093
    6MPD2    C414472   1.679   2.026  14.627  0.1356 -0.0345  0.2870
    6MPD2    C514473   1.545   2.040  14.587  0.1972 -0.6818  0.0980
    6MPD2     H14474   1.688   2.262  14.859  0.1289 -0.4049  1.4859
    6MPD2    H114475   1.733   1.948  14.575 -1.9384 -1.1220 -0.2594
    6MPD2    H214476   1.372   2.156  14.595 -1.1904  0.6062  2.7046
    6MPD2    H314477   1.503   1.973  14.514  0.4878 -0.3690 -0.3523
    6MPD2     N14478   1.853   2.068  14.801  0.1503 -0.0399 -0.6570
    6MPD2    H514479   1.880   2.118  14.886  0.1974  0.4484 -0.9609
    6MPD2    N114480   1.450   2.324  14.806  0.3686  0.2081  0.2965
    6MPD2    H714481   1.504   2.386  14.866 -1.5603  0.5689  1.6795
  945NH4     N114482   2.216   3.599  10.682 -0.3400  0.3459  0.0851
  945NH4     H214483   2.242   3.571  10.779 -4.7639  0.6795  1.3864
  945NH4     H314484   2.282   3.672  10.649 -2.0549  1.4627 -0.8611
  945NH4     H414485   2.120   3.639  10.677  0.6734  2.8185  0.5002
  945NH4     H514486   2.226   3.507  10.635 -2.4435 -0.1649  0.6164
  946SOD     NA14487   0.562   4.418   7.985 -0.2625 -0.1774  0.0382
  947SOD     NA14488   4.664   1.611   8.765  0.3553  0.1798  0.4554
  948SOD     NA14489   3.195   3.215  13.433  0.5087 -0.1704 -0.0212
  949SOD     NA14490   2.450   4.133  16.864  0.1610 -0.2859  0.2787
  950SOD     NA14491   4.257   2.571  15.034 -0.0212  0.0166 -0.3740
  951SOD     NA14492   3.052   0.646   9.780 -0.2020 -0.1661 -0.4292
  952SOD     NA14493   3.520   3.274   3.133  0.1944  0.1727  0.4461
  953SOL     OW14494   0.747   3.752   3.417 -0.6674  0.0248  0.1663
  953SOL    HW114495   0.748   3.666   3.374  1.4187  0.5762 -0.8908
  953SOL    HW214496   0.678   3.751   3.483 -1.8459 -0.2983 -1.0736
  954SOL     OW14497   2.005   4.511   0.777 -0.4138 -0.0071 -0.2167
  954SOL    HW114498   1.938   4.556   0.725 -0.4126 -1.9589 -1.9042
  954SOL    HW214499   2.076   4.511   0.713 -1.0591  0.9663 -0.9498
  955SOL     OW14500   4.388   4.313  12.495 -0.1478  0.5835  0.0775
  955SOL    HW114501   4.465   4.357  12.532  2.0678 -2.0260 -1.4216
  955SOL    HW214502   4.410   4.308  12.402  0.8145  0.1461  0.3276
  956SOL     OW14503   2.007   4.404   5.306  0.6699 -0.1428 -0.6477
  956SOL    HW114504   1.981   4.495   5.323  2.3636  0.3769 -0.7906
  956SOL    HW214505   1.959   4.377   5.228  1.7956  0.0497 -1.4041
  957SOL     OW14506   2.819   1.080   6.403 -0.5091  0.0481  0.3613
  957SOL    HW114507   2.852   1.013   6.342 -1.1817 -0.3759  0.4621
  957SOL    HW214508   2.905   1.122   6.404 -0.1090 -0.7287 -1.8278
  958SOL     OW14509   4.124   4.162   1.652  0.0870 -0.2472 -0.6250
  958SOL    HW114510   4.168   4.109   1.718  1.1025  0.6393 -0.6013
  958SOL    HW214511   4.040   4.115   1.654  0.3263 -0.6261  0.3946
  959SOL     OW14512   1.290   3.467   0.600  0.4192 -0.3076 -0.3330
  959SOL    HW114513   1.303   3.495   0.509  2.0265  1.7071  0.5233
  959SOL    HW214514   1.194   3.475   0.600  0.5842  1.9097  3.2206
  960SOL     OW14515   0.791   4.507   1.057 -0.3343  0.4112 -0.2359
  960SOL    HW114516   0.820   4.486   0.969 -2.1825 -1.5572 -0.3611
  960SOL    HW214517   0.708   4.552   1.038 -1.5007 -1.8188 -0.4480
  961SOL     OW14518   3.997   3.005   7.537 -0.2387 -0.0269 -0.0453
  961SOL    HW114519   3.966   3.079   7.484  0.7200 -0.2916 -0.9872
  961SOL    HW214520   3.948   2.928   7.510 -0.9507  0.6108 -0.5696
  962SOL     OW14521   0.919   1.357   9.648  0.1619 -0.4357  0.6665
  962SOL    HW114522   0.922   1.361   9.552  3.2607 -2.7680  0.6759
  962SOL    HW214523   0.996   1.301   9.657  1.6873  1.7547  1.2231
  963SOL     OW14524   2.250   3.014   0.139  0.3014 -0.5762  0.1672
  963SOL    HW114525   2.198   3.094   0.144 -0.0740 -0.8414  0.5029
  963SOL    HW214526   2.311   3.036   0.210 -0.6213  0.0195  0.7823
  964SOL     OW14527   3.231   2.849  12.785  0.1019  0.4794 -0.7022
  964SOL    HW114528   3.301   2.913  12.769 -1.3861  1.9154 -1.4611
  964SOL    HW214529   3.188   2.851  12.700 -0.1319 -1.9946 -0.6590
  965SOL     OW14530   0.263   3.883   3.642  0.9932  0.1103 -0.2719
  965SOL    HW114531   0.269   3.856   3.733 -0.8747  1.4251  0.2413
  965SOL    HW214532   0.216   3.966   3.652 -0.1697 -0.5323 -0.4681
  966SOL     OW14533   4.091   1.542   7.576  0.4507 -0.1732  0.5710
  966SOL    HW114534   4.097   1.497   7.492  1.3919 -0.0731  0.5951
  966SOL    HW214535   4.027   1.488   7.622 -0.1794 -1.7776 -2.2094
  967SOL     OW14536   0.149   2.525   0.844  0.3027  0.4040  0.6557
  967SOL    HW114537   0.064   2.502   0.806  0.0806 -0.1401  1.4925
  967SOL    HW214538   0.181   2.437   0.862 -1.5432 -0.4162 -0.0206
  968SOL     OW14539   0.775   1.659   3.611  0.0542  0.2880 -0.5041
  968SOL    HW114540   0.825   1.626   3.686  0.2783 -0.0222 -0.7910
  968SOL    HW214541   0.742   1.740   3.649 -1.0841 -0.0403 -0.8110
  969SOL     OW14542   4.552   0.032  16.987  0.7534 -0.3079  0.3042
  969SOL    HW114543   4.587   4.720  16.912 -0.4353 -2.5006  1.1595
  969SOL    HW214544   4.513   0.108  16.943  1.5971 -0.2504 -0.3576
  970SOL     OW14545   1.214   2.904   1.265  0.0071  0.0634  0.1281
  970SOL    HW114546   1.168   2.911   1.349  0.6115 -0.0452  0.4617
  970SOL    HW214547   1.303   2.881   1.289  0.5062  1.5165 -0.2994
  971SOL     OW14548   3.285   1.006   6.621 -0.0397  0.3313 -0.2361
  971SOL    HW114549   3.280   1.000   6.525 -1.7490 -1.8276  0.0074
  971SOL    HW214550   3.192   0.995   6.639 -0.1892  0.8592 -0.6647
  972SOL     OW14551   2.985   1.559   2.116  0.0955  0.4159  0.0281
  972SOL    HW114552   2.994   1.584   2.208  1.6582 -0.4616  0.1148
  972SOL    HW214553   3.009   1.466   2.120 -1.2753  0.1480  2.0285
  973SOL     OW14554   0.311   3.975   8.904 -0.3342  0.2572  0.4231
  973SOL    HW114555   0.301   4.035   8.830  1.1478  0.3016  0.2605
  973SOL    HW214556   0.264   3.894   8.884 -1.3898  0.8703  0.4077
  974SOL     OW14557   1.591   4.376   2.565  0.2204 -0.5340 -1.0207
  974SOL    HW114558   1.672   4.340   2.599 -0.7522 -1.9969 -0.2339
  974SOL    HW214559   1.601   4.466   2.596 -0.5285 -0.6329 -0.4820
  975SOL     OW14560   2.794   4.064  17.093 -0.6800  0.5104 -0.5275
  975SOL    HW114561   2.844   4.094  17.169 -0.5162  1.5956 -1.0626
  975SOL    HW214562   2.755   3.989  17.138  3.7603 -1.7324 -0.5025
  976SOL     OW14563   4.157   1.447  15.526  0.3474 -0.4080  0.1268
  976SOL    HW114564   4.167   1.446  15.430 -1.2325  2.0642 -0.0455
  976SOL    HW214565   4.068   1.481  15.518  0.0614 -1.5667 -1.8765
  977SOL     OW14566   3.603   4.180  14.776 -0.3671 -0.6584 -0.0731
  977SOL    HW114567   3.698   4.196  14.776 -0.4029 -0.4378 -1.3301
  977SOL    HW214568   3.592   4.134  14.693  1.8429 -0.3596 -0.5496
  978SOL     OW14569   2.774   0.611  10.945  0.0071 -0.0168  0.1742
  978SOL    HW114570   2.822   0.611  11.029  0.8655  0.7561 -0.3217
  978SOL    HW214571   2.830   0.666  10.891  1.1305 -3.9541 -2.6658
  979SOL     OW14572   0.789   3.632  16.760  0.7926 -0.4728 -0.7099
  979SOL    HW114573   0.856   3.605  16.823 -1.7882  0.6053  2.4831
  979SOL    HW214574   0.761   3.542  16.743 -1.6332  0.0887  0.2765
  980SOL     OW14575   0.570   3.997   2.461 -0.0273  0.2055  0.5100
  980SOL    HW114576   0.477   4.014   2.472 -0.2407 -0.1491 -0.7155
  980SOL    HW214577   0.607   4.033   2.542  3.2196 -0.4458 -0.6944
  981SOL     OW14578   2.618   1.657   8.942  0.4870 -0.1427 -0.5688
  981SOL    HW114579   2.582   1.743   8.965  0.7743  0.0098 -0.6855
  981SOL    HW214580   2.544   1.623   8.893 -0.0461  0.0542  0.0996
  982SOL     OW14581   4.195   4.237   2.376 -0.2017 -0.1734  0.7160
  982SOL    HW114582   4.183   4.319   2.425  2.1006 -0.1186  1.2248
  982SOL    HW214583   4.177   4.168   2.440  0.1287 -0.8378  0.0918
  983SOL     OW14584   0.955   3.527   2.356 -0.0722 -0.6926  0.2658
  983SOL    HW114585   1.020   3.591   2.326 -2.4062  1.5997  0.0053
  983SOL    HW214586   1.016   3.457   2.334 -0.8453 -1.9380  2.0771
  984SOL     OW14587   0.411   4.634   2.374  0.5158 -0.9530  0.6099
  984SOL    HW114588   0.448   4.713   2.415 -1.2390  0.4095 -0.3984
  984SOL    HW214589   0.329   4.648   2.423 -0.7364  0.7836 -1.9892
  985SOL     OW14590   2.378   0.882   4.420 -0.1615 -0.1822 -0.5454
  985SOL    HW114591   2.340   0.796   4.438 -0.8484  0.5157  1.3534
  985SOL    HW214592   2.424   0.866   4.338 -0.8575 -0.6552 -0.8406
  986SOL     OW14593   0.523   0.929   6.210 -0.0867 -0.0560  0.4113
  986SOL    HW114594   0.578   0.855   6.184  0.9116  0.3299  1.3886
  986SOL    HW214595   0.555   0.951   6.297  0.6871 -3.6126  1.0339
  987SOL     OW14596   3.861   4.067   1.628 -0.0006 -0.7233  0.2870
  987SOL    HW114597   3.918   4.005   1.674  0.4701 -0.6363 -0.1803
  987SOL    HW214598   3.787   4.053   1.688  1.2333 -1.1202  1.7196
  988SOL     OW14599   2.783   0.157  16.870  0.1244 -1.0844  0.7751
  988SOL    HW114600   2.872   0.122  16.874  0.4472 -0.1260  1.8440
  988SOL    HW214601   2.742   0.102  16.803  1.4998 -0.5962 -0.4702
  989SOL     OW14602   4.642   4.598   6.910 -0.4453 -0.1785  0.6150
  989SOL    HW114603   4.580   4.606   6.982  1.3216  0.6511  2.0467
  989SOL    HW214604   4.615   4.674   6.858 -0.2030  0.6916  1.7598
  990SOL     OW14605   1.332   4.590   2.841 -0.6544 -0.2264  0.4250
  990SOL    HW114606   1.335   4.497   2.817 -1.3913 -0.4869  1.3550
  990SOL    HW214607   1.251   4.594   2.893 -0.6030 -1.4377  0.6082
  991SOL     OW14608   2.677   1.048   7.893  0.3548  0.4537 -0.2726
  991SOL    HW114609   2.686   0.954   7.904  0.0067  0.5768  1.1433
  991SOL    HW214610   2.638   1.065   7.979  2.7605  1.0570  0.7173
  992SOL     OW14611   1.098   1.146   2.557 -0.4039 -0.6272  0.6795
  992SOL    HW114612   1.032   1.210   2.530  0.4234  0.1954  0.6141
  992SOL    HW214613   1.108   1.092   2.479  1.3682  0.7284 -0.0354
  993SOL     OW14614   3.923   2.905   4.488 -0.8447 -0.7204  0.1545
  993SOL    HW114615   3.857   2.839   4.466  0.5105 -1.8866 -0.4010
  993SOL    HW214616   3.893   2.986   4.447  1.5631 -0.3412 -0.8578
  994SOL     OW14617   0.389   2.785  12.836 -0.0589  0.0117 -0.1561
  994SOL    HW114618   0.438   2.704  12.850  0.8011  0.5187 -0.2335
  994SOL    HW214619   0.436   2.850  12.889  1.8227 -1.2300 -0.2771
  995SOL     OW14620   2.548   4.485   4.592 -0.0115 -0.3251 -0.5033
  995SOL    HW114621   2.482   4.509   4.658  0.2069 -2.6440  0.5781
  995SOL    HW214622   2.624   4.493   4.649 -0.4918 -2.5951  0.4879
  996SOL     OW14623   1.310   4.151   1.933  0.1640  0.5022 -0.0304
  996SOL    HW114624   1.373   4.223   1.929 -0.3464  1.0212  1.0965
  996SOL    HW214625   1.242   4.189   1.877 -1.8450  0.4327  2.3772
  997SOL     OW14626   2.729   1.199   2.430 -0.1939  0.4755 -0.0193
  997SOL    HW114627   2.821   1.174   2.416 -0.7464 -0.5189 -1.9005
  997SOL    HW214628   2.709   1.133   2.496 -4.2133  0.4406 -1.2758
  998SOL     OW14629   3.142   0.160   9.117 -0.3832  0.1783 -0.2392
  998SOL    HW114630   3.227   0.115   9.123 -0.7495 -0.5862 -0.8909
  998SOL    HW214631   3.122   0.164   9.211 -2.3482 -0.7487 -0.6223
  999SOL     OW14632   2.331   4.382   3.252  0.3093  0.2583 -0.5422
  999SOL    HW114633   2.269   4.440   3.209  1.7855  1.9874 -0.3653
  999SOL    HW214634   2.296   4.373   3.341 -0.2861  0.3395 -0.7701
 1000SOL     OW14635   4.147   0.925   2.564  0.3934 -0.0142 -0.8847
 1000SOL    HW114636   4.159   0.935   2.658 -3.1673  3.1729 -0.7593
 1000SOL    HW214637   4.076   0.860   2.568  1.5975 -1.5256 -3.8400
 1001SOL     OW14638   2.748   4.325  16.501 -0.0049 -0.1985  0.2765
 1001SOL    HW114639   2.670   4.310  16.449 -0.1920  2.4051 -0.1597
 1001SOL    HW214640   2.811   4.313  16.430  0.9316 -1.0294  1.2440
 1002SOL     OW14641   0.397   4.611  10.136 -0.5226 -0.1654  0.8452
 1002SOL    HW114642   0.486   4.646  10.139 -0.4932 -0.2960  1.4011
 1002SOL    HW214643   0.405   4.533  10.082 -0.2737  1.4269 -1.4282
 1003SOL     OW14644   4.297   1.753   2.871 -0.3054  0.3994  0.2745
 1003SOL    HW114645   4.338   1.669   2.893 -1.2667 -0.4886 -1.2868
 1003SOL    HW214646   4.208   1.724   2.849 -1.3601  2.0156  2.4731
 1004SOL     OW14647   1.386   0.785   3.124 -0.0056  0.1653 -0.1469
 1004SOL    HW114648   1.454   0.852   3.134 -1.2477  1.8030 -2.4637
 1004SOL    HW214649   1.414   0.721   3.189 -0.1138  0.8209  0.5420
 1005SOL     OW14650   0.819   4.697   8.231  0.3065 -0.2873 -0.4688
 1005SOL    HW114651   0.869   0.037   8.201  0.0985  0.0501  0.0464
 1005SOL    HW214652   0.775   4.729   8.309 -2.1149 -0.2957 -1.8328
 1006SOL     OW14653   0.064   2.572   0.282 -0.0732 -0.4974 -0.4763
 1006SOL    HW114654   0.121   2.543   0.353 -1.2515 -0.2229  0.5958
 1006SOL    HW214655   0.006   2.631   0.330 -0.1377 -1.4547  0.6161
 1007SOL     OW14656   3.785   0.183   8.655  0.5682 -0.0362 -0.2425
 1007SOL    HW114657   3.831   0.221   8.730 -0.3610  0.6398 -0.0094
 1007SOL    HW214658   3.717   0.129   8.694 -0.1306  0.8997 -0.1620
 1008SOL     OW14659   1.751   1.742  10.580 -0.6592  0.1332 -0.0017
 1008SOL    HW114660   1.669   1.745  10.630 -0.1017 -0.2850  0.9326
 1008SOL    HW214661   1.818   1.728  10.647 -0.0507  0.3569 -0.5684
 1009SOL     OW14662   0.197   1.282  12.530  0.6715  0.4268  0.6500
 1009SOL    HW114663   0.149   1.349  12.580  0.2631  0.0741  0.7250
 1009SOL    HW214664   0.127   1.245  12.477 -0.6393  0.8164  2.1033
 1010SOL     OW14665   1.703   2.399   2.119  0.0025 -0.0782  0.1602
 1010SOL    HW114666   1.675   2.338   2.187  0.6223 -0.2953  0.2160
 1010SOL    HW214667   1.709   2.487   2.158  3.4831 -0.5883  0.7775
 1011SOL     OW14668   3.823   2.818  14.160  0.4715  0.5026 -0.7303
 1011SOL    HW114669   3.769   2.893  14.134 -2.5696 -1.8869 -1.3964
 1011SOL    HW214670   3.779   2.785  14.238  1.0608 -2.1295 -1.4966
 1012SOL     OW14671   3.431   1.611   9.912  0.0076  0.3484 -0.3953
 1012SOL    HW114672   3.429   1.603   9.817  0.6178 -3.0288 -0.1127
 1012SOL    HW214673   3.346   1.649   9.934 -0.1236 -0.6532  0.8010
 1013SOL     OW14674   4.275   4.518   5.715  0.0044 -0.8017 -0.3304
 1013SOL    HW114675   4.218   4.568   5.773 -0.4307  0.1501 -1.5848
 1013SOL    HW214676   4.211   4.484   5.652  1.3640 -3.0333 -0.5209
 1014SOL     OW14677   2.546   3.583   3.219  0.7489 -0.1383  0.6391
 1014SOL    HW114678   2.550   3.488   3.231  1.1647 -0.2449 -0.3510
 1014SOL    HW214679   2.456   3.611   3.235 -0.1171 -1.0973 -2.7094
 1015SOL     OW14680   0.336   1.122  16.117  0.2001 -0.3977 -0.0354
 1015SOL    HW114681   0.296   1.137  16.203 -0.0950  1.5056 -0.5154
 1015SOL    HW214682   0.405   1.187  16.112  0.4306 -0.4784  2.1213
 1016SOL     OW14683   3.110   2.304   4.700  0.1298  0.1188  0.0568
 1016SOL    HW114684   3.134   2.360   4.773  1.3571  0.2469 -0.4369
 1016SOL    HW214685   3.020   2.278   4.719  1.1459 -2.7154  1.0460
 1017SOL     OW14686   3.230   2.478   2.620 -0.7899 -0.6883 -0.3102
 1017SOL    HW114687   3.314   2.514   2.648 -1.5367  0.2243  0.7831
 1017SOL    HW214688   3.184   2.550   2.664 -0.3276  0.0097 -0.9598
 1018SOL     OW14689   0.743   4.127  16.790 -0.0128  0.0663  0.4727
 1018SOL    HW114690   0.723   4.037  16.815 -0.1378  0.3798  1.5200
 1018SOL    HW214691   0.715   4.173  16.869 -0.1484 -0.7599  0.9004
 1019SOL     OW14692   4.384   0.710   2.370  0.0665 -0.1709 -0.1147
 1019SOL    HW114693   4.291   0.697   2.350  0.0069  1.2952 -0.8059
 1019SOL    HW214694   4.417   0.765   2.299  0.8954 -0.9089 -0.2958
 1020SOL     OW14695   3.483   4.327  17.581 -0.9157  0.5398 -0.1146
 1020SOL    HW114696   3.440   4.256  17.533  1.6426  0.2609 -2.0240
 1020SOL    HW214697   3.403   4.356  17.625 -1.9948  2.0867 -3.0594
 1021SOL     OW14698   4.661   1.101  16.366  0.8476  0.2434 -0.6397
 1021SOL    HW114699   4.609   1.021  16.377  0.8023  0.2309 -0.9388
 1021SOL    HW214700   4.602   1.149  16.307  3.9692  3.5114 -1.1102
 1022SOL     OW14701   0.171   2.740   9.302  0.0435  0.2444 -0.2444
 1022SOL    HW114702   0.097   2.798   9.284  0.4457  0.4677 -1.1261
 1022SOL    HW214703   0.227   2.796   9.356 -0.8249 -0.2807  1.2208
 1023SOL     OW14704   2.986   1.286  17.285 -0.2347  0.2043 -0.0200
 1023SOL    HW114705   2.910   1.248  17.241  1.6603 -2.5093 -0.9274
 1023SOL    HW214706   2.958   1.281  17.376 -2.0985 -2.0225 -0.7107
 1024SOL     OW14707   3.171   2.930   7.902 -0.2446  0.0804 -0.0376
 1024SOL    HW114708   3.127   2.850   7.930 -2.7377  1.2960 -0.5050
 1024SOL    HW214709   3.258   2.915   7.939  0.2994 -0.7403 -1.6273
 1025SOL     OW14710   1.243   4.446   5.648 -0.2199  0.2730  0.6408
 1025SOL    HW114711   1.337   4.450   5.668 -0.4131 -0.6797  1.6997
 1025SOL    HW214712   1.225   4.490   5.565  1.4781  2.9806  1.7206
 1026SOL     OW14713   1.091   0.126   4.824 -0.7335 -0.3107 -0.1715
 1026SOL    HW114714   1.052   0.169   4.901 -1.1802 -2.3677  0.7669
 1026SOL    HW214715   1.016   0.078   4.788 -1.5985 -0.1089  1.3466
 1027SOL     OW14716   1.610   3.116  17.611 -0.4831 -0.1869 -0.0130
 1027SOL    HW114717   1.661   3.063  17.673 -0.9818 -1.2869 -0.5368
 1027SOL    HW214718   1.558   3.161  17.677  1.2429 -0.1875  1.3752
 1028SOL     OW14719   2.791   2.606   8.969  0.5688 -0.2400 -0.1015
 1028SOL    HW114720   2.804   2.513   8.952 -1.6113 -0.6548  0.4910
 1028SOL    HW214721   2.843   2.612   9.049  1.1356 -0.3963 -0.4570
 1029SOL     OW14722   0.536   0.658   7.879 -0.3989  0.0446  0.4013
 1029SOL    HW114723   0.491   0.740   7.898  0.6886  0.6950  0.1159
 1029SOL    HW214724   0.595   0.642   7.952 -1.4242 -0.6532  1.0763
 1030SOL     OW14725   0.733   1.016   0.596 -0.2326  0.1478 -0.0474
 1030SOL    HW114726   0.714   1.099   0.554 -1.3297 -0.5648 -0.9682
 1030SOL    HW214727   0.827   1.008   0.582 -0.2540  0.5565 -0.4072
 1031SOL     OW14728   1.659   2.616  14.261 -0.8161 -0.1829  0.1066
 1031SOL    HW114729   1.742   2.569  14.255 -1.8904 -1.8641 -1.7634
 1031SOL    HW214730   1.596   2.544  14.265  2.2094 -2.7302  2.1026
 1032SOL     OW14731   3.355   3.479   1.305 -0.7602  0.4961  0.3679
 1032SOL    HW114732   3.314   3.566   1.303 -0.5848  0.5784  0.1987
 1032SOL    HW214733   3.340   3.455   1.396 -0.4601  1.1539  0.5946
 1033SOL     OW14734   3.815   2.053  12.490  0.0043  0.2100 -0.0853
 1033SOL    HW114735   3.733   2.007  12.472 -0.1061  0.4247 -0.1391
 1033SOL    HW214736   3.787   2.134  12.533 -2.0623 -0.6067  0.1199
 1034SOL     OW14737   2.274   3.745   1.217 -0.4746 -0.0441 -0.3478
 1034SOL    HW114738   2.189   3.704   1.236 -1.2429  2.0815  0.8039
 1034SOL    HW214739   2.247   3.828   1.177  3.0073  0.5606 -1.4415
 1035SOL     OW14740   0.459   1.787   6.500  0.1922 -0.4489 -0.0419
 1035SOL    HW114741   0.530   1.823   6.553  0.4402  0.3891 -0.9304
 1035SOL    HW214742   0.459   1.697   6.531 -1.3300 -0.4318 -0.0097
 1036SOL     OW14743   1.076   3.280   3.289 -0.2230  0.1060  0.1913
 1036SOL    HW114744   1.162   3.271   3.331 -0.1020  0.3594  0.0003
 1036SOL    HW214745   1.081   3.340   3.215  0.8311  1.6003  1.4682
 1037SOL     OW14746   0.374   3.664   2.614 -0.0919 -0.3494 -0.1896
 1037SOL    HW114747   0.311   3.707   2.555 -0.1230 -0.7073 -0.4212
 1037SOL    HW214748   0.369   3.726   2.686 -1.0528 -0.2247 -0.3549
 1038SOL     OW14749   3.401   2.596  15.725  0.1615 -0.0604  0.1453
 1038SOL    HW114750   3.350   2.663  15.679 -0.5472 -1.5473 -1.2271
 1038SOL    HW214751   3.348   2.586  15.804 -0.1370 -1.4199 -0.2294
 1039SOL     OW14752   1.837   3.261   4.362  0.3604  0.1094  0.1525
 1039SOL    HW114753   1.743   3.253   4.374  0.4652 -0.7641  0.4075
 1039SOL    HW214754   1.840   3.292   4.271 -1.6583 -0.1051  0.0073
 1040SOL     OW14755   1.292   0.379   7.534 -0.3499 -0.0561 -0.1288
 1040SOL    HW114756   1.310   0.402   7.443 -1.8687  2.4242  0.1854
 1040SOL    HW214757   1.371   0.414   7.575  0.6875  1.7685 -3.7973
 1041SOL     OW14758   4.161   2.067   3.910 -0.1910 -0.2153  0.6186
 1041SOL    HW114759   4.253   2.090   3.904  0.1168 -1.6232 -0.1393
 1041SOL    HW214760   4.133   2.146   3.957 -0.5656  0.1799 -0.2763
 1042SOL     OW14761   0.104   2.543   4.294 -0.7945  0.4983  0.3491
 1042SOL    HW114762   0.085   2.479   4.225  1.2039  0.3346 -0.0619
 1042SOL    HW214763   0.024   2.544   4.347 -0.6001 -3.5655  0.7303
 1043SOL     OW14764   2.598   4.178   9.682  0.2490 -0.2302  0.3183
 1043SOL    HW114765   2.645   4.128   9.616 -2.1970 -1.2643 -0.6525
 1043SOL    HW214766   2.559   4.244   9.625 -0.1223 -1.9441 -1.3821
 1044SOL     OW14767   3.025   3.478  11.388 -0.1541  0.4687 -0.1682
 1044SOL    HW114768   3.107   3.508  11.428 -0.3115 -0.4161  0.8122
 1044SOL    HW214769   3.021   3.393  11.431 -1.2750  0.4318 -0.3580
 1045SOL     OW14770   1.700   3.800   3.966 -0.6304 -0.5142 -0.1827
 1045SOL    HW114771   1.628   3.846   4.009  1.5483  0.4901  2.3697
 1045SOL    HW214772   1.703   3.717   4.015  1.2956  0.9994  2.2886
 1046SOL     OW14773   3.150   1.110   5.016 -0.7111 -0.3833  0.6612
 1046SOL    HW114774   3.136   1.200   4.987  2.1763 -0.7736 -1.9310
 1046SOL    HW214775   3.064   1.077   4.990 -0.0352  0.6637 -2.8823
 1047SOL     OW14776   1.749   1.433   0.594 -0.1554 -0.1275  0.3539
 1047SOL    HW114777   1.752   1.501   0.528  0.2786 -0.4446  0.0412
 1047SOL    HW214778   1.730   1.351   0.549  1.5285 -0.9772  1.1634
 1048SOL     OW14779   3.362   0.968   2.644  0.4282 -0.3215  0.0230
 1048SOL    HW114780   3.317   0.885   2.631 -0.4702  0.3526 -1.0962
 1048SOL    HW214781   3.326   1.000   2.727  1.0460  2.5165 -0.7866
 1049SOL     OW14782   2.897   3.422   6.362 -0.3723  0.4625 -0.4786
 1049SOL    HW114783   2.809   3.439   6.397 -0.6361 -1.0410 -0.3968
 1049SOL    HW214784   2.946   3.482   6.418 -2.5694  2.6875 -0.9347
 1050SOL     OW14785   0.291   3.748   3.883 -0.3494  0.1697 -0.1110
 1050SOL    HW114786   0.379   3.735   3.918 -0.1729 -0.2179 -0.7067
 1050SOL    HW214787   0.259   3.659   3.868  2.5174 -1.2024  1.9686
 1051SOL     OW14788   3.400   1.670  15.977 -0.0146  0.8537 -0.6763
 1051SOL    HW114789   3.371   1.756  16.008  0.1376  0.3655  0.8027
 1051SOL    HW214790   3.458   1.685  15.902  1.3177  0.3587  0.2553
 1052SOL     OW14791   4.466   0.326  11.690  0.4103 -0.0388 -0.2243
 1052SOL    HW114792   4.429   0.255  11.637  2.0788 -0.8524 -0.2698
 1052SOL    HW214793   4.551   0.350  11.655 -0.3947  2.4782 -0.4660
 1053SOL     OW14794   1.615   4.364   8.559 -0.2451 -0.0934 -0.2079
 1053SOL    HW114795   1.648   4.447   8.524  0.7919  0.4564  2.0535
 1053SOL    HW214796   1.526   4.387   8.585 -0.5452  1.0215 -2.2068
 1054SOL     OW14797   0.176   2.242   7.063  0.2258  0.1130 -0.0634
 1054SOL    HW114798   0.162   2.273   6.974  2.3792 -3.1274 -1.5351
 1054SOL    HW214799   0.267   2.215   7.054 -0.1952 -1.9427  1.7246
 1055SOL     OW14800   1.593   1.533   9.208 -0.3438 -0.0283  0.3969
 1055SOL    HW114801   1.540   1.599   9.253 -0.2829 -0.8005  1.6059
 1055SOL    HW214802   1.639   1.495   9.283  1.3207 -0.5010 -0.8804
 1056SOL     OW14803   1.227   4.415   2.593 -0.0354 -0.1748 -0.1060
 1056SOL    HW114804   1.181   4.335   2.569  0.1587 -0.3176  0.0040
 1056SOL    HW214805   1.286   4.418   2.518 -0.6537 -0.5074 -0.6011
 1057SOL     OW14806   0.777   3.718   2.632 -0.0936 -0.0810 -0.1124
 1057SOL    HW114807   0.774   3.798   2.579 -0.1521  0.1987  0.3130
 1057SOL    HW214808   0.778   3.753   2.721 -0.9293  0.4828 -0.3216
 1058SOL     OW14809   4.149   4.057   2.598 -0.2022  0.1880  0.1973
 1058SOL    HW114810   4.155   3.970   2.638 -0.0920 -0.4002 -1.1178
 1058SOL    HW214811   4.061   4.080   2.627 -0.5453 -0.2252 -0.5258
 1059SOL     OW14812   2.620   1.212   3.896  0.3743 -0.1141 -0.4330
 1059SOL    HW114813   2.661   1.257   3.823  0.2527  0.8392  0.0877
 1059SOL    HW214814   2.589   1.132   3.855  0.1438  0.6564 -1.7439
 1060SOL     OW14815   0.366   0.738   0.291 -0.0524  0.5761  0.1096
 1060SOL    HW114816   0.424   0.806   0.325  1.3140  0.7510 -2.5643
 1060SOL    HW214817   0.427   0.673   0.256 -0.9836 -0.2181 -0.0656
 1061SOL     OW14818   3.086   0.264   3.736 -0.9046  0.3147 -0.1462
 1061SOL    HW114819   3.048   0.177   3.720  0.4058  0.2184 -2.7792
 1061SOL    HW214820   3.174   0.246   3.769 -1.1097 -1.5688 -0.6117
 1062SOL     OW14821   2.828   0.809   7.699  0.4307  0.1358 -0.7023
 1062SOL    HW114822   2.793   0.809   7.788  1.2690  0.6646 -0.3693
 1062SOL    HW214823   2.754   0.838   7.646 -0.1805  1.2169  0.7513
 1063SOL     OW14824   2.755   4.720  16.649  0.2868 -0.1864  0.5216
 1063SOL    HW114825   2.831   4.717  16.591  0.3822  0.2524  0.6189
 1063SOL    HW214826   2.703   4.641  16.642 -2.2648  1.6239 -0.8309
 1064SOL     OW14827   1.616   0.266   7.664  0.5346  0.0079  0.2824
 1064SOL    HW114828   1.539   0.295   7.713  1.2682  1.7681  0.3950
 1064SOL    HW214829   1.611   0.328   7.592 -0.3765  1.1148  1.3038
 1065SOL     OW14830   2.160   1.826  16.232  0.0295 -0.2450  0.5664
 1065SOL    HW114831   2.201   1.886  16.170  1.4579 -0.3629  1.4033
 1065SOL    HW214832   2.179   1.748  16.180 -1.3005 -0.3972  0.3127
 1066SOL     OW14833   3.017   0.774   8.687 -0.3634  0.1836  0.2000
 1066SOL    HW114834   3.112   0.783   8.674 -0.2297 -0.9223  0.3935
 1066SOL    HW214835   3.009   0.685   8.722  0.8457 -0.6748 -1.7013
 1067SOL     OW14836   4.012   3.696   7.995 -0.2511  0.7861  0.2528
 1067SOL    HW114837   4.090   3.649   8.027 -0.3993  0.4780  0.1634
 1067SOL    HW214838   4.001   3.663   7.906 -0.9146  3.2176 -0.5453
 1068SOL     OW14839   4.198   2.527   7.109 -0.4167  0.0024 -0.1280
 1068SOL    HW114840   4.290   2.513   7.131 -0.6640  0.1925  0.9917
 1068SOL    HW214841   4.200   2.620   7.131 -0.6189  0.3422 -1.5477
 1069SOL     OW14842   1.186   1.116   3.163  0.2271  0.6566  0.3392
 1069SOL    HW114843   1.218   1.105   3.073 -1.7024 -1.3932 -0.1078
 1069SOL    HW214844   1.101   1.154   3.143 -1.3696 -2.4717  1.1882
 1070SOL     OW14845   4.315   2.947   8.376 -0.3270  0.4785  0.0466
 1070SOL    HW114846   4.408   2.952   8.400  0.3197  0.6081 -2.4959
 1070SOL    HW214847   4.296   3.040   8.368 -0.4233  0.5103  0.6543
 1071SOL     OW14848   4.617   4.048   3.751 -0.1001 -0.1244 -0.0387
 1071SOL    HW114849   4.632   4.006   3.666  2.4087  0.2275  0.2165
 1071SOL    HW214850   4.655   3.977   3.804  0.4997 -0.2974 -0.6941
 1072SOL     OW14851   4.343   2.365   8.610 -0.3688 -0.0265 -0.5810
 1072SOL    HW114852   4.317   2.308   8.538  1.8954 -0.1708 -1.2568
 1072SOL    HW214853   4.393   2.303   8.663 -2.0846 -1.1252 -0.2406
 1073SOL     OW14854   3.748   0.456   2.536  0.0535  0.6117  0.2985
 1073SOL    HW114855   3.707   0.516   2.598  0.6565 -0.5351  1.7910
 1073SOL    HW214856   3.806   0.396   2.584 -0.8006 -1.4156 -1.1870
 1074SOL     OW14857   4.404   1.654   7.039  0.4737 -0.1787 -0.2221
 1074SOL    HW114858   4.398   1.711   7.116 -1.4314 -0.1128 -0.4383
 1074SOL    HW214859   4.500   1.655   7.032  0.5636  0.1566  0.9726
 1075SOL     OW14860   0.688   0.851   4.482 -0.5672  0.1648 -0.4606
 1075SOL    HW114861   0.714   0.888   4.398  0.9079 -0.5452 -0.3162
 1075SOL    HW214862   0.669   0.934   4.525 -1.8570 -2.3368  3.8055
 1076SOL     OW14863   1.183   2.168   4.844  0.2034  0.3483 -0.1616
 1076SOL    HW114864   1.238   2.104   4.887 -0.5333  0.1969  0.5514
 1076SOL    HW214865   1.248   2.191   4.778  0.5803 -0.0664  0.0742
 1077SOL     OW14866   4.548   2.599   2.676 -0.1870 -0.0399  0.2469
 1077SOL    HW114867   4.616   2.558   2.624 -0.4661 -0.6415  0.3524
 1077SOL    HW214868   4.519   2.668   2.617 -2.5752 -1.9620 -0.8313
 1078SOL     OW14869   3.399   2.477   4.695 -0.2078 -0.2645  0.6694
 1078SOL    HW114870   3.426   2.536   4.765 -0.6236 -1.1500  1.5876
 1078SOL    HW214871   3.369   2.405   4.752  1.7379  0.7253  2.9495
 1079SOL     OW14872   0.826   3.012   9.609  0.1654  0.1167  1.0289
 1079SOL    HW114873   0.849   3.094   9.652 -0.4920  1.3763 -1.0184
 1079SOL    HW214874   0.828   3.041   9.518 -0.2838  0.0606  1.0003
 1080SOL     OW14875   2.018   4.393   7.844 -0.0252  0.4941  0.2137
 1080SOL    HW114876   1.926   4.367   7.842  0.5060 -1.4038 -0.0196
 1080SOL    HW214877   2.024   4.480   7.804  1.0619  0.6737  0.7799
 1081SOL     OW14878   0.759   0.173   1.814 -0.3825  0.5993  0.0248
 1081SOL    HW114879   0.747   0.086   1.853 -0.7999  0.5172 -0.2839
 1081SOL    HW214880   0.672   0.194   1.781 -0.9205  0.1928  1.1653
 1082SOL     OW14881   1.501   1.621   4.831 -0.1985  0.1847 -0.0784
 1082SOL    HW114882   1.592   1.627   4.805  0.0916 -0.9836  0.6537
 1082SOL    HW214883   1.495   1.525   4.825  0.5220  0.3002 -2.3965
 1083SOL     OW14884   0.364   0.159  10.686 -0.0759  0.2971  0.2476
 1083SOL    HW114885   0.348   0.175  10.593 -1.8186 -0.5916  0.4012
 1083SOL    HW214886   0.334   0.069  10.694  0.6340  0.0851  0.5133
 1084SOL     OW14887   0.034   3.941   2.693  0.0247  0.1896  0.2525
 1084SOL    HW114888   0.052   3.857   2.734 -0.4211 -0.7986 -1.5477
 1084SOL    HW214889   0.085   3.994   2.754 -2.0758  2.1382  0.3299
 1085SOL     OW14890   4.505   2.850   5.879  0.0654 -0.3231 -0.0481
 1085SOL    HW114891   4.556   2.921   5.838 -1.1163 -0.0782 -1.0730
 1085SOL    HW214892   4.422   2.874   5.839  0.1688 -0.0494 -0.0996
 1086SOL     OW14893   1.756   1.035   0.893 -0.1906  0.1870  0.3183
 1086SOL    HW114894   1.790   0.964   0.838 -0.7739  1.3169 -1.4922
 1086SOL    HW214895   1.701   1.089   0.836 -0.0583  0.1899  0.1940
 1087SOL     OW14896   2.113   4.330   6.551  0.6572  0.2709 -0.9321
 1087SOL    HW114897   2.150   4.397   6.608 -0.1260  0.0035 -0.1209
 1087SOL    HW214898   2.152   4.361   6.469 -0.2414  2.6300 -0.4482
 1088SOL     OW14899   0.856   0.342   5.423  0.2723  0.3847  0.6420
 1088SOL    HW114900   0.859   0.269   5.361 -0.8286  0.8777  0.0113
 1088SOL    HW214901   0.790   0.314   5.487 -1.4146  1.9965 -0.3712
 1089SOL     OW14902   2.657   0.269   1.861  0.3933 -0.0189 -0.0901
 1089SOL    HW114903   2.644   0.189   1.810 -2.6010  0.1201  0.4517
 1089SOL    HW214904   2.649   0.238   1.952  2.1876  1.5122  0.5969
 1090SOL     OW14905   2.932   2.924   4.972 -0.7319 -0.1237  0.0829
 1090SOL    HW114906   2.850   2.968   4.995  0.1959  0.1013  2.9150
 1090SOL    HW214907   2.966   2.999   4.922 -0.1171  0.8456  1.9265
 1091SOL     OW14908   2.692   1.801   4.972  0.3481  0.0654 -0.3355
 1091SOL    HW114909   2.609   1.754   4.963  0.3720 -0.2098  0.9710
 1091SOL    HW214910   2.726   1.761   5.051  0.1949  0.2928 -0.1530
 1092SOL     OW14911   4.017   4.567   7.346  0.3388  0.0934 -0.1656
 1092SOL    HW114912   4.020   4.471   7.351 -0.1608  0.0056 -1.5010
 1092SOL    HW214913   3.951   4.568   7.277  0.4578  1.7330 -0.2529
 1093SOL     OW14914   3.428   1.498   6.083  0.0917 -0.2385  0.6860
 1093SOL    HW114915   3.523   1.504   6.078 -0.0653  0.3499 -1.5621
 1093SOL    HW214916   3.406   1.483   6.174 -2.0825  3.1394  0.7128
 1094SOL     OW14917   2.087   1.282   1.641  0.1488 -0.9833  0.0375
 1094SOL    HW114918   2.020   1.323   1.696  1.7069 -1.3918  2.2314
 1094SOL    HW214919   2.105   1.199   1.684  3.9547  1.4213  3.1285
 1095SOL     OW14920   0.293   1.250   7.874 -0.0360  0.1651 -0.2949
 1095SOL    HW114921   0.367   1.217   7.924 -1.9927 -2.1275  1.0528
 1095SOL    HW214922   0.328   1.334   7.843  0.5137 -0.1783 -0.6009
 1096SOL     OW14923   3.078   1.906   4.673 -0.3392  0.3179  0.1252
 1096SOL    HW114924   3.065   1.915   4.578  2.3225 -0.8356 -0.3597
 1096SOL    HW214925   3.115   1.992   4.689  2.0535 -0.9126  1.2748
 1097SOL     OW14926   1.367   2.725   2.991  0.3551 -0.3858  0.3338
 1097SOL    HW114927   1.295   2.782   2.963 -0.5497 -2.0222 -0.6780
 1097SOL    HW214928   1.358   2.667   2.916 -2.4456  0.4055  0.0589
 1098SOL     OW14929   3.742   2.257   2.043 -0.3462  0.2660 -0.4971
 1098SOL    HW114930   3.649   2.267   2.028 -0.4294 -0.9770 -0.8524
 1098SOL    HW214931   3.752   2.285   2.134 -1.4175 -1.9448  0.3215
 1099SOL     OW14932   2.881   3.816  17.352 -0.7173 -0.0486  0.1036
 1099SOL    HW114933   2.871   3.894  17.407  0.9354  0.6513 -0.5825
 1099SOL    HW214934   2.797   3.802  17.310 -0.9731 -0.2883  0.6987
 1100SOL     OW14935   2.028   4.085   4.345  0.0877 -0.0747 -0.5394
 1100SOL    HW114936   2.020   4.175   4.377 -1.1714  0.1253 -1.4132
 1100SOL    HW214937   2.120   4.076   4.320  0.5541 -0.0778  1.1669
 1101SOL     OW14938   0.171   4.132   3.720  0.1287 -0.0642  0.1407
 1101SOL    HW114939   0.223   4.206   3.691  0.1268  0.0037  0.3117
 1101SOL    HW214940   0.087   4.150   3.677  0.9990  0.3572 -1.3955
 1102SOL     OW14941   2.263   0.099  14.387 -0.4796  0.8749 -0.0129
 1102SOL    HW114942   2.233   0.072  14.300  3.5597 -0.3635 -1.0344
 1102SOL    HW214943   2.297   0.186  14.370 -0.7213  1.2643  1.4677
 1103SOL     OW14944   1.124   1.027   5.489 -0.5018  0.1555 -0.7555
 1103SOL    HW114945   1.166   1.040   5.573 -0.3263 -1.5770 -0.5673
 1103SOL    HW214946   1.058   1.096   5.485 -1.7395 -0.9982 -0.2624
 1104SOL     OW14947   2.060   4.463  12.730 -0.4515 -0.3299  0.0698
 1104SOL    HW114948   2.049   4.549  12.770 -2.4840 -0.4264 -0.2623
 1104SOL    HW214949   1.973   4.426  12.744 -0.3035  0.0312  1.9423
 1105SOL     OW14950   3.290   3.634  17.430 -0.1749 -0.1104 -0.4251
 1105SOL    HW114951   3.376   3.600  17.405  0.4353 -0.3500  1.9329
 1105SOL    HW214952   3.314   3.637  17.523  0.9781  0.9310 -0.7578
 1106SOL     OW14953   2.238   1.201   4.299  0.5176  0.2443  0.0847
 1106SOL    HW114954   2.320   1.176   4.257  1.3242  1.8919  0.6533
 1106SOL    HW214955   2.240   1.296   4.286 -3.8672  0.1464 -1.6002
 1107SOL     OW14956   0.251   0.507   4.526 -0.0970 -0.4901  0.0197
 1107SOL    HW114957   0.305   0.571   4.479 -0.2215 -0.7651 -0.4939
 1107SOL    HW214958   0.184   0.570   4.552  1.0901  0.7056  0.1862
 1108SOL     OW14959   3.429   4.251   5.203  0.2593 -0.0542  0.2192
 1108SOL    HW114960   3.420   4.186   5.272  0.6162 -0.4442 -0.1045
 1108SOL    HW214961   3.487   4.195   5.150 -0.2628 -0.0982 -0.3105
 1109SOL     OW14962   0.023   1.029  12.187  0.2346 -0.0116  0.5489
 1109SOL    HW114963   4.687   0.993  12.135  1.1463 -2.0999  0.6996
 1109SOL    HW214964   0.059   1.098  12.132 -0.7827 -1.4220 -1.9126
 1110SOL     OW14965   0.718   2.843  17.310 -0.0516 -0.2849  0.0992
 1110SOL    HW114966   0.793   2.785  17.323 -0.2962 -0.8525 -1.0097
 1110SOL    HW214967   0.701   2.860  17.402  1.1578 -2.0601  0.6611
 1111SOL     OW14968   0.252   4.196   0.366 -0.3738 -0.0036  0.7261
 1111SOL    HW114969   0.311   4.160   0.299 -0.8930 -0.2594  0.4096
 1111SOL    HW214970   0.205   4.116   0.390 -2.9179  1.3322  0.0682
 1112SOL     OW14971   2.580   0.130   9.962  0.0783 -0.7193  0.6056
 1112SOL    HW114972   2.549   0.123   9.872  0.2657 -1.1925  0.5784
 1112SOL    HW214973   2.607   0.042   9.985  4.0757 -0.7016 -3.8819
 1113SOL     OW14974   3.716   1.119   4.793 -0.5917  0.8838 -0.0935
 1113SOL    HW114975   3.659   1.191   4.820 -0.3714  0.4137  1.6307
 1113SOL    HW214976   3.699   1.116   4.699  1.4924  2.0152 -0.5179
 1114SOL     OW14977   4.421   1.887   5.207  0.2241  0.8487 -0.1591
 1114SOL    HW114978   4.390   1.835   5.133 -0.6865 -0.9159  1.4508
 1114SOL    HW214979   4.361   1.850   5.272 -2.2964  0.6747 -2.5388
 1115SOL     OW14980   2.605   3.409  15.831 -0.0100 -0.0881 -0.8194
 1115SOL    HW114981   2.558   3.327  15.846  1.8668 -0.9373  0.3687
 1115SOL    HW214982   2.534   3.466  15.800 -0.6540  0.0378  0.8713
 1116SOL     OW14983   4.014   3.280   6.549  0.1603  0.5531 -0.0540
 1116SOL    HW114984   4.008   3.288   6.453 -0.2073  0.9228  0.0010
 1116SOL    HW214985   3.925   3.305   6.571  0.4061 -0.2116  1.7685
 1117SOL     OW14986   3.266   0.355   4.868  0.3434 -0.0409  0.2122
 1117SOL    HW114987   3.226   0.409   4.800  0.7731 -0.4591 -0.3713
 1117SOL    HW214988   3.272   0.268   4.828  1.5129  0.2728 -0.3144
 1118SOL     OW14989   3.675   1.290  10.246  0.3146  0.1623  0.0410
 1118SOL    HW114990   3.598   1.240  10.271  0.4971  0.6915  1.6943
 1118SOL    HW214991   3.689   1.273  10.153 -1.4346 -1.5105  0.0797
 1119SOL     OW14992   2.152   2.570   6.358 -0.3385  0.1276 -0.1509
 1119SOL    HW114993   2.111   2.528   6.282  0.3040 -2.2851  0.8413
 1119SOL    HW214994   2.130   2.512   6.430 -2.2217  2.1403  0.8731
 1120SOL     OW14995   1.917   2.869   3.750 -0.3150  0.1045  0.4167
 1120SOL    HW114996   1.910   2.800   3.684 -0.7671 -0.4321  1.0226
 1120SOL    HW214997   1.910   2.941   3.688 -1.8282 -0.3639  0.0316
 1121SOL     OW14998   2.073   1.075  11.296  0.0320 -0.1491 -0.1479
 1121SOL    HW114999   1.979   1.092  11.290 -0.4345 -2.7289 -0.3033
 1121SOL    HW215000   2.091   1.116  11.381 -0.9285 -2.0889  0.9806
 1122SOL     OW15001   2.319   0.012   9.937  0.0507  0.2642 -0.3794
 1122SOL    HW115002   2.333   0.031   9.844 -0.3701 -0.5262 -0.5968
 1122SOL    HW215003   2.323   0.102   9.970 -0.4374 -0.6192  2.0649
 1123SOL     OW15004   4.219   4.057   7.040  0.4879  0.5708 -0.5654
 1123SOL    HW115005   4.172   3.974   7.043  2.0921 -0.4210 -2.8054
 1123SOL    HW215006   4.283   4.056   7.111 -1.8039  1.9251  1.5586
 1124SOL     OW15007   3.255   4.392   8.594  0.0513  0.3057  0.8101
 1124SOL    HW115008   3.350   4.388   8.605 -0.0817 -0.6696  1.6151
 1124SOL    HW215009   3.238   4.483   8.618  3.5449  1.3342 -0.6663
 1125SOL     OW15010   4.480   3.808  10.509  0.2323  0.0952  0.0364
 1125SOL    HW115011   4.519   3.755  10.578 -2.2270 -0.2747  1.1419
 1125SOL    HW215012   4.389   3.780  10.512  0.1911  0.2487  0.2430
 1126SOL     OW15013   0.647   0.919  12.597 -0.1409 -0.0611  0.0435
 1126SOL    HW115014   0.592   0.983  12.553  0.2818 -0.5698 -1.2353
 1126SOL    HW215015   0.728   0.929  12.547 -0.9764 -0.9949 -1.4883
 1127SOL     OW15016   3.906   0.113   2.197 -0.0726 -0.3622  0.1574
 1127SOL    HW115017   3.874   0.188   2.148 -2.0889 -1.8086 -0.7452
 1127SOL    HW215018   3.950   0.053   2.137 -1.0150 -2.7318  1.8072
 1128SOL     OW15019   3.823   1.006   7.099  0.0750  0.1937  0.2448
 1128SOL    HW115020   3.747   0.988   7.044  0.6549  1.4895 -0.9846
 1128SOL    HW215021   3.774   1.017   7.181  1.4843  1.7409  0.8806
 1129SOL     OW15022   0.200   2.693   5.942  0.0720 -0.5003  0.1437
 1129SOL    HW115023   0.234   2.618   5.991 -0.7614  0.4864  2.2140
 1129SOL    HW215024   0.225   2.670   5.852  1.4040 -0.0998  0.4024
 1130SOL     OW15025   1.400   3.951   0.730  0.3391  0.0454 -0.0775
 1130SOL    HW115026   1.432   4.033   0.769  0.7951 -0.4417  0.5627
 1130SOL    HW215027   1.472   3.891   0.746  0.6818 -0.0490 -2.0256
 1131SOL     OW15028   3.765   1.403   1.868  0.1376  0.2452 -0.3886
 1131SOL    HW115029   3.774   1.332   1.932 -1.0944  0.8637  0.4735
 1131SOL    HW215030   3.827   1.470   1.894  1.5343 -1.0006 -0.5224
 1132SOL     OW15031   2.460   4.426   4.903  0.2331  0.2746  0.2641
 1132SOL    HW115032   2.394   4.493   4.887 -0.3776  0.1475  2.1893
 1132SOL    HW215033   2.464   4.444   4.997 -2.1479  0.5401  0.3022
 1133SOL     OW15034   4.422   0.966   9.313 -0.8743  0.2421 -1.2431
 1133SOL    HW115035   4.440   0.907   9.240 -1.5682  0.5428 -1.6497
 1133SOL    HW215036   4.330   0.975   9.290 -0.5021 -1.9901 -3.5422
 1134SOL     OW15037   3.135   4.268   8.394  0.0428  0.1614  0.6907
 1134SOL    HW115038   3.168   4.308   8.474  2.3624 -1.2686  0.4406
 1134SOL    HW215039   3.215   4.278   8.342 -0.4024 -0.0200 -0.0327
 1135SOL     OW15040   4.082   2.071   7.746 -0.2559  0.1871  0.3994
 1135SOL    HW115041   4.017   2.101   7.682  0.5250 -1.7884 -1.3224
 1135SOL    HW215042   4.112   1.990   7.705  1.9198 -0.5949  3.6073
 1136SOL     OW15043   1.727   0.795   6.783 -0.3803  0.1536  0.2209
 1136SOL    HW115044   1.811   0.840   6.779 -1.0809  1.2681 -2.2848
 1136SOL    HW215045   1.756   0.704   6.779 -3.5485 -0.7906 -0.6542
 1137SOL     OW15046   1.244   4.674   5.084  0.1279 -0.2902 -0.2819
 1137SOL    HW115047   1.198   4.719   5.155 -0.1844 -1.1457  0.0538
 1137SOL    HW215048   1.190   4.702   5.010  0.6903  2.5891  0.4165
 1138SOL     OW15049   4.468   3.401   7.460  0.3442  0.4952 -0.0534
 1138SOL    HW115050   4.563   3.414   7.463  0.1711  1.5236  0.9694
 1138SOL    HW215051   4.441   3.458   7.532 -1.9911 -1.6437  0.7812
 1139SOL     OW15052   3.326   0.835   9.322 -0.1212 -0.0971 -0.1903
 1139SOL    HW115053   3.349   0.894   9.250 -0.0558  0.9593  0.7036
 1139SOL    HW215054   3.392   0.857   9.388 -1.5450 -1.4643  1.6707
 1140SOL     OW15055   2.235   4.080   6.543 -0.4821 -0.3086 -0.2537
 1140SOL    HW115056   2.275   4.068   6.629  0.5153  2.5765 -0.3001
 1140SOL    HW215057   2.178   4.154   6.565  1.9979  2.2282 -2.3304
 1141SOL     OW15058   0.529   3.696   3.584 -0.0109  0.0296  0.0649
 1141SOL    HW115059   0.484   3.774   3.616  0.0116 -0.5325  1.4862
 1141SOL    HW215060   0.461   3.629   3.593 -1.3016  1.2766 -0.5744
 1142SOL     OW15061   1.503   3.023   2.042  0.2565  0.2494  0.0446
 1142SOL    HW115062   1.419   3.060   2.017  0.4667 -0.6784 -2.0479
 1142SOL    HW215063   1.558   3.097   2.066 -0.0183 -0.1756  1.9865
 1143SOL     OW15064   2.851   0.281   3.326  0.5004  0.3174  0.1401
 1143SOL    HW115065   2.925   0.249   3.276  0.8262  0.9136  0.2375
 1143SOL    HW215066   2.783   0.217   3.303 -0.1460  1.3156 -0.7591
 1144SOL     OW15067   3.319   0.589   5.675  0.2142 -0.3311  0.3416
 1144SOL    HW115068   3.346   0.547   5.757  2.7462  1.3105  0.3522
 1144SOL    HW215069   3.407   0.602   5.639 -0.9419 -0.4988 -2.5376
 1145SOL     OW15070   0.490   2.131  14.647 -0.7749  0.0583 -0.3589
 1145SOL    HW115071   0.555   2.069  14.678  0.8712  1.7393 -0.4538
 1145SOL    HW215072   0.546   2.184  14.590 -0.4080  0.8180  0.7082
 1146SOL     OW15073   0.921   4.266  16.596 -0.1681  0.0070  0.4174
 1146SOL    HW115074   0.927   4.337  16.660  2.0227 -0.2726  0.5271
 1146SOL    HW215075   0.865   4.205  16.644  2.8745 -1.4805  2.1484
 1147SOL     OW15076   1.425   0.917  15.543 -0.2029  0.2674  0.3260
 1147SOL    HW115077   1.491   0.974  15.583  0.0308 -0.0416  0.3774
 1147SOL    HW215078   1.395   0.859  15.612 -0.3862 -0.9098 -0.7550
 1148SOL     OW15079   0.265   0.876   5.402 -0.3013 -0.1201  0.4354
 1148SOL    HW115080   0.188   0.836   5.442 -0.7338 -1.4208 -1.6893
 1148SOL    HW215081   0.302   0.797   5.362  0.8221  1.5225 -1.7842
 1149SOL     OW15082   0.788   2.935   0.767 -0.4523  0.1719 -0.4236
 1149SOL    HW115083   0.792   2.871   0.839 -0.5026 -0.1661 -0.7251
 1149SOL    HW215084   0.838   3.011   0.798 -1.3763  0.7530 -0.3604
 1150SOL     OW15085   1.191   3.212   0.960  0.2884 -0.1462 -0.0344
 1150SOL    HW115086   1.236   3.229   0.877 -0.9290  0.8493 -0.4967
 1150SOL    HW215087   1.198   3.299   0.999 -0.0590 -0.2831  0.3346
 1151SOL     OW15088   3.394   1.039   3.108 -0.4442 -0.6182 -0.4887
 1151SOL    HW115089   3.408   0.971   3.175 -2.7150  0.0253  0.6304
 1151SOL    HW215090   3.332   1.005   3.044 -0.4479 -0.9577 -0.3101
 1152SOL     OW15091   4.572   1.532   9.156  0.6357 -0.1360  0.0061
 1152SOL    HW115092   4.645   1.561   9.210 -1.3707  1.0257  2.0517
 1152SOL    HW215093   4.563   1.444   9.190  1.8928  0.2324  1.3046
 1153SOL     OW15094   0.729   2.120   2.717  0.0723  0.3433  0.6315
 1153SOL    HW115095   0.690   2.133   2.631  2.1818  2.8772  0.0631
 1153SOL    HW215096   0.677   2.050   2.758  0.8486  0.6694  2.1704
 1154SOL     OW15097   0.357   4.604   3.816 -0.4504  0.1891 -0.3938
 1154SOL    HW115098   0.286   4.573   3.872  0.7648 -0.2322  0.9320
 1154SOL    HW215099   0.437   4.580   3.863 -0.0020  0.8272 -0.8344
 1155SOL     OW15100   1.187   0.025   7.351 -0.6005  0.1107 -0.7671
 1155SOL    HW115101   1.213   0.098   7.407 -1.8192  1.6605 -2.2080
 1155SOL    HW215102   1.204   0.082   7.275 -0.2487  1.2137  0.1365
 1156SOL     OW15103   1.123   2.151   1.946  0.1787  0.0458 -0.7933
 1156SOL    HW115104   1.194   2.146   1.881  0.4040 -1.4332 -0.4288
 1156SOL    HW215105   1.123   2.065   1.988 -2.0723  0.4532  0.0149
 1157SOL     OW15106   0.149   1.672   8.600  0.0010  0.1629 -0.0843
 1157SOL    HW115107   0.097   1.719   8.535 -1.6128 -0.3892  0.7920
 1157SOL    HW215108   0.161   1.586   8.559 -1.2763 -0.7180  1.4091
 1158SOL     OW15109   0.004   3.049   4.328  0.5763  0.0416 -0.0028
 1158SOL    HW115110   4.706   3.104   4.257  1.5915 -1.6364 -1.8148
 1158SOL    HW215111   4.710   2.963   4.297  0.0585 -0.5151  2.0552
 1159SOL     OW15112   2.779   2.710  16.332  0.2444  0.5050 -0.4938
 1159SOL    HW115113   2.848   2.644  16.331 -0.6519 -0.4512  0.7451
 1159SOL    HW215114   2.693   2.668  16.335  1.3821 -1.6591  1.6673
 1160SOL     OW15115   2.307   0.430   4.028  0.2946  0.5513 -0.3699
 1160SOL    HW115116   2.269   0.377   3.958 -3.0075  0.4826  1.4777
 1160SOL    HW215117   2.397   0.397   4.037  0.1133 -0.4463 -2.4087
 1161SOL     OW15118   2.074   1.335   7.574 -0.3444 -0.5147 -0.0798
 1161SOL    HW115119   2.128   1.328   7.495  0.2320  0.5672  0.2163
 1161SOL    HW215120   2.134   1.312   7.646 -1.5495  0.8660  1.3549
 1162SOL     OW15121   3.922   0.808   7.430 -0.5182  0.1482 -0.4014
 1162SOL    HW115122   3.840   0.842   7.464  1.3310  2.4200  1.8539
 1162SOL    HW215123   3.961   0.762   7.504  2.0552 -1.2974 -2.6262
 1163SOL     OW15124   4.525   1.306  17.165 -0.2735  0.6785  0.3155
 1163SOL    HW115125   4.465   1.251  17.114 -1.0497 -0.2659  2.2376
 1163SOL    HW215126   4.593   1.322  17.099 -1.4792  1.8979 -0.6150
 1164SOL     OW15127   3.771   0.046  12.123  0.2996 -0.1890 -0.1286
 1164SOL    HW115128   3.845   4.731  12.092 -0.5050 -0.8928 -0.8866
 1164SOL    HW215129   3.720   0.059  12.043  1.6379 -1.4181 -1.1759
 1165SOL     OW15130   4.212   3.058   5.454  0.0106  0.4505 -0.2324
 1165SOL    HW115131   4.205   3.127   5.389 -0.0474  0.2110 -0.4802
 1165SOL    HW215132   4.130   3.009   5.450 -0.5074  1.3694 -0.7140
 1166SOL     OW15133   2.549   2.678   5.951  0.0464  0.6055 -0.1720
 1166SOL    HW115134   2.639   2.666   5.983 -0.5157 -1.8463  0.4516
 1166SOL    HW215135   2.505   2.639   6.027  3.9579 -1.8218  0.8604
 1167SOL     OW15136   3.765   4.255   6.135 -0.5165  0.6353  0.5239
 1167SOL    HW115137   3.799   4.191   6.197  1.5370  1.4460  0.2181
 1167SOL    HW215138   3.702   4.195   6.094  0.1803 -1.7494  2.9355
 1168SOL     OW15139   4.450   2.574   7.588 -0.1402  0.0194 -0.1707
 1168SOL    HW115140   4.457   2.511   7.659  0.7501 -0.0290 -0.2983
 1168SOL    HW215141   4.361   2.543   7.570  0.2414  0.5470 -3.0199
 1169SOL     OW15142   1.645   1.604   5.853 -0.0777 -0.8639  0.4821
 1169SOL    HW115143   1.592   1.663   5.800  2.0973 -0.3179 -1.0959
 1169SOL    HW215144   1.704   1.553   5.798 -1.6357  0.5489 -2.4328
 1170SOL     OW15145   0.557   2.287   6.878  0.2521 -0.0452  1.1015
 1170SOL    HW115146   0.562   2.325   6.791 -3.3419 -0.3464  0.7299
 1170SOL    HW215147   0.615   2.343   6.928  0.9291  1.4348 -1.3422
 1171SOL     OW15148   0.086   1.488   0.977  0.5910  0.5776 -0.4828
 1171SOL    HW115149   0.169   1.507   1.022  1.9627 -0.2122 -2.6792
 1171SOL    HW215150   0.108   1.540   0.900 -1.6625  0.4862 -1.1886
 1172SOL     OW15151   3.554   4.717   6.176 -0.6298 -0.2201 -0.4063
 1172SOL    HW115152   3.580   4.706   6.084 -1.4774 -2.4161 -0.3938
 1172SOL    HW215153   3.612   4.655   6.218 -2.7616 -0.7618  1.7150
 1173SOL     OW15154   1.277   0.126   1.695  0.8260 -0.2167  0.6307
 1173SOL    HW115155   1.276   0.149   1.602  2.2270 -2.0148  0.1702
 1173SOL    HW215156   1.184   0.123   1.716  0.8259  1.3219  0.8323
 1174SOL     OW15157   3.526   1.428   9.072  0.4069 -0.3571  0.0548
 1174SOL    HW115158   3.433   1.407   9.065  0.9533 -2.0079 -2.1547
 1174SOL    HW215159   3.549   1.449   8.982  1.2788 -3.0065 -0.3300
 1175SOL     OW15160   0.240   0.020   9.058 -0.5502 -0.3625 -0.3181
 1175SOL    HW115161   0.324   0.062   9.043  0.3997 -0.6081  4.2180
 1175SOL    HW215162   0.233   0.040   9.152  0.7382 -1.6735  0.0534
 1176SOL     OW15163   3.875   3.748   2.700 -0.7969  0.0074 -0.2564
 1176SOL    HW115164   3.786   3.770   2.672 -0.2816  2.4437  0.0777
 1176SOL    HW215165   3.898   3.702   2.619  0.2069 -0.4674  0.2878
 1177SOL     OW15166   2.395   4.067   6.322  0.0810  0.1760 -0.2529
 1177SOL    HW115167   2.342   4.062   6.401 -0.0959 -0.9845 -0.4464
 1177SOL    HW215168   2.469   4.103   6.371 -1.1582  0.6809  1.2491
 1178SOL     OW15169   4.654   4.559   2.819 -0.2163 -0.1103 -0.1441
 1178SOL    HW115170   4.593   4.627   2.789  1.3413  0.3477 -2.2759
 1178SOL    HW215171   4.648   4.570   2.914 -0.7649 -0.5842 -0.1224
 1179SOL     OW15172   2.003   0.858   6.749  0.2940 -0.3768 -0.2465
 1179SOL    HW115173   2.039   0.880   6.664  0.8490 -1.4138 -0.2870
 1179SOL    HW215174   2.075   0.804   6.783  0.5226  0.9321  1.3319
 1180SOL     OW15175   4.451   1.850   4.163 -0.8106 -0.6197 -0.9279
 1180SOL    HW115176   4.439   1.758   4.143  0.5064 -0.2130 -3.6116
 1180SOL    HW215177   4.482   1.878   4.077  0.6086 -0.4581 -0.3761
 1181SOL     OW15178   1.243   2.543   9.221 -0.0098 -0.2001 -0.1621
 1181SOL    HW115179   1.272   2.599   9.149 -3.4947  2.2176  0.3036
 1181SOL    HW215180   1.323   2.491   9.229 -1.5322 -2.9832 -3.0827
 1182SOL     OW15181   4.329   1.540  11.744 -0.1241 -0.3506 -0.0527
 1182SOL    HW115182   4.353   1.599  11.815 -0.7444 -0.1594  0.0047
 1182SOL    HW215183   4.280   1.601  11.689 -0.9415 -1.5207 -0.6460
 1183SOL     OW15184   4.088   3.038   4.144 -0.1347  0.0374  0.8700
 1183SOL    HW115185   4.069   3.022   4.051  0.1830  1.0155  0.6368
 1183SOL    HW215186   4.182   3.056   4.139 -0.5279  2.0140  0.2015
 1184SOL     OW15187   1.488   2.563   1.696 -0.1158  0.4136 -0.0958
 1184SOL    HW115188   1.532   2.643   1.667  1.4297  0.6718  2.9630
 1184SOL    HW215189   1.522   2.555   1.785  2.0169  0.1802 -0.9181
 1185SOL     OW15190   1.251   2.536   7.026 -0.5595 -0.2897 -0.1281
 1185SOL    HW115191   1.177   2.595   7.013 -0.7563 -0.5603 -0.2340
 1185SOL    HW215192   1.209   2.454   7.050  1.4804 -0.2475  3.6745
 1186SOL     OW15193   2.418   2.387   6.523  0.0852 -0.1067 -0.0124
 1186SOL    HW115194   2.373   2.471   6.533  2.4202  1.0504  0.6193
 1186SOL    HW215195   2.391   2.347   6.605  1.0980  0.5110  0.6185
 1187SOL     OW15196   2.822   2.005   1.973  0.7702 -0.3690 -0.4897
 1187SOL    HW115197   2.796   2.045   1.890 -0.7727  1.6368  0.9572
 1187SOL    HW215198   2.884   2.070   2.007 -0.7008  0.3701  0.7960
 1188SOL     OW15199   3.045   2.962  12.994 -0.2184 -0.3806  0.2253
 1188SOL    HW115200   3.067   2.897  12.928  1.0195  0.5632 -0.2882
 1188SOL    HW215201   3.096   3.034  12.957  0.5498 -0.5643  0.9172
 1189SOL     OW15202   4.421   0.609  11.761 -0.1224 -0.7162 -0.2300
 1189SOL    HW115203   4.394   0.518  11.748 -0.5961 -0.4448 -1.1438
 1189SOL    HW215204   4.496   0.619  11.702 -0.4089  4.0440  0.2062
 1190SOL     OW15205   1.428   2.481   0.189 -0.0662  0.3795  0.4867
 1190SOL    HW115206   1.372   2.558   0.191  0.0017  0.4205  0.8398
 1190SOL    HW215207   1.467   2.493   0.276  0.3044 -0.4581  0.4382
 1191SOL     OW15208   2.657   2.992  12.172  0.3026 -0.7781 -0.1796
 1191SOL    HW115209   2.690   2.989  12.083 -0.1691 -0.4761 -0.3624
 1191SOL    HW215210   2.584   3.053  12.160  0.4060 -0.6187  0.0086
 1192SOL     OW15211   2.347   3.446   9.319  0.2501 -0.2994 -0.5152
 1192SOL    HW115212   2.366   3.497   9.398 -1.9855 -1.0202  0.4937
 1192SOL    HW215213   2.345   3.515   9.253 -0.1644  0.4090  0.2353
 1193SOL     OW15214   3.283   1.139  17.132  0.5401 -0.3532 -0.0265
 1193SOL    HW115215   3.276   1.087  17.052 -1.3305  0.1323 -0.1766
 1193SOL    HW215216   3.356   1.088  17.167  0.8952 -0.1449 -0.4571
 1194SOL     OW15217   3.858   0.697   1.813  0.4783 -0.0558  0.1084
 1194SOL    HW115218   3.815   0.612   1.819 -1.3167  0.7559 -1.0813
 1194SOL    HW215219   3.808   0.751   1.874 -2.7217 -1.6496 -1.0753
 1195SOL     OW15220   0.216   1.176   8.870 -0.4752  0.1757 -0.1362
 1195SOL    HW115221   0.272   1.183   8.947 -2.0381 -0.0418  1.0086
 1195SOL    HW215222   0.282   1.175   8.800 -0.1881  4.2424  0.0714
 1196SOL     OW15223   0.063   3.236   5.921  0.6371 -0.3382  0.3870
 1196SOL    HW115224   0.101   3.177   5.987  0.2516 -0.5675  0.4001
 1196SOL    HW215225   0.012   3.295   5.976  0.1684 -0.2553 -0.1391
 1197SOL     OW15226   1.658   0.245   3.954  0.2426 -0.3388 -0.3666
 1197SOL    HW115227   1.613   0.162   3.967  1.1611 -0.6167  0.9927
 1197SOL    HW215228   1.587   0.306   3.973  0.9747  0.0076  1.3050
 1198SOL     OW15229   3.648   4.702   5.921 -0.1414  0.8022  0.0568
 1198SOL    HW115230   3.685   0.045   5.883  2.2290  0.2036  1.1134
 1198SOL    HW215231   3.610   4.653   5.849  1.1534 -1.1901  0.7217
 1199SOL     OW15232   0.954   4.371  12.714 -0.0050  0.3768  0.3480
 1199SOL    HW115233   0.943   4.465  12.704 -2.1732  0.2518  1.6534
 1199SOL    HW215234   0.872   4.338  12.678  0.1078 -0.1820  0.6020
 1200SOL     OW15235   4.497   1.358   6.652  0.0626  0.7815  0.7575
 1200SOL    HW115236   4.412   1.327   6.682  0.6732 -1.5353  0.1150
 1200SOL    HW215237   4.562   1.305   6.699  0.7001 -1.8581 -3.1294
 1201SOL     OW15238   3.891   2.952  15.684  0.6050  0.1562  0.2982
 1201SOL    HW115239   3.867   3.030  15.636  0.3523  0.2048  0.5050
 1201SOL    HW215240   3.836   2.887  15.640  0.5919  0.4495 -0.1180
 1202SOL     OW15241   1.838   1.630   4.636 -0.4156 -0.0175 -0.1193
 1202SOL    HW115242   1.897   1.689   4.587  0.1394 -1.9296 -1.7710
 1202SOL    HW215243   1.883   1.545   4.632 -1.6426 -0.6251 -1.1407
 1203SOL     OW15244   0.487   0.966   9.891 -0.2089 -0.2393 -0.3108
 1203SOL    HW115245   0.575   0.956   9.855  0.0568  1.1268 -0.0559
 1203SOL    HW215246   0.509   1.008   9.974 -0.8855  0.0645 -0.2827
 1204SOL     OW15247   0.481   3.923   9.192 -0.5147  0.5324 -0.0244
 1204SOL    HW115248   0.390   3.907   9.218 -0.5377 -2.0560 -1.6696
 1204SOL    HW215249   0.531   3.862   9.246  0.4508 -0.8044 -2.4321
 1205SOL     OW15250   4.539   2.066  17.593  0.0633  0.2320  0.2095
 1205SOL    HW115251   4.560   2.150  17.633  0.0101  1.9669 -3.4290
 1205SOL    HW215252   4.451   2.064  17.554  0.2526 -0.4354 -0.1903
 1206SOL     OW15253   1.592   2.763   4.619 -0.4803  0.0653  0.0393
 1206SOL    HW115254   1.579   2.845   4.668  0.3493 -0.2386  0.7731
 1206SOL    HW215255   1.523   2.761   4.553 -0.2745 -0.9945 -0.1378
 1207SOL     OW15256   0.353   2.473   6.043  0.2720  0.0292  0.6113
 1207SOL    HW115257   0.306   2.480   6.127 -0.3937  0.5944  0.1995
 1207SOL    HW215258   0.311   2.397   6.004  2.9816 -0.7524 -0.7574
 1208SOL     OW15259   1.590   2.015   2.111 -0.4686 -0.4708  0.0828
 1208SOL    HW115260   1.530   2.003   2.037 -0.6453 -0.8789  0.2970
 1208SOL    HW215261   1.628   2.099   2.084  1.7028 -0.9426  1.6595
 1209SOL     OW15262   4.625   4.731   6.399 -0.1387  0.6784 -0.1653
 1209SOL    HW115263   4.571   0.035   6.331  0.0912 -0.9036 -1.2801
 1209SOL    HW215264   4.569   4.667   6.443  0.1708  1.2678  1.1039
 1210SOL     OW15265   2.537   0.003   6.860  0.2802  0.1461 -0.3479
 1210SOL    HW115266   2.609   0.017   6.799  2.3599  0.3142  2.1787
 1210SOL    HW215267   2.506   0.092   6.878  1.3568  0.7362 -1.4438
 1211SOL     OW15268   0.066   4.495   2.207  0.0337  0.2269  0.2323
 1211SOL    HW115269   0.028   4.576   2.242  0.0254 -0.6823  2.3223
 1211SOL    HW215270   4.720   4.446   2.206 -0.4119  0.9921 -1.0589
 1212SOL     OW15271   0.964   1.799  12.288  0.6457  0.5541 -0.3313
 1212SOL    HW115272   1.014   1.726  12.323  0.9255 -0.8643 -3.6376
 1212SOL    HW215273   0.883   1.785  12.337  1.3747  0.5368  0.8620
 1213SOL     OW15274   2.956   3.835   8.334  0.2029  0.0409 -0.3852
 1213SOL    HW115275   2.909   3.917   8.347 -1.3258 -1.0159  0.7376
 1213SOL    HW215276   2.904   3.769   8.379  1.0388  1.0898  2.1372
 1214SOL     OW15277   1.348   0.667   7.968 -0.5885 -0.3601  0.7660
 1214SOL    HW115278   1.345   0.712   8.052  0.2210  0.6107  0.2773
 1214SOL    HW215279   1.388   0.743   7.924 -0.3716 -0.0171  1.5507
 1215SOL     OW15280   3.123   0.484   2.658 -0.6330 -0.4675 -0.1079
 1215SOL    HW115281   3.137   0.390   2.647 -0.5183 -0.9312  3.8340
 1215SOL    HW215282   3.090   0.496   2.747  1.0724 -2.4367  0.8007
 1216SOL     OW15283   1.173   2.343  12.465  0.0905  0.0265 -0.0387
 1216SOL    HW115284   1.268   2.334  12.468  0.1755  2.0579  3.0653
 1216SOL    HW215285   1.170   2.361  12.371 -0.2733 -0.9221 -0.2034
 1217SOL     OW15286   1.667   2.074   4.909 -0.0043 -0.6964 -0.0190
 1217SOL    HW115287   1.633   2.146   4.961 -1.6380 -0.1228 -1.8993
 1217SOL    HW215288   1.738   2.036   4.961 -0.9205 -1.5115  0.6152
 1218SOL     OW15289   4.329   0.431   3.710  0.3265 -0.0123 -0.2710
 1218SOL    HW115290   4.283   0.353   3.678 -0.5356 -0.1307  1.2493
 1218SOL    HW215291   4.390   0.393   3.773  0.2731  0.2160 -0.0855
 1219SOL     OW15292   4.027   3.938  16.336  0.1542 -0.1474 -0.2039
 1219SOL    HW115293   3.946   3.975  16.370 -0.6357 -2.0784  0.0079
 1219SOL    HW215294   4.079   3.902  16.408  0.1641 -1.3073 -0.7929
 1220SOL     OW15295   2.552   2.552   0.032  0.2713  0.0050 -0.5948
 1220SOL    HW115296   2.533   2.645   0.043 -1.3832 -0.4851  0.6883
 1220SOL    HW215297   2.479   2.522  17.722 -0.6782  1.0057  0.1363
 1221SOL     OW15298   3.329   2.291  17.602 -0.2342  0.2925 -0.1409
 1221SOL    HW115299   3.249   2.278  17.552 -1.1737 -1.0534  1.6849
 1221SOL    HW215300   3.380   2.352  17.549  1.2933  0.6044  1.6548
 1222SOL     OW15301   0.712   1.017   4.279 -0.3085 -0.1280 -0.7042
 1222SOL    HW115302   0.688   1.103   4.313 -0.0480  0.0211 -0.8971
 1222SOL    HW215303   0.687   1.029   4.188  1.6730  0.7943 -1.1305
 1223SOL     OW15304   3.206   4.079  15.879  0.3823  0.0603  0.3143
 1223SOL    HW115305   3.234   4.060  15.789  3.1138 -0.7864  1.3502
 1223SOL    HW215306   3.260   4.017  15.927 -0.8507 -0.8084  0.5677
 1224SOL     OW15307   1.480   3.729   1.611  0.3351  0.1199 -0.0839
 1224SOL    HW115308   1.513   3.789   1.544  0.7218  0.8315  0.7395
 1224SOL    HW215309   1.542   3.753   1.680 -0.9137  1.5846  0.5314
 1225SOL     OW15310   1.867   3.653  12.996  0.3275  0.2577  0.1136
 1225SOL    HW115311   1.834   3.740  13.020 -0.8325  0.6358 -2.8655
 1225SOL    HW215312   1.820   3.594  13.055  0.2129  1.4845  1.2365
 1226SOL     OW15313   0.982   4.456   5.144 -0.0577  0.4214  0.0618
 1226SOL    HW115314   0.888   4.475   5.147  0.1227  1.3408 -0.1171
 1226SOL    HW215315   0.998   4.418   5.058  0.5651 -0.1008  0.4079
 1227SOL     OW15316   2.667   3.302   5.492  0.3879 -0.0128 -0.0711
 1227SOL    HW115317   2.627   3.359   5.427 -1.5041  0.1929  1.2476
 1227SOL    HW215318   2.657   3.358   5.569  2.7936  0.9567 -0.4806
 1228SOL     OW15319   0.927   2.332  15.352  0.3536 -0.4087  0.4595
 1228SOL    HW115320   0.946   2.424  15.369  0.0437 -0.2243 -0.1907
 1228SOL    HW215321   0.882   2.340  15.268  0.5076 -0.6267  0.3562
 1229SOL     OW15322   0.662   1.759   0.755 -0.3731 -0.7078  0.0027
 1229SOL    HW115323   0.672   1.834   0.814  1.3720 -1.0795  0.1776
 1229SOL    HW215324   0.717   1.790   0.682 -0.6329 -1.2702 -0.4301
 1230SOL     OW15325   2.620   1.529   5.660 -0.3608  0.2513 -0.4252
 1230SOL    HW115326   2.606   1.471   5.585 -1.4575 -0.3971  0.2927
 1230SOL    HW215327   2.707   1.504   5.691 -0.3081 -0.7791 -1.3754
 1231SOL     OW15328   2.345   3.804  15.230  0.0525 -0.4003 -0.0574
 1231SOL    HW115329   2.421   3.855  15.202 -1.0593  0.9195 -0.6644
 1231SOL    HW215330   2.338   3.763  15.143  1.0078 -1.8191  0.5409
 1232SOL     OW15331   2.821   3.373   7.851 -0.4083  0.4087  0.2386
 1232SOL    HW115332   2.831   3.432   7.776  0.1697 -1.9196 -1.4959
 1232SOL    HW215333   2.821   3.284   7.817 -0.2357 -0.4249  2.3834
 1233SOL     OW15334   3.269   2.553   7.224  0.1571  0.1238  1.3049
 1233SOL    HW115335   3.339   2.614   7.248 -0.9665  1.1698  1.9173
 1233SOL    HW215336   3.189   2.592   7.260 -0.1458  0.3681  0.3577
 1234SOL     OW15337   1.648   1.383  15.704  0.1443 -0.6195  0.0323
 1234SOL    HW115338   1.728   1.346  15.666  0.8719  0.6645  0.3231
 1234SOL    HW215339   1.590   1.307  15.707 -0.0104 -0.5147 -0.3228
 1235SOL     OW15340   1.904   3.102   3.346 -0.1337 -0.2799 -0.5146
 1235SOL    HW115341   1.985   3.139   3.312  0.5214  0.2714  1.6856
 1235SOL    HW215342   1.843   3.104   3.271  0.0567 -0.9258 -0.6915
 1236SOL     OW15343   2.065   1.618   5.904  0.0137  0.5703  0.2367
 1236SOL    HW115344   1.989   1.579   5.947  0.2897  1.4117  1.4839
 1236SOL    HW215345   2.043   1.710   5.907 -1.1899  0.3270 -1.7336
 1237SOL     OW15346   2.037   1.810   2.642  0.5752 -0.0568 -0.7051
 1237SOL    HW115347   2.061   1.838   2.554  0.3241  1.2457 -0.3660
 1237SOL    HW215348   2.123   1.816   2.684 -0.4164  1.4618  1.1413
 1238SOL     OW15349   1.431   3.647   8.841 -0.2376 -0.2403 -0.1838
 1238SOL    HW115350   1.495   3.690   8.897 -0.1392 -0.3994 -0.1721
 1238SOL    HW215351   1.401   3.721   8.788 -1.2739  0.5361  1.4824
 1239SOL     OW15352   1.947   3.105   1.992  0.7214  0.4366 -0.1679
 1239SOL    HW115353   1.934   3.141   2.080  2.6221  1.2266 -0.2113
 1239SOL    HW215354   2.029   3.058   2.006  1.7363  1.4935 -2.6127
 1240SOL     OW15355   4.621   3.088   5.775  0.5798  0.2860 -0.4441
 1240SOL    HW115356   4.653   3.063   5.689  0.4968 -1.0641 -0.0847
 1240SOL    HW215357   4.677   3.160   5.802  0.8289  0.4786 -1.4975
 1241SOL     OW15358   2.242   1.581   7.852  0.5802 -0.3820  0.2043
 1241SOL    HW115359   2.160   1.600   7.898  0.6150 -1.1972  0.5998
 1241SOL    HW215360   2.233   1.626   7.768 -1.3583  2.0115  1.7051
 1242SOL     OW15361   3.442   3.854   1.667 -0.0120 -0.2692  0.3216
 1242SOL    HW115362   3.514   3.909   1.697  0.2230 -0.6043  0.3727
 1242SOL    HW215363   3.492   3.773   1.670  0.8080  0.1987 -0.5505
 1243SOL     OW15364   1.342   2.283   1.785  0.5720  0.1916  0.1906
 1243SOL    HW115365   1.413   2.229   1.818 -1.3279 -2.1384  0.4238
 1243SOL    HW215366   1.334   2.341   1.861 -0.3698 -0.9982  0.9893
 1244SOL     OW15367   4.098   1.702   1.897  0.1480  0.3699  0.4941
 1244SOL    HW115368   4.099   1.697   1.993 -0.2126  1.8767  0.5765
 1244SOL    HW215369   4.011   1.663   1.888 -0.4800  1.8450  0.1672
 1245SOL     OW15370   1.528   0.070   5.717  0.3218  0.6893  0.1535
 1245SOL    HW115371   1.582   0.119   5.654  2.8443 -2.8610 -0.4272
 1245SOL    HW215372   1.554   4.714   5.718  0.7570  0.7930 -0.8743
 1246SOL     OW15373   3.968   0.788   6.728 -0.4141 -0.0689 -0.1197
 1246SOL    HW115374   3.972   0.737   6.647 -0.0243  0.1878 -0.2661
 1246SOL    HW215375   3.967   0.724   6.800 -0.2295  1.7291  1.4880
 1247SOL     OW15376   2.077   2.536   2.093 -0.1530  0.1636 -0.2050
 1247SOL    HW115377   2.061   2.505   2.182  1.0126 -0.0288 -0.0627
 1247SOL    HW215378   2.173   2.532   2.101  0.0108 -0.7823 -2.6584
 1248SOL     OW15379   1.948   2.578   4.925  0.0640 -0.5815  0.1262
 1248SOL    HW115380   1.906   2.505   4.880  0.1611 -1.1333  0.9353
 1248SOL    HW215381   1.921   2.564   5.016  0.9936  1.7450  0.7621
 1249SOL     OW15382   3.955   4.271   7.884 -0.6674  0.6853  0.2241
 1249SOL    HW115383   3.930   4.331   7.814 -1.3303  0.4545  0.2602
 1249SOL    HW215384   4.049   4.284   7.877 -0.6274 -0.3747 -1.1842
 1250SOL     OW15385   0.832   2.148  13.291  0.4636  1.0519 -0.0613
 1250SOL    HW115386   0.799   2.117  13.207  1.1190 -2.3660  0.9695
 1250SOL    HW215387   0.838   2.240  13.264  1.1194  1.1954  0.5629
 1251SOL     OW15388   1.578   2.731   7.751  0.7247  0.2977  0.1137
 1251SOL    HW115389   1.527   2.671   7.696  3.4993 -2.0314  0.0871
 1251SOL    HW215390   1.532   2.810   7.722  0.7189 -0.1972 -1.2238
 1252SOL     OW15391   2.787   1.006  17.369  0.6173  0.4925  0.1878
 1252SOL    HW115392   2.807   1.066  17.441 -0.1232  0.5816  0.3210
 1252SOL    HW215393   2.695   1.008  17.344  0.4054 -1.3140  0.7785
 1253SOL     OW15394   3.324   4.221   5.778  0.5808  0.2591 -0.1687
 1253SOL    HW115395   3.372   4.138   5.778 -1.4281 -0.9160 -0.2654
 1253SOL    HW215396   3.391   4.286   5.756 -0.2519  0.1912 -2.9299
 1254SOL     OW15397   3.256   3.742  13.000 -0.0945  0.0212 -0.3366
 1254SOL    HW115398   3.311   3.790  13.062 -1.8328 -1.0434  2.0393
 1254SOL    HW215399   3.220   3.814  12.948  1.2056  0.9941  0.1062
 1255SOL     OW15400   0.247   2.536   6.955  0.2624 -0.1866 -0.6980
 1255SOL    HW115401   0.249   2.444   6.928  0.5460 -0.3783 -0.0013
 1255SOL    HW215402   0.315   2.574   6.899  1.5672 -1.0212  0.3032
 1256SOL     OW15403   1.680   2.952   8.531  0.1462 -0.7811 -0.7344
 1256SOL    HW115404   1.627   3.026   8.562 -0.3341  0.2300 -3.9500
 1256SOL    HW215405   1.765   2.995   8.534 -0.9387  1.0872  2.6509
 1257SOL     OW15406   3.465   2.580  16.544  0.2118  0.1449 -0.0673
 1257SOL    HW115407   3.543   2.636  16.540  1.1837 -1.1259  0.7245
 1257SOL    HW215408   3.499   2.502  16.589  0.2203  1.5309  2.3525
 1258SOL     OW15409   0.685   0.643  16.823 -0.1671  0.1985 -0.0290
 1258SOL    HW115410   0.596   0.673  16.843  0.2440  0.3671  1.5753
 1258SOL    HW215411   0.729   0.711  16.874 -1.3572 -0.8120  2.3583
 1259SOL     OW15412   0.805   2.845   7.529  0.1484  0.6135 -0.0062
 1259SOL    HW115413   0.770   2.906   7.594 -0.0847 -1.4129  1.7847
 1259SOL    HW215414   0.781   2.765   7.576  0.2509  0.5675 -0.0335
 1260SOL     OW15415   1.930   3.903   5.133 -0.1614 -0.2055 -0.0357
 1260SOL    HW115416   1.856   3.898   5.073 -0.1613  1.4856 -0.1671
 1260SOL    HW215417   1.985   3.966   5.086  1.7521 -1.3050  0.7142
 1261SOL     OW15418   2.919   3.592  13.642 -0.1336  0.8670  0.1479
 1261SOL    HW115419   2.869   3.594  13.723  0.8054  0.0760  0.7468
 1261SOL    HW215420   2.996   3.547  13.677  0.4872  0.1104 -2.1690
 1262SOL     OW15421   3.330   1.014  13.213 -0.4228  0.7498 -0.1336
 1262SOL    HW115422   3.414   0.969  13.221 -1.9681 -1.8767  1.0295
 1262SOL    HW215423   3.295   0.997  13.300  1.2642  0.4268  0.4844
 1263SOL     OW15424   3.007   3.909  16.630  0.1092 -0.4332  0.0651
 1263SOL    HW115425   3.051   3.993  16.648  0.3877 -1.2354  3.2306
 1263SOL    HW215426   3.088   3.864  16.606 -0.3841 -0.5454 -1.3730
 1264SOL     OW15427   0.701   1.988   0.338 -0.1422 -0.4258  0.4638
 1264SOL    HW115428   0.741   1.958   0.419  0.7283 -0.2208  0.1103
 1264SOL    HW215429   0.611   2.012   0.356 -1.6692 -3.0487 -3.5706
 1265SOL     OW15430   1.035   3.541  12.870  0.0392  0.3146 -0.3041
 1265SOL    HW115431   1.010   3.543  12.963 -0.9414 -0.8991 -0.5338
 1265SOL    HW215432   1.052   3.447  12.863  0.7062  0.4413 -0.3890
 1266SOL     OW15433   1.103   3.514   3.935 -0.8667  0.5857  0.3233
 1266SOL    HW115434   1.123   3.446   3.999  1.5228  2.9872  2.1036
 1266SOL    HW215435   1.025   3.539   3.984 -0.1670  1.1228  1.1481
 1267SOL     OW15436   4.161   3.165   5.045 -0.4492 -0.2046  0.3840
 1267SOL    HW115437   4.084   3.150   4.990  0.2625  0.3471 -0.7543
 1267SOL    HW215438   4.165   3.077   5.083  4.5156  0.8294  2.2021
 1268SOL     OW15439   3.804   0.693   4.567  0.5517  0.3800 -1.3489
 1268SOL    HW115440   3.830   0.679   4.658  0.4809 -2.0489 -1.7019
 1268SOL    HW215441   3.715   0.723   4.588  0.3925 -1.9341  1.2925
 1269SOL     OW15442   3.696   3.197   5.983  0.3055  0.2955  0.3205
 1269SOL    HW115443   3.714   3.268   6.045  0.4116  0.2730  0.3152
 1269SOL    HW215444   3.693   3.249   5.903 -0.8721 -1.9902 -1.1306
 1270SOL     OW15445   4.515   2.450   8.298 -0.6640  0.1370 -0.0636
 1270SOL    HW115446   4.575   2.516   8.332 -0.8616  0.8565 -1.1187
 1270SOL    HW215447   4.530   2.472   8.207  1.0948  0.3406  0.2730
 1271SOL     OW15448   1.259   3.975   3.226  0.3066 -0.9172  0.6294
 1271SOL    HW115449   1.270   3.895   3.174  0.0382 -1.4699  1.4290
 1271SOL    HW215450   1.165   3.980   3.239  0.4444  2.6652  0.4360
 1272SOL     OW15451   3.263   0.674   1.502 -0.5016  0.2511 -0.0965
 1272SOL    HW115452   3.201   0.608   1.533 -0.1834  1.0599  2.2896
 1272SOL    HW215453   3.337   0.621   1.472 -1.1177 -0.7886  0.1899
 1273SOL     OW15454   3.204   1.299   5.773 -0.5116 -0.0121  0.2692
 1273SOL    HW115455   3.113   1.325   5.784 -1.6999 -3.8725 -0.1871
 1273SOL    HW215456   3.251   1.381   5.779  2.1645 -1.6937  2.2335
 1274SOL     OW15457   0.896   1.756   9.971 -0.2427 -0.1784 -0.1032
 1274SOL    HW115458   0.850   1.835   9.998 -0.4707 -0.2218 -0.3615
 1274SOL    HW215459   0.886   1.757   9.876 -0.0133  2.3523 -0.0762
 1275SOL     OW15460   2.274   0.073   2.016  0.1872 -0.3047 -0.0141
 1275SOL    HW115461   2.343   0.052   1.952  0.0387 -1.1629  0.1024
 1275SOL    HW215462   2.209   0.025   1.964 -0.0666 -1.5823  1.4886
 1276SOL     OW15463   3.412   1.694   2.598  0.3568 -0.3346 -0.5216
 1276SOL    HW115464   3.460   1.627   2.550 -2.9152 -3.2744  0.2664
 1276SOL    HW215465   3.364   1.727   2.522  0.8292 -0.5901 -0.9281
 1277SOL     OW15466   3.714   0.985   0.842  0.3167  0.2366  0.1677
 1277SOL    HW115467   3.712   1.077   0.870  0.9130 -0.4550  2.5071
 1277SOL    HW215468   3.752   0.945   0.920 -3.0066  0.5854  1.9664
 1278SOL     OW15469   4.529   3.414   5.856  0.2142  0.0490  0.1506
 1278SOL    HW115470   4.609   3.447   5.898  0.9303 -0.9998 -0.4159
 1278SOL    HW215471   4.467   3.416   5.929 -2.8474 -0.6713 -2.4736
 1279SOL     OW15472   0.508   0.503   3.537  0.7427 -0.2733 -0.3904
 1279SOL    HW115473   0.440   0.447   3.500  0.2696  0.1007 -0.0897
 1279SOL    HW215474   0.545   0.521   3.450 -0.4441  0.6844 -0.7044
 1280SOL     OW15475   2.688   3.296   2.579 -0.3953  0.0358  0.0148
 1280SOL    HW115476   2.654   3.346   2.504  0.5937  0.6926  0.0073
 1280SOL    HW215477   2.739   3.229   2.533  1.7927  0.9841  1.0880
 1281SOL     OW15478   3.406   4.628   4.662 -0.2813  0.0229  0.0500
 1281SOL    HW115479   3.463   4.633   4.586 -0.9012 -0.4533 -0.4520
 1281SOL    HW215480   3.404   4.533   4.679  1.3658  0.0600  0.3982
 1282SOL     OW15481   4.704   1.221   8.953  0.6150 -0.0952 -0.1162
 1282SOL    HW115482   4.648   1.146   8.935 -0.9662  1.2993 -1.0267
 1282SOL    HW215483   0.055   1.183   8.939 -0.3780 -2.6068  0.5664
 1283SOL     OW15484   3.197   3.513   2.192  0.0552 -0.0581  0.5816
 1283SOL    HW115485   3.263   3.446   2.176  0.5908  1.0623 -1.8532
 1283SOL    HW215486   3.220   3.581   2.129  0.4745 -1.4209 -0.7539
 1284SOL     OW15487   4.607   4.050   5.894  0.4002 -0.0635  0.4410
 1284SOL    HW115488   4.556   4.043   5.813  1.5329 -0.4181 -0.2297
 1284SOL    HW215489   4.584   4.142   5.909 -1.7529 -0.3890 -0.8389
 1285SOL     OW15490   4.394   2.705   6.565 -0.3010  0.0217  0.2018
 1285SOL    HW115491   4.446   2.783   6.547  1.9247 -1.7894 -1.2646
 1285SOL    HW215492   4.382   2.669   6.478  0.6804  1.6940 -0.6126
 1286SOL     OW15493   0.801   4.457   4.765 -0.0210 -0.0440 -0.0893
 1286SOL    HW115494   0.785   4.393   4.695  1.8827 -0.9648  0.3254
 1286SOL    HW215495   0.852   4.401   4.823  0.8914  1.9834  1.0362
 1287SOL     OW15496   2.501   3.875   0.399  0.6779 -0.6306  0.0127
 1287SOL    HW115497   2.497   3.784   0.370  0.0164 -0.7294  0.4160
 1287SOL    HW215498   2.575   3.915   0.354 -1.6084  2.7671 -0.7689
 1288SOL     OW15499   3.049   1.796   1.309  0.3557  0.0578  0.3027
 1288SOL    HW115500   2.992   1.721   1.327  0.3050 -0.3147 -1.3624
 1288SOL    HW215501   2.993   1.847   1.250 -0.9066 -0.3288  1.1606
 1289SOL     OW15502   1.254   1.894  16.105  0.2977  0.6107 -0.2420
 1289SOL    HW115503   1.289   1.891  16.016  0.1254 -0.3617 -0.2783
 1289SOL    HW215504   1.273   1.983  16.133  0.4370  1.0815 -1.8513
 1290SOL     OW15505   2.237   3.133   3.600  0.1248  0.5456 -0.2166
 1290SOL    HW115506   2.266   3.153   3.689 -0.2732 -0.5488  0.1595
 1290SOL    HW215507   2.145   3.106   3.601 -0.3715  2.2355 -0.8787
 1291SOL     OW15508   0.692   4.616   5.962  0.0676  0.5661  0.3802
 1291SOL    HW115509   0.658   4.527   5.971  1.4241 -0.0659 -0.6036
 1291SOL    HW215510   0.672   4.659   6.045 -1.1451  0.0015  0.3799
 1292SOL     OW15511   3.508   1.748   4.507 -0.2172  0.0642  0.0150
 1292SOL    HW115512   3.477   1.698   4.583 -1.0443  0.0772 -0.3181
 1292SOL    HW215513   3.561   1.676   4.474 -1.7272 -1.0428  0.0077
 1293SOL     OW15514   3.728   3.920   5.540 -0.2439 -0.0231  0.8454
 1293SOL    HW115515   3.647   3.970   5.542  0.0838  0.4899  1.1895
 1293SOL    HW215516   3.753   3.921   5.632  2.4000 -1.5985  0.1652
 1294SOL     OW15517   3.560   3.101   6.581 -0.2357 -0.0291 -0.1434
 1294SOL    HW115518   3.509   3.055   6.514  1.4859  0.5274 -1.8298
 1294SOL    HW215519   3.542   3.190   6.552  1.2749  0.5090  0.5825
 1295SOL     OW15520   2.100   2.543   8.051 -0.9678 -0.5226  0.2209
 1295SOL    HW115521   2.117   2.507   8.138  0.2775 -0.8010 -0.1399
 1295SOL    HW215522   2.022   2.595   8.069  0.3365  2.5168 -2.9861
 1296SOL     OW15523   0.759   2.812   4.079 -0.2936  0.3581  0.2173
 1296SOL    HW115524   0.783   2.772   3.995 -1.1999  1.1907 -0.4365
 1296SOL    HW215525   0.676   2.774   4.107  0.4065 -1.0650  0.3320
 1297SOL     OW15526   4.732   3.356   8.261 -0.0128  0.1102  0.1955
 1297SOL    HW115527   4.676   3.423   8.221 -0.3437 -1.2090 -1.5169
 1297SOL    HW215528   0.036   3.408   8.330  0.6864 -1.1655  0.7385
 1298SOL     OW15529   3.589   4.644  13.308 -0.2124  0.3953 -0.7887
 1298SOL    HW115530   3.618   4.709  13.244  0.4648  0.1139 -0.7636
 1298SOL    HW215531   3.596   4.704  13.382 -0.5651  0.3144 -0.6879
 1299SOL     OW15532   4.434   2.862   4.354 -0.3000  0.1650 -0.5449
 1299SOL    HW115533   4.341   2.838   4.353  0.4451 -2.9098  1.9670
 1299SOL    HW215534   4.461   2.841   4.444  0.3155 -1.7840 -1.1809
 1300SOL     OW15535   0.795   0.611   6.252 -0.0574 -0.2113 -0.0790
 1300SOL    HW115536   0.840   0.528   6.270  0.0758 -0.0549  0.3191
 1300SOL    HW215537   0.864   0.658   6.205  2.4011 -3.0959  0.6101
 1301SOL     OW15538   0.773   2.545   4.719 -0.0559  0.0586 -0.2953
 1301SOL    HW115539   0.816   2.466   4.686  0.4119  0.5771 -0.9309
 1301SOL    HW215540   0.772   2.600   4.641 -2.5108  0.7135  0.2093
 1302SOL     OW15541   0.121   1.360   1.588  0.0677  0.5661 -0.9144
 1302SOL    HW115542   0.201   1.373   1.640 -0.0641  0.2482 -0.6308
 1302SOL    HW215543   0.133   1.409   1.507 -0.9147  0.4067 -1.1453
 1303SOL     OW15544   1.340   2.281   6.540 -0.1548  1.1381  0.6672
 1303SOL    HW115545   1.346   2.354   6.600 -1.1200  0.5472  1.4780
 1303SOL    HW215546   1.376   2.320   6.460 -0.9717 -1.5786 -1.0546
 1304SOL     OW15547   4.422   2.089  16.381  0.1760  0.1837  0.0506
 1304SOL    HW115548   4.483   2.080  16.454  1.6720  1.9522 -0.9882
 1304SOL    HW215549   4.495   2.090  16.319  1.3641  2.8757  1.5045
 1305SOL     OW15550   3.214   4.159   2.077 -0.1079 -0.0083 -0.5627
 1305SOL    HW115551   3.225   4.075   2.122  3.1340  1.1719  0.8746
 1305SOL    HW215552   3.162   4.195   2.148 -1.3956 -1.3574 -0.8291
 1306SOL     OW15553   3.055   3.168  16.140 -0.1779 -0.1528 -0.5352
 1306SOL    HW115554   3.099   3.240  16.185 -0.5267 -0.3462  0.1166
 1306SOL    HW215555   3.061   3.200  16.050 -0.9732  1.8201  0.1214
 1307SOL     OW15556   2.968   0.007   2.407  0.0577  0.6494  0.3285
 1307SOL    HW115557   3.055   4.703   2.407 -0.4178 -0.3920  0.6833
 1307SOL    HW215558   2.919   4.675   2.361 -1.1700  2.4177 -1.0084
 1308SOL     OW15559   2.646   2.069  14.341  0.2631 -0.2004 -0.6869
 1308SOL    HW115560   2.555   2.042  14.354  0.7915 -1.3832  0.6232
 1308SOL    HW215561   2.625   2.162  14.339 -0.1446 -0.2573  0.6890
 1309SOL     OW15562   0.443   0.441   7.118  0.2206 -0.2726 -0.7748
 1309SOL    HW115563   0.536   0.463   7.113  1.0152 -2.9739  2.3898
 1309SOL    HW215564   0.429   0.356   7.077 -0.9164 -0.5059  0.1031
 1310SOL     OW15565   2.205   1.808   0.230  0.2480  0.2040 -0.0519
 1310SOL    HW115566   2.119   1.846   0.215  1.2474  1.7193 -1.9278
 1310SOL    HW215567   2.261   1.844   0.161  1.7726 -1.3340  0.3665
 1311SOL     OW15568   2.189   2.991   1.912 -0.0668  0.1002 -0.4127
 1311SOL    HW115569   2.245   3.024   1.982  0.6124 -1.3925 -0.2381
 1311SOL    HW215570   2.224   2.902   1.900  0.8770  0.4563 -0.2798
 1312SOL     OW15571   0.157   2.936   5.053 -0.1597 -0.7858  0.3705
 1312SOL    HW115572   0.088   2.871   5.064 -0.4188 -0.3277  1.4487
 1312SOL    HW215573   0.233   2.881   5.071  1.7394  0.7671 -2.8838
 1313SOL     OW15574   2.713   0.788   7.976 -0.2233 -0.2684 -0.2589
 1313SOL    HW115575   2.790   0.749   8.017 -0.7261 -2.5859 -1.5169
 1313SOL    HW215576   2.657   0.769   8.051  2.0623  0.4089  1.6264
 1314SOL     OW15577   4.655   1.732   7.573  0.4062 -0.6059  0.6466
 1314SOL    HW115578   4.708   1.797   7.527 -1.1410 -1.6607 -2.6767
 1314SOL    HW215579   4.720   1.694   7.631  0.2007  1.1580  2.0383
 1315SOL     OW15580   2.847   1.952   7.381 -0.3849 -0.7418  0.4505
 1315SOL    HW115581   2.774   2.012   7.365  0.4699  0.0258 -0.5615
 1315SOL    HW215582   2.815   1.908   7.460 -1.6188  1.1365  0.9833
 1316SOL     OW15583   0.977   2.381   3.608 -0.0882 -0.1899  0.4446
 1316SOL    HW115584   1.009   2.300   3.569  0.0679  0.5434 -0.9418
 1316SOL    HW215585   1.057   2.430   3.628  0.9148 -1.7923  0.4229
 1317SOL     OW15586   0.921   2.683   3.565 -0.1220  0.2267  0.0350
 1317SOL    HW115587   0.873   2.615   3.519 -0.6044 -1.2393  2.6799
 1317SOL    HW215588   0.991   2.631   3.606 -1.5993 -2.0031 -0.2558
 1318SOL     OW15589   1.668   2.251   7.004 -0.7806  0.1268  0.4268
 1318SOL    HW115590   1.757   2.228   7.032 -0.4020  0.4072 -0.5541
 1318SOL    HW215591   1.625   2.317   7.059 -0.2063  0.1700  0.8277
 1319SOL     OW15592   4.313   4.385   7.715  0.3781 -0.2511  0.2082
 1319SOL    HW115593   4.296   4.354   7.626 -1.2244 -0.1165  0.4714
 1319SOL    HW215594   4.271   4.318   7.768 -0.4424  0.6507  0.7093
 1320SOL     OW15595   4.500   4.111   2.155  0.1993 -0.5544  0.2000
 1320SOL    HW115596   4.538   4.163   2.225  0.7181 -0.5516 -0.0851
 1320SOL    HW215597   4.443   4.051   2.204 -1.1014  1.1407  0.7538
 1321SOL     OW15598   4.428   4.403   8.262  0.1877 -0.3321  0.8262
 1321SOL    HW115599   4.334   4.392   8.247  0.5910  0.8017 -2.4264
 1321SOL    HW215600   4.448   4.325   8.315  2.4473  0.1295  0.6673
 1322SOL     OW15601   2.079   3.264  14.585  0.4883 -1.1071 -0.2853
 1322SOL    HW115602   2.048   3.176  14.605 -0.8498 -0.2187  1.5680
 1322SOL    HW215603   2.022   3.285  14.511  0.5740 -0.0752 -0.0672
 1323SOL     OW15604   4.608   4.636   4.798  0.3663  0.6592 -0.0437
 1323SOL    HW115605   4.644   4.718   4.832 -0.9257  1.2374 -0.0497
 1323SOL    HW215606   4.595   4.584   4.877 -0.5919  0.0313 -0.6091
 1324SOL     OW15607   3.094   4.385   5.655  0.1757 -0.0328  0.0825
 1324SOL    HW115608   3.088   4.330   5.577 -0.8268  1.7773 -1.1135
 1324SOL    HW215609   3.181   4.358   5.687 -0.4812 -2.3887 -0.1259
 1325SOL     OW15610   3.315   3.930   3.268  0.0868  0.0507 -0.3494
 1325SOL    HW115611   3.265   4.001   3.229 -0.3797 -1.0504 -1.7633
 1325SOL    HW215612   3.305   3.941   3.362 -1.5248 -1.4368 -0.3526
 1326SOL     OW15613   4.469   1.136   7.452 -0.4456 -0.4001  0.0275
 1326SOL    HW115614   4.518   1.054   7.445 -1.7309 -1.2233  0.8457
 1326SOL    HW215615   4.523   1.196   7.400  1.0491 -1.0583  0.8030
 1327SOL     OW15616   4.491   3.529   3.517 -0.6581 -0.2913  0.4921
 1327SOL    HW115617   4.559   3.555   3.455  0.9137 -2.5235  1.3025
 1327SOL    HW215618   4.517   3.587   3.589  0.6540 -0.8615  0.4677
 1328SOL     OW15619   2.551   0.268   4.890 -0.0652  0.3117 -0.2316
 1328SOL    HW115620   2.541   0.202   4.958  0.1308 -1.1653 -1.6418
 1328SOL    HW215621   2.609   0.329   4.937 -0.1522  0.2668 -0.0664
 1329SOL     OW15622   0.647   2.752   1.639 -0.4730 -0.0190 -0.7161
 1329SOL    HW115623   0.675   2.805   1.713 -3.1431  1.0583 -0.4883
 1329SOL    HW215624   0.553   2.739   1.654  0.2182 -1.5244  2.2388
 1330SOL     OW15625   1.221   0.542  17.008 -0.0198  0.9485  0.2993
 1330SOL    HW115626   1.225   0.476  17.077  0.1156  1.1195  0.4549
 1330SOL    HW215627   1.179   0.616  17.053 -0.4965  1.3690 -0.8150
 1331SOL     OW15628   4.177   2.150   9.155 -0.5488  0.3291  0.5728
 1331SOL    HW115629   4.201   2.062   9.184 -0.2350  0.3367  0.3399
 1331SOL    HW215630   4.141   2.128   9.069  0.5977 -0.3828  0.2672
 1332SOL     OW15631   1.531   2.214   6.123  0.6155 -0.5117 -0.0320
 1332SOL    HW115632   1.519   2.280   6.192  1.1577  0.2614 -0.6705
 1332SOL    HW215633   1.463   2.148   6.134  1.9352 -2.1845 -2.0938
 1333SOL     OW15634   4.314   1.165  16.461  0.0209  0.7575 -0.4029
 1333SOL    HW115635   4.358   1.197  16.382 -0.5995 -0.6974 -1.3462
 1333SOL    HW215636   4.251   1.236  16.476 -0.4208  0.0329  1.0989
 1334SOL     OW15637   0.788   2.242   0.634 -0.7789  0.5340  0.5076
 1334SOL    HW115638   0.837   2.246   0.552 -1.9261 -2.3422 -0.3236
 1334SOL    HW215639   0.740   2.324   0.642 -0.9397  0.5665 -0.7922
 1335SOL     OW15640   3.917   0.029   4.361 -0.2426 -0.5470 -0.2203
 1335SOL    HW115641   3.985   0.055   4.423 -1.0390 -0.8640  0.7884
 1335SOL    HW215642   3.938   0.095   4.294  2.1055 -1.0537  0.0125
 1336SOL     OW15643   0.698   3.498   3.170 -0.3625 -0.4658 -0.6655
 1336SOL    HW115644   0.757   3.483   3.096  0.4751  0.1904 -0.1325
 1336SOL    HW215645   0.741   3.474   3.253 -1.0398  1.2806  0.1956
 1337SOL     OW15646   1.497   0.160   3.623 -0.4205 -0.1281  0.1047
 1337SOL    HW115647   1.485   0.255   3.623 -0.0740 -0.0835 -1.1351
 1337SOL    HW215648   1.407   0.138   3.647  0.7867 -4.1580  0.8630
 1338SOL     OW15649   0.480   2.970  13.046 -0.2715  0.7689  0.0035
 1338SOL    HW115650   0.499   3.064  13.045  0.2964  0.6626  0.8153
 1338SOL    HW215651   0.555   2.940  13.097  2.1098  1.7464 -2.9557
 1339SOL     OW15652   2.755   2.390  17.604 -0.3587  0.3859 -0.3409
 1339SOL    HW115653   2.842   2.350  17.610  0.0958  1.4001 -0.2827
 1339SOL    HW215654   2.707   2.317  17.644  0.6495 -0.4428 -0.6234
 1340SOL     OW15655   4.093   1.147  16.095  0.0751 -0.7008 -0.5634
 1340SOL    HW115656   4.098   1.203  16.018 -1.4921 -0.0898 -0.2308
 1340SOL    HW215657   4.025   1.187  16.150  0.4859  0.9579 -1.2567
 1341SOL     OW15658   3.487   3.165   3.850  0.2686  0.2462 -0.3826
 1341SOL    HW115659   3.449   3.120   3.775  0.6452  1.0544 -1.0512
 1341SOL    HW215660   3.414   3.191   3.905 -0.7863 -0.2177 -1.5698
 1342SOL     OW15661   4.585   3.416  11.334 -0.0008 -0.2426 -0.1325
 1342SOL    HW115662   4.499   3.408  11.375 -0.3621  0.9008 -0.6672
 1342SOL    HW215663   4.648   3.407  11.406 -0.5837 -0.3082  0.3715
 1343SOL     OW15664   1.541   2.463   4.822  1.0560  0.3391  0.1185
 1343SOL    HW115665   1.554   2.528   4.753  0.2426  2.1644  1.6957
 1343SOL    HW215666   1.503   2.390   4.772  1.6200  1.2728 -1.6797
 1344SOL     OW15667   2.779   1.850   5.707 -0.2949  0.4113 -0.4003
 1344SOL    HW115668   2.756   1.888   5.791  1.3784  0.3349  0.0836
 1344SOL    HW215669   2.804   1.930   5.661 -1.6520  0.3698 -1.2317
 1345SOL     OW15670   3.485   0.792  12.257  0.2184  0.0494 -0.2040
 1345SOL    HW115671   3.569   0.746  12.263  0.9627  1.5355  0.5677
 1345SOL    HW215672   3.505   0.876  12.297  1.7052  0.5131 -1.9299
 1346SOL     OW15673   3.494   0.700   9.820 -0.0429  0.0384  0.2664
 1346SOL    HW115674   3.502   0.689   9.914  1.2044  0.2188  0.1906
 1346SOL    HW215675   3.519   0.790   9.801  1.4829 -0.5015 -0.3125
 1347SOL     OW15676   4.001   3.888   2.962  0.4944  0.1420 -0.2890
 1347SOL    HW115677   3.962   3.852   3.042  0.3688  0.4610 -0.2062
 1347SOL    HW215678   3.923   3.877   2.906 -0.5531  1.1672  0.9682
 1348SOL     OW15679   2.194   0.053   4.060 -0.0810  0.1055  0.6265
 1348SOL    HW115680   2.107   0.092   4.047  0.3036  0.2895 -1.2783
 1348SOL    HW215681   2.182   0.034   4.153  0.1979  1.2887  0.9130
 1349SOL     OW15682   3.681   2.243   4.362 -0.4038 -0.6683  0.0222
 1349SOL    HW115683   3.606   2.247   4.421  1.3171 -0.3616  2.1854
 1349SOL    HW215684   3.673   2.157   4.321  1.1274 -1.4011  1.2427
 1350SOL     OW15685   4.243   0.405   9.418 -0.5866  0.0908 -0.0134
 1350SOL    HW115686   4.248   0.310   9.410  0.9518  0.2353 -0.7785
 1350SOL    HW215687   4.333   0.424   9.394 -0.6018 -0.2313 -0.3229
 1351SOL     OW15688   3.026   3.165   4.167  0.8651 -0.4671 -0.3027
 1351SOL    HW115689   2.961   3.166   4.237  0.9888  1.5589 -0.2330
 1351SOL    HW215690   2.969   3.199   4.097 -0.0959  2.2238  1.8243
 1352SOL     OW15691   0.248   4.071   4.545  0.1087 -1.3118  0.2392
 1352SOL    HW115692   0.246   4.019   4.625  2.5614  1.0722  1.8621
 1352SOL    HW215693   0.337   4.107   4.540  0.2750 -1.6129  1.1119
 1353SOL     OW15694   4.485   2.203   3.630  0.6177 -0.2724 -0.0998
 1353SOL    HW115695   4.437   2.154   3.563  0.0266 -0.8254  0.7208
 1353SOL    HW215696   4.565   2.233   3.588  0.2526 -0.5249 -0.9873
 1354SOL     OW15697   3.706   1.623   3.038  0.3791 -0.0599 -0.0854
 1354SOL    HW115698   3.740   1.568   2.968  0.9259  1.5191 -1.0463
 1354SOL    HW215699   3.618   1.634   3.004  1.3664  1.9438 -1.9769
 1355SOL     OW15700   1.154   2.833   5.748 -0.8813 -0.1552 -0.1962
 1355SOL    HW115701   1.205   2.854   5.670  0.5235 -0.4416  0.6424
 1355SOL    HW215702   1.211   2.771   5.792 -0.8897 -0.1840 -0.2261
 1356SOL     OW15703   3.801   2.163  10.414  0.3964  0.3666 -0.8089
 1356SOL    HW115704   3.849   2.102  10.469  0.8280  1.7131  0.3182
 1356SOL    HW215705   3.738   2.199  10.477  0.5426 -1.3122  0.3085
 1357SOL     OW15706   2.399   1.704   3.729  1.0866 -0.1454  0.0405
 1357SOL    HW115707   2.389   1.763   3.804 -1.3877 -1.4953  0.7427
 1357SOL    HW215708   2.400   1.619   3.772 -1.2388 -0.8105 -1.2229
 1358SOL     OW15709   4.355   0.940   4.098 -0.2811 -0.2631  0.0787
 1358SOL    HW115710   4.436   0.990   4.098  0.1081 -0.8930 -1.5815
 1358SOL    HW215711   4.310   0.969   4.018  3.1285 -0.5225 -1.9084
 1359SOL     OW15712   4.602   0.435   3.220  0.3367 -0.3501  0.4705
 1359SOL    HW115713   4.658   0.486   3.161 -0.2193 -2.2703 -1.7086
 1359SOL    HW215714   4.577   0.359   3.168  3.0101 -0.5100 -0.5718
 1360SOL     OW15715   1.481   0.644  10.168 -0.4919  0.5184  0.5503
 1360SOL    HW115716   1.401   0.594  10.149 -0.8166  0.8339  1.0815
 1360SOL    HW215717   1.446   0.701  10.237 -2.1892 -0.2011  0.2870
 1361SOL     OW15718   3.777   0.195   9.096  0.4374  0.1035  0.1101
 1361SOL    HW115719   3.712   0.154   9.038 -1.7227  1.9464  1.1914
 1361SOL    HW215720   3.852   0.140   9.076 -1.0151 -1.9450  0.2251
 1362SOL     OW15721   0.201   3.383   4.677 -0.3390  0.1932  0.7381
 1362SOL    HW115722   0.284   3.349   4.643 -0.2822  0.0347  1.0398
 1362SOL    HW215723   0.156   3.385   4.592 -2.6078  0.8327  1.9778
 1363SOL     OW15724   1.401   2.941   6.659  0.0358 -0.3074 -0.1031
 1363SOL    HW115725   1.485   2.922   6.701 -0.5702 -1.0166  0.7764
 1363SOL    HW215726   1.380   3.021   6.707  0.2648  0.2219 -0.8833
 1364SOL     OW15727   1.370   1.388   7.107  0.1861  0.2952  0.2764
 1364SOL    HW115728   1.279   1.391   7.079  0.4216  1.4501 -0.3701
 1364SOL    HW215729   1.416   1.398   7.023 -0.3104  0.2825  0.0079
 1365SOL     OW15730   1.224   3.682  15.757 -0.3023 -0.1010 -0.1733
 1365SOL    HW115731   1.210   3.776  15.761  0.2504 -0.1310  2.1566
 1365SOL    HW215732   1.316   3.682  15.731  0.7161  0.8533  3.4897
 1366SOL     OW15733   4.205   1.944  15.817  0.3070 -0.0125  0.9950
 1366SOL    HW115734   4.269   1.935  15.746  0.5162  0.6724  1.0937
 1366SOL    HW215735   4.134   1.920  15.759  0.7704  3.2160 -0.8916
 1367SOL     OW15736   1.679   1.921   9.983  0.2152  0.2872  0.0844
 1367SOL    HW115737   1.686   1.847  10.044 -2.8262 -0.8439 -0.9321
 1367SOL    HW215738   1.758   1.970  10.002  0.7463  0.5735 -2.8120
 1368SOL     OW15739   2.994   0.274   4.580  0.1304  0.8107 -0.1610
 1368SOL    HW115740   3.020   0.193   4.536 -0.5137 -0.3952  1.6859
 1368SOL    HW215741   2.908   0.253   4.617 -0.0528  2.6568  0.4472
 1369SOL     OW15742   3.583   2.935   3.405  0.3081  0.8091  0.3350
 1369SOL    HW115743   3.645   2.888   3.460 -2.5413 -1.3729  1.6676
 1369SOL    HW215744   3.643   2.940   3.331  0.6046 -1.3743  0.4264
 1370SOL     OW15745   3.846   1.695   7.462  0.7422  0.0340  0.4072
 1370SOL    HW115746   3.797   1.700   7.380  0.4845 -1.1292  0.4900
 1370SOL    HW215747   3.935   1.678   7.432  1.1489 -0.1209  1.7145
 1371SOL     OW15748   0.918   3.716   7.723 -0.4127 -0.1163  0.2655
 1371SOL    HW115749   0.916   3.621   7.717  2.0737 -0.1335 -0.3192
 1371SOL    HW215750   0.834   3.745   7.689 -0.7139  0.5297  1.5481
 1372SOL     OW15751   4.116   2.846   3.086  0.0571  0.6950 -0.2229
 1372SOL    HW115752   4.164   2.775   3.044 -0.0695  0.4309  0.0829
 1372SOL    HW215753   4.182   2.915   3.082 -0.0437  0.7006 -1.8107
 1373SOL     OW15754   2.839   0.957   7.206  0.2396  0.5548  0.9905
 1373SOL    HW115755   2.744   0.950   7.215  0.0420  0.1894 -1.2259
 1373SOL    HW215756   2.862   0.923   7.293  1.7577  0.0290  0.3903
 1374SOL     OW15757   0.262   4.312   1.894 -0.3389 -0.0525  0.1269
 1374SOL    HW115758   0.288   4.403   1.878 -2.0281  0.4497  0.2511
 1374SOL    HW215759   0.286   4.270   1.811 -1.3330  1.2528 -0.8042
 1375SOL     OW15760   4.385   0.271   9.724  0.1088 -0.4209  0.3436
 1375SOL    HW115761   4.448   0.211   9.686 -0.6977  0.6186 -2.6612
 1375SOL    HW215762   4.435   0.352   9.711  3.1338 -2.5175 -1.0582
 1376SOL     OW15763   0.114   2.721   2.172 -0.0772  0.7314 -0.1678
 1376SOL    HW115764   0.209   2.718   2.183 -0.2861 -0.1429  1.3796
 1376SOL    HW215765   0.093   2.802   2.218 -0.9723  1.7375 -2.3729
 1377SOL     OW15766   0.730   3.316   3.632 -0.0710  0.3175 -0.0464
 1377SOL    HW115767   0.754   3.249   3.696  2.6066  1.4365  0.1252
 1377SOL    HW215768   0.645   3.283   3.604 -1.3040  1.5614  2.1965
 1378SOL     OW15769   0.836   2.955   9.892  0.2315  0.3572 -0.4564
 1378SOL    HW115770   0.872   2.958   9.803  0.2398  0.8781 -0.4405
 1378SOL    HW215771   0.902   2.918   9.950 -0.7047 -1.8999 -0.8426
 1379SOL     OW15772   1.793   1.222   8.287  0.1246 -0.1729  0.2152
 1379SOL    HW115773   1.828   1.176   8.364  0.1093 -0.5803 -0.0194
 1379SOL    HW215774   1.809   1.155   8.221  1.5633 -0.9359  1.3362
 1380SOL     OW15775   0.765   0.282  11.684  0.4743  0.0649  0.4322
 1380SOL    HW115776   0.705   0.208  11.686 -0.3183  0.6543 -1.4165
 1380SOL    HW215777   0.851   0.241  11.680 -0.0047 -0.9989  1.0375
 1381SOL     OW15778   4.058   3.616  12.773 -0.1717 -0.2191  0.2935
 1381SOL    HW115779   4.122   3.553  12.805 -0.6274 -1.0495 -0.3908
 1381SOL    HW215780   4.008   3.570  12.705 -0.1821 -0.4774  0.4762
 1382SOL     OW15781   4.116   1.769  15.458 -0.1972  0.8497 -0.3090
 1382SOL    HW115782   4.159   1.748  15.375  1.7919  1.4161  0.5812
 1382SOL    HW215783   4.126   1.688  15.508 -1.8599  0.8914  0.0868
 1383SOL     OW15784   2.891   4.616  16.254 -0.5604  0.1899  0.0347
 1383SOL    HW115785   2.806   4.616  16.298 -1.0032  2.1780 -0.8328
 1383SOL    HW215786   2.869   4.686  16.193  1.2752  0.8976  0.1916
 1384SOL     OW15787   1.604   4.058   6.311  0.3053 -0.5248  0.0134
 1384SOL    HW115788   1.522   4.021   6.278  0.1721 -2.3582  2.3349
 1384SOL    HW215789   1.666   3.993   6.281  0.3977  0.0903 -1.1144
 1385SOL     OW15790   2.225   1.603   1.809  0.8874  0.1215 -0.6669
 1385SOL    HW115791   2.310   1.605   1.765  0.2085  1.6148 -1.9348
 1385SOL    HW215792   2.242   1.670   1.874 -0.0327 -1.4876  1.2343
 1386SOL     OW15793   0.325   0.907   1.958 -0.0120  0.4675  0.7353
 1386SOL    HW115794   0.322   0.882   1.866  2.6086  0.6176  0.6212
 1386SOL    HW215795   0.259   0.976   1.965  1.0305  1.5425 -0.3431
 1387SOL     OW15796   4.473   1.766   9.247 -0.3455  0.8125 -0.5657
 1387SOL    HW115797   4.481   1.684   9.198 -0.8053  0.9318 -0.8345
 1387SOL    HW215798   4.526   1.753   9.326 -0.4432 -2.1849 -0.9949
 1388SOL     OW15799   4.007   0.230   7.070 -0.3012 -0.0073  0.4114
 1388SOL    HW115800   4.009   0.254   6.977  2.0303  0.8781  0.6718
 1388SOL    HW215801   4.021   0.135   7.064  0.3171  0.2246 -2.1487
 1389SOL     OW15802   3.353   1.367   8.031  0.4411 -0.1130 -0.1949
 1389SOL    HW115803   3.401   1.417   7.966 -0.5686  0.3138 -0.6172
 1389SOL    HW215804   3.301   1.318   7.967 -0.6845  0.6240  0.1391
 1390SOL     OW15805   0.896   2.725   0.981 -0.4172 -1.0131  0.3360
 1390SOL    HW115806   0.856   2.659   1.037  0.4929  0.0649  2.2753
 1390SOL    HW215807   0.925   2.783   1.051  1.6368 -1.7327  0.0903
 1391SOL     OW15808   2.163   3.924  10.782 -0.2683 -0.3028 -0.7972
 1391SOL    HW115809   2.162   3.858  10.851  0.7353 -0.3634 -0.8435
 1391SOL    HW215810   2.221   3.991  10.819 -1.6376 -0.4006  1.5636
 1392SOL     OW15811   0.606   2.646   4.450  0.2387 -0.2291  0.6113
 1392SOL    HW115812   0.571   2.582   4.387 -0.4985  0.3509  0.4304
 1392SOL    HW215813   0.528   2.638   4.505 -2.5612  0.2900 -3.3034
 1393SOL     OW15814   0.373   3.703   6.195 -0.0420 -0.0676 -0.7189
 1393SOL    HW115815   0.397   3.677   6.106  2.2870 -0.4279  0.0222
 1393SOL    HW215816   0.323   3.783   6.176 -0.7576 -0.3100  0.1566
 1394SOL     OW15817   3.178   2.987   8.322  0.2417  0.4758  0.8235
 1394SOL    HW115818   3.096   2.969   8.367 -0.7663  1.5650 -0.5668
 1394SOL    HW215819   3.250   2.947   8.370  1.0358  0.5549 -0.2765
 1395SOL     OW15820   2.118   2.453   6.593 -0.1934 -0.1612 -0.6840
 1395SOL    HW115821   2.042   2.494   6.633  1.4625  1.0716  1.1973
 1395SOL    HW215822   2.126   2.362   6.623  2.8305  0.1638 -0.4968
 1396SOL     OW15823   4.152   2.872   4.369 -0.0771 -0.3545  0.1517
 1396SOL    HW115824   4.142   2.928   4.293  0.6013  0.3823  0.6064
 1396SOL    HW215825   4.079   2.892   4.427  1.1674 -1.4799  2.1432
 1397SOL     OW15826   2.477   0.775  11.957 -0.3234 -0.0745  0.2849
 1397SOL    HW115827   2.487   0.698  12.013 -0.4017  0.8653  1.5775
 1397SOL    HW215828   2.499   0.730  11.875 -1.2082 -0.5448  0.3065
 1398SOL     OW15829   4.165   4.641  10.238  0.0287  0.0523  0.3456
 1398SOL    HW115830   4.213   4.641  10.321 -0.1907 -3.0636  0.4639
 1398SOL    HW215831   4.164   4.549  10.213 -0.3207 -0.3117  1.6768
 1399SOL     OW15832   0.654   1.100   1.526  0.4429  0.3332  0.1304
 1399SOL    HW115833   0.642   1.185   1.484 -2.8296 -0.8115 -1.1878
 1399SOL    HW215834   0.740   1.083   1.487 -0.2318  0.6784 -1.4797
 1400SOL     OW15835   1.452   0.453   8.354  0.0449  0.2595  0.2075
 1400SOL    HW115836   1.544   0.468   8.333  0.3285 -1.4309  0.2511
 1400SOL    HW215837   1.410   0.476   8.271 -0.0617  0.0962  0.2160
 1401SOL     OW15838   2.301   1.215   2.429  0.2757 -0.5484 -0.7090
 1401SOL    HW115839   2.302   1.126   2.393  1.5563 -1.1988  0.8963
 1401SOL    HW215840   2.257   1.201   2.513 -0.1643  1.5483 -0.6096
 1402SOL     OW15841   4.443   0.733   6.406  0.0224 -0.1724  0.4018
 1402SOL    HW115842   4.520   0.787   6.390 -0.7664  0.3140 -1.7618
 1402SOL    HW215843   4.384   0.782   6.349  3.7307  0.7032 -2.6867
 1403SOL     OW15844   0.221   0.498   8.895  0.7834  0.0817  0.1250
 1403SOL    HW115845   0.266   0.571   8.938  2.2948 -1.3095  0.8898
 1403SOL    HW215846   0.239   0.502   8.802 -0.5625 -0.3687 -0.1522
 1404SOL     OW15847   0.892   2.225  10.629 -0.0920  0.0921 -0.2895
 1404SOL    HW115848   0.819   2.166  10.612 -0.4854  0.6601 -0.5586
 1404SOL    HW215849   0.952   2.182  10.567  0.8049 -3.1314  2.8054
 1405SOL     OW15850   2.469   2.321   4.847 -0.4103  0.4816  0.7292
 1405SOL    HW115851   2.411   2.387   4.885 -2.2794 -0.3310 -0.7011
 1405SOL    HW215852   2.436   2.250   4.903 -0.2049 -0.4490 -0.3297
 1406SOL     OW15853   1.613   0.261  16.223 -0.0016 -0.6060  0.2118
 1406SOL    HW115854   1.606   0.288  16.315  1.4855 -2.5319  0.9101
 1406SOL    HW215855   1.621   0.345  16.179 -0.6821  1.0922  3.3429
 1407SOL     OW15856   4.576   3.676   3.741 -0.4027 -0.1495 -0.0157
 1407SOL    HW115857   4.515   3.658   3.813 -2.2553  2.0480 -1.0351
 1407SOL    HW215858   4.649   3.713   3.790  0.1774  0.8602 -1.6196
 1408SOL     OW15859   4.289   4.489   5.320 -0.2503  0.3445  0.7475
 1408SOL    HW115860   4.248   4.539   5.391 -1.5738 -0.4457  0.5512
 1408SOL    HW215861   4.224   4.423   5.295  0.2874  0.7437 -1.6271
 1409SOL     OW15862   0.334   3.780   0.148 -0.0834  0.2960  0.2302
 1409SOL    HW115863   0.313   3.723   0.075 -0.8404  2.9272 -1.6188
 1409SOL    HW215864   0.269   3.848   0.132 -1.1477 -0.5094  1.1075
 1410SOL     OW15865   0.417   3.794   1.742 -0.3345  0.0593  0.6261
 1410SOL    HW115866   0.397   3.717   1.690 -1.7046 -1.7434  3.8596
 1410SOL    HW215867   0.504   3.773   1.776 -0.5305  1.1859  1.8343
 1411SOL     OW15868   3.235   1.040   4.132 -0.2447 -0.8037 -0.3893
 1411SOL    HW115869   3.169   1.051   4.063  1.3785  0.2143 -1.7652
 1411SOL    HW215870   3.199   1.094   4.203  1.2348  0.6189 -0.7257
 1412SOL     OW15871   0.898   4.077   9.987  0.4283 -0.1855 -0.2451
 1412SOL    HW115872   0.969   4.112   9.934 -0.2991 -1.1256 -1.8133
 1412SOL    HW215873   0.937   4.060  10.073  0.0777 -0.1067 -0.0699
 1413SOL     OW15874   1.105   2.583   4.257 -0.5642 -0.2809 -0.1201
 1413SOL    HW115875   1.023   2.548   4.291  0.6996 -2.1622  0.9973
 1413SOL    HW215876   1.105   2.669   4.300  0.2767 -0.9844  1.2741
 1414SOL     OW15877   4.548   1.901   2.906  0.1821 -0.4030  0.1526
 1414SOL    HW115878   4.560   1.833   2.973  1.6899 -1.3293 -1.0560
 1414SOL    HW215879   4.460   1.886   2.871  0.2862 -0.3211 -0.1395
 1415SOL     OW15880   1.377   1.694   6.687 -0.1797  0.1216 -0.5076
 1415SOL    HW115881   1.314   1.660   6.751 -0.4900  2.2278  0.2985
 1415SOL    HW215882   1.410   1.773   6.729 -0.0218 -0.7193  0.9555
 1416SOL     OW15883   2.720   3.992   4.093  0.2766  0.4998 -0.5409
 1416SOL    HW115884   2.686   4.054   4.157  2.6071  0.2529  0.9293
 1416SOL    HW215885   2.728   3.912   4.144 -0.2994  0.3774 -0.6490
 1417SOL     OW15886   3.870   3.430   6.934  0.4119 -0.0876  0.4447
 1417SOL    HW115887   3.781   3.463   6.943  1.0346  1.9370 -0.6342
 1417SOL    HW215888   3.891   3.458   6.844  0.0681  1.3451  0.8092
 1418SOL     OW15889   1.854   4.235   6.393  0.0798  0.3702  0.4361
 1418SOL    HW115890   1.931   4.187   6.366 -0.3244 -0.6668  1.1155
 1418SOL    HW215891   1.779   4.181   6.368  0.4087  0.0566  0.1523
 1419SOL     OW15892   1.051   1.112  12.365 -0.0657 -0.2258 -0.2055
 1419SOL    HW115893   1.019   1.175  12.301  0.2905  2.7097  2.4979
 1419SOL    HW215894   1.126   1.165  12.392 -0.1965 -1.3159  2.3497
 1420SOL     OW15895   1.298   3.110   5.714 -0.0011 -0.4030 -0.7236
 1420SOL    HW115896   1.356   3.186   5.708  1.3651 -1.2012  2.4924
 1420SOL    HW215897   1.321   3.095   5.806  1.9202  0.2608 -1.1142
 1421SOL     OW15898   3.931   3.392   7.703 -0.0215 -0.2871 -0.1102
 1421SOL    HW115899   3.982   3.466   7.738 -0.5340 -0.1002  0.2431
 1421SOL    HW215900   3.842   3.426   7.693  0.5216  2.3125  3.6673
 1422SOL     OW15901   0.763   4.433   0.484  0.0179  0.2038 -0.5211
 1422SOL    HW115902   0.719   4.348   0.491 -0.5959  0.6526  1.0702
 1422SOL    HW215903   0.714   4.469   0.410 -0.0978 -1.4126 -1.2261
 1423SOL     OW15904   2.408   3.249  15.545  0.2476 -1.1028  0.0886
 1423SOL    HW115905   2.466   3.256  15.469 -0.1273 -0.4472 -0.1347
 1423SOL    HW215906   2.344   3.186  15.512 -0.0342  0.1684 -1.7818
 1424SOL     OW15907   4.006   3.424   6.315  0.0363  0.8280 -0.0043
 1424SOL    HW115908   4.094   3.423   6.277 -1.5021 -0.8933 -3.5710
 1424SOL    HW215909   4.001   3.512   6.351  0.8254  0.6530  0.5470
 1425SOL     OW15910   3.697   0.520  10.527 -0.2384 -0.1531  0.4049
 1425SOL    HW115911   3.739   0.438  10.502  3.6502  1.4063  1.8097
 1425SOL    HW215912   3.742   0.539  10.609  0.5533 -0.0733 -0.0461
 1426SOL     OW15913   4.437   3.462   5.296 -0.0788  0.1790  0.3263
 1426SOL    HW115914   4.352   3.423   5.280  0.6512 -0.6002 -1.6278
 1426SOL    HW215915   4.433   3.470   5.392  0.1409  0.2099  0.3342
 1427SOL     OW15916   3.890   0.746   7.149 -0.0391 -0.8062 -0.5492
 1427SOL    HW115917   3.914   0.759   7.241 -1.0378  1.9543 -0.6739
 1427SOL    HW215918   3.888   0.835   7.113  0.1465 -0.1689  1.0383
 1428SOL     OW15919   1.846   4.476   2.390  0.4125 -0.4153  0.0959
 1428SOL    HW115920   1.849   4.423   2.470 -2.7048  0.0178  0.5150
 1428SOL    HW215921   1.759   4.452   2.358  0.0962 -1.3929  1.6707
 1429SOL     OW15922   2.191   0.089   0.195 -0.5779 -0.8397  0.1358
 1429SOL    HW115923   2.229   0.116   0.279  0.8873 -0.7681 -0.5473
 1429SOL    HW215924   2.218   0.166   0.145 -0.0880 -0.3576  1.1336
 1430SOL     OW15925   3.460   2.964   7.705  0.1414 -0.0692 -0.7135
 1430SOL    HW115926   3.425   2.944   7.792  1.9343 -0.4028 -0.0579
 1430SOL    HW215927   3.377   2.968   7.658 -1.1475 -1.3833  1.4668
 1431SOL     OW15928   4.554   0.363  14.041 -0.1739  0.5988  0.1378
 1431SOL    HW115929   4.578   0.354  13.949  2.3180 -1.6111  1.0034
 1431SOL    HW215930   4.639   0.368  14.084  0.2669  1.4315 -0.8482
 1432SOL     OW15931   1.740   2.145   0.943  0.2557  0.0557  0.0863
 1432SOL    HW115932   1.737   2.240   0.954  0.1915  0.3025 -2.0082
 1432SOL    HW215933   1.734   2.119   1.035 -1.0449  0.2747  0.0582
 1433SOL     OW15934   2.902   3.311   5.214 -0.3829  0.1805 -0.1935
 1433SOL    HW115935   2.915   3.305   5.119 -1.2668  1.2107 -0.3780
 1433SOL    HW215936   2.809   3.310   5.235  0.0532  0.3089  1.7546
 1434SOL     OW15937   1.431   1.013   3.944 -0.1078  0.1855 -0.2409
 1434SOL    HW115938   1.387   0.929   3.951 -0.5340  0.4568  0.3052
 1434SOL    HW215939   1.352   1.059   3.918 -1.4455 -0.5666  2.4430
 1435SOL     OW15940   0.212   0.236   6.118  0.4137 -0.2202 -0.0136
 1435SOL    HW115941   0.302   0.246   6.088  0.0839  0.8064 -0.6379
 1435SOL    HW215942   0.216   0.183   6.198 -0.0374 -0.5114 -0.1845
 1436SOL     OW15943   0.644   1.894   7.711 -0.7537  0.6877  0.1248
 1436SOL    HW115944   0.561   1.908   7.757 -1.1516 -0.0453 -0.3757
 1436SOL    HW215945   0.706   1.861   7.776  0.0749  0.9579 -0.5355
 1437SOL     OW15946   2.542   3.265   7.115  0.2381 -0.1713  0.0620
 1437SOL    HW115947   2.593   3.313   7.049  0.8997 -0.5798  0.2760
 1437SOL    HW215948   2.472   3.329   7.131  1.3761  0.6901  1.5866
 1438SOL     OW15949   1.698   2.232   6.487  0.3771 -0.3331  0.1195
 1438SOL    HW115950   1.689   2.223   6.582  0.0521 -0.7345  0.0505
 1438SOL    HW215951   1.714   2.142   6.459 -2.7556 -0.4944 -1.0382
 1439SOL     OW15952   1.139   4.560   3.077 -0.3531 -0.0219 -0.7159
 1439SOL    HW115953   1.184   4.496   3.021  1.2819  0.4953  0.0052
 1439SOL    HW215954   1.107   4.503   3.147 -1.2694 -1.7055 -2.4925
 1440SOL     OW15955   4.311   3.159  13.468 -0.0100  0.1439 -0.2219
 1440SOL    HW115956   4.396   3.199  13.452  1.2643 -2.6793 -0.4056
 1440SOL    HW215957   4.264   3.220  13.525 -0.6656 -1.0886  0.5424
 1441SOL     OW15958   1.071   3.448   8.384 -0.6683 -0.0407 -0.0011
 1441SOL    HW115959   0.998   3.509   8.378 -1.0135 -0.5320 -0.7745
 1441SOL    HW215960   1.121   3.461   8.464 -1.8305 -0.4456  0.7837
 1442SOL     OW15961   3.006   3.719   3.377 -0.1880  0.0596 -0.8246
 1442SOL    HW115962   2.934   3.699   3.318 -2.2934  2.2383  1.0377
 1442SOL    HW215963   3.061   3.641   3.362 -0.5918 -0.8426  2.5114
 1443SOL     OW15964   4.255   4.733   4.368 -0.1618  0.1639 -0.3725
 1443SOL    HW115965   4.199   0.050   4.311  0.7086 -0.1285 -1.4909
 1443SOL    HW215966   4.252   0.053   4.446  0.2209 -0.1321 -0.1409
 1444SOL     OW15967   4.545   4.004   2.549 -0.2237  0.2781 -0.2076
 1444SOL    HW115968   4.495   3.968   2.622 -0.6015  1.5462  0.1507
 1444SOL    HW215969   4.634   4.004   2.585 -1.0000  1.8132  1.6946
 1445SOL     OW15970   3.064   3.251   2.425  0.0139 -0.4224 -0.0233
 1445SOL    HW115971   3.097   3.194   2.356  2.0024  0.4474  0.2199
 1445SOL    HW215972   3.038   3.329   2.376 -0.7214 -1.2077 -0.9097
 1446SOL     OW15973   0.609   4.713   9.370  0.0434  0.5066 -0.5083
 1446SOL    HW115974   0.687   4.693   9.318  1.2647  0.0650  1.5163
 1446SOL    HW215975   0.640   4.726   9.460 -0.3826 -0.0780 -0.2792
 1447SOL     OW15976   3.558   0.681   8.185  0.0328 -0.3408 -0.3957
 1447SOL    HW115977   3.540   0.762   8.234  0.5881 -0.3026 -0.2584
 1447SOL    HW215978   3.529   0.717   8.101 -1.1190  1.2326  0.6530
 1448SOL     OW15979   2.213   1.973  12.399  0.3816 -0.0507  0.1133
 1448SOL    HW115980   2.258   1.922  12.332  1.0679  0.3316  0.2920
 1448SOL    HW215981   2.222   1.914  12.474 -1.1620 -1.6136 -0.9270
 1449SOL     OW15982   0.907   2.729   5.843  0.5911 -0.2745  0.0161
 1449SOL    HW115983   0.985   2.762   5.799  0.5164  0.3962  0.3886
 1449SOL    HW215984   0.902   2.795   5.912  0.0350 -0.8295  0.5140
 1450SOL     OW15985   2.339   3.744   6.697 -0.1635 -0.0234 -0.6431
 1450SOL    HW115986   2.411   3.727   6.636 -0.9254 -0.3103 -1.4619
 1450SOL    HW215987   2.382   3.742   6.783 -1.5490 -0.5681  0.0325
 1451SOL     OW15988   0.352   4.205   8.705 -0.0001 -0.2575 -0.1659
 1451SOL    HW115989   0.438   4.229   8.740  0.3133 -0.9265 -0.4663
 1451SOL    HW215990   0.288   4.265   8.744  2.2593  1.1555  1.3887
 1452SOL     OW15991   3.042   2.565   0.838 -0.1097  0.0256 -1.0289
 1452SOL    HW115992   3.101   2.602   0.903 -0.4539  0.1604 -0.7957
 1452SOL    HW215993   2.988   2.641   0.817 -1.0203 -0.3614 -0.0542
 1453SOL     OW15994   4.439   3.991   4.126 -0.1973 -0.1462 -0.2278
 1453SOL    HW115995   4.526   4.029   4.115 -0.6193  0.5281 -1.1694
 1453SOL    HW215996   4.408   4.038   4.203  0.9963  0.6883 -0.2640
 1454SOL     OW15997   4.643   1.590   6.691 -0.6168  0.2090  0.1028
 1454SOL    HW115998   4.593   1.510   6.671  0.2981 -0.3823  0.2026
 1454SOL    HW215999   4.623   1.610   6.782  0.8382 -1.2734  0.7427
 1455SOL     OW16000   1.673   0.317   1.022  0.2657  0.8847  0.3739
 1455SOL    HW116001   1.625   0.384   0.973 -2.1454 -1.1996 -0.1225
 1455SOL    HW216002   1.619   0.319   1.101  0.2983 -1.2666  0.4691
 1456SOL     OW16003   2.589   4.359   7.227 -0.1307  0.0594 -0.3344
 1456SOL    HW116004   2.585   4.359   7.132  0.5633  1.3684 -0.3633
 1456SOL    HW216005   2.557   4.271   7.247 -1.8964  0.6074 -0.7798
 1457SOL     OW16006   3.750   0.060   3.884 -0.3588 -0.8824 -0.3378
 1457SOL    HW116007   3.687   4.728   3.910  2.5097 -2.1687  3.2001
 1457SOL    HW216008   3.693   0.130   3.853 -0.3182 -0.7022 -0.0132
 1458SOL     OW16009   4.003   2.056   8.936 -0.0585 -0.2538  0.6558
 1458SOL    HW116010   4.053   2.131   8.903 -0.1167 -0.2163  0.6530
 1458SOL    HW216011   3.966   2.027   8.853 -0.9584  1.4517  0.4572
 1459SOL     OW16012   3.741   2.038   7.772  0.5097  0.8400 -0.0355
 1459SOL    HW116013   3.795   2.112   7.742 -0.2867  1.8060  0.9120
 1459SOL    HW216014   3.707   1.995   7.694 -1.0301  2.2374 -0.1532
 1460SOL     OW16015   0.402   1.509  10.847 -0.1912 -0.0331  0.7258
 1460SOL    HW116016   0.439   1.504  10.935  0.5105  0.4180  0.4506
 1460SOL    HW216017   0.481   1.534  10.799 -1.3826  1.1163 -0.6383
 1461SOL     OW16018   0.707   1.161   9.483 -0.6189 -0.1492 -0.0301
 1461SOL    HW116019   0.660   1.197   9.558 -0.8173 -1.1777  0.3346
 1461SOL    HW216020   0.653   1.195   9.412  1.4794  1.6895 -0.7439
 1462SOL     OW16021   1.765   0.203   8.154 -0.0620  0.0860 -0.2372
 1462SOL    HW116022   1.701   0.151   8.105 -1.4114  0.9107  0.6567
 1462SOL    HW216023   1.776   0.157   8.237 -1.3765  0.4527  0.1523
 1463SOL     OW16024   0.333   0.519   8.365 -0.5851  0.0097 -0.8362
 1463SOL    HW116025   0.315   0.457   8.294 -1.1160 -0.3226 -0.4112
 1463SOL    HW216026   0.284   0.496   8.444  1.9406 -0.6967  0.5215
 1464SOL     OW16027   3.152   2.817   2.347 -0.3611  0.0879 -0.3275
 1464SOL    HW116028   3.229   2.761   2.336  0.9874  1.7425  0.6055
 1464SOL    HW216029   3.170   2.873   2.271 -2.6051  0.4149 -0.6221
 1465SOL     OW16030   0.768   0.821  17.072 -0.2000  0.4597 -0.0759
 1465SOL    HW116031   0.718   0.820  17.154 -1.1108  0.6011 -0.6429
 1465SOL    HW216032   0.841   0.875  17.103  0.8167 -0.4103 -0.9371
 1466SOL     OW16033   4.186   2.536   2.099  0.2518  0.1003 -0.0033
 1466SOL    HW116034   4.221   2.447   2.102  0.6480  0.2407 -0.5207
 1466SOL    HW216035   4.095   2.517   2.124  0.0417  1.8954  0.6241
 1467SOL     OW16036   1.793   2.836   2.383  0.0749  0.7346 -0.2551
 1467SOL    HW116037   1.875   2.808   2.344 -0.2647 -2.4580  1.3572
 1467SOL    HW216038   1.823   2.885   2.460 -2.0513  0.2938  0.8578
 1468SOL     OW16039   3.393   4.697   9.094  0.1666 -0.1968  0.0761
 1468SOL    HW116040   3.418   4.716   9.184  0.1001 -0.9692  0.2556
 1468SOL    HW216041   3.333   4.624   9.106  0.4238 -0.3516  0.4109
 1469SOL     OW16042   3.579   2.170   5.729 -0.6575 -0.5389  0.4635
 1469SOL    HW116043   3.501   2.217   5.699  1.7517  1.5112 -2.6585
 1469SOL    HW216044   3.644   2.221   5.680 -0.2495 -1.3085  0.2167
 1470SOL     OW16045   0.720   0.571  14.528 -0.2530 -0.0432  0.0671
 1470SOL    HW116046   0.630   0.571  14.494 -0.1760  0.0148 -0.1354
 1470SOL    HW216047   0.722   0.659  14.567 -0.7974  0.0492 -0.1102
 1471SOL     OW16048   4.698   4.655  16.050  0.3868  0.0107  0.2905
 1471SOL    HW116049   4.667   4.665  16.141 -0.5267 -0.0460 -0.0154
 1471SOL    HW216050   4.691   0.008  16.017 -0.2824  0.3359  1.2974
 1472SOL     OW16051   1.835   1.922   0.703  0.4202  0.1194 -0.4732
 1472SOL    HW116052   1.883   2.003   0.721 -1.0951  0.8594  0.2151
 1472SOL    HW216053   1.750   1.956   0.731 -0.1795 -1.5447 -0.2408
 1473SOL     OW16054   4.100   2.130   8.481  0.2431 -0.1633 -0.0030
 1473SOL    HW116055   4.171   2.171   8.432  0.0605  0.7861  0.5451
 1473SOL    HW216056   4.031   2.131   8.415  0.9762  0.9110 -0.7545
 1474SOL     OW16057   4.021   1.709   2.830 -0.0894 -0.4563  0.9741
 1474SOL    HW116058   3.954   1.641   2.816  0.1935 -0.1159 -2.1527
 1474SOL    HW216059   3.972   1.761   2.893  0.8171  2.3934 -0.7046
 1475SOL     OW16060   2.304   0.924  15.762 -0.8702  0.1543  0.2934
 1475SOL    HW116061   2.214   0.946  15.787 -1.0605 -0.1680 -0.1023
 1475SOL    HW216062   2.342   1.012  15.760 -1.0234  0.2409  1.6655
 1476SOL     OW16063   2.956   0.348   2.046  0.1477 -0.1909  0.4154
 1476SOL    HW116064   2.953   0.256   2.071 -0.5092 -0.4741 -0.6938
 1476SOL    HW216065   2.871   0.370   2.084  0.0032 -4.2168  2.4709
 1477SOL     OW16066   0.541   0.245   4.767 -0.1323  0.5936 -0.9024
 1477SOL    HW116067   0.484   0.262   4.692 -0.4533  0.4483 -0.6923
 1477SOL    HW216068   0.503   0.306   4.831  2.2322  0.4904  0.6135
 1478SOL     OW16069   3.752   3.794   6.372  0.2047  0.0910 -0.1060
 1478SOL    HW116070   3.694   3.727   6.338  1.7620 -1.2121 -0.1801
 1478SOL    HW216071   3.713   3.877   6.345  2.5102  2.0368  2.4792
 1479SOL     OW16072   0.824   4.155   6.419 -0.5351 -0.0395  0.1517
 1479SOL    HW116073   0.858   4.161   6.508 -1.5023  0.8831  0.4707
 1479SOL    HW216074   0.744   4.109   6.443 -2.0730  2.9749  0.8883
 1480SOL     OW16075   4.040   2.310   8.664 -0.0605 -0.0954  0.1566
 1480SOL    HW116076   3.967   2.254   8.637 -0.4765  0.8608 -0.6820
 1480SOL    HW216077   4.100   2.237   8.682  0.5661  0.4874  0.4308
 1481SOL     OW16078   1.072   1.681   6.410  0.4779 -0.0500  0.2241
 1481SOL    HW116079   1.040   1.718   6.493 -0.4380  2.4128 -1.2482
 1481SOL    HW216080   1.092   1.761   6.361  1.9560 -0.3491  0.3247
 1482SOL     OW16081   3.557   4.096   7.400 -0.2511 -0.0717 -0.8208
 1482SOL    HW116082   3.615   4.150   7.346  0.7063  0.5148  0.7760
 1482SOL    HW216083   3.474   4.100   7.353  0.1489  2.0889 -1.3506
 1483SOL     OW16084   0.960   1.582   2.369 -0.1840 -0.0723 -0.3791
 1483SOL    HW116085   0.996   1.546   2.288 -1.3950 -0.8888 -0.5528
 1483SOL    HW216086   0.953   1.673   2.341  0.5152 -0.8004 -2.9397
 1484SOL     OW16087   3.395   0.426   5.291  0.2313  0.4053 -0.1099
 1484SOL    HW116088   3.407   0.516   5.322 -1.1320  0.5300  0.0731
 1484SOL    HW216089   3.317   0.429   5.236 -0.9054  0.7538  1.5139
 1485SOL     OW16090   2.269   3.951  12.544 -0.2432  0.1327 -0.1262
 1485SOL    HW116091   2.217   4.024  12.577 -2.0038 -0.2534 -2.0277
 1485SOL    HW216092   2.356   3.989  12.558 -0.1385 -1.7362  4.1133
 1486SOL     OW16093   0.683   4.094   8.737  0.4171 -0.3267  0.1583
 1486SOL    HW116094   0.646   4.023   8.685 -0.0368 -0.6764  0.9768
 1486SOL    HW216095   0.655   4.082   8.827 -1.2790  0.4943 -0.2736
 1487SOL     OW16096   3.814   1.936   5.023 -0.2608  0.0830  0.4320
 1487SOL    HW116097   3.785   1.845   5.017  1.1389 -0.4160  1.2801
 1487SOL    HW216098   3.757   1.972   5.090 -0.0736 -0.7886  1.0577
 1488SOL     OW16099   2.911   0.923   4.114  0.6197 -0.2985 -0.4833
 1488SOL    HW116100   2.887   0.857   4.050  2.9843 -1.8299  0.2225
 1488SOL    HW216101   2.973   0.976   4.064 -1.1815  2.8627  0.6252
 1489SOL     OW16102   4.683   1.218   6.796 -0.3067 -0.0278  0.1807
 1489SOL    HW116103   4.660   1.126   6.808 -0.4924  0.1562  1.2166
 1489SOL    HW216104   4.734   1.220   6.877  0.8596  1.8761 -0.5898
 1490SOL     OW16105   0.947   2.647   9.141  0.3272  0.0249  0.1509
 1490SOL    HW116106   0.871   2.639   9.198  0.5845 -0.7206  0.3809
 1490SOL    HW216107   1.014   2.603   9.192  0.3838 -1.5635 -1.2866
 1491SOL     OW16108   3.746   3.999   9.778 -0.5486 -0.3758  0.5076
 1491SOL    HW116109   3.750   3.949   9.860  1.3137  0.0468  0.6862
 1491SOL    HW216110   3.713   3.940   9.711  1.9273 -1.6154  0.3592
 1492SOL     OW16111   4.570   1.112   4.159  0.1862 -0.1446  0.1019
 1492SOL    HW116112   4.651   1.142   4.200 -0.2151 -0.3619  1.0528
 1492SOL    HW216113   4.507   1.159   4.213  0.9924  0.1122  0.8278
 1493SOL     OW16114   4.504   2.677   8.711  0.0155 -0.3602 -0.0923
 1493SOL    HW116115   4.567   2.737   8.751 -1.1758  0.9281 -0.1333
 1493SOL    HW216116   4.535   2.592   8.741 -1.9353 -0.7977  0.7182
 1494SOL     OW16117   4.537   3.042   8.983 -0.0554  0.1913 -0.4177
 1494SOL    HW116118   4.613   3.097   9.003  0.5125 -1.3674  1.8053
 1494SOL    HW216119   4.461   3.082   9.025 -1.1020 -0.7960 -1.3730
 1495SOL     OW16120   0.653   3.054   4.986 -0.1330 -0.3633  0.5535
 1495SOL    HW116121   0.725   2.993   4.999 -0.6829 -1.1528 -0.0616
 1495SOL    HW216122   0.690   3.134   5.023 -0.4766  0.6491 -1.2663
 1496SOL     OW16123   2.342   1.962   6.499 -0.3809  0.2566  0.2959
 1496SOL    HW116124   2.381   1.881   6.531 -0.9813  0.9159  2.6495
 1496SOL    HW216125   2.249   1.937   6.499  0.2842 -2.1720  0.4723
 1497SOL     OW16126   2.398   0.693   7.280 -0.0145  0.3942  0.1881
 1497SOL    HW116127   2.438   0.660   7.361  0.0282 -1.2216 -0.4952
 1497SOL    HW216128   2.306   0.714   7.300 -0.2513  0.9919 -1.5844
 1498SOL     OW16129   3.219   3.301   8.737 -0.1727  0.0219 -0.7079
 1498SOL    HW116130   3.254   3.384   8.706  0.9579 -0.5232 -0.8891
 1498SOL    HW216131   3.188   3.325   8.824 -2.1092  0.9367 -1.6453
 1499SOL     OW16132   0.842   3.913   2.367 -0.1834  0.5397 -0.0624
 1499SOL    HW116133   0.885   3.997   2.377  0.8502  0.3755 -3.0443
 1499SOL    HW216134   0.753   3.938   2.388  0.1258  1.2187  0.4228
 1500SOL     OW16135   1.896   2.079   4.335 -0.1895  0.3577 -0.5124
 1500SOL    HW116136   1.992   2.081   4.329 -0.0746 -0.1598  1.0049
 1500SOL    HW216137   1.884   2.173   4.335 -0.5426  0.3253  1.2650
 1501SOL     OW16138   0.190   2.666   0.035  0.1403  0.8206  0.2936
 1501SOL    HW116139   0.118   2.627  17.728 -0.7148  1.2580  1.1834
 1501SOL    HW216140   0.158   2.659   0.125 -0.4999 -2.4387 -0.1604
 1502SOL     OW16141   2.640   3.869  17.190  0.4374 -0.2042  0.0792
 1502SOL    HW116142   2.551   3.902  17.185  0.4152 -0.1227  1.2077
 1502SOL    HW216143   2.632   3.793  17.132 -2.4522 -0.4967  0.8934
 1503SOL     OW16144   3.117   0.843   8.115 -0.7342 -0.4838  0.1513
 1503SOL    HW116145   3.188   0.893   8.155 -0.0966 -0.8243 -0.5628
 1503SOL    HW216146   3.091   0.903   8.045 -1.5040 -1.7013 -0.5859
 1504SOL     OW16147   4.283   2.641   3.707 -0.5169 -0.3540  0.1944
 1504SOL    HW116148   4.209   2.679   3.661 -1.9867  0.0573  2.9091
 1504SOL    HW216149   4.241   2.580   3.767  0.3969 -0.2815  0.9124
 1505SOL     OW16150   0.998   4.664   7.579  0.0583 -0.4829 -0.4586
 1505SOL    HW116151   0.959   4.688   7.495 -1.0822  0.5153  0.3518
 1505SOL    HW216152   1.087   4.693   7.560 -0.3387  1.4718  0.6597
 1506SOL     OW16153   1.249   2.100   1.590  0.0868  0.1296  0.1144
 1506SOL    HW116154   1.274   2.166   1.655 -0.7280  1.4418 -0.8886
 1506SOL    HW216155   1.327   2.045   1.591  0.3887  0.4860 -3.2945
 1507SOL     OW16156   3.209   0.487   3.936 -0.0926  0.1094  0.2330
 1507SOL    HW116157   3.221   0.471   3.842  3.4568  1.4427  0.4884
 1507SOL    HW216158   3.289   0.532   3.960  0.1729  0.0288 -0.4970
 1508SOL     OW16159   2.296   4.376  11.288  0.1088 -0.4051  0.2830
 1508SOL    HW116160   2.250   4.451  11.249 -2.1202 -1.2685  1.2634
 1508SOL    HW216161   2.375   4.368  11.235 -0.1641 -4.0431  0.4422
 1509SOL     OW16162   1.520   3.673   6.615 -0.5635  0.1591  0.5048
 1509SOL    HW116163   1.567   3.714   6.687  2.1686 -1.2275 -0.4628
 1509SOL    HW216164   1.563   3.712   6.539  0.9245 -0.2046  1.1608
 1510SOL     OW16165   2.444   2.354   8.170 -0.6262 -0.6089 -0.0836
 1510SOL    HW116166   2.503   2.279   8.164  3.5639  2.8108 -1.8052
 1510SOL    HW216167   2.385   2.338   8.096 -2.0921 -2.1277  1.4164
 1511SOL     OW16168   3.021   0.264   2.403  0.2028 -0.8350 -0.7457
 1511SOL    HW116169   3.101   0.255   2.351  1.3548  0.7590  0.7433
 1511SOL    HW216170   2.989   0.174   2.393 -1.0101 -0.2640 -1.9651
 1512SOL     OW16171   3.841   2.855   1.036 -0.1819  0.3422 -0.0028
 1512SOL    HW116172   3.851   2.925   1.100 -1.6721  1.0713 -0.5494
 1512SOL    HW216173   3.897   2.791   1.079  1.3207  0.9736 -1.0267
 1513SOL     OW16174   0.401   4.719   5.701 -0.2329  0.2552  0.1148
 1513SOL    HW116175   0.347   4.647   5.736 -0.0989  1.1190  2.0958
 1513SOL    HW216176   0.479   4.673   5.670  0.5718  1.7507 -0.0632
 1514SOL     OW16177   1.891   2.285   7.162  0.1433  0.3531 -0.0877
 1514SOL    HW116178   1.912   2.342   7.236 -0.8698  2.4677 -1.4194
 1514SOL    HW216179   1.883   2.348   7.090  0.7655 -0.6051 -0.9869
 1515SOL     OW16180   2.415   1.376   2.066 -0.1378 -0.2028 -0.2784
 1515SOL    HW116181   2.491   1.401   2.014 -2.1260  1.5550 -2.3175
 1515SOL    HW216182   2.446   1.294   2.104  1.5062  1.5196  2.1158
 1516SOL     OW16183   0.198   1.586   4.946  0.0881 -0.2592 -0.1069
 1516SOL    HW116184   0.118   1.620   4.906  0.2026 -1.5225 -1.3893
 1516SOL    HW216185   0.189   1.496   4.914 -0.5231 -1.1135  2.4629
 1517SOL     OW16186   1.531   3.466   3.224  0.1821  0.0572 -0.0713
 1517SOL    HW116187   1.612   3.424   3.251  0.5532  1.0741  0.4008
 1517SOL    HW216188   1.505   3.407   3.153  1.0645  1.6367 -1.7188
 1518SOL     OW16189   0.702   0.019   3.658 -0.2039 -0.0629  0.1273
 1518SOL    HW116190   0.729   0.086   3.595  1.3499 -0.3460  0.4863
 1518SOL    HW216191   0.623   4.727   3.613  1.6451 -0.1551 -3.1176
 1519SOL     OW16192   1.960   1.720  15.216 -0.2343  0.2194 -0.1252
 1519SOL    HW116193   1.930   1.706  15.306  0.8012  3.1536  0.6799
 1519SOL    HW216194   1.993   1.810  15.219  0.0940  0.1559 -2.0434
 1520SOL     OW16195   4.444   0.177  13.098 -0.0982  0.3521 -0.3080
 1520SOL    HW116196   4.413   0.263  13.125  0.4758  0.1018  1.1093
 1520SOL    HW216197   4.381   0.119  13.142 -1.2090  1.2334 -0.7157
 1521SOL     OW16198   1.422   4.045   3.752 -0.2438  0.3452 -0.2094
 1521SOL    HW116199   1.461   3.957   3.750 -2.5370 -0.6848  0.5400
 1521SOL    HW216200   1.368   4.047   3.673 -0.3739  0.2812 -0.1221
 1522SOL     OW16201   0.832   3.425   9.562  0.1227 -0.3936  0.1199
 1522SOL    HW116202   0.767   3.465   9.620 -1.0157 -2.8612  0.5681
 1522SOL    HW216203   0.871   3.500   9.518  0.5953 -0.9458 -0.4124
 1523SOL     OW16204   0.691   0.848  12.213  0.3143 -0.5307  0.0275
 1523SOL    HW116205   0.639   0.848  12.133 -0.4230  0.2176  0.5026
 1523SOL    HW216206   0.703   0.754  12.227 -0.0245 -0.6300 -0.3433
 1524SOL     OW16207   2.205   0.174   6.285  0.0117  0.5119 -0.0038
 1524SOL    HW116208   2.287   0.202   6.246 -0.1759  0.0582 -0.7147
 1524SOL    HW216209   2.149   0.181   6.208 -1.8267 -1.7433  1.1435
 1525SOL     OW16210   0.024   2.584   3.797  0.0441  0.2654  0.3091
 1525SOL    HW116211   4.680   2.606   3.750 -0.3107 -2.1405 -0.2184
 1525SOL    HW216212   0.023   2.488   3.796 -1.9229  0.2596  2.6245
 1526SOL     OW16213   0.665   1.043   3.238  0.1514 -0.2046  0.0829
 1526SOL    HW116214   0.728   1.036   3.166 -2.0352 -0.2981 -1.8337
 1526SOL    HW216215   0.584   1.047   3.187 -0.3615  0.4117  0.9643
 1527SOL     OW16216   2.110   2.819   3.321 -0.1070 -0.1686  0.7631
 1527SOL    HW116217   2.073   2.869   3.249  2.0056 -0.4554 -0.4978
 1527SOL    HW216218   2.192   2.859   3.352  0.2444 -1.0920  1.0258
 1528SOL     OW16219   3.376   3.176   5.997  0.9456  0.4376 -0.3432
 1528SOL    HW116220   3.465   3.181   6.034  0.7103 -0.0039  0.2867
 1528SOL    HW216221   3.387   3.126   5.916  3.1981  0.6351 -0.1815
 1529SOL     OW16222   4.175   1.600   3.642 -0.3479  0.2285  0.1618
 1529SOL    HW116223   4.128   1.673   3.683 -0.8301 -1.2806  2.2668
 1529SOL    HW216224   4.225   1.582   3.721 -0.7051  0.6032  0.4730
 1530SOL     OW16225   1.773   0.181   5.102 -0.0789 -0.2508 -0.3361
 1530SOL    HW116226   1.809   0.262   5.140 -1.2220  0.5048 -0.8422
 1530SOL    HW216227   1.770   0.119   5.174  1.5223  1.1105  0.9178
 1531SOL     OW16228   2.063   4.657   8.065 -0.0920  0.3393 -0.3832
 1531SOL    HW116229   1.971   4.632   8.053  0.4783 -1.2604 -1.3675
 1531SOL    HW216230   2.050   0.001   8.116  1.0533  1.1939 -1.4313
 1532SOL     OW16231   1.356   0.419   6.983 -0.4162 -0.0771  0.0536
 1532SOL    HW116232   1.284   0.458   6.932 -0.9200 -1.8608 -0.6011
 1532SOL    HW216233   1.433   0.458   6.943  0.2554 -0.6732  0.7676
 1533SOL     OW16234   0.951   0.013   4.108 -0.0583  0.3053 -0.0672
 1533SOL    HW116235   0.937   4.658   4.083 -0.2080  0.1785  0.4945
 1533SOL    HW216236   0.890   0.062   4.053 -0.1460  1.6661  1.2263
 1534SOL     OW16237   0.298   0.077   9.833  0.3162  0.2502 -0.3369
 1534SOL    HW116238   0.249   4.734   9.856 -0.3016 -0.3348 -3.6844
 1534SOL    HW216239   0.384   0.061   9.872 -0.3196 -0.4660  0.7796
 1535SOL     OW16240   1.783   3.831   4.772  0.4164  0.5765  0.4177
 1535SOL    HW116241   1.862   3.777   4.769 -0.5117 -0.8893  2.3076
 1535SOL    HW216242   1.817   3.919   4.789  0.0319  0.5170  1.4909
 1536SOL     OW16243   4.334   1.402  11.269 -0.3654  0.3713 -0.1004
 1536SOL    HW116244   4.423   1.436  11.266 -0.4647  0.5564 -0.7702
 1536SOL    HW216245   4.306   1.390  11.360 -3.1597  1.0194 -0.8619
 1537SOL     OW16246   4.583   0.172   8.774 -0.8349 -0.5492 -0.0159
 1537SOL    HW116247   4.629   0.163   8.690  2.3351 -0.2089  1.7126
 1537SOL    HW216248   4.655   0.181   8.835 -0.2268 -1.9125 -0.5337
 1538SOL     OW16249   0.909   1.605   7.858 -0.0632 -0.2014  0.4547
 1538SOL    HW116250   0.890   1.571   7.771 -2.5814 -1.7576  1.5945
 1538SOL    HW216251   0.827   1.654   7.869  0.1888  0.6190 -1.3249
 1539SOL     OW16252   0.361   2.548  10.030  0.1278  0.2273  0.6268
 1539SOL    HW116253   0.294   2.597   9.982  1.5283  1.7541  0.2147
 1539SOL    HW216254   0.411   2.616  10.075  1.5811 -0.1464 -0.4209
 1540SOL     OW16255   0.791   2.440   2.527 -0.0250  0.2306  0.0271
 1540SOL    HW116256   0.800   2.491   2.607 -1.4778  0.1278  0.2613
 1540SOL    HW216257   0.829   2.353   2.540  1.8866  0.9783 -0.5620
 1541SOL     OW16258   1.010   4.481   2.431  0.1756  0.4037 -0.0037
 1541SOL    HW116259   1.074   4.440   2.489 -0.4187 -1.5094 -0.7039
 1541SOL    HW216260   0.944   4.412   2.436  0.1924  0.5368  1.8295
 1542SOL     OW16261   1.685   1.123  16.808  0.2881 -0.0747 -0.1242
 1542SOL    HW116262   1.661   1.164  16.726 -0.5460 -0.5347 -0.1113
 1542SOL    HW216263   1.686   1.028  16.793  1.0164 -0.2280  0.9013
 1543SOL     OW16264   0.877   0.601   8.996  0.3926 -0.2274 -0.0818
 1543SOL    HW116265   0.836   0.659   9.061 -0.0958  2.0653 -2.4469
 1543SOL    HW216266   0.801   0.570   8.948  0.5557 -0.0460 -0.4554
 1544SOL     OW16267   0.294   2.314   7.303  0.4835 -0.6370  0.2302
 1544SOL    HW116268   0.305   2.407   7.283 -1.5448 -0.6012 -0.7242
 1544SOL    HW216269   0.264   2.285   7.217  2.1963 -1.3472 -0.1339
 1545SOL     OW16270   4.648   2.539   0.693 -0.1925  0.1226  0.1374
 1545SOL    HW116271   4.637   2.622   0.645 -0.7788 -0.6377 -1.0531
 1545SOL    HW216272   4.559   2.507   0.678 -0.0192 -0.0343 -0.5801
 1546SOL     OW16273   1.237   2.881  12.305 -0.9496  0.1198  0.0748
 1546SOL    HW116274   1.228   2.794  12.267 -0.4159  0.7659 -1.5410
 1546SOL    HW216275   1.181   2.872  12.382 -1.5075 -2.7879 -0.6913
 1547SOL     OW16276   2.484   1.532   4.657  0.2075  0.1524 -0.7282
 1547SOL    HW116277   2.506   1.489   4.574 -2.9676 -0.4141 -1.3025
 1547SOL    HW216278   2.417   1.469   4.685  0.4333 -0.5606 -1.8041
 1548SOL     OW16279   1.785   2.647   4.162 -0.0318  0.5880 -0.1821
 1548SOL    HW116280   1.767   2.735   4.126  0.3900  0.2892 -1.1274
 1548SOL    HW216281   1.855   2.615   4.106 -0.5447 -0.8956  0.0381
 1549SOL     OW16282   0.375   3.003   6.954  0.1832 -0.6037 -0.6892
 1549SOL    HW116283   0.389   3.096   6.933 -0.7769  0.2005  2.2375
 1549SOL    HW216284   0.457   2.960   6.930 -1.2637 -2.1091 -2.9638
 1550SOL     OW16285   0.081   0.837  11.410 -0.0503 -0.0882 -0.5364
 1550SOL    HW116286   4.732   0.870  11.381 -0.6569 -0.9679  0.2255
 1550SOL    HW216287   0.065   0.742  11.407  2.4336 -0.6190  2.9426
 1551SOL     OW16288   0.314   3.267   6.271  0.0492 -0.2969 -0.1558
 1551SOL    HW116289   0.256   3.208   6.223 -0.3655 -0.2095  0.2389
 1551SOL    HW216290   0.269   3.352   6.267 -1.4335 -1.1455 -1.3427
 1552SOL     OW16291   1.004   3.338   8.780 -0.1210  0.6705 -0.3973
 1552SOL    HW116292   1.099   3.336   8.773 -0.1942  1.4431 -1.6097
 1552SOL    HW216293   0.987   3.268   8.717  1.3190 -0.4722  0.4654
 1553SOL     OW16294   0.321   2.560  13.631  0.0206  0.3754 -0.4503
 1553SOL    HW116295   0.379   2.530  13.700  1.4633 -2.6039 -2.9896
 1553SOL    HW216296   0.386   2.584  13.565  1.8411 -1.6320  0.6309
 1554SOL     OW16297   3.226   2.723   3.751  0.1343 -0.0691  0.1353
 1554SOL    HW116298   3.294   2.656   3.762 -0.1424 -0.4827 -0.6674
 1554SOL    HW216299   3.260   2.773   3.677 -0.4255  0.0135 -0.0701
 1555SOL     OW16300   1.770   0.882   3.701  0.2718 -0.1577 -0.7707
 1555SOL    HW116301   1.756   0.857   3.610  1.8773 -2.1856 -0.4515
 1555SOL    HW216302   1.862   0.859   3.711  0.6445  1.0002 -1.5350
 1556SOL     OW16303   1.541   0.803   4.520  0.3186  0.3951 -0.0725
 1556SOL    HW116304   1.608   0.761   4.573  0.7267  1.5786  0.3656
 1556SOL    HW216305   1.550   0.764   4.434 -0.3034  0.4693 -0.1749
 1557SOL     OW16306   3.143   1.197   2.910 -0.4163  0.1362 -0.0776
 1557SOL    HW116307   3.095   1.212   2.991  0.0767  3.5797 -0.4436
 1557SOL    HW216308   3.232   1.214   2.942  0.3928  0.4204 -2.4746
 1558SOL     OW16309   0.075   2.060   8.882  0.0055  0.3672 -0.0562
 1558SOL    HW116310   0.096   2.030   8.970  0.2119  0.6588 -0.0069
 1558SOL    HW216311   0.077   2.155   8.886 -0.2553  0.3486  0.4374
 1559SOL     OW16312   0.384   2.615   9.161  0.0516  0.5285  0.1579
 1559SOL    HW116313   0.408   2.534   9.207  0.5712  0.9535  0.6313
 1559SOL    HW216314   0.317   2.655   9.217 -0.1122  2.5922 -1.5336
 1560SOL     OW16315   4.690   1.382  14.831  0.4404  0.2397 -0.2393
 1560SOL    HW116316   4.666   1.465  14.790 -1.4918 -0.2289 -0.0455
 1560SOL    HW216317   4.644   1.325  14.770  0.1207  1.8379 -1.4958
 1561SOL     OW16318   2.695   2.795   2.452 -0.5322 -0.2434 -0.2800
 1561SOL    HW116319   2.764   2.817   2.390 -2.3771 -0.5628 -2.4140
 1561SOL    HW216320   2.742   2.786   2.535 -0.1877 -0.0244 -0.4536
 1562SOL     OW16321   1.591   1.467  11.914  0.2430 -0.0733 -0.1948
 1562SOL    HW116322   1.530   1.536  11.940 -0.1092 -0.5790  0.3055
 1562SOL    HW216323   1.525   1.437  11.851 -0.8841  1.7904  0.0849
 1563SOL     OW16324   1.563   1.458  10.644 -0.4466  0.3038 -0.0391
 1563SOL    HW116325   1.628   1.393  10.671 -1.7713  0.3339  3.2522
 1563SOL    HW216326   1.513   1.414  10.576  0.7652 -2.4002  0.8086
 1564SOL     OW16327   3.022   2.409   2.479 -0.3137 -0.3110 -0.4696
 1564SOL    HW116328   2.964   2.410   2.554 -0.2378 -0.6376 -0.4075
 1564SOL    HW216329   3.099   2.437   2.529  0.1659 -2.2767 -0.1179
 1565SOL     OW16330   4.733   3.591   4.725  0.1276 -0.2124  0.5899
 1565SOL    HW116331   4.642   3.595   4.752 -0.2680 -1.2899 -0.6049
 1565SOL    HW216332   0.002   3.495   4.728  0.3996 -0.1853  0.9604
 1566SOL     OW16333   3.811   1.242  15.349 -0.0193  0.6134 -0.3515
 1566SOL    HW116334   3.790   1.208  15.262 -0.0705 -0.3583  0.0448
 1566SOL    HW216335   3.767   1.328  15.352  3.0633  2.2352 -1.2412
 1567SOL     OW16336   1.721   3.092  11.281  0.0039 -0.1402  0.6344
 1567SOL    HW116337   1.693   3.131  11.198  1.8261 -0.7897 -0.2823
 1567SOL    HW216338   1.803   3.052  11.255  1.6151  3.4393  0.1110
 1568SOL     OW16339   3.892   0.925   4.918  0.0770  0.1311 -0.4598
 1568SOL    HW116340   3.882   0.952   5.009 -1.1074 -1.3918 -0.1164
 1568SOL    HW216341   3.849   0.997   4.871 -1.1542 -0.4975 -0.3077
 1569SOL     OW16342   0.957   1.964   6.939  0.3777  0.2938 -0.2665
 1569SOL    HW116343   1.042   1.982   6.978 -0.1177  0.7795  0.5895
 1569SOL    HW216344   0.976   1.876   6.907  0.0187  0.6108 -1.3365
 1570SOL     OW16345   1.060   3.723   5.533 -0.0361  0.5861  0.6176
 1570SOL    HW116346   1.045   3.737   5.627 -1.5203 -1.6203  0.6995
 1570SOL    HW216347   0.968   3.710   5.509 -0.2746 -1.5543  2.7030
 1571SOL     OW16348   1.250   4.059  13.637  0.0246  0.4326  0.0392
 1571SOL    HW116349   1.205   4.104  13.566 -0.2410  0.4402  0.2119
 1571SOL    HW216350   1.176   4.014  13.679 -0.2880 -1.3162 -2.3864
 1572SOL     OW16351   3.727   1.071  11.120 -0.1376 -0.5605 -0.1745
 1572SOL    HW116352   3.701   1.112  11.203  1.2961 -0.4918  0.2418
 1572SOL    HW216353   3.817   1.053  11.147 -0.2261 -1.6100 -0.5859
 1573SOL     OW16354   2.841   2.341   9.498 -0.3446 -0.4032  0.3056
 1573SOL    HW116355   2.787   2.354   9.420  0.1305 -0.0438  0.0394
 1573SOL    HW216356   2.786   2.274   9.538  0.6564 -1.0661  0.5565
 1574SOL     OW16357   2.289   1.001  13.759  0.0189 -0.1723 -0.5925
 1574SOL    HW116358   2.275   1.096  13.759 -1.4257 -0.3900 -0.7742
 1574SOL    HW216359   2.382   0.995  13.781 -0.7634 -0.3461  2.6477
 1575SOL     OW16360   0.971   0.852   5.685  0.1390 -0.4999  0.5011
 1575SOL    HW116361   1.026   0.844   5.607 -0.8377  1.1777 -0.3485
 1575SOL    HW216362   0.892   0.894   5.653  1.1191  0.7413 -0.2697
 1576SOL     OW16363   3.032   2.768   1.766 -0.4031  0.3228  0.4356
 1576SOL    HW116364   2.981   2.737   1.839 -1.2606  0.5765 -0.0582
 1576SOL    HW216365   3.023   2.863   1.770  0.1836  0.5146 -2.6388
 1577SOL     OW16366   4.027   0.778  13.476 -0.5930  0.0982 -0.2259
 1577SOL    HW116367   4.052   0.813  13.391  0.0440  1.8227  0.6622
 1577SOL    HW216368   4.090   0.706  13.479  0.8674  1.3798 -0.1469
 1578SOL     OW16369   1.168   4.312  10.255  0.3968 -0.0995  0.1103
 1578SOL    HW116370   1.165   4.352  10.342 -0.4027  1.0446 -0.4438
 1578SOL    HW216371   1.132   4.386  10.207 -0.6686 -0.3654  0.4812
 1579SOL     OW16372   4.042   1.068   6.456  0.4645  0.0272  0.1685
 1579SOL    HW116373   4.085   1.141   6.412 -1.3012  0.3973 -0.9663
 1579SOL    HW216374   4.085   0.996   6.411  0.8238  0.5748 -0.3721
 1580SOL     OW16375   4.415   2.386  17.172 -0.0625 -0.4905  0.1079
 1580SOL    HW116376   4.353   2.315  17.155  0.0848 -1.4108  3.3613
 1580SOL    HW216377   4.450   2.405  17.085 -0.4814  0.9560  0.2629
 1581SOL     OW16378   0.008   0.483  13.520  0.2017  0.7256  0.3828
 1581SOL    HW116379   0.061   0.487  13.600  1.4875 -2.7998 -0.3139
 1581SOL    HW216380   0.059   0.541  13.463  0.8955  0.9879  1.2673
 1582SOL     OW16381   4.649   2.646   1.923 -0.1874  0.1705 -0.3705
 1582SOL    HW116382   4.695   2.667   2.004  0.6541  0.8483 -1.0228
 1582SOL    HW216383   4.559   2.642   1.955  0.0976 -0.3763  0.3555
 1583SOL     OW16384   2.963   4.121  15.698  0.3663 -0.1572  0.2839
 1583SOL    HW116385   3.053   4.151  15.708  0.2591 -0.3826  1.9358
 1583SOL    HW216386   2.936   4.141  15.787  0.8287 -1.9740  0.8411
 1584SOL     OW16387   3.789   0.554  16.564 -0.6484  0.2034  0.0310
 1584SOL    HW116388   3.863   0.609  16.537 -0.4729  2.1013  4.3470
 1584SOL    HW216389   3.759   0.606  16.638  0.4645 -1.9014  1.9586
 1585SOL     OW16390   4.122   1.844   3.717 -0.2954  0.1214  0.5958
 1585SOL    HW116391   4.133   1.915   3.781 -0.2076  0.8640 -0.2407
 1585SOL    HW216392   4.036   1.861   3.678  0.1119  1.2217  0.1738
 1586SOL     OW16393   4.153   0.333   2.189  0.1534 -0.6797 -0.0119
 1586SOL    HW116394   4.077   0.348   2.132  0.6239 -2.4440 -1.1085
 1586SOL    HW216395   4.193   0.269   2.130  1.2058 -2.3148  2.4785
 1587SOL     OW16396   1.179   4.574  12.880 -0.1316  0.6303 -0.0028
 1587SOL    HW116397   1.167   4.609  12.792 -0.0225  1.0397  0.1458
 1587SOL    HW216398   1.091   4.596  12.911 -0.6760  0.5431 -1.4951
 1588SOL     OW16399   4.542   0.795   9.101 -0.3722 -0.1446 -0.0276
 1588SOL    HW116400   4.619   0.810   9.155  0.4347 -0.1353 -1.1910
 1588SOL    HW216401   4.557   0.701   9.098  1.1661 -0.0014  3.5364
 1589SOL     OW16402   0.344   3.192   8.926 -0.0741  0.0270  0.3270
 1589SOL    HW116403   0.389   3.148   8.853 -0.8508 -1.3630  0.6940
 1589SOL    HW216404   0.379   3.281   8.920  0.7876 -0.4894 -2.2898
 1590SOL     OW16405   1.808   2.792  16.887  0.0752  0.4804  0.1597
 1590SOL    HW116406   1.776   2.830  16.969 -0.7386 -0.6858  0.3832
 1590SOL    HW216407   1.734   2.735  16.864  1.1994 -0.0168 -2.2690
 1591SOL     OW16408   4.594   2.349   6.480 -0.1862  0.4685  0.2410
 1591SOL    HW116409   4.611   2.388   6.394 -0.0219  1.7656  0.8589
 1591SOL    HW216410   4.505   2.318   6.465 -0.1714 -0.1997  1.5489
 1592SOL     OW16411   3.001   0.328   5.312 -0.2330 -0.1189  0.3075
 1592SOL    HW116412   2.951   0.289   5.240  1.2270  0.5554 -1.0625
 1592SOL    HW216413   3.063   0.387   5.269  0.7970  0.6341  2.7986
 1593SOL     OW16414   1.960   1.680   4.929 -0.3860  0.0275  0.1819
 1593SOL    HW116415   2.048   1.717   4.935 -0.6894  0.5301  1.4003
 1593SOL    HW216416   1.950   1.655   4.837 -2.6191 -0.9749  0.7042
 1594SOL     OW16417   2.112   2.340   8.300  0.0791 -0.1907  0.3252
 1594SOL    HW116418   2.154   2.254   8.298 -0.0334 -0.2669  1.1550
 1594SOL    HW216419   2.033   2.319   8.250  0.2440 -0.9925  0.4001
 1595SOL     OW16420   4.043   1.800   8.242  0.6064 -0.2547  0.5375
 1595SOL    HW116421   4.097   1.790   8.164 -1.1743 -1.8782 -0.4955
 1595SOL    HW216422   3.967   1.746   8.221  0.0540  1.0092 -0.7834
 1596SOL     OW16423   1.104   1.004   1.804  0.2734 -0.0411  0.4304
 1596SOL    HW116424   1.184   0.957   1.827  1.5250  0.8915 -1.9161
 1596SOL    HW216425   1.063   0.931   1.758  1.1591 -0.9738  1.1377
 1597SOL     OW16426   0.185   1.905   6.667  0.5983 -0.1960  0.4242
 1597SOL    HW116427   0.109   1.944   6.623  1.7133  0.8530 -0.5752
 1597SOL    HW216428   0.249   1.976   6.658 -0.2269  0.5608  0.4159
 1598SOL     OW16429   1.115   1.869   3.495 -0.2317 -0.5280 -0.1365
 1598SOL    HW116430   1.067   1.786   3.497  2.3515 -2.0527  0.0542
 1598SOL    HW216431   1.184   1.840   3.555 -1.1520 -2.0916  0.1704
 1599SOL     OW16432   1.730   1.830   8.950  0.3023 -0.0327 -0.0873
 1599SOL    HW116433   1.821   1.803   8.941  0.9598  1.5765  1.8394
 1599SOL    HW216434   1.734   1.907   8.892  1.2111 -0.9091 -1.2014
 1600SOL     OW16435   2.596   1.496  17.083  0.6940  0.4775  0.4882
 1600SOL    HW116436   2.650   1.418  17.101  1.6062  0.5446 -1.9422
 1600SOL    HW216437   2.515   1.461  17.046  0.9971 -0.0480  0.3127
 1601SOL     OW16438   4.729   0.001   5.579 -0.2157 -0.4282  0.3715
 1601SOL    HW116439   4.727   4.647   5.548  1.7809  0.1018 -1.3154
 1601SOL    HW216440   4.640   0.015   5.612 -0.2521 -1.0855  0.5439
 1602SOL     OW16441   3.711   3.348   3.813 -0.1550 -0.3244 -0.1825
 1602SOL    HW116442   3.682   3.438   3.801 -0.0917 -0.4171 -1.0032
 1602SOL    HW216443   3.631   3.295   3.805  1.2486 -2.2636 -1.5230
 1603SOL     OW16444   2.931   1.575   1.463 -0.1170 -0.1867 -0.1337
 1603SOL    HW116445   3.004   1.545   1.518 -0.7575 -0.6395  0.4707
 1603SOL    HW216446   2.915   1.491   1.419  1.8445 -1.0474  0.7818
 1604SOL     OW16447   1.437   1.716   9.328 -0.3639  0.5721 -0.1196
 1604SOL    HW116448   1.396   1.792   9.287 -0.3529 -0.3676 -1.9004
 1604SOL    HW216449   1.426   1.730   9.422  0.6440 -1.6027  0.3271
 1605SOL     OW16450   4.099   1.080   0.302  0.0786  0.3296  0.2077
 1605SOL    HW116451   4.076   1.100   0.211  1.5471  0.3855 -0.1519
 1605SOL    HW216452   4.037   1.011   0.324  0.1547 -0.7109 -2.8706
 1606SOL     OW16453   0.777   1.105  16.068 -0.6212 -0.1903  0.2115
 1606SOL    HW116454   0.799   1.012  16.076 -0.4077 -0.1781 -0.2104
 1606SOL    HW216455   0.859   1.153  16.058  0.4296 -1.9306  0.4891
 1607SOL     OW16456   2.443   4.321   4.360 -0.5059 -0.1112 -0.3629
 1607SOL    HW116457   2.467   4.375   4.436 -1.4145 -0.3489  0.0858
 1607SOL    HW216458   2.416   4.398   4.310  2.4673  1.0640 -0.1717
 1608SOL     OW16459   0.999   0.029  11.937 -0.0274  0.3688 -0.4590
 1608SOL    HW116460   1.088   0.051  11.911  0.5174  0.7872  1.7805
 1608SOL    HW216461   0.967   4.708  11.867  2.3908 -2.6198  0.8815
 1609SOL     OW16462   0.190   2.548   0.526  0.1057 -0.2647  0.0103
 1609SOL    HW116463   0.099   2.571   0.546  0.4885 -2.2357  3.8584
 1609SOL    HW216464   0.220   2.555   0.616  0.7308 -2.4547 -0.0329
 1610SOL     OW16465   3.218   4.483   3.618  0.4496  0.2121 -0.5490
 1610SOL    HW116466   3.125   4.497   3.601 -0.1476  0.1315  2.5411
 1610SOL    HW216467   3.223   4.390   3.639  0.3835  0.6962  1.6828
 1611SOL     OW16468   3.593   3.014   6.988  0.3060 -0.0947  0.9741
 1611SOL    HW116469   3.655   2.972   6.928  0.2141 -0.2512  0.9897
 1611SOL    HW216470   3.636   3.096   7.014 -1.0087  0.3690  1.6648
 1612SOL     OW16471   2.083   1.512   1.513 -0.0139  0.6449  0.0409
 1612SOL    HW116472   2.069   1.428   1.556 -0.1098  1.0244  0.7549
 1612SOL    HW216473   2.135   1.555   1.581  0.6226  0.1436 -0.1304
 1613SOL     OW16474   2.614   3.904  15.250 -0.2830  0.1022 -0.3975
 1613SOL    HW116475   2.664   3.880  15.329 -1.9162  2.6387  1.4069
 1613SOL    HW216476   2.638   3.994  15.227 -1.5969 -0.3771 -3.5864
 1614SOL     OW16477   1.932   1.694   1.346 -0.4387 -0.1317 -0.4691
 1614SOL    HW116478   2.005   1.734   1.299 -0.4695  1.4508  0.8369
 1614SOL    HW216479   1.979   1.630   1.401 -0.3077  0.7324  0.4194
 1615SOL     OW16480   3.610   1.432   0.333 -0.3443  0.2908 -0.0453
 1615SOL    HW116481   3.530   1.463   0.376 -0.5923 -2.5705  1.5728
 1615SOL    HW216482   3.640   1.504   0.278  1.7104 -0.6695 -0.1778
 1616SOL     OW16483   0.790   1.495   3.847  0.3215  0.2147  0.5319
 1616SOL    HW116484   0.865   1.439   3.824  1.5199  2.7396 -1.6593
 1616SOL    HW216485   0.808   1.527   3.935 -0.8853  0.5457  0.6575
 1617SOL     OW16486   1.120   2.064   2.996 -0.3190  0.2553  0.1228
 1617SOL    HW116487   1.115   2.086   3.089  1.6800  0.5600  0.1763
 1617SOL    HW216488   1.035   2.025   2.977 -1.3224  0.9838  3.1253
 1618SOL     OW16489   2.095   0.911   5.387 -0.5824 -0.1054 -0.2671
 1618SOL    HW116490   2.124   0.911   5.296 -0.6907 -4.6242 -0.2959
 1618SOL    HW216491   2.008   0.872   5.385  0.0267 -1.4353 -0.4323
 1619SOL     OW16492   1.749   3.617   3.570  0.3653  0.3761  0.0152
 1619SOL    HW116493   1.821   3.660   3.617  0.6873  1.8537 -1.8543
 1619SOL    HW216494   1.764   3.649   3.481  1.2685  1.1388  0.4417
 1620SOL     OW16495   3.415   2.408   6.080  0.1719 -0.1646  0.0514
 1620SOL    HW116496   3.333   2.379   6.120 -0.4589  0.4547 -0.7646
 1620SOL    HW216497   3.448   2.320   6.065  0.8745 -0.3486  2.8310
 1621SOL     OW16498   4.428   3.986   8.106  0.2772 -0.0011 -0.5250
 1621SOL    HW116499   4.414   4.071   8.147  0.5990  0.1820 -0.7950
 1621SOL    HW216500   4.517   4.002   8.073 -0.5671  2.0184 -1.8251
 1622SOL     OW16501   2.591   2.675   4.731 -0.4082 -0.2097 -0.4894
 1622SOL    HW116502   2.636   2.610   4.786 -1.3105 -1.6918 -1.5205
 1622SOL    HW216503   2.586   2.746   4.794  0.7790  0.1362 -0.7907
 1623SOL     OW16504   2.264   4.472   1.946  0.0748 -0.0087  0.2504
 1623SOL    HW116505   2.192   4.441   2.001 -0.2286 -0.4844 -0.4189
 1623SOL    HW216506   2.280   4.396   1.891 -1.5263 -0.3152  0.2195
 1624SOL     OW16507   0.875   0.806   7.842 -0.0211 -0.2586  0.5724
 1624SOL    HW116508   0.920   0.776   7.921  0.7576  2.2338  1.0821
 1624SOL    HW216509   0.884   0.729   7.785 -1.9565 -0.6964  0.8666
 1625SOL     OW16510   0.696   2.814  10.624 -0.0555 -0.0107  0.2405
 1625SOL    HW116511   0.613   2.768  10.612  0.2958 -1.0987  1.9338
 1625SOL    HW216512   0.738   2.764  10.695 -0.5234 -1.0036 -0.1906
 1626SOL     OW16513   2.838   0.526   8.794  0.0336 -0.7558  0.3245
 1626SOL    HW116514   2.787   0.446   8.806 -1.1902 -0.1842 -1.0875
 1626SOL    HW216515   2.926   0.489   8.789  0.8746  1.0577  1.6567
 1627SOL     OW16516   0.950   3.640   5.146 -0.0360  0.6914  0.5283
 1627SOL    HW116517   0.976   3.549   5.131 -0.2679  0.2975  2.4862
 1627SOL    HW216518   1.041   3.670   5.151  1.1113 -2.5807 -0.8006
 1628SOL     OW16519   4.386   2.392   7.795  0.1625 -0.0288 -0.0060
 1628SOL    HW116520   4.405   2.302   7.823  1.2944 -0.2102 -1.3759
 1628SOL    HW216521   4.293   2.408   7.811 -0.3187 -0.0411 -2.8042
 1629SOL     OW16522   2.357   4.573   1.123  0.4702  0.1167  0.8339
 1629SOL    HW116523   2.404   4.580   1.040 -1.9301  1.6451 -0.3792
 1629SOL    HW216524   2.275   4.545   1.085  2.2013 -3.1665 -0.4669
 1630SOL     OW16525   3.097   4.032   5.404  0.0916  0.4732 -0.4703
 1630SOL    HW116526   3.070   4.036   5.313 -2.2102  0.9847  0.2396
 1630SOL    HW216527   3.077   3.945   5.438  1.1789 -0.6836 -2.7767
 1631SOL     OW16528   3.563   0.671  13.137  0.7109  0.1690 -0.2062
 1631SOL    HW116529   3.584   0.746  13.193  0.7027 -1.2500  1.7270
 1631SOL    HW216530   3.545   0.719  13.057  2.6249 -0.4913 -1.0359
 1632SOL     OW16531   1.079   2.143   6.579 -0.8374 -0.2315  0.0628
 1632SOL    HW116532   1.167   2.179   6.591 -1.5430  0.6639  2.7848
 1632SOL    HW216533   1.047   2.164   6.491 -2.0580 -0.7477  0.3745
 1633SOL     OW16534   1.787   4.366  12.749 -0.1203  0.3916 -0.2052
 1633SOL    HW116535   1.793   4.275  12.719 -0.9958  1.0182 -2.2867
 1633SOL    HW216536   1.692   4.377  12.752 -0.0026  1.1962  0.4033
 1634SOL     OW16537   3.426   0.591   6.193  0.3943  0.0627  0.5899
 1634SOL    HW116538   3.429   0.678   6.232 -0.8125  0.0556  0.6960
 1634SOL    HW216539   3.408   0.538   6.271 -1.5210  1.1634  0.8772
 1635SOL     OW16540   4.248   1.837   6.002  0.0625  0.1928  0.3360
 1635SOL    HW116541   4.335   1.872   5.981  0.3664 -1.4823 -1.1636
 1635SOL    HW216542   4.196   1.893   5.944 -0.6277 -1.3140 -0.4854
 1636SOL     OW16543   1.058   0.020  16.711  0.7733 -0.2109  0.1516
 1636SOL    HW116544   1.121   0.081  16.672  0.3593 -0.7366 -1.3164
 1636SOL    HW216545   0.999   0.079  16.758  0.7440  1.8683 -2.5075
 1637SOL     OW16546   2.299   1.845   4.200  0.7100  0.0603  0.7647
 1637SOL    HW116547   2.226   1.870   4.257  1.0059  0.9408  0.7673
 1637SOL    HW216548   2.356   1.921   4.210  0.7767  0.1301 -0.1696
 1638SOL     OW16549   0.512   2.895   0.925  0.2395  0.1525 -0.2723
 1638SOL    HW116550   0.546   2.931   0.844  1.6164  0.3466  0.3959
 1638SOL    HW216551   0.513   2.801   0.905 -0.7142  0.1013 -0.0734
 1639SOL     OW16552   1.126   1.776  15.129 -0.3349 -0.3702 -0.2700
 1639SOL    HW116553   1.206   1.729  15.107 -0.3358 -0.0648 -0.9293
 1639SOL    HW216554   1.128   1.855  15.075 -3.5819  0.5212  0.8581
 1640SOL     OW16555   0.187   3.232   9.226  0.2053 -0.2348  0.3892
 1640SOL    HW116556   0.129   3.187   9.287 -2.5260  1.0010 -1.2861
 1640SOL    HW216557   0.270   3.210   9.268  0.5769 -2.0233 -1.2507
 1641SOL     OW16558   2.002   3.448   8.460  0.2090  0.0568 -0.0304
 1641SOL    HW116559   1.949   3.376   8.496  0.2872  0.2528  0.4810
 1641SOL    HW216560   1.992   3.504   8.537  2.4196 -0.3264  0.5368
 1642SOL     OW16561   1.730   3.117   2.288 -0.2149  0.0064 -0.3695
 1642SOL    HW116562   1.740   3.029   2.323  0.7906  0.5916  0.8245
 1642SOL    HW216563   1.821   3.148   2.290 -1.4494  3.5525  0.5999
 1643SOL     OW16564   0.017   2.396   1.874 -0.9800 -0.1497  0.3962
 1643SOL    HW116565   4.702   2.476   1.885 -1.5499 -0.4151 -0.3468
 1643SOL    HW216566   0.053   2.393   1.963  0.6755  1.3546 -0.2204
 1644SOL     OW16567   1.947   3.995  10.162 -0.0991  0.1670 -0.7005
 1644SOL    HW116568   1.990   4.041  10.234  3.1232 -1.1802 -1.7853
 1644SOL    HW216569   2.015   4.000  10.095  1.0429 -1.9779  0.3083
 1645SOL     OW16570   4.164   1.602   5.862 -0.1677 -0.0981 -0.5506
 1645SOL    HW116571   4.243   1.563   5.824 -1.1240 -1.3988 -1.2457
 1645SOL    HW216572   4.181   1.696   5.861  1.3833 -0.3861 -1.3566
 1646SOL     OW16573   1.127   0.647  11.897  0.1083  0.0138  0.5239
 1646SOL    HW116574   1.107   0.661  11.990  1.0497 -0.7099  0.8409
 1646SOL    HW216575   1.072   0.569  11.888 -0.2144  0.4044 -0.8739
 1647SOL     OW16576   0.875   0.810   4.814  0.4502 -0.1085 -0.3674
 1647SOL    HW116577   0.940   0.870   4.850 -0.4604  1.8162 -1.9800
 1647SOL    HW216578   0.804   0.830   4.874  0.1475 -1.5687 -0.2235
 1648SOL     OW16579   4.467   2.436   2.355 -0.3794 -0.0597 -0.2002
 1648SOL    HW116580   4.424   2.520   2.375  0.9658  0.8300 -1.0546
 1648SOL    HW216581   4.430   2.426   2.267 -0.7493  1.4559 -0.2244
 1649SOL     OW16582   0.323   0.705  12.588  0.0536  0.7210  0.1918
 1649SOL    HW116583   0.312   0.614  12.559  0.7299 -0.1441  2.6747
 1649SOL    HW216584   0.255   0.711  12.655 -1.5042 -0.4229 -1.2644
 1650SOL     OW16585   4.017   1.838   5.624  0.3344 -0.4956  0.2591
 1650SOL    HW116586   3.966   1.912   5.658  0.0446 -1.4009  1.8097
 1650SOL    HW216587   4.108   1.847   5.653 -0.9668  0.3412  4.1326
 1651SOL     OW16588   3.279   0.086   5.869  0.3657  0.0894 -0.2984
 1651SOL    HW116589   3.252   0.144   5.797  0.6238 -0.4725 -0.8502
 1651SOL    HW216590   3.321   0.017   5.819  1.8457  0.0679  0.9952
 1652SOL     OW16591   2.484   4.175  12.460  0.4326 -0.4262 -0.0126
 1652SOL    HW116592   2.551   4.173  12.392  0.8180  0.2662  0.3492
 1652SOL    HW216593   2.525   4.120  12.527  0.9454 -1.6524 -1.3254
 1653SOL     OW16594   2.579   3.419  14.693 -0.7371 -0.4541  0.5516
 1653SOL    HW116595   2.518   3.471  14.641 -0.7613 -1.5926 -0.5602
 1653SOL    HW216596   2.576   3.339  14.640 -0.8562 -0.2008  0.1768
 1654SOL     OW16597   0.445   0.464  15.421 -0.4784 -0.0418 -1.2994
 1654SOL    HW116598   0.478   0.517  15.347 -1.1373  0.8198 -0.9756
 1654SOL    HW216599   0.387   0.411  15.366  0.1482  0.3476 -2.3550
 1655SOL     OW16600   1.985   4.639   9.469  0.1850 -0.1506 -0.5348
 1655SOL    HW116601   1.959   4.569   9.409  2.2275  0.1410 -1.7545
 1655SOL    HW216602   1.895   4.670   9.479 -0.5425 -2.1470 -0.7861
 1656SOL     OW16603   4.358   4.256   3.451 -0.3729  0.0139 -0.1798
 1656SOL    HW116604   4.382   4.190   3.516  1.4993 -1.4046 -2.2928
 1656SOL    HW216605   4.263   4.247   3.450 -0.5228  1.6137  0.5007
 1657SOL     OW16606   1.750   3.425   5.215 -0.1996  0.1830 -0.1779
 1657SOL    HW116607   1.790   3.424   5.301 -1.3182 -0.8350  0.3389
 1657SOL    HW216608   1.816   3.402   5.149  0.0131 -1.7227  0.7033
 1658SOL     OW16609   0.219   1.059   8.557 -0.1935  0.7909  0.2451
 1658SOL    HW116610   0.246   1.122   8.491  2.4322  1.6072  2.0929
 1658SOL    HW216611   0.307   1.031   8.584  0.3956  1.6143 -0.8550
 1659SOL     OW16612   2.717   1.571   1.661 -0.3795 -0.8026 -0.5181
 1659SOL    HW116613   2.790   1.580   1.723  1.3750 -0.0250 -2.6686
 1659SOL    HW216614   2.748   1.569   1.570 -0.5886  0.8315 -0.6213
 1660SOL     OW16615   0.504   0.709   2.048  0.6913  0.0641  0.0387
 1660SOL    HW116616   0.492   0.650   1.973  0.7221  2.8031 -2.1349
 1660SOL    HW216617   0.442   0.774   2.014 -0.2657 -1.6594 -1.5157
 1661SOL     OW16618   0.257   1.123   6.383  0.1783 -0.2797  0.2558
 1661SOL    HW116619   0.164   1.118   6.363  0.5612 -0.9813 -1.3303
 1661SOL    HW216620   0.297   1.143   6.298  0.6906  0.7448  0.7362
 1662SOL     OW16621   2.910   0.611   1.797  0.0734 -0.0918  0.3841
 1662SOL    HW116622   2.885   0.615   1.889  0.2850 -0.0845  0.4427
 1662SOL    HW216623   2.920   0.706   1.789 -1.6040 -0.0707 -1.5193
 1663SOL     OW16624   3.023   2.536   1.203 -0.2907 -0.0280  0.2391
 1663SOL    HW116625   2.945   2.496   1.165 -0.6313  0.0595  0.8578
 1663SOL    HW216626   3.048   2.592   1.129  2.5826 -1.2266  0.3072
 1664SOL     OW16627   1.495   0.294   5.917  0.3040  0.1528 -0.3883
 1664SOL    HW116628   1.570   0.349   5.896  1.6263 -1.4239  0.1962
 1664SOL    HW216629   1.505   0.230   5.846 -1.7140  0.7411 -1.1949
 1665SOL     OW16630   2.786   0.062  13.004 -0.1127 -0.0171  0.7167
 1665SOL    HW116631   2.792   0.157  12.988 -1.2182 -0.0282  0.2354
 1665SOL    HW216632   2.841   0.033  12.931 -0.5988  0.1919  0.2638
 1666SOL     OW16633   3.160   4.074   5.114  0.1653 -0.0108  0.2725
 1666SOL    HW116634   3.229   4.139   5.105 -2.0000  1.8617 -2.5213
 1666SOL    HW216635   3.203   4.002   5.160 -2.8832  1.1565  4.9931
 1667SOL     OW16636   0.666   2.254   8.482  0.2332 -0.1100 -0.3589
 1667SOL    HW116637   0.611   2.299   8.418 -1.5715 -2.0016 -0.1275
 1667SOL    HW216638   0.728   2.326   8.489  0.6773 -0.7130  1.9622
 1668SOL     OW16639   0.693   4.707   4.885 -0.0838  0.0028 -0.1347
 1668SOL    HW116640   0.720   4.616   4.885 -0.6455 -0.1592  0.7508
 1668SOL    HW216641   0.782   4.728   4.855 -0.0022 -2.1023 -1.3047
 1669SOL     OW16642   1.384   4.665   6.491 -0.2513  0.2788  0.7136
 1669SOL    HW116643   1.432   4.583   6.500  0.7373  0.4585 -3.2891
 1669SOL    HW216644   1.310   4.635   6.437  0.0406 -0.4074  0.7030
 1670SOL     OW16645   0.193   4.487   5.787 -0.3566 -0.2714  0.0916
 1670SOL    HW116646   0.209   4.482   5.693  0.3734 -1.4492  0.2881
 1670SOL    HW216647   0.235   4.407   5.817  0.4732 -0.4880 -1.6453
 1671SOL     OW16648   3.962   3.670   7.205 -0.5085 -0.7962  0.0858
 1671SOL    HW116649   3.975   3.625   7.289 -0.8843  3.0026  2.1359
 1671SOL    HW216650   3.869   3.683   7.220 -0.2714 -0.5729  1.3336
 1672SOL     OW16651   4.146   4.231   5.319 -0.6212  0.1137  0.6687
 1672SOL    HW116652   4.075   4.172   5.293  1.1356 -0.8167 -2.0548
 1672SOL    HW216653   4.218   4.211   5.260 -0.3068  2.5756  0.2352
 1673SOL     OW16654   0.983   4.174   7.831  0.3431  0.2308  0.3269
 1673SOL    HW116655   0.977   4.267   7.808  0.0717  0.2633  0.5414
 1673SOL    HW216656   0.927   4.140   7.761  1.7317  1.2910 -1.3279
 1674SOL     OW16657   2.664   1.567   2.074 -0.3632 -0.3871  0.0119
 1674SOL    HW116658   2.708   1.481   2.071  1.8931  0.6764  3.2213
 1674SOL    HW216659   2.679   1.581   1.980 -0.2280  1.2979  0.2933
 1675SOL     OW16660   2.982   0.104   5.109 -0.7604 -0.3154  0.4323
 1675SOL    HW116661   2.998   0.055   5.190  0.1586  0.1779  0.5568
 1675SOL    HW216662   3.055   0.087   5.050 -1.7181 -0.2817 -0.7491
 1676SOL     OW16663   2.731   0.061   3.895  0.2972 -0.5696  0.0404
 1676SOL    HW116664   2.652   0.059   3.841  0.9165 -3.0447 -0.7450
 1676SOL    HW216665   2.797   0.073   3.827 -0.6361 -1.6362 -1.0333
 1677SOL     OW16666   0.232   4.241   8.450  0.1497 -0.0347  0.3262
 1677SOL    HW116667   0.285   4.240   8.529  1.1483 -2.9483 -0.3899
 1677SOL    HW216668   0.286   4.174   8.408  2.5058  0.9330  1.7909
 1678SOL     OW16669   1.940   2.872   8.906  0.7846  0.1445  0.0166
 1678SOL    HW116670   1.919   2.947   8.961  0.4577 -0.0261  0.1221
 1678SOL    HW216671   2.027   2.900   8.877  1.0819  0.8553  1.6186
 1679SOL     OW16672   0.332   4.001  13.963  0.0218  0.7825  0.1561
 1679SOL    HW116673   0.280   3.981  14.041  1.0388 -0.6157  0.4764
 1679SOL    HW216674   0.301   3.936  13.899  1.2804  0.1656  0.1609
 1680SOL     OW16675   4.550   3.334  15.433  0.2326 -0.6472 -0.5156
 1680SOL    HW116676   4.589   3.255  15.394  2.9430  0.1418  0.6058
 1680SOL    HW216677   4.481   3.369  15.376  0.2254 -0.4804 -0.4040
 1681SOL     OW16678   1.298   1.939   5.770  0.4827  0.1787  0.0366
 1681SOL    HW116679   1.224   1.965   5.826 -1.2149  1.3467 -2.7401
 1681SOL    HW216680   1.250   1.888   5.704 -0.5213  0.1925  0.7472
 1682SOL     OW16681   2.704   2.049  17.467  0.1409  0.6096  0.0156
 1682SOL    HW116682   2.691   2.092  17.552 -3.0822  2.2465 -1.3111
 1682SOL    HW216683   2.787   2.009  17.492 -0.4792  0.4466  1.8222
 1683SOL     OW16684   4.269   3.125   9.087  0.2388  0.4588  0.5178
 1683SOL    HW116685   4.244   3.143   9.178  0.1687  0.4580  0.4985
 1683SOL    HW216686   4.202   3.180   9.047 -0.3151  0.4362  1.4283
 1684SOL     OW16687   0.475   1.976  14.191 -0.1158  0.2808 -0.3229
 1684SOL    HW116688   0.529   2.051  14.214 -0.7736 -0.2664  2.8814
 1684SOL    HW216689   0.418   2.015  14.124 -2.7302  0.3352  1.9206
 1685SOL     OW16690   3.470   3.159   3.300 -0.0001  0.3445 -0.1456
 1685SOL    HW116691   3.433   3.201   3.378  1.6041  0.4136  0.5652
 1685SOL    HW216692   3.467   3.067   3.326 -0.2512  0.7101  1.1243
 1686SOL     OW16693   2.108   3.138   2.665  0.1191  0.1205  0.4562
 1686SOL    HW116694   2.167   3.155   2.592  0.0823 -1.0681  0.1439
 1686SOL    HW216695   2.109   3.229   2.694  4.4366 -0.0359  0.8568
 1687SOL     OW16696   1.082   0.450   2.951 -0.5345  0.0526 -0.3195
 1687SOL    HW116697   1.013   0.397   2.991  0.2151 -1.6186 -1.2406
 1687SOL    HW216698   1.144   0.388   2.912  0.7532  1.7124 -0.9186
 1688SOL     OW16699   3.710   1.302   9.266 -0.4566  0.3731  0.3212
 1688SOL    HW116700   3.676   1.343   9.186  1.8724  2.0831  0.1943
 1688SOL    HW216701   3.800   1.335   9.271 -0.8222  1.4099  0.1441
 1689SOL     OW16702   0.517   1.030  12.354 -0.0290 -0.0569 -0.4608
 1689SOL    HW116703   0.440   0.974  12.347  0.1875 -0.5598  1.3093
 1689SOL    HW216704   0.585   1.001  12.293  1.6418 -1.0033  1.8614
 1690SOL     OW16705   0.738   0.607   9.901  0.1063  0.2470 -0.2653
 1690SOL    HW116706   0.766   0.569   9.984 -0.6236 -0.4142 -0.3155
 1690SOL    HW216707   0.756   0.544   9.830 -2.0517 -0.3589 -0.2776
 1691SOL     OW16708   0.039   2.488   5.196  0.1587 -0.2682  0.0914
 1691SOL    HW116709   0.068   2.459   5.109  0.7971 -0.1486  0.2652
 1691SOL    HW216710   4.718   2.419   5.229  1.8271 -1.3591  0.6857
 1692SOL     OW16711   2.896   2.265  14.551  0.1912 -0.4958 -0.4135
 1692SOL    HW116712   2.964   2.306  14.604 -1.3278 -0.6897  1.7072
 1692SOL    HW216713   2.862   2.343  14.507 -1.5232 -0.0399  1.6973
 1693SOL     OW16714   2.541   1.136  15.399 -0.3472  0.2549 -0.7272
 1693SOL    HW116715   2.620   1.176  15.363  0.8821  0.1920  1.8809
 1693SOL    HW216716   2.562   1.153  15.491 -1.8862 -0.2581 -0.2874
 1694SOL     OW16717   2.074   4.388   8.947  0.5099  0.0675 -0.4158
 1694SOL    HW116718   2.143   4.339   8.902 -0.7095 -0.4419 -1.7625
 1694SOL    HW216719   2.125   4.446   9.002  0.4444 -1.1767  0.9425
 1695SOL     OW16720   1.592   4.321   3.677  0.1997 -0.3013  0.3123
 1695SOL    HW116721   1.528   4.389   3.700 -0.9972 -1.3065 -0.0370
 1695SOL    HW216722   1.628   4.296   3.762 -0.3242  0.2300  0.6972
 1696SOL     OW16723   3.714   3.697   7.342  0.5510  0.1430 -0.2241
 1696SOL    HW116724   3.749   3.759   7.405  1.5918  0.1620 -0.8272
 1696SOL    HW216725   3.649   3.649   7.395  1.0552 -0.2602  0.0284
 1697SOL     OW16726   2.229   4.271  12.362  0.4354 -0.0767 -0.8316
 1697SOL    HW116727   2.266   4.358  12.376  2.2359 -0.9894  0.1477
 1697SOL    HW216728   2.296   4.207  12.385  0.8380  0.8589  0.6418
 1698SOL     OW16729   0.537   4.586   1.011  0.1260  0.1293  0.0378
 1698SOL    HW116730   0.459   4.637   0.991  0.1460  1.1536  2.5175
 1698SOL    HW216731   0.508   4.550   1.095  0.3201 -1.2600 -0.4850
 1699SOL     OW16732   1.750   1.081  10.578 -0.1634 -0.7929 -0.1400
 1699SOL    HW116733   1.808   1.039  10.642 -0.0997 -0.4141  0.0486
 1699SOL    HW216734   1.729   1.166  10.616  1.2226 -1.1034  1.3125
 1700SOL     OW16735   0.176   2.074   2.895  0.8233 -0.4300  0.0157
 1700SOL    HW116736   0.245   2.046   2.835 -0.1050 -0.7643 -0.8950
 1700SOL    HW216737   0.103   2.053   2.836 -0.7925  2.6461  0.9468
 1701SOL     OW16738   2.900   3.730   2.378 -0.6181  0.4682  0.2498
 1701SOL    HW116739   2.993   3.737   2.397 -0.6241 -1.0596  0.9237
 1701SOL    HW216740   2.858   3.761   2.458 -2.1775  0.7805 -0.6911
 1702SOL     OW16741   3.008   3.589   6.842  0.0762  0.2067 -0.3856
 1702SOL    HW116742   3.080   3.542   6.884  0.3717  2.1809  1.2990
 1702SOL    HW216743   3.023   3.683   6.849 -1.4813  0.4631 -0.3391
 1703SOL     OW16744   0.711   0.718   6.836  0.1206  0.2068 -0.0692
 1703SOL    HW116745   0.646   0.745   6.901  1.3393  1.4188  0.6337
 1703SOL    HW216746   0.789   0.758   6.875  1.1254 -0.4196 -1.4435
 1704SOL     OW16747   4.176   1.342   2.652  0.3272 -0.3505  0.0668
 1704SOL    HW116748   4.089   1.340   2.611 -0.4560  1.6297  1.6244
 1704SOL    HW216749   4.145   1.336   2.743  1.2377 -0.2918  0.3765
 1705SOL     OW16750   0.727   2.423   4.049 -0.6204 -0.6091 -0.0266
 1705SOL    HW116751   0.746   2.484   3.978 -0.8440 -0.2588  0.2208
 1705SOL    HW216752   0.637   2.392   4.032 -1.0685  0.1180  1.0648
 1706SOL     OW16753   3.722   0.905   9.239  0.4056 -0.3545  0.2378
 1706SOL    HW116754   3.665   0.828   9.245  0.0815 -0.2060 -0.8855
 1706SOL    HW216755   3.804   0.865   9.211 -0.8611 -2.0411 -1.0041
 1707SOL     OW16756   1.891   1.712  10.811  0.3707  0.3180 -0.3928
 1707SOL    HW116757   1.941   1.631  10.825  0.7498  0.5806 -0.2278
 1707SOL    HW216758   1.957   1.773  10.779 -0.5974  2.2052  1.2223
 1708SOL     OW16759   0.557   1.871   4.556 -0.0508 -1.1285 -0.0852
 1708SOL    HW116760   0.501   1.937   4.513 -0.9625 -2.1770 -0.5200
 1708SOL    HW216761   0.641   1.909   4.531 -1.7219  1.3740 -1.9382
 1709SOL     OW16762   2.904   1.127   3.729  0.3240 -0.5573  0.1780
 1709SOL    HW116763   2.845   1.059   3.697 -0.0212 -0.1318 -0.0986
 1709SOL    HW216764   2.859   1.212   3.726  0.1022 -0.6132  2.1732
 1710SOL     OW16765   3.465   2.213   6.556 -0.3813  0.1845  0.8886
 1710SOL    HW116766   3.545   2.196   6.606  0.0581  2.4561  0.9256
 1710SOL    HW216767   3.507   2.228   6.471 -0.8162  1.5127  0.9107
 1711SOL     OW16768   1.380   2.198   4.394 -0.0558  0.2679 -0.7223
 1711SOL    HW116769   1.380   2.285   4.355 -0.7314  0.6106  0.0434
 1711SOL    HW216770   1.446   2.153   4.341 -1.2553  0.4905 -2.4056
 1712SOL     OW16771   1.699   0.653   7.072 -0.2751  0.2801  0.0261
 1712SOL    HW116772   1.740   0.575   7.036 -0.8444  1.1656 -2.5420
 1712SOL    HW216773   1.622   0.663   7.016 -0.7638 -2.3228  0.2276
 1713SOL     OW16774   0.113   2.049   3.951  0.0584  0.1884  0.0673
 1713SOL    HW116775   0.074   2.005   4.026 -0.6146  0.0298 -0.3802
 1713SOL    HW216776   0.183   1.988   3.926 -1.1903 -0.9877 -0.4990
 1714SOL     OW16777   0.762   2.417  14.194  0.2621  0.0139 -0.0022
 1714SOL    HW116778   0.851   2.394  14.219 -0.9370 -2.4984  1.9437
 1714SOL    HW216779   0.738   2.458  14.277  1.6220  1.9183 -0.5438
 1715SOL     OW16780   0.566   2.366  13.488  0.0121 -0.4233  0.4122
 1715SOL    HW116781   0.656   2.397  13.498  0.5906 -1.7304 -0.7420
 1715SOL    HW216782   0.586   2.273  13.477  0.4540  0.2889 -4.6233
 1716SOL     OW16783   0.126   2.012  12.917  0.8378 -0.3713 -0.1753
 1716SOL    HW116784   0.085   1.963  12.846 -1.4197  0.1393  0.7691
 1716SOL    HW216785   0.187   1.948  12.954  1.4661  1.8935  2.7588
 1717SOL     OW16786   3.642   3.907  11.968 -0.6986 -0.8468 -0.5850
 1717SOL    HW116787   3.571   3.928  12.029 -0.9336  0.7960 -1.4174
 1717SOL    HW216788   3.601   3.915  11.882  1.1233  1.5597 -1.2382
 1718SOL     OW16789   0.776   3.353  17.150 -0.7412  0.3436 -0.2808
 1718SOL    HW116790   0.696   3.344  17.098  0.1510  0.3298 -1.6483
 1718SOL    HW216791   0.821   3.271  17.131 -2.5757 -0.9251  0.7811
 1719SOL     OW16792   3.967   1.936  15.610 -0.4278 -0.1380  0.2342
 1719SOL    HW116793   4.037   1.887  15.568 -1.3694 -1.0791 -0.2301
 1719SOL    HW216794   3.934   1.992  15.539  0.3149 -1.0982 -0.8523
 1720SOL     OW16795   2.326   1.221  16.666 -0.0076 -0.3231 -0.2712
 1720SOL    HW116796   2.313   1.130  16.639  0.4117 -0.0486 -1.3882
 1720SOL    HW216797   2.268   1.229  16.742 -0.1284  1.4949 -0.5619
 1721SOL     OW16798   3.715   3.327   4.143  0.5780  0.3925 -0.2294
 1721SOL    HW116799   3.810   3.319   4.148  0.4495 -1.1329 -0.2842
 1721SOL    HW216800   3.713   3.412   4.099 -2.0269  0.1213 -0.6789
 1722SOL     OW16801   0.966   3.947  16.443  0.1206  0.1792 -0.2727
 1722SOL    HW116802   0.982   3.943  16.537  0.3980 -1.2752 -0.3734
 1722SOL    HW216803   1.044   3.989  16.407  0.8380 -0.3996  0.6149
 1723SOL     OW16804   4.519   1.340   1.908  0.5149  0.5097 -0.1672
 1723SOL    HW116805   4.467   1.321   1.830  0.8155  2.3181 -0.8025
 1723SOL    HW216806   4.463   1.392   1.965  1.9405 -0.7612  2.4023
 1724SOL     OW16807   2.678   2.259  14.766  0.3764 -0.1883  0.0370
 1724SOL    HW116808   2.743   2.245  14.698  1.0970 -1.1074  0.9190
 1724SOL    HW216809   2.722   2.319  14.826  0.5461  0.0152 -0.2921
 1725SOL     OW16810   1.858   0.272   1.227 -0.1175  0.0026 -0.2627
 1725SOL    HW116811   1.808   0.264   1.145  0.5658  0.6497 -0.7474
 1725SOL    HW216812   1.836   0.360   1.257  1.3229  0.3425 -0.2248
 1726SOL     OW16813   0.673   0.938   2.281 -0.3622 -0.4214 -0.2927
 1726SOL    HW116814   0.749   0.906   2.232 -1.6206 -3.2592 -0.3570
 1726SOL    HW216815   0.714   1.000   2.342  1.4607 -0.3846 -1.5412
 1727SOL     OW16816   0.063   1.250   3.483 -0.3880  0.1700  0.2935
 1727SOL    HW116817   0.120   1.213   3.416  0.2420 -1.2962  1.6354
 1727SOL    HW216818   0.095   1.209   3.563  1.2008  1.9111  0.5471
 1728SOL     OW16819   4.028   3.871  10.572  0.2192 -0.0886  0.2438
 1728SOL    HW116820   3.933   3.878  10.581  0.0768  0.1159 -1.4647
 1728SOL    HW216821   4.063   3.903  10.655 -1.4735 -0.9084  1.2696
 1729SOL     OW16822   2.044   1.104   9.371 -0.6718 -0.1252  0.0777
 1729SOL    HW116823   1.966   1.159   9.363 -0.8449 -0.3248  0.3558
 1729SOL    HW216824   2.008   1.027   9.416 -0.1759 -0.4258 -0.0458
 1730SOL     OW16825   0.923   1.530   4.413  0.1925 -0.6976 -0.1231
 1730SOL    HW116826   0.909   1.514   4.506 -0.0010  0.0339 -0.0268
 1730SOL    HW216827   0.897   1.445   4.376 -3.4103  0.5242 -0.4659
 1731SOL     OW16828   0.629   3.084  11.578 -0.3864  0.1050 -0.3394
 1731SOL    HW116829   0.656   3.124  11.495  0.7171  0.2998  0.1212
 1731SOL    HW216830   0.618   3.155  11.641  0.9609 -0.4772  0.5352
 1732SOL     OW16831   2.796   1.992   1.659 -0.3675 -0.5054 -0.2800
 1732SOL    HW116832   2.740   1.917   1.676  0.7685 -1.0584  0.9774
 1732SOL    HW216833   2.753   2.041   1.588 -0.8748 -0.4580  0.0569
 1733SOL     OW16834   2.568   3.498  11.474 -0.4120 -0.1354 -0.0407
 1733SOL    HW116835   2.597   3.562  11.409 -0.5338 -0.5534 -0.5035
 1733SOL    HW216836   2.476   3.496  11.449 -0.0155  0.1378 -1.5276
 1734SOL     OW16837   4.041   2.243   5.860 -0.2011  0.0574 -0.1846
 1734SOL    HW116838   3.985   2.314   5.830  0.6699  0.2458 -1.3700
 1734SOL    HW216839   4.083   2.224   5.777 -1.1844 -0.2720 -0.6014
 1735SOL     OW16840   2.046   0.050  10.069 -0.0627 -0.0528 -1.2843
 1735SOL    HW116841   2.105   0.017  10.137 -0.4124 -1.4671 -1.6776
 1735SOL    HW216842   2.056   4.720  10.001 -0.1236 -1.3212 -0.0600
 1736SOL     OW16843   3.433   2.627   8.708  0.4054 -0.0335 -0.1109
 1736SOL    HW116844   3.450   2.673   8.791  1.2045 -1.0295  0.2795
 1736SOL    HW216845   3.470   2.543   8.735  1.0812  0.3051  0.0430
 1737SOL     OW16846   4.513   4.193   1.454 -0.3096 -0.2578  0.2328
 1737SOL    HW116847   4.453   4.124   1.426  0.1108 -1.0442  1.2870
 1737SOL    HW216848   4.538   4.158   1.539 -0.0288 -1.0858 -0.1977
 1738SOL     OW16849   1.129   0.166   1.396  0.6198  0.2825 -0.1437
 1738SOL    HW116850   1.088   0.123   1.471  0.7947 -0.1217 -0.2810
 1738SOL    HW216851   1.155   0.099   1.333  2.1189  3.2662 -2.7125
 1739SOL     OW16852   3.262   3.926  13.956 -0.1762 -0.1112 -0.1732
 1739SOL    HW116853   3.313   3.847  13.939 -1.2219 -0.5682 -1.2474
 1739SOL    HW216854   3.176   3.884  13.951 -0.7989  0.9593  1.4317
 1740SOL     OW16855   2.340   2.325  14.581  0.1658  0.4912 -0.5098
 1740SOL    HW116856   2.407   2.392  14.567 -1.8974  2.0603 -2.7952
 1740SOL    HW216857   2.318   2.309  14.489 -1.3758 -0.1620 -0.0292
 1741SOL     OW16858   3.570   2.217   0.265 -0.0378  0.2357  0.0808
 1741SOL    HW116859   3.550   2.124   0.256 -0.7656  0.4490 -0.5660
 1741SOL    HW216860   3.553   2.251   0.353 -0.1357 -0.8514  0.4761
 1742SOL     OW16861   3.735   2.219   3.868  0.3344 -0.6390  0.5084
 1742SOL    HW116862   3.705   2.128   3.876 -1.3215 -0.1479 -0.1200
 1742SOL    HW216863   3.691   2.246   3.787 -0.0483 -1.2710  0.5029
 1743SOL     OW16864   4.054   2.155   5.288 -0.8419  0.1393 -0.3369
 1743SOL    HW116865   3.961   2.141   5.305 -1.0794 -0.1549 -1.9406
 1743SOL    HW216866   4.085   2.072   5.252 -0.4315 -0.3298  1.1129
 1744SOL     OW16867   4.643   3.062  11.417 -0.4792 -0.2005  0.0511
 1744SOL    HW116868   4.620   3.084  11.327  1.1186 -0.4128 -0.4137
 1744SOL    HW216869   4.619   3.138  11.470  0.4568  0.1150  0.0171
 1745SOL     OW16870   2.985   0.407   4.076 -0.5053  0.1794 -0.6207
 1745SOL    HW116871   3.069   0.430   4.036 -0.2810  0.1070 -0.1914
 1745SOL    HW216872   2.937   0.378   3.998 -3.6046  1.8947  0.6596
 1746SOL     OW16873   4.730   0.690   3.374 -0.3533  0.2419  0.1680
 1746SOL    HW116874   0.029   0.673   3.287 -0.3326 -1.4179  0.4928
 1746SOL    HW216875   4.714   0.784   3.365 -0.5134 -0.0192 -2.3488
 1747SOL     OW16876   3.943   1.211   3.858  0.5118  0.1218 -0.1544
 1747SOL    HW116877   3.853   1.180   3.872  0.3628  0.1945 -0.9712
 1747SOL    HW216878   3.933   1.260   3.777 -0.1002  0.4042  0.0905
 1748SOL     OW16879   3.821   1.657   1.916 -0.1326  0.0101 -0.1087
 1748SOL    HW116880   3.798   1.749   1.926 -1.3697 -0.0195 -2.6031
 1748SOL    HW216881   3.736   1.620   1.892 -0.9945  2.4260 -0.8281
 1749SOL     OW16882   0.295   2.238  13.567 -0.0601  0.2043 -0.1079
 1749SOL    HW116883   0.317   2.329  13.548 -0.7344  0.6513  1.2090
 1749SOL    HW216884   0.306   2.221  13.474  0.2604 -0.7649  0.1122
 1750SOL     OW16885   4.556   4.321   5.997 -0.4025  0.4565 -0.2299
 1750SOL    HW116886   4.571   4.289   6.086 -0.8728  1.3281  0.1586
 1750SOL    HW216887   4.619   4.392   5.985 -1.8377  1.5328 -1.2988
 1751SOL     OW16888   1.510   1.087   6.849  0.2647  0.2043 -0.1859
 1751SOL    HW116889   1.514   1.181   6.866 -0.6902 -0.0864  1.6668
 1751SOL    HW216890   1.576   1.048   6.908  0.0599 -0.2393 -0.2506
 1752SOL     OW16891   2.349   1.567   4.251  0.5108  0.4758  0.0670
 1752SOL    HW116892   2.257   1.544   4.236  0.1477  1.6781  0.4700
 1752SOL    HW216893   2.349   1.663   4.252 -0.7102  0.4732  1.1221
 1753SOL     OW16894   4.197   1.884  12.223 -0.2011  0.0858 -0.4320
 1753SOL    HW116895   4.271   1.945  12.215  0.3080 -0.5672 -0.6761
 1753SOL    HW216896   4.149   1.935  12.288 -1.2913 -1.0125 -0.3990
 1754SOL     OW16897   4.087   4.140   3.505  0.2891  0.0575 -0.1652
 1754SOL    HW116898   4.048   4.216   3.546  0.2391  1.1152 -2.1904
 1754SOL    HW216899   4.016   4.091   3.463  2.2303 -1.4578 -1.7104
 1755SOL     OW16900   2.527   1.422   4.405  0.0619  0.5288 -0.4008
 1755SOL    HW116901   2.475   1.489   4.360 -2.1804  0.1747  1.6329
 1755SOL    HW216902   2.505   1.343   4.355 -2.6625 -1.3349  3.8208
 1756SOL     OW16903   1.640   2.454  16.998 -0.0581  0.3643 -0.0979
 1756SOL    HW116904   1.708   2.520  16.980  0.7357 -0.4696 -0.1298
 1756SOL    HW216905   1.570   2.497  16.950 -0.3735  1.9780  1.7671
 1757SOL     OW16906   0.612   3.432   8.763  0.1843 -0.0260  0.5320
 1757SOL    HW116907   0.674   3.505   8.771 -0.5745  0.6101  0.5974
 1757SOL    HW216908   0.526   3.468   8.786 -0.5549 -2.2863  1.3280
 1758SOL     OW16909   3.114   0.866   3.585  0.2127 -0.1756  0.0881
 1758SOL    HW116910   3.072   0.786   3.554  1.3469 -0.5276 -0.5341
 1758SOL    HW216911   3.112   0.848   3.679 -2.5486 -2.0222 -0.3188
 1759SOL     OW16912   4.402   2.297  17.690  0.0471  0.6364  0.1662
 1759SOL    HW116913   4.410   2.327  17.600  2.4111 -0.5460 -0.0232
 1759SOL    HW216914   4.322   2.246  17.683  1.5923 -1.9366  1.0241
 1760SOL     OW16915   0.496   2.586  16.484 -0.3888  0.1536  0.2870
 1760SOL    HW116916   0.582   2.550  16.507 -2.0933 -2.1380  3.0819
 1760SOL    HW216917   0.493   2.666  16.536 -0.0138  1.5171 -1.7572
 1761SOL     OW16918   2.909   4.597   7.021 -0.7269  0.2821 -0.3142
 1761SOL    HW116919   2.934   4.683   6.989  1.7434 -0.2727  0.1523
 1761SOL    HW216920   2.833   4.616   7.077 -0.2202  3.6764 -0.8221
 1762SOL     OW16921   1.559   2.274   5.051  0.2437  0.0225 -0.5039
 1762SOL    HW116922   1.578   2.287   5.144 -2.6504 -3.7711  0.6315
 1762SOL    HW216923   1.528   2.358   5.019 -0.4710 -0.0361  0.0142
 1763SOL     OW16924   0.247   4.357  10.233  0.0004 -0.6439 -0.2862
 1763SOL    HW116925   0.309   4.292  10.202  2.8247  0.7574  2.4614
 1763SOL    HW216926   0.224   4.377  10.142 -0.4244 -0.8748 -0.2323
 1764SOL     OW16927   3.760   1.062  17.341 -0.1857  0.0019  0.1663
 1764SOL    HW116928   3.802   1.032  17.261 -3.0008 -1.2233 -0.8244
 1764SOL    HW216929   3.819   1.030  17.410  0.1157 -0.2037 -0.1883
 1765SOL     OW16930   1.526   3.309  11.789  0.3428  0.1618  0.1743
 1765SOL    HW116931   1.599   3.360  11.825  0.8238 -0.4868  0.1311
 1765SOL    HW216932   1.555   3.276  11.704  2.5266 -0.0486  0.9903
 1766SOL     OW16933   3.044   0.517   6.805  0.0895  0.4643  0.0988
 1766SOL    HW116934   2.993   0.549   6.879 -0.5315  1.0411 -0.5816
 1766SOL    HW216935   2.981   0.500   6.736 -0.1352  0.1967  0.3714
 1767SOL     OW16936   2.645   0.867   4.870  0.7180 -0.3749 -0.0009
 1767SOL    HW116937   2.577   0.894   4.809 -1.5485 -0.7979  2.3320
 1767SOL    HW216938   2.636   0.772   4.874 -0.1537 -0.2190  1.7982
 1768SOL     OW16939   2.794   2.452   5.565 -0.4604 -0.6904 -0.1483
 1768SOL    HW116940   2.717   2.503   5.541  1.0322  0.4037 -2.6161
 1768SOL    HW216941   2.761   2.390   5.631 -1.0127 -0.0826  0.1507
 1769SOL     OW16942   0.365   1.814   9.052  0.3894  0.2296  0.6998
 1769SOL    HW116943   0.295   1.764   9.095  0.5800  3.0738  4.3299
 1769SOL    HW216944   0.338   1.807   8.960 -1.2297 -1.2324  1.2811
 1770SOL     OW16945   3.251   1.804   3.691 -0.0290 -0.5630 -0.0131
 1770SOL    HW116946   3.313   1.877   3.681 -0.2738 -0.2267  1.0035
 1770SOL    HW216947   3.258   1.787   3.785  0.8574  1.4366  0.2724
 1771SOL     OW16948   4.555   0.971   6.613 -0.7385 -0.5848  0.4030
 1771SOL    HW116949   4.595   1.014   6.688  0.4898 -2.3446  0.7548
 1771SOL    HW216950   4.512   0.888   6.636  0.6128 -1.0333  1.2852
 1772SOL     OW16951   0.325   1.110   9.135 -0.8181  0.3848  0.2314
 1772SOL    HW116952   0.284   1.099   9.221 -1.1747 -0.4166 -0.0430
 1772SOL    HW216953   0.292   1.032   9.091  0.1896  0.8657 -1.4084
 1773SOL     OW16954   3.126   0.720   4.359 -0.3278 -0.2827  0.1873
 1773SOL    HW116955   3.071   0.796   4.381 -0.4609 -0.1231 -0.6849
 1773SOL    HW216956   3.052   0.666   4.331 -0.9583 -0.2783  1.8756
 1774SOL     OW16957   2.298   0.837   8.003 -0.5688  0.2352  0.3929
 1774SOL    HW116958   2.287   0.920   8.049 -1.4918  0.2480  0.1353
 1774SOL    HW216959   2.337   0.773   8.063  1.2557  1.6028  0.6805
 1775SOL     OW16960   1.440   2.425   3.202 -0.0055  0.1001 -0.1104
 1775SOL    HW116961   1.397   2.486   3.141 -0.9081 -1.0827 -0.6547
 1775SOL    HW216962   1.473   2.488   3.266  1.0415 -2.7144  2.1163
 1776SOL     OW16963   1.154   2.415   2.233 -0.1558  0.0953 -0.6284
 1776SOL    HW116964   1.064   2.434   2.260  0.0629 -2.3286  1.8395
 1776SOL    HW216965   1.151   2.402   2.138 -0.7659 -0.1501 -0.5703
 1777SOL     OW16966   3.558   0.883  13.319 -0.6423  0.0571  0.0792
 1777SOL    HW116967   3.603   0.808  13.356 -0.1831 -0.6751 -1.9749
 1777SOL    HW216968   3.563   0.937  13.398 -0.2107 -0.7602  0.6104
 1778SOL     OW16969   1.606   2.614   3.328  0.0929 -0.3733 -0.7041
 1778SOL    HW116970   1.649   2.696   3.305  3.1638 -1.8226 -0.0852
 1778SOL    HW216971   1.685   2.561   3.324 -0.4259 -1.3809  2.8120
 1779SOL     OW16972   4.083   1.715   3.160  0.4900  0.0635 -0.0607
 1779SOL    HW116973   4.140   1.765   3.219 -0.4311 -0.4012  1.2322
 1779SOL    HW216974   4.048   1.769   3.090 -0.2137 -0.7470 -0.3334
 1780SOL     OW16975   2.872   4.557   2.218  0.1048 -0.2389 -0.0527
 1780SOL    HW116976   2.888   4.472   2.177 -0.2399 -0.1877 -0.2918
 1780SOL    HW216977   2.783   4.574   2.186  0.9107  3.0259 -0.4900
 1781SOL     OW16978   3.248   1.406   9.142  0.7765 -0.1460 -0.5278
 1781SOL    HW116979   3.173   1.364   9.099 -0.6728  0.0334  1.8268
 1781SOL    HW216980   3.217   1.490   9.176 -0.6699 -1.8441  2.3325
 1782SOL     OW16981   3.671   0.260   2.811 -0.2503 -0.4740 -0.0135
 1782SOL    HW116982   3.752   0.283   2.767 -0.7699  0.7165 -0.3385
 1782SOL    HW216983   3.700   0.204   2.883 -0.5050 -0.9016 -0.2416
 1783SOL     OW16984   4.685   3.417   5.143 -0.0324  0.0476  0.5435
 1783SOL    HW116985   4.665   3.324   5.139 -0.6337  0.2544 -1.2605
 1783SOL    HW216986   4.599   3.457   5.156 -0.2631 -0.3353  0.1564
 1784SOL     OW16987   1.375   0.900   3.446  0.1391  0.5158 -0.1280
 1784SOL    HW116988   1.402   0.992   3.447  1.6667  0.0677  1.4840
 1784SOL    HW216989   1.283   0.898   3.420 -0.2124 -1.1567  1.2405
 1785SOL     OW16990   1.865   1.783   6.265  0.1821  0.6808  0.4931
 1785SOL    HW116991   1.902   1.820   6.185  0.7717  0.9136  0.8738
 1785SOL    HW216992   1.779   1.762   6.230  0.8132 -1.5751  0.2953
 1786SOL     OW16993   4.235   2.444   3.893  0.5897 -0.0160  0.2883
 1786SOL    HW116994   4.329   2.427   3.903  0.5114  0.7356  2.3804
 1786SOL    HW216995   4.220   2.468   3.984 -2.8451  0.2761 -0.3472
 1787SOL     OW16996   4.192   3.928   7.490 -0.3687 -0.3625  0.4944
 1787SOL    HW116997   4.190   3.869   7.415 -0.7379 -1.1844  1.1451
 1787SOL    HW216998   4.110   3.908   7.535 -0.4090 -1.5812 -0.1276
 1788SOL     OW16999   4.722   4.118   7.170  0.4365  0.0253  0.2894
 1788SOL    HW117000   4.670   4.085   7.244 -0.1607 -1.5462 -0.8213
 1788SOL    HW217001   4.725   4.209   7.200 -1.9113 -0.0349  0.7674
 1789SOL     OW17002   1.594   4.157   3.399 -0.8680 -0.2062 -0.3798
 1789SOL    HW117003   1.578   4.227   3.335 -2.7167  0.3918  0.7403
 1789SOL    HW217004   1.580   4.203   3.482 -2.3892  0.1630 -0.8427
 1790SOL     OW17005   3.986   0.431   7.588  0.1883  0.0518 -0.4872
 1790SOL    HW117006   4.073   0.396   7.610  0.4719  0.7072 -0.5545
 1790SOL    HW217007   4.007   0.438   7.495  2.3077  1.5938  0.0970
 1791SOL     OW17008   2.898   4.205   5.924  0.6429  0.6927  0.7395
 1791SOL    HW117009   2.976   4.162   5.958 -0.0443  0.7426  2.3574
 1791SOL    HW217010   2.837   4.131   5.918  2.9993 -1.2993  1.5259
 1792SOL     OW17011   3.305   1.057  15.925 -0.3894  0.3955 -0.5183
 1792SOL    HW117012   3.235   1.122  15.919 -1.4993 -0.9531 -2.2730
 1792SOL    HW217013   3.292   1.026  16.014  1.0656  0.7243 -0.1928
 1793SOL     OW17014   0.825   2.389  13.212 -0.7519 -0.1374 -0.3303
 1793SOL    HW117015   0.775   2.439  13.148 -0.3581 -1.1596 -1.4352
 1793SOL    HW217016   0.839   2.454  13.280 -1.9298 -0.9239  0.6622
 1794SOL     OW17017   2.804   3.549  14.815 -0.5016 -0.3351 -1.2186
 1794SOL    HW117018   2.860   3.586  14.747 -1.8903  0.1656 -2.0983
 1794SOL    HW217019   2.756   3.478  14.772  0.0738 -0.5907 -1.4354
 1795SOL     OW17020   1.583   0.549   3.680  0.1524 -0.4596  0.8284
 1795SOL    HW117021   1.498   0.505   3.670 -1.5848  2.5213  2.5141
 1795SOL    HW217022   1.604   0.568   3.588 -0.3721  1.1276  1.0357
 1796SOL     OW17023   1.040   2.701   2.060  0.1587 -0.1444 -0.3171
 1796SOL    HW117024   0.990   2.729   2.136  0.1171  2.1477 -1.1716
 1796SOL    HW217025   1.046   2.606   2.074  1.4268  0.3135  2.2581
 1797SOL     OW17026   3.904   1.041  11.726 -0.3163 -0.1597 -0.6606
 1797SOL    HW117027   3.880   1.105  11.794  0.7489 -1.0393  0.5601
 1797SOL    HW217028   3.873   0.957  11.760 -3.8410  0.8297 -1.5107
 1798SOL     OW17029   4.149   1.361   5.098 -0.2482  0.1040 -0.2306
 1798SOL    HW117030   4.239   1.332   5.112  0.6200  2.9363  0.0667
 1798SOL    HW217031   4.144   1.401   5.011 -1.2138  2.0937  0.7490
 1799SOL     OW17032   4.138   0.849   6.303  0.1326 -0.5709 -0.1437
 1799SOL    HW117033   4.213   0.864   6.245 -0.8257 -0.6988 -1.4080
 1799SOL    HW217034   4.080   0.811   6.237 -1.4409 -0.4108  1.1528
 1800SOL     OW17035   1.208   0.441   7.815 -0.0326 -0.5515  0.3689
 1800SOL    HW117036   1.169   0.378   7.755 -1.7543 -0.4017  1.3323
 1800SOL    HW217037   1.189   0.527   7.776 -0.1986 -0.9454 -0.4005
 1801SOL     OW17038   0.787   2.753   2.417  0.0772  0.1286  0.6886
 1801SOL    HW117039   0.784   2.746   2.512 -2.8926 -0.7813  0.5434
 1801SOL    HW217040   0.815   2.843   2.399  1.7358 -0.2571  1.3326
 1802SOL     OW17041   1.182   0.872   9.222  0.3127  0.0871 -0.8826
 1802SOL    HW117042   1.110   0.835   9.273  0.2719  3.3639  1.4444
 1802SOL    HW217043   1.261   0.831   9.256 -0.1887 -1.3477 -1.4588
 1803SOL     OW17044   1.106   3.242   4.017 -0.0462 -0.2457  0.5201
 1803SOL    HW117045   1.026   3.191   4.007  0.2483 -0.9643  1.8502
 1803SOL    HW217046   1.138   3.240   3.927  0.1194  1.1382  0.5511
 1804SOL     OW17047   0.950   0.448  14.477  0.3469  0.2403  0.6596
 1804SOL    HW117048   0.968   0.463  14.384 -0.8324  0.6499  0.5086
 1804SOL    HW217049   0.886   0.514  14.502 -0.1252 -1.0735  2.9757
 1805SOL     OW17050   1.470   3.354  14.422 -0.4801  0.1577  0.2454
 1805SOL    HW117051   1.501   3.443  14.404 -2.5141  0.9905  0.8919
 1805SOL    HW217052   1.532   3.330  14.491  1.4372  0.3949 -1.4041
 1806SOL     OW17053   0.497   2.863  17.157 -0.1435 -0.7148  0.5230
 1806SOL    HW117054   0.477   2.770  17.156  1.0191 -0.9712  0.9838
 1806SOL    HW217055   0.582   2.859  17.202  0.5600  0.3917 -0.7002
 1807SOL     OW17056   3.304   3.432   0.891  0.2766  0.2576  0.4035
 1807SOL    HW117057   3.311   3.519   0.932  2.6567 -0.3454  1.2459
 1807SOL    HW217058   3.231   3.439   0.829  1.1465 -0.4266 -0.6888
 1808SOL     OW17059   0.950   0.651   2.429  0.3350  0.1318  0.1868
 1808SOL    HW117060   0.885   0.582   2.431  0.3230  0.1195 -0.5899
 1808SOL    HW217061   0.939   0.693   2.514  0.0388  0.2352  0.0974
 1809SOL     OW17062   1.519   1.957   3.471 -0.2577  0.0676  0.1044
 1809SOL    HW117063   1.499   2.046   3.444 -0.1443  0.7165  2.1033
 1809SOL    HW217064   1.545   1.917   3.388  1.3125  2.6170 -0.6404
 1810SOL     OW17065   0.925   1.651   9.407 -0.1771  0.0668 -0.2759
 1810SOL    HW117066   0.874   1.570   9.407 -1.1501  0.6804 -0.5503
 1810SOL    HW217067   0.981   1.628   9.481 -0.5673 -2.7199 -0.8609
 1811SOL     OW17068   2.164   4.003  15.272 -0.0157 -0.3687 -0.4702
 1811SOL    HW117069   2.227   4.075  15.270  1.3127 -1.5842 -2.5437
 1811SOL    HW217070   2.221   3.933  15.241  1.1673  1.1075 -1.6255
 1812SOL     OW17071   0.350   2.077  16.504 -0.5056  0.0979 -0.5011
 1812SOL    HW117072   0.440   2.072  16.470  0.6224  0.1791  2.4546
 1812SOL    HW217073   0.367   2.143  16.571 -0.0305  1.2274 -1.7232
 1813SOL     OW17074   2.880   0.361  14.635  0.3571  0.0520  0.1521
 1813SOL    HW117075   2.868   0.375  14.729  0.5326 -0.4460  0.2451
 1813SOL    HW217076   2.824   0.286  14.615  1.3560 -0.6325 -0.0427
 1814SOL     OW17077   1.701   4.275   1.491 -0.1475 -0.2436 -0.4939
 1814SOL    HW117078   1.660   4.298   1.408  0.4641  0.1518 -0.6859
 1814SOL    HW217079   1.765   4.346   1.494 -0.3439 -0.1518  1.5631
 1815SOL     OW17080   3.624   2.832   2.491 -0.0396 -0.3510  0.0110
 1815SOL    HW117081   3.682   2.804   2.420  0.3812  0.4552  0.0392
 1815SOL    HW217082   3.666   2.905   2.536 -3.9840  0.6603  2.1082
 1816SOL     OW17083   3.577   1.229  15.735 -0.0405  0.6294 -0.1060
 1816SOL    HW117084   3.636   1.219  15.810 -1.7084 -0.3284  1.0659
 1816SOL    HW217085   3.619   1.308  15.700  0.9800  0.7867  1.4620
 1817SOL     OW17086   4.078   4.085  12.813  0.1724 -0.6820 -0.1771
 1817SOL    HW117087   4.155   4.068  12.758 -0.0692 -2.0424 -0.0928
 1817SOL    HW217088   4.054   4.003  12.855  1.4908 -0.9323  0.0990
 1818SOL     OW17089   1.034   3.985   7.033  0.1605  0.2756 -0.1979
 1818SOL    HW117090   1.005   3.946   6.951  0.4530  2.0076 -1.1178
 1818SOL    HW217091   1.101   3.922   7.056  1.7258  2.0238  0.0200
 1819SOL     OW17092   1.103   2.046   8.774 -0.3714  0.4020 -0.3238
 1819SOL    HW117093   1.156   2.121   8.804 -2.3456  2.2186 -1.3665
 1819SOL    HW217094   1.036   2.081   8.716 -0.7428 -2.3096 -1.5031
 1820SOL     OW17095   2.084   4.301   7.123 -0.1987  0.5151 -0.3354
 1820SOL    HW117096   1.996   4.337   7.137  0.5567  1.6574  1.4543
 1820SOL    HW217097   2.110   4.278   7.212 -1.3377  1.8017  0.3381
 1821SOL     OW17098   0.694   1.113   4.585 -0.0236  0.2075  0.0046
 1821SOL    HW117099   0.676   1.206   4.596 -1.2976  0.1395 -1.4754
 1821SOL    HW217100   0.789   1.111   4.574  0.3058 -0.1892  2.8357
 1822SOL     OW17101   4.036   1.528   8.002 -0.1485  0.5554 -0.4367
 1822SOL    HW117102   4.031   1.591   7.931  1.4271  0.2862 -0.7740
 1822SOL    HW217103   3.948   1.489   8.011 -0.3071  0.7148 -1.3999
 1823SOL     OW17104   0.325   2.249   3.061 -0.1799  0.1654 -0.1027
 1823SOL    HW117105   0.277   2.239   3.144  0.7618  0.6702  0.4950
 1823SOL    HW217106   0.286   2.186   3.001  0.2566 -1.0610  0.8832
 1824SOL     OW17107   2.942   4.102  16.334  0.0184  0.1105  0.4002
 1824SOL    HW117108   2.942   4.190  16.297 -0.5624  0.4043  1.1229
 1824SOL    HW217109   3.016   4.067  16.283 -1.2522 -0.8898 -0.7613
 1825SOL     OW17110   0.300   2.059   9.136  0.3042 -0.8316 -0.2674
 1825SOL    HW117111   0.311   1.982   9.079 -2.1605 -0.4684 -1.2480
 1825SOL    HW217112   0.324   2.030   9.224 -1.2638 -2.6934 -0.4498
 1826SOL     OW17113   1.164   1.868  10.196  0.7222  0.2450 -0.0486
 1826SOL    HW117114   1.160   1.876  10.100 -0.3858  0.8847  0.0438
 1826SOL    HW217115   1.071   1.881  10.213  0.9995  1.0645  0.8252
 1827SOL     OW17116   3.006   3.595  17.521  0.6272 -0.5633 -0.3183
 1827SOL    HW117117   2.993   3.673  17.468  0.0029 -0.6857 -0.3374
 1827SOL    HW217118   3.076   3.553  17.471 -0.5534 -2.9081 -0.0014
 1828SOL     OW17119   1.565   1.505   5.521  0.8704 -0.7397  0.3485
 1828SOL    HW117120   1.480   1.515   5.564 -0.3284 -1.7330 -1.8146
 1828SOL    HW217121   1.621   1.581   5.538  2.8796 -2.1661  0.1438
 1829SOL     OW17122   2.600   2.838   3.208 -0.0521 -0.0704 -0.4916
 1829SOL    HW117123   2.688   2.875   3.202  0.6754 -1.4292  1.4117
 1829SOL    HW217124   2.576   2.828   3.116 -0.1679 -0.2812 -0.4390
 1830SOL     OW17125   3.882   1.058   8.971 -0.0798 -0.3493  0.4889
 1830SOL    HW117126   3.833   1.093   9.045 -0.0494 -2.7505  1.6299
 1830SOL    HW217127   3.837   0.975   8.960 -1.6656  0.6794 -0.7067
 1831SOL     OW17128   3.482   1.183   4.146  0.1674  0.2353 -0.2981
 1831SOL    HW117129   3.527   1.109   4.188  0.4414  1.0083  0.7554
 1831SOL    HW217130   3.406   1.134   4.115  0.4225 -1.5242  1.9028
 1832SOL     OW17131   4.341   0.129   7.751 -0.3790  0.1287  0.0246
 1832SOL    HW117132   4.394   0.196   7.793  1.1434  0.0447 -1.7760
 1832SOL    HW217133   4.305   0.078   7.824 -0.5383  0.3523  0.1037
 1833SOL     OW17134   2.564   3.267   2.281  0.3687 -0.6368 -0.0170
 1833SOL    HW117135   2.491   3.297   2.227 -1.4692 -2.6433  1.3560
 1833SOL    HW217136   2.629   3.329   2.248  0.0596 -0.2778  0.0490
 1834SOL     OW17137   4.410   2.072   5.616 -0.2233 -0.1866  0.0704
 1834SOL    HW117138   4.410   2.144   5.554 -3.0250 -0.4713 -0.2668
 1834SOL    HW217139   4.478   2.092   5.680 -0.8885  0.1115  0.6972
 1835SOL     OW17140   2.044   0.605   5.243  0.8077  0.1814  0.0670
 1835SOL    HW117141   1.977   0.671   5.225  1.4245  0.9777  0.6816
 1835SOL    HW217142   2.061   0.577   5.153 -2.6282  0.0441 -0.5478
 1836SOL     OW17143   0.724   0.822   9.514 -0.4379 -0.1639 -0.1738
 1836SOL    HW117144   0.676   0.892   9.471  1.4724  1.6284  0.5755
 1836SOL    HW217145   0.665   0.749   9.529  0.3360 -0.1450  3.0941
 1837SOL     OW17146   4.447   4.397   3.907  0.6185  0.4842  0.4150
 1837SOL    HW117147   4.464   4.454   3.982  0.4975 -2.4795  2.7028
 1837SOL    HW217148   4.429   4.319   3.959  2.0892  0.3459  0.7276
 1838SOL     OW17149   3.506   1.481   0.900 -0.4470  0.0027 -0.1300
 1838SOL    HW117150   3.561   1.532   0.841  0.4258 -0.0418  0.6378
 1838SOL    HW217151   3.543   1.393   0.899 -0.7454 -0.1236  0.0575
 1839SOL     OW17152   1.534   0.564   6.850 -0.3821 -0.0997 -0.0446
 1839SOL    HW117153   1.462   0.600   6.797  0.5659  1.1886 -0.4444
 1839SOL    HW217154   1.610   0.569   6.793 -0.1292  1.7172  0.4421
 1840SOL     OW17155   1.261   1.474  11.464 -0.4234 -0.1988  0.3272
 1840SOL    HW117156   1.312   1.540  11.510  1.3580 -1.8077  0.6928
 1840SOL    HW217157   1.262   1.515  11.377  0.1179 -1.1037 -0.1000
 1841SOL     OW17158   1.244   1.411   5.694 -0.5935 -0.6507 -0.0012
 1841SOL    HW117159   1.177   1.346   5.713 -1.5140  0.5672  0.9319
 1841SOL    HW217160   1.313   1.366   5.744 -0.0008  0.7618  0.4753
 1842SOL     OW17161   3.371   0.476   9.174  0.2962  0.1739  0.1184
 1842SOL    HW117162   3.395   0.436   9.258 -0.3232 -0.9225 -0.2223
 1842SOL    HW217163   3.297   0.536   9.190 -0.6866 -0.8902 -0.4474
 1843SOL     OW17164   4.289   1.952   8.294  0.5039 -0.7327 -0.2376
 1843SOL    HW117165   4.260   2.001   8.216  0.6119 -2.9530 -1.6877
 1843SOL    HW217166   4.225   1.880   8.296  0.5684 -0.8036 -0.6567
 1844SOL     OW17167   1.257   0.042   9.440 -0.0615 -0.1196 -0.4035
 1844SOL    HW117168   1.316   4.715   9.400 -2.0761 -1.3245 -1.4481
 1844SOL    HW217169   1.317   0.105   9.481  0.2388  0.0440 -1.0803
 1845SOL     OW17170   3.044   3.528  16.572  0.1550  0.7359  0.0454
 1845SOL    HW117171   3.050   3.433  16.562  0.3189  0.9849 -2.1688
 1845SOL    HW217172   3.115   3.554  16.514  0.2148  1.4236  0.4321
 1846SOL     OW17173   1.970   3.610   6.946 -0.3024 -0.1803 -0.2385
 1846SOL    HW117174   2.021   3.691   6.943  0.9488 -0.9971 -0.9807
 1846SOL    HW217175   2.019   3.546   6.895 -0.3080  0.1144 -0.6178
 1847SOL     OW17176   3.196   1.652  17.676 -0.0069  0.3983 -0.0531
 1847SOL    HW117177   3.219   1.697  17.595 -2.4569 -0.2202 -1.0965
 1847SOL    HW217178   3.126   1.711  17.705 -0.4172 -0.2863  0.3515
 1848SOL     OW17179   2.674   3.053   0.154 -0.4030  0.5414 -0.1046
 1848SOL    HW117180   2.582   3.054   0.180  0.2046  2.1101  1.9510
 1848SOL    HW217181   2.697   3.137   0.115  0.7367  0.3930  0.2641
 1849SOL     OW17182   3.366   1.409   4.219 -0.4266  0.2660  0.3868
 1849SOL    HW117183   3.391   1.409   4.312 -0.8234  2.3179  0.4885
 1849SOL    HW217184   3.416   1.339   4.177  0.3197 -0.8441  3.1327
 1850SOL     OW17185   4.638   1.434   8.600 -0.3695  0.2379 -0.0479
 1850SOL    HW117186   4.618   1.343   8.619  0.3848  0.9371  4.1875
 1850SOL    HW217187   4.575   1.446   8.529 -0.2572 -0.5209 -0.2724
 1851SOL     OW17188   4.112   2.400   5.392  0.1976 -0.3530 -0.0972
 1851SOL    HW117189   4.053   2.426   5.321  0.4554  0.8138  0.1146
 1851SOL    HW217190   4.107   2.306   5.373 -2.4663 -0.4390  1.1509
 1852SOL     OW17191   1.265   0.969  16.139  0.2989  0.9123  0.1566
 1852SOL    HW117192   1.338   1.031  16.137  0.6517  0.4582 -1.3187
 1852SOL    HW217193   1.265   0.942  16.047 -0.6146  1.1740  0.0760
 1853SOL     OW17194   1.031   2.880  10.772 -0.1220 -0.9814 -0.1579
 1853SOL    HW117195   1.102   2.837  10.820 -0.8800 -0.3090  1.5542
 1853SOL    HW217196   0.953   2.825  10.782 -0.3315 -0.6383  0.0870
 1854SOL     OW17197   3.980   0.057   7.513 -0.4603  0.4929 -0.3497
 1854SOL    HW117198   3.966   4.733   7.587 -2.2490  1.1890 -0.1212
 1854SOL    HW217199   3.988   4.725   7.446  0.1547  1.8202 -1.6194
 1855SOL     OW17200   1.121   0.258  12.336 -0.2833 -0.2148 -0.5824
 1855SOL    HW117201   1.094   0.167  12.321 -1.5713 -0.1540  1.2058
 1855SOL    HW217202   1.215   0.253  12.353 -0.5859 -1.0522  0.9317
 1856SOL     OW17203   1.313   2.061   9.380  0.0517 -0.9476 -0.0371
 1856SOL    HW117204   1.233   2.113   9.378  1.9007  1.8046 -2.1829
 1856SOL    HW217205   1.265   1.979   9.381  0.2917 -1.0803  0.5998
 1857SOL     OW17206   3.773   3.004   8.940  0.2291  0.3808 -0.1991
 1857SOL    HW117207   3.810   3.072   8.997 -1.4046  1.2932 -0.2070
 1857SOL    HW217208   3.856   2.966   8.911  0.4655 -0.1202  1.1080
 1858SOL     OW17209   4.688   3.543   7.550 -0.1448 -0.1713  0.0359
 1858SOL    HW117210   0.006   3.567   7.475  0.2800 -1.3015 -0.0054
 1858SOL    HW217211   4.695   3.616   7.611 -0.7040  0.5580 -0.7634
 1859SOL     OW17212   3.926   3.121   9.200  0.4359 -0.2361  0.5148
 1859SOL    HW117213   3.984   3.178   9.149  0.8004  1.0784  2.3975
 1859SOL    HW217214   3.973   3.038   9.204 -3.3904 -2.3712  0.5077
 1860SOL     OW17215   2.920   3.764   6.380 -0.1238  0.1696 -0.2034
 1860SOL    HW117216   2.977   3.753   6.456  2.1078 -0.5328 -1.9866
 1860SOL    HW217217   2.839   3.722   6.409  1.3579 -1.9741  0.7508
 1861SOL     OW17218   4.216   4.696   8.805  0.1435  0.6647 -0.0970
 1861SOL    HW117219   4.127   4.662   8.810  0.9186 -1.3839 -0.2820
 1861SOL    HW217220   4.226   0.012   8.885 -2.5146 -0.8468  1.2131
 1862SOL     OW17221   2.371   3.844   4.320  0.4037  0.2752  0.3401
 1862SOL    HW117222   2.372   3.794   4.238 -1.5126 -1.5666  1.4390
 1862SOL    HW217223   2.446   3.811   4.370  0.5094 -1.5753 -1.0405
 1863SOL     OW17224   3.658   0.299   4.393 -0.0964 -0.1247  0.5503
 1863SOL    HW117225   3.619   0.386   4.389 -1.2094 -0.7633 -2.8792
 1863SOL    HW217226   3.748   0.315   4.423 -0.1024 -1.0192  1.0437
 1864SOL     OW17227   3.222   2.314   3.587  0.4130  0.2532 -0.0951
 1864SOL    HW117228   3.174   2.271   3.658 -0.6369 -1.3665 -1.7982
 1864SOL    HW217229   3.147   2.354   3.542  0.1597  0.4630  0.5036
 1865SOL     OW17230   1.791   3.497   7.775 -0.3990  0.0514  0.0553
 1865SOL    HW117231   1.806   3.487   7.869  0.0959  1.9625  0.1790
 1865SOL    HW217232   1.789   3.593   7.768 -0.5275  0.0898  0.6100
 1866SOL     OW17233   2.679   0.433   7.814 -0.6770  0.3338  0.0757
 1866SOL    HW117234   2.648   0.397   7.897  0.9753  2.5532  1.6377
 1866SOL    HW217235   2.649   0.524   7.817 -1.7558  0.0358 -1.4280
 1867SOL     OW17236   3.133   3.733   5.415  0.1138 -0.1985  0.1333
 1867SOL    HW117237   3.113   3.669   5.346 -1.3756 -3.3265  3.4568
 1867SOL    HW217238   3.095   3.684   5.488 -1.8753 -0.1413 -0.8775
 1868SOL     OW17239   2.238   0.793   4.138  0.5492  0.1395 -0.0354
 1868SOL    HW117240   2.205   0.706   4.162 -1.3270  0.2527 -2.2613
 1868SOL    HW217241   2.311   0.797   4.201 -0.5848  0.6572  1.2510
 1869SOL     OW17242   1.054   0.123   9.256  0.1891  0.1288 -0.0899
 1869SOL    HW117243   1.105   0.091   9.330 -0.1213  0.9387  0.4825
 1869SOL    HW217244   1.069   0.216   9.271 -0.8227  0.1216  1.0427
 1870SOL     OW17245   1.308   1.417   7.848 -0.6770 -0.2453 -0.1160
 1870SOL    HW117246   1.365   1.449   7.779 -2.6437  0.1879 -1.5345
 1870SOL    HW217247   1.243   1.486   7.833 -3.8443 -3.1392  0.0762
 1871SOL     OW17248   1.862   2.839   5.767 -0.0904  0.0348  0.2166
 1871SOL    HW117249   1.819   2.922   5.786 -1.7028 -0.7448 -0.0534
 1871SOL    HW217250   1.812   2.784   5.827  1.0818  0.8662  1.9523
 1872SOL     OW17251   3.469   3.119  17.476 -0.1214 -0.4052 -0.2995
 1872SOL    HW117252   3.444   3.191  17.419 -1.5589 -1.2683 -0.7433
 1872SOL    HW217253   3.384   3.079  17.497 -1.3831  2.5791  0.1946
 1873SOL     OW17254   1.467   4.558   3.098  0.2287 -0.0078 -0.0576
 1873SOL    HW117255   1.419   4.547   3.016  1.1126 -0.7058 -0.4848
 1873SOL    HW217256   1.492   4.650   3.090 -2.8960  0.8067 -0.3730
 1874SOL     OW17257   0.512   4.360  13.610 -0.2195  0.8078 -0.0322
 1874SOL    HW117258   0.468   4.340  13.692  0.4764 -1.7227 -0.2983
 1874SOL    HW217259   0.443   4.421  13.583 -0.9554 -0.4040 -0.8969
 1875SOL     OW17260   4.119   0.075   8.172 -0.2228  0.6171  0.2127
 1875SOL    HW117261   4.095   0.084   8.264  1.0419  0.0338  0.5984
 1875SOL    HW217262   4.187   0.142   8.165  0.2216  0.2337  0.9471
 1876SOL     OW17263   4.510   4.631  15.749 -0.1497  0.1467  0.7874
 1876SOL    HW117264   4.470   4.560  15.699 -1.5140  0.2994  1.6616
 1876SOL    HW217265   4.536   4.583  15.828 -0.2014  0.6084  1.0856
 1877SOL     OW17266   1.707   3.684   4.415 -0.5986 -0.3655 -0.1211
 1877SOL    HW117267   1.761   3.754   4.378 -3.3694  0.4616 -2.5802
 1877SOL    HW217268   1.636   3.684   4.351 -1.5920  1.9130  0.9599
 1878SOL     OW17269   2.656   2.303   6.247 -0.2496 -0.3669 -0.1320
 1878SOL    HW117270   2.733   2.295   6.304 -0.9134  2.0276  1.0878
 1878SOL    HW217271   2.595   2.252   6.299  1.6902 -0.3930  2.1043
 1879SOL     OW17272   3.059   1.207   5.515 -0.6158  0.0796 -0.3763
 1879SOL    HW117273   3.110   1.269   5.463  0.8923 -0.2741  0.6528
 1879SOL    HW217274   3.080   1.237   5.603  0.3234  1.3272 -1.0294
 1880SOL     OW17275   4.733   2.665   1.131  0.0653  0.7279  0.2121
 1880SOL    HW117276   4.718   2.732   1.064  0.3600 -0.0152 -0.5912
 1880SOL    HW217277   0.076   2.691   1.179 -0.1683  1.6461  0.1055
 1881SOL     OW17278   1.345   3.631  11.797 -0.2163 -0.7146  0.1590
 1881SOL    HW117279   1.434   3.667  11.791 -0.3432  0.2042  3.9647
 1881SOL    HW217280   1.334   3.576  11.719 -0.8221  0.6527 -0.7097
 1882SOL     OW17281   0.507   0.422   6.309  0.4204 -0.1801 -0.0297
 1882SOL    HW117282   0.560   0.391   6.383 -3.0092 -1.2299  1.9638
 1882SOL    HW217283   0.449   0.478   6.360 -0.7372  0.2535 -1.8297
 1883SOL     OW17284   0.968   1.160  15.271  0.3094 -0.0600  1.4494
 1883SOL    HW117285   1.047   1.165  15.218  0.0632  1.5125  1.2364
 1883SOL    HW217286   1.013   1.186  15.352  1.3534  2.4981  0.0357
 1884SOL     OW17287   4.173   3.182   5.688 -0.4100  0.4862 -0.0880
 1884SOL    HW117288   4.219   3.230   5.620  0.7836 -1.4775 -0.6869
 1884SOL    HW217289   4.155   3.107   5.631  2.0055 -0.0602 -0.1644
 1885SOL     OW17290   4.508   4.148   9.775  0.3649 -0.2987  0.4961
 1885SOL    HW117291   4.422   4.119   9.806 -0.4878  1.9616  0.1899
 1885SOL    HW217292   4.502   4.238   9.804 -0.1397 -0.3830  0.6505
 1886SOL     OW17293   1.023   0.095  15.140  0.2358 -0.6329 -0.5587
 1886SOL    HW117294   1.029   0.066  15.231  1.3988 -0.2526 -0.5133
 1886SOL    HW217295   1.064   0.181  15.135 -0.6087 -0.3265 -1.9614
 1887SOL     OW17296   2.712   2.581  14.649 -0.5682  0.2237 -0.1349
 1887SOL    HW117297   2.802   2.581  14.616 -0.7669  0.3350 -0.6690
 1887SOL    HW217298   2.707   2.521  14.724  0.2780  1.3827  0.8620
 1888SOL     OW17299   2.997   2.875   7.655  0.5723  0.4475  0.3988
 1888SOL    HW117300   2.932   2.807   7.635 -0.3484  1.2919  0.4918
 1888SOL    HW217301   3.068   2.828   7.700  0.6553  1.0889  0.9410
 1889SOL     OW17302   4.044   4.581   7.879  0.1123  0.0754 -0.1596
 1889SOL    HW117303   3.987   4.583   7.803 -0.4234  1.0950  0.2772
 1889SOL    HW217304   3.977   4.565   7.946 -0.5823  0.6121 -0.7277
 1890SOL     OW17305   0.215   2.271  14.199 -0.0874  0.0745  0.3533
 1890SOL    HW117306   0.132   2.296  14.158 -0.3621  2.7715  2.5233
 1890SOL    HW217307   0.205   2.321  14.280  0.1349  0.8675 -0.1088
 1891SOL     OW17308   0.237   4.278   4.961  0.0406 -0.2696 -0.2364
 1891SOL    HW117309   0.180   4.298   4.887  0.3509  1.6236  0.0304
 1891SOL    HW217310   0.175   4.257   5.031  1.8428 -1.2304  1.0773
 1892SOL     OW17311   2.069   1.856   3.029  0.6666 -0.1882  0.1233
 1892SOL    HW117312   2.008   1.784   3.014 -0.4733  0.9172 -0.5282
 1892SOL    HW217313   2.057   1.905   2.948 -1.3730  0.7008  0.9625
 1893SOL     OW17314   0.092   1.823   5.398  0.1039 -0.2877 -0.1449
 1893SOL    HW117315   0.035   1.867   5.335 -2.1060  2.3393  3.7297
 1893SOL    HW217316   0.136   1.764   5.337  0.2262 -1.2979  0.9250
 1894SOL     OW17317   1.676   0.061   1.546  0.6347 -0.1180 -0.4723
 1894SOL    HW117318   1.683   0.152   1.519  0.8036 -0.5121 -1.7619
 1894SOL    HW217319   1.768   0.033   1.553  1.0481  1.4172  0.2592
 1895SOL     OW17320   3.956   1.356   3.605  0.6747 -0.2565 -0.3546
 1895SOL    HW117321   3.911   1.361   3.521 -0.3781 -1.1122  0.1559
 1895SOL    HW217322   4.038   1.317   3.575  1.4167  0.4618  0.7477
 1896SOL     OW17323   2.543   2.113   8.083 -0.1454  0.4413  0.2040
 1896SOL    HW117324   2.571   2.021   8.076  0.7832  0.6768  0.8188
 1896SOL    HW217325   2.449   2.105   8.067  0.0915  2.0920 -1.9783
 1897SOL     OW17326   0.757   3.028   8.821 -0.8756  0.2832 -0.1689
 1897SOL    HW117327   0.729   2.941   8.850  0.6087 -0.4986 -1.0775
 1897SOL    HW217328   0.819   2.996   8.754  0.4321  0.4885  0.9479
 1898SOL     OW17329   2.870   4.108   8.044 -0.4711  0.4140  0.1020
 1898SOL    HW117330   2.950   4.058   8.026 -0.9372 -0.9521  1.7825
 1898SOL    HW217331   2.913   4.182   8.086  0.0413  0.4337 -0.4610
 1899SOL     OW17332   3.068   3.337   7.632 -0.1950  0.7881 -0.1882
 1899SOL    HW117333   2.986   3.288   7.624  0.1815  0.2115 -0.4189
 1899SOL    HW217334   3.096   3.303   7.717 -0.5817  1.4437  0.2048
 1900SOL     OW17335   1.490   0.383   2.888  0.1123  0.0356  0.3860
 1900SOL    HW117336   1.490   0.478   2.894  0.2320  0.2088 -2.2864
 1900SOL    HW217337   1.572   0.367   2.840 -0.7947  0.4274 -1.2904
 1901SOL     OW17338   1.768   2.896   0.582 -0.3137  0.0921 -0.3491
 1901SOL    HW117339   1.817   2.814   0.593  0.4501  0.4467 -1.0674
 1901SOL    HW217340   1.682   2.874   0.617 -0.0757 -0.3782 -0.0485
 1902SOL     OW17341   1.814   2.232  16.948 -0.1987  0.0125  0.3403
 1902SOL    HW117342   1.888   2.289  16.927  0.3852 -1.1672 -0.8298
 1902SOL    HW217343   1.766   2.297  16.999 -0.0537  1.7089 -1.7089
 1903SOL     OW17344   3.048   4.308   5.415 -0.1185  0.0617  0.3230
 1903SOL    HW117345   3.083   4.219   5.409 -1.8480 -0.7196  1.6715
 1903SOL    HW217346   3.052   4.337   5.324 -4.0808 -4.4518 -1.2941
 1904SOL     OW17347   4.125   3.298   4.468 -0.6628  0.6634  0.0217
 1904SOL    HW117348   4.121   3.332   4.378  0.7658  2.9967  0.8308
 1904SOL    HW217349   4.218   3.290   4.487 -0.7351  2.2156  1.0386
 1905SOL     OW17350   0.120   0.357   4.782 -0.6484 -0.4718 -0.1056
 1905SOL    HW117351   0.066   0.363   4.703 -1.0161  0.1970  0.2086
 1905SOL    HW217352   0.207   0.394   4.770 -1.7423  1.4640 -1.9845
 1906SOL     OW17353   4.110   0.788  15.044 -0.1453  0.1472 -0.2571
 1906SOL    HW117354   4.073   0.705  15.075 -0.5646  0.9039  1.3076
 1906SOL    HW217355   4.039   0.846  15.073 -0.1296  0.0076  0.0653
 1907SOL     OW17356   0.457   4.449  14.183 -0.0008 -0.2669  0.7842
 1907SOL    HW117357   0.389   4.452  14.250  0.0170  0.0680  0.7859
 1907SOL    HW217358   0.490   4.538  14.177  1.1653 -0.7159  0.4628
 1908SOL     OW17359   1.703   3.965   1.566 -0.0085 -0.3873  0.7549
 1908SOL    HW117360   1.707   3.954   1.661  0.0327 -0.8251  0.7020
 1908SOL    HW217361   1.661   4.050   1.560 -0.6800 -0.8051 -0.4695
 1909SOL     OW17362   4.393   1.155  11.483  0.1902  0.2050 -0.0124
 1909SOL    HW117363   4.352   1.232  11.522  0.6200  1.5540 -2.2619
 1909SOL    HW217364   4.382   1.100  11.561  0.8662  2.1852  1.4731
 1910SOL     OW17365   2.432   2.552   6.170  0.5315  0.3628 -0.0614
 1910SOL    HW117366   2.383   2.510   6.241  2.0870 -1.5399 -0.1019
 1910SOL    HW217367   2.463   2.476   6.121  2.4832  1.6081 -0.7626
 1911SOL     OW17368   4.587   3.101   4.542 -0.9825  0.7789  0.4097
 1911SOL    HW117369   4.652   3.077   4.477 -1.8928  1.5985 -0.7943
 1911SOL    HW217370   4.643   3.150   4.603  0.4681  0.4566 -0.6667
 1912SOL     OW17371   4.621   0.156   9.062  0.0762 -0.0884  0.1463
 1912SOL    HW117372   4.700   0.197   9.097 -0.8997  2.9478 -1.2162
 1912SOL    HW217373   4.651   0.066   9.043  1.5189  0.4748 -0.2737
 1913SOL     OW17374   1.166   3.468   5.578  0.4080  0.0571  0.1062
 1913SOL    HW117375   1.112   3.529   5.528  1.8525 -0.2039 -1.7628
 1913SOL    HW217376   1.242   3.526   5.584 -0.1052  0.5713  1.5536
 1914SOL     OW17377   1.665   4.058  10.188 -0.0308  0.0333 -0.1641
 1914SOL    HW117378   1.760   4.067  10.195  0.0926 -1.2888 -0.0299
 1914SOL    HW217379   1.640   4.142  10.226 -0.7573  0.1068 -0.8164
 1915SOL     OW17380   1.170   3.761   7.103  0.7975 -0.4933  0.4351
 1915SOL    HW117381   1.185   3.753   7.197 -1.3885  0.7341  0.8908
 1915SOL    HW217382   1.106   3.693   7.083  0.7697 -0.7465  1.3987
 1916SOL     OW17383   1.664   0.057   1.263  0.0035  0.2359  0.4854
 1916SOL    HW117384   1.718   0.017   1.331 -0.6608  0.4500  1.1376
 1916SOL    HW217385   1.673   0.151   1.279  0.1279  0.6108 -1.8362
 1917SOL     OW17386   2.175   2.342   7.863  0.3368 -0.5075  0.0424
 1917SOL    HW117387   2.140   2.408   7.923  1.5360 -1.1904  1.4712
 1917SOL    HW217388   2.112   2.270   7.866  1.9874 -1.9257  0.0922
 1918SOL     OW17389   1.726   2.930   1.902 -0.0678 -0.8482  0.1235
 1918SOL    HW117390   1.668   2.975   1.964  0.4014  0.2080 -0.1907
 1918SOL    HW217391   1.807   2.974   1.926 -1.1338  0.0814  2.0740
 1919SOL     OW17392   2.384   2.304  17.717 -0.1585  0.7712  0.4533
 1919SOL    HW117393   2.364   2.301   0.067 -0.1932  3.3155  0.5284
 1919SOL    HW217394   2.304   2.296  17.666  0.3667  0.1725 -0.2671
 1920SOL     OW17395   0.490   2.044   8.436  0.5265 -0.2703 -0.5859
 1920SOL    HW117396   0.544   2.118   8.464  2.7034 -2.4630  0.9572
 1920SOL    HW217397   0.517   2.035   8.344  3.1602  1.2328  0.0287
 1921SOL     OW17398   4.557   4.453   9.795 -0.8842 -0.1543  0.2961
 1921SOL    HW117399   4.478   4.468   9.742 -0.7653  0.8446  0.4048
 1921SOL    HW217400   4.529   4.486   9.880 -0.1949 -0.8015  0.7791
 1922SOL     OW17401   4.033   4.442  10.789  0.6819  0.2606 -0.1248
 1922SOL    HW117402   4.073   4.527  10.771 -0.8697  0.8745 -0.7411
 1922SOL    HW217403   4.018   4.445  10.883 -0.7960  0.6151 -0.3679
 1923SOL     OW17404   0.588   3.092   8.045  0.1971  0.2990 -0.9611
 1923SOL    HW117405   0.524   3.023   8.066 -0.1642  1.3065  1.2156
 1923SOL    HW217406   0.669   3.041   8.041  0.7056  1.0833 -0.6692
 1924SOL     OW17407   4.045   1.205  10.055  0.3736 -0.4139  0.2088
 1924SOL    HW117408   4.009   1.117  10.066 -2.8701  1.0996  1.7722
 1924SOL    HW217409   3.965   1.252  10.031  0.5870  0.5885  1.4592
 1925SOL     OW17410   0.647   0.649   8.814 -0.1063 -0.1569  0.2132
 1925SOL    HW117411   0.724   0.688   8.773  0.4882 -0.1667  1.3122
 1925SOL    HW217412   0.586   0.716   8.784  1.2744  1.2147  0.4518
 1926SOL     OW17413   1.693   3.983   7.322  0.1374  0.2219  0.0026
 1926SOL    HW117414   1.779   4.011   7.354 -0.4922  3.2883 -0.8985
 1926SOL    HW217415   1.698   3.962   7.229 -0.7618  0.3089 -0.0676
 1927SOL     OW17416   4.279   0.909  12.843  0.2536 -0.5436 -0.6042
 1927SOL    HW117417   4.184   0.911  12.855  0.4283 -0.3675  0.7754
 1927SOL    HW217418   4.281   0.850  12.767 -1.0948 -2.2129  0.6372
 1928SOL     OW17419   0.786   0.557   7.116  0.5089  0.0624  0.3302
 1928SOL    HW117420   0.804   0.645   7.084  2.9912 -0.2130  0.9901
 1928SOL    HW217421   0.719   0.580   7.181 -2.5887 -2.6323 -1.9079
 1929SOL     OW17422   1.387   4.311   0.589 -0.1043  0.7137 -0.0425
 1929SOL    HW117423   1.389   4.394   0.635  2.4897  0.0075  1.0817
 1929SOL    HW217424   1.443   4.258   0.645 -1.0403 -0.2204  0.0205
 1930SOL     OW17425   3.405   3.467   5.802  0.4727  0.6408  0.3081
 1930SOL    HW117426   3.360   3.453   5.718  1.2585  2.0363 -0.3593
 1930SOL    HW217427   3.351   3.406   5.851  1.3882 -0.0714  0.4298
 1931SOL     OW17428   3.055   4.298   8.124 -0.6076 -0.2251 -0.4334
 1931SOL    HW117429   3.053   4.393   8.132  1.4541 -0.4171  2.3235
 1931SOL    HW217430   3.052   4.272   8.216 -1.3863  0.4474 -0.2641
 1932SOL     OW17431   2.135   2.763   7.136  0.0993  0.0088 -0.2807
 1932SOL    HW117432   2.097   2.841   7.176 -1.2631 -1.2863  0.9500
 1932SOL    HW217433   2.115   2.780   7.044  0.5460  0.2805 -0.3272
 1933SOL     OW17434   2.583   4.254   1.946  0.1542 -0.4207  0.0474
 1933SOL    HW117435   2.585   4.204   1.864 -0.7630  1.1111 -0.9071
 1933SOL    HW217436   2.561   4.190   2.013  2.3826 -0.9382  0.3126
 1934SOL     OW17437   2.516   1.782   6.649  0.5195  0.2586  0.5789
 1934SOL    HW117438   2.529   1.725   6.725 -2.2546 -1.8351 -0.4986
 1934SOL    HW217439   2.578   1.855   6.657 -1.0855  1.5638  1.1243
 1935SOL     OW17440   0.563   0.538   0.273  0.3837  0.4801  0.2879
 1935SOL    HW117441   0.625   0.473   0.305  0.0086 -0.3607 -0.7454
 1935SOL    HW217442   0.568   0.536   0.178  3.3606  2.9011  0.3735
 1936SOL     OW17443   2.242   4.432   3.973  0.3439 -0.4768 -0.1926
 1936SOL    HW117444   2.231   4.338   3.984 -0.6897 -0.3206  0.1781
 1936SOL    HW217445   2.152   4.460   3.955  0.2967  0.8024  2.0466
 1937SOL     OW17446   1.091   2.043  15.756 -0.3972 -0.4695 -0.6629
 1937SOL    HW117447   1.101   2.041  15.661  2.5809  2.4218 -0.4307
 1937SOL    HW217448   1.010   2.092  15.767 -1.2026 -1.9649  0.0321
 1938SOL     OW17449   2.952   4.307   1.704 -0.1407 -0.3386 -0.0646
 1938SOL    HW117450   2.963   4.402   1.705  0.5087 -0.4680  4.0300
 1938SOL    HW217451   2.925   4.283   1.792 -0.0683 -3.6052 -0.9431
 1939SOL     OW17452   0.178   1.610   6.134  0.8004  0.4214  0.3102
 1939SOL    HW117453   0.229   1.583   6.211 -0.3331  0.5123  1.0959
 1939SOL    HW217454   0.215   1.693   6.106 -1.5954  1.7711  1.1048
 1940SOL     OW17455   1.745   3.171  14.804 -0.6313 -0.6069 -0.1879
 1940SOL    HW117456   1.727   3.090  14.852 -1.7031  1.2039  2.4587
 1940SOL    HW217457   1.678   3.229  14.840 -1.1794 -2.2899  1.5270
 1941SOL     OW17458   4.607   0.447   7.441 -0.0020  0.3722  0.3575
 1941SOL    HW117459   4.515   0.434   7.463  0.0378 -0.5843 -0.0389
 1941SOL    HW217460   4.647   0.460   7.527  0.6909  0.7392 -0.0180
 1942SOL     OW17461   1.875   4.244  15.623  0.2800 -0.0094 -0.0738
 1942SOL    HW117462   1.844   4.163  15.583 -0.7636 -0.4525  1.6225
 1942SOL    HW217463   1.798   4.300  15.634 -0.1023 -0.3797 -0.8690
 1943SOL     OW17464   2.579   0.628   5.453 -0.6484 -0.5904 -0.0038
 1943SOL    HW117465   2.602   0.541   5.486 -1.9961 -0.5140  1.1356
 1943SOL    HW217466   2.486   0.619   5.434 -0.4386 -1.1065 -0.7683
 1944SOL     OW17467   0.800   2.461  10.048 -0.5434 -0.2241  0.1857
 1944SOL    HW117468   0.754   2.384  10.015 -1.0240 -0.1868  0.7720
 1944SOL    HW217469   0.769   2.466  10.138 -0.9443 -0.7526  0.0791
 1945SOL     OW17470   3.437   0.584  16.199  0.8853  0.0157  0.3991
 1945SOL    HW117471   3.353   0.614  16.234  0.7893  1.5745 -1.2247
 1945SOL    HW217472   3.487   0.660  16.230  0.8354 -0.1626  0.9136
 1946SOL     OW17473   3.285   1.898   1.670 -0.3892  0.3216  0.1793
 1946SOL    HW117474   3.216   1.836   1.648 -0.5169  0.1162  1.1271
 1946SOL    HW217475   3.255   1.922   1.758 -4.5080 -1.1808 -0.8487
 1947SOL     OW17476   2.858   4.225  16.760  0.2305 -0.0932  0.0645
 1947SOL    HW117477   2.912   4.291  16.804  1.1562 -0.8142 -0.0032
 1947SOL    HW217478   2.831   4.280  16.687 -0.6712 -1.0285 -0.3148
 1948SOL     OW17479   2.515   3.109  13.736  0.0259 -0.2888 -0.5538
 1948SOL    HW117480   2.442   3.120  13.674 -1.0796 -2.8401  0.2949
 1948SOL    HW217481   2.580   3.167  13.696  1.5362 -0.8398  1.1395
 1949SOL     OW17482   4.133   3.215   3.525  0.1880 -0.0030  0.2249
 1949SOL    HW117483   4.187   3.281   3.482 -0.2121 -0.7943 -1.4730
 1949SOL    HW217484   4.203   3.150   3.536  1.0039  0.8008 -0.2719
 1950SOL     OW17485   3.025   2.592  17.432  0.0095 -0.3834 -0.1760
 1950SOL    HW117486   2.947   2.544  17.406  0.1360  0.7393 -2.6024
 1950SOL    HW217487   3.091   2.523  17.430  0.9922  0.5972 -1.8431
 1951SOL     OW17488   2.611   3.564   2.298 -0.0128  0.0572  0.0942
 1951SOL    HW117489   2.632   3.536   2.388 -0.3866  0.1595  0.2115
 1951SOL    HW217490   2.585   3.653   2.318  1.0685  0.5522 -0.6736
 1952SOL     OW17491   2.229   0.118   3.240  0.7680  0.0608 -0.0632
 1952SOL    HW117492   2.310   0.140   3.194  0.4586  1.1096 -0.0998
 1952SOL    HW217493   2.185   0.087   3.160  0.6130  0.2255 -0.0399
 1953SOL     OW17494   2.707   0.251   6.747  0.1055  0.4498 -0.2604
 1953SOL    HW117495   2.785   0.234   6.801 -1.7771 -1.4445  1.8865
 1953SOL    HW217496   2.649   0.247   6.823 -1.2972 -2.8425 -1.5071
 1954SOL     OW17497   4.093   3.390   7.078 -0.0737 -0.3928  0.1025
 1954SOL    HW117498   4.010   3.401   7.030  0.2189 -0.2722 -0.3749
 1954SOL    HW217499   4.112   3.475   7.117 -3.5140  1.6337 -2.6095
 1955SOL     OW17500   1.125   2.368   5.018 -0.0700  0.1478  0.0970
 1955SOL    HW117501   1.054   2.326   5.065 -1.1549 -1.2434 -2.7880
 1955SOL    HW217502   1.146   2.295   4.959  0.7333  0.1467  0.3874
 1956SOL     OW17503   2.937   0.565   9.609  0.1982  0.1825 -0.1920
 1956SOL    HW117504   2.848   0.531   9.606 -0.2409  1.3276 -0.0894
 1956SOL    HW217505   2.980   0.508   9.546 -1.1198  0.3509 -1.2374
 1957SOL     OW17506   2.286   2.919   2.373  0.8722  0.2370  0.4155
 1957SOL    HW117507   2.371   2.881   2.395  0.4075 -2.1903 -2.0076
 1957SOL    HW217508   2.264   2.966   2.453  0.7702 -1.2221  1.2382
 1958SOL     OW17509   3.045   3.388  13.459  0.1647 -0.6419  0.0761
 1958SOL    HW117510   2.992   3.403  13.381  1.6658  2.9522 -0.2627
 1958SOL    HW217511   3.011   3.456  13.518 -0.4142 -0.3460 -0.5944
 1959SOL     OW17512   0.193   1.084  11.411 -0.1571 -0.2595  0.4899
 1959SOL    HW117513   0.273   1.039  11.436  0.0956 -0.4276 -0.6182
 1959SOL    HW217514   0.139   1.008  11.388  1.4425 -1.3394  0.3383
 1960SOL     OW17515   0.904   0.950   3.088  0.6690 -0.0186 -0.8833
 1960SOL    HW117516   0.968   0.901   3.037  0.9965 -1.6390  1.0842
 1960SOL    HW217517   0.884   0.889   3.159 -0.9828 -0.5204 -1.7792
 1961SOL     OW17518   4.536   1.756  14.942  0.4711 -0.2739 -0.2868
 1961SOL    HW117519   4.547   1.850  14.926 -0.8750 -0.1027 -0.2726
 1961SOL    HW217520   4.579   1.703  14.874 -1.1184  1.5294 -2.7004
 1962SOL     OW17521   2.478   3.880   4.015 -0.2200  0.5965 -0.1585
 1962SOL    HW117522   2.550   3.935   4.043  0.9658 -0.5646 -0.9261
 1962SOL    HW217523   2.463   3.910   3.925 -1.2725 -1.5414 -0.6924
 1963SOL     OW17524   0.329   4.434   7.994 -0.2907 -0.4903  0.3407
 1963SOL    HW117525   0.280   4.398   7.921  0.2894 -3.5201  1.4377
 1963SOL    HW217526   0.268   4.449   8.067 -1.3788  0.4165 -0.7624
 1964SOL     OW17527   0.822   3.192  11.393  0.0771 -0.1222 -0.0809
 1964SOL    HW117528   0.873   3.271  11.411  0.1821  0.2426 -1.9689
 1964SOL    HW217529   0.841   3.187  11.299  1.7507 -1.0605  0.3157
 1965SOL     OW17530   4.336   0.457   6.941 -0.3257  0.1495  0.0751
 1965SOL    HW117531   4.303   0.396   6.875  1.8002  1.9207 -2.6478
 1965SOL    HW217532   4.340   0.406   7.022 -1.4773 -2.8668 -1.7549
 1966SOL     OW17533   0.015   1.719   9.595 -0.5074  0.5915  0.3271
 1966SOL    HW117534   4.682   1.660   9.627 -1.6754  1.7761  0.0110
 1966SOL    HW217535   0.000   1.782   9.665  1.9927 -0.9862  2.2458
 1967SOL     OW17536   3.557   4.522   6.686  0.1680 -0.1648 -0.2033
 1967SOL    HW117537   3.472   4.556   6.711 -0.4347 -0.6795 -1.5637
 1967SOL    HW217538   3.561   4.474   6.768 -1.7521  0.4708  0.2490
 1968SOL     OW17539   1.250   2.049  12.264  0.1307  0.3036  0.0431
 1968SOL    HW117540   1.278   1.981  12.203 -0.3758 -1.2725  1.5586
 1968SOL    HW217541   1.277   2.021  12.352  1.0685  0.7921 -0.0903
 1969SOL     OW17542   1.507   1.615  11.520 -0.2960 -0.2315 -0.2114
 1969SOL    HW117543   1.539   1.670  11.592  1.2387 -0.9877 -0.3026
 1969SOL    HW217544   1.590   1.611  11.472  0.6170 -0.3523  1.3943
 1970SOL     OW17545   4.340   4.475   9.604  0.3677  0.1110 -0.1405
 1970SOL    HW117546   4.264   4.511   9.651 -0.6349 -2.6206  0.3136
 1970SOL    HW217547   4.310   4.406   9.544  0.4415 -1.0606  1.1710
 1971SOL     OW17548   1.768   2.922  10.136  0.7491  0.2069  0.6795
 1971SOL    HW117549   1.859   2.919  10.106 -0.1714  0.2979 -2.1556
 1971SOL    HW217550   1.733   2.893  10.051  0.7685 -1.8806  1.3903
 1972SOL     OW17551   3.270   1.866  15.318  0.3354 -0.6726 -0.1376
 1972SOL    HW117552   3.210   1.928  15.276  1.1355  1.7862  2.3024
 1972SOL    HW217553   3.225   1.787  15.287  1.4767 -1.4232  0.1306
 1973SOL     OW17554   1.262   4.182   7.880  0.4493 -0.0026 -0.2575
 1973SOL    HW117555   1.173   4.150   7.865 -0.2407  0.4733  2.8559
 1973SOL    HW217556   1.286   4.148   7.794  1.4162  0.2501 -0.0875
 1974SOL     OW17557   1.674   2.822  14.097  0.1076  0.2203 -0.0869
 1974SOL    HW117558   1.641   2.799  14.184  0.4230 -0.0563 -0.0394
 1974SOL    HW217559   1.737   2.751  14.083  0.3090  0.8752 -2.5267
 1975SOL     OW17560   0.183   3.715   3.456 -0.3298 -0.9352  0.0177
 1975SOL    HW117561   0.249   3.650   3.478  1.3395  1.3849  1.7890
 1975SOL    HW217562   0.216   3.795   3.497 -2.3453 -0.0204 -0.1080
 1976SOL     OW17563   2.859   0.890   8.491  0.7699 -0.1539 -0.1306
 1976SOL    HW117564   2.790   0.848   8.542  1.6918 -0.3363  0.9623
 1976SOL    HW217565   2.916   0.870   8.565  0.8079 -0.2407 -0.1838
 1977SOL     OW17566   4.343   4.021   4.789  0.0323  0.2009  0.2763
 1977SOL    HW117567   4.334   4.101   4.839  2.4091  0.6287  0.0007
 1977SOL    HW217568   4.257   3.980   4.798  0.5987 -1.0690  0.0098
 1978SOL     OW17569   1.611   1.119  12.893 -0.2125  0.2702  0.4314
 1978SOL    HW117570   1.635   1.032  12.862  0.3027  1.0889 -1.4048
 1978SOL    HW217571   1.546   1.142  12.827 -1.9274  0.9655  2.3293
 1979SOL     OW17572   2.441   1.010   4.681 -0.2388  1.2433 -0.0413
 1979SOL    HW117573   2.425   0.969   4.596  1.5273 -1.7142  1.0416
 1979SOL    HW217574   2.353   1.046   4.691 -1.7722 -2.5208  0.2970
 1980SOL     OW17575   1.976   1.943   1.946 -0.2583 -0.2872  0.0857
 1980SOL    HW117576   1.911   2.009   1.971  0.3631  0.1436  0.5686
 1980SOL    HW217577   2.061   1.985   1.959 -0.0616 -0.0106 -2.0734
 1981SOL     OW17578   3.137   1.465   7.670  0.6384 -0.0341 -0.0599
 1981SOL    HW117579   3.113   1.484   7.760 -2.8250  1.6118 -1.3149
 1981SOL    HW217580   3.231   1.447   7.674  0.8554  1.0779 -0.0932
 1982SOL     OW17581   2.498   0.997   2.403  0.1310 -0.2666 -0.1375
 1982SOL    HW117582   2.461   0.933   2.464 -1.5423 -0.6670 -1.5746
 1982SOL    HW217583   2.520   1.067   2.464 -1.6747  0.3917 -0.2237
 1983SOL     OW17584   0.632   2.478  14.658 -0.5767 -0.2016 -0.2479
 1983SOL    HW117585   0.708   2.518  14.616 -0.5887 -0.7079 -0.7539
 1983SOL    HW217586   0.605   2.414  14.592  1.0825  1.4482 -2.5174
 1984SOL     OW17587   3.298   3.442   4.745 -0.1833 -0.0829 -0.3002
 1984SOL    HW117588   3.388   3.457   4.776 -1.5028  0.2737  3.4583
 1984SOL    HW217589   3.303   3.347   4.746  0.2978 -0.0612 -0.6180
 1985SOL     OW17590   1.633   0.165   6.371 -0.3665  0.4149  0.9386
 1985SOL    HW117591   1.705   0.224   6.350 -1.9004  2.6372  1.9435
 1985SOL    HW217592   1.617   0.130   6.284 -0.0403  0.9391  0.6701
 1986SOL     OW17593   0.297   1.340  11.286  0.2573 -0.2947 -0.0561
 1986SOL    HW117594   0.264   1.399  11.355  1.4273  0.8396 -0.4685
 1986SOL    HW217595   0.264   1.260  11.326 -2.2173 -0.5072 -2.5181
 1987SOL     OW17596   4.586   1.497  11.294  0.1622 -0.0572 -0.5639
 1987SOL    HW117597   4.661   1.459  11.248  0.2281 -1.5168  0.7568
 1987SOL    HW217598   4.604   1.591  11.297 -1.3866  0.2029  0.8840
 1988SOL     OW17599   2.044   1.961   7.779  0.7602  0.5856 -0.2939
 1988SOL    HW117600   2.023   1.898   7.848 -0.7396  0.2584 -1.0501
 1988SOL    HW217601   2.140   1.952   7.773  0.8979  2.0823 -0.4072
 1989SOL     OW17602   0.286   3.137   7.789 -0.4062 -0.5651 -0.2975
 1989SOL    HW117603   0.374   3.163   7.817 -1.0122  0.9591  0.1739
 1989SOL    HW217604   0.299   3.149   7.695 -0.3608 -0.9181 -0.3383
 1990SOL     OW17605   1.577   0.095  15.344 -0.1672  0.2527 -0.1857
 1990SOL    HW117606   1.484   0.073  15.348  0.2625 -1.3989  1.1741
 1990SOL    HW217607   1.616   0.055  15.423 -0.8285  0.0204  0.0237
 1991SOL     OW17608   2.639   2.048   0.599 -0.3503  0.4785 -0.9056
 1991SOL    HW117609   2.556   2.008   0.573  0.7245 -2.0620 -0.4692
 1991SOL    HW217610   2.683   2.048   0.515 -3.4577  0.7788 -2.5486
 1992SOL     OW17611   4.378   3.934   8.493 -0.5648 -0.2986 -0.6188
 1992SOL    HW117612   4.403   3.842   8.484 -1.5209 -0.4181 -2.0475
 1992SOL    HW217613   4.343   3.933   8.581 -1.6308  1.3153 -1.0451
 1993SOL     OW17614   0.834   3.045   6.309  0.4304 -0.6951  0.2456
 1993SOL    HW117615   0.744   3.068   6.330  0.1958 -0.2592 -1.2957
 1993SOL    HW217616   0.884   3.056   6.390 -0.8528  1.0003  0.7897
 1994SOL     OW17617   1.062   3.133   6.148  0.1740 -0.4601 -0.2983
 1994SOL    HW117618   1.095   3.208   6.198 -0.8868 -1.0937  1.3116
 1994SOL    HW217619   0.999   3.102   6.212  0.6236 -2.2879 -0.7386
 1995SOL     OW17620   2.111   0.858  11.742  0.7559 -0.2124 -0.5345
 1995SOL    HW117621   2.177   0.926  11.728  1.2556 -0.6280 -0.2299
 1995SOL    HW217622   2.046   0.884  11.677  0.7829  0.7396 -0.1789
 1996SOL     OW17623   0.463   2.876   2.978 -0.5264 -0.5213 -0.1591
 1996SOL    HW117624   0.508   2.915   2.903 -1.7180  2.6690  0.7604
 1996SOL    HW217625   0.390   2.938   2.978  1.7144  2.1734  1.3543
 1997SOL     OW17626   2.286   1.679   7.608  0.3807  0.4410  0.3452
 1997SOL    HW117627   2.239   1.648   7.531 -3.5226  2.1972  2.0370
 1997SOL    HW217628   2.365   1.626   7.595 -1.7634 -2.9387  1.0335
 1998SOL     OW17629   3.360   0.275   2.258 -0.2840  0.7372  0.7968
 1998SOL    HW117630   3.374   0.193   2.210  0.7009  3.8039 -4.1187
 1998SOL    HW217631   3.440   0.274   2.310  0.1907  0.3797  0.0488
 1999SOL     OW17632   0.407   4.324  14.701 -0.9451 -0.1655  0.3886
 1999SOL    HW117633   0.372   4.304  14.788 -2.1131 -0.4310 -0.1406
 1999SOL    HW217634   0.457   4.404  14.719  0.3639 -0.7548 -0.6255
 2000SOL     OW17635   3.175   3.580   7.736 -0.3379  0.2153 -0.0526
 2000SOL    HW117636   3.151   3.618   7.820 -2.6192  0.2385 -0.7267
 2000SOL    HW217637   3.118   3.503   7.733 -1.1505  0.8018  0.5104
 2001SOL     OW17638   4.419   3.575   2.986  0.0511  0.1270  0.0260
 2001SOL    HW117639   4.483   3.573   3.057 -0.3865  0.4621  0.4301
 2001SOL    HW217640   4.474   3.579   2.908  0.2366  0.2384  0.1619
 2002SOL     OW17641   1.516   1.400   3.999  0.2647  0.5501  0.8611
 2002SOL    HW117642   1.481   1.349   4.072  2.3561  0.2388  1.6528
 2002SOL    HW217643   1.429   1.398   3.960  0.6298  1.1323  0.0208
 2003SOL     OW17644   2.169   1.331   1.951 -0.0678  0.4575  0.5401
 2003SOL    HW117645   2.246   1.361   2.000 -0.4093  2.3702 -0.0742
 2003SOL    HW217646   2.159   1.414   1.903 -0.0902  0.9550  1.4124
 2004SOL     OW17647   3.803   1.600   2.466  0.4209 -0.2577 -0.1909
 2004SOL    HW117648   3.754   1.576   2.387  1.6767 -0.1646 -1.0074
 2004SOL    HW217649   3.808   1.695   2.452 -1.4526 -0.3662 -1.6484
 2005SOL     OW17650   0.450   0.406   0.711  0.3048 -0.3720  0.2148
 2005SOL    HW117651   0.522   0.464   0.735 -1.2763  0.7191  2.2731
 2005SOL    HW217652   0.420   0.374   0.796  0.4243  0.5267  0.5980
 2006SOL     OW17653   0.471   4.269   3.734 -0.1228  0.2983 -0.0173
 2006SOL    HW117654   0.552   4.309   3.764  0.0316 -0.1406  0.1527
 2006SOL    HW217655   0.473   4.305   3.645  0.4672  0.1917 -0.0464
 2007SOL     OW17656   0.760   3.064  10.932  0.2386 -0.0003  0.8202
 2007SOL    HW117657   0.827   3.103  10.988 -1.4957  0.1580  2.7561
 2007SOL    HW217658   0.732   2.993  10.989  2.0910  0.2057  1.9905
 2008SOL     OW17659   2.589   1.188  10.114 -0.0711 -0.3168 -0.7006
 2008SOL    HW117660   2.520   1.123  10.108 -0.0947 -0.2392 -1.2576
 2008SOL    HW217661   2.548   1.235  10.186 -0.3744  0.8622 -1.6341
 2009SOL     OW17662   3.100   3.592   0.035 -0.3467 -0.3154 -0.1863
 2009SOL    HW117663   3.193   3.572   0.025 -0.2497  0.1718 -0.2571
 2009SOL    HW217664   3.058   3.583  17.693  0.0372  0.6072 -0.4773
 2010SOL     OW17665   2.044   3.257   5.408  0.5023  0.5467  0.0244
 2010SOL    HW117666   1.963   3.207   5.393 -1.3282  3.7231 -0.7880
 2010SOL    HW217667   2.044   3.319   5.335  3.7923  0.4405 -0.0644
 2011SOL     OW17668   4.059   3.523   3.100 -0.3392 -0.1144  0.6293
 2011SOL    HW117669   3.989   3.555   3.043 -0.3612 -0.5219  0.4351
 2011SOL    HW217670   4.109   3.605   3.102  1.4097 -1.1790  0.0445
 2012SOL     OW17671   0.858   3.809  13.758 -0.4261  0.9038  0.2589
 2012SOL    HW117672   0.942   3.772  13.731  0.1601  2.3499  0.0865
 2012SOL    HW217673   0.802   3.742  13.719  2.1355 -1.6046  0.9069
 2013SOL     OW17674   1.035   2.336  14.203 -0.1180 -0.5711  0.3560
 2013SOL    HW117675   1.111   2.385  14.235 -0.1873  0.4306 -1.0040
 2013SOL    HW217676   1.071   2.305  14.120 -2.3407 -0.1343 -0.7862
 2014SOL     OW17677   3.472   2.406   1.994 -0.5312  0.2172 -0.4239
 2014SOL    HW117678   3.538   2.470   1.967  2.5213 -2.7179  0.1809
 2014SOL    HW217679   3.451   2.422   2.086  2.2092 -0.8249  0.3762
 2015SOL     OW17680   0.380   1.389  16.969  0.2250 -0.4423 -0.3367
 2015SOL    HW117681   0.373   1.483  16.989 -0.5642 -0.4192 -0.7036
 2015SOL    HW217682   0.316   1.393  16.898  0.1172 -2.5769 -0.3549
 2016SOL     OW17683   3.378   0.746   0.418 -0.1866 -0.5935 -0.2549
 2016SOL    HW117684   3.420   0.830   0.399  0.5933 -0.8756  0.1902
 2016SOL    HW217685   3.416   0.695   0.347  0.5561 -0.6415  0.1791
 2017SOL     OW17686   0.155   3.941  15.953  0.4801  0.3947 -0.3952
 2017SOL    HW117687   0.149   4.007  15.885  1.8634  0.1830 -0.7088
 2017SOL    HW217688   0.227   3.986  15.997 -0.1371  0.3614  0.6638
 2018SOL     OW17689   1.011   4.388   2.777 -0.2376  0.0815 -0.1870
 2018SOL    HW117690   1.096   4.372   2.738  0.1973  1.8977  0.0261
 2018SOL    HW217691   0.967   4.443   2.713  0.9204  2.1428  0.7798
 2019SOL     OW17692   0.773   0.514   6.687  0.5153 -0.0479 -0.3885
 2019SOL    HW117693   0.829   0.571   6.634  1.0958 -0.9440 -0.7484
 2019SOL    HW217694   0.751   0.575   6.757  1.1377 -0.9369  0.5695
 2020SOL     OW17695   3.766   2.985   5.840 -0.3088 -0.5190  0.1758
 2020SOL    HW117696   3.701   2.919   5.817 -1.6512  0.9784 -0.2992
 2020SOL    HW217697   3.719   3.056   5.883  0.6978  0.3190 -0.0955
 2021SOL     OW17698   3.105   4.672   6.022  0.3372  0.8213 -0.5187
 2021SOL    HW117699   3.175   4.707   5.967  1.6920 -0.8913  0.1247
 2021SOL    HW217700   3.080   4.589   5.982  1.0613  0.0939  0.5327
 2022SOL     OW17701   0.301   0.354   8.154 -0.4449 -0.2326  0.4117
 2022SOL    HW117702   0.355   0.276   8.143  0.5939  0.1514  2.9105
 2022SOL    HW217703   0.331   0.404   8.078  0.6349 -0.3295  0.7776
 2023SOL     OW17704   3.624   1.350   8.799 -0.4581 -0.0277  0.2386
 2023SOL    HW117705   3.583   1.417   8.744 -1.5623 -1.2778 -0.4384
 2023SOL    HW217706   3.545   1.297   8.811 -0.5598 -0.0570 -0.6106
 2024SOL     OW17707   2.919   2.381  13.440  0.2124  0.2787  0.2306
 2024SOL    HW117708   2.929   2.299  13.393  1.8530 -0.3324  1.6577
 2024SOL    HW217709   2.947   2.433  13.365  1.1519 -0.8782 -0.2136
 2025SOL     OW17710   1.077   4.194   0.649  0.0024 -0.1406 -0.1380
 2025SOL    HW117711   1.029   4.232   0.575 -0.9280 -0.2584  0.4052
 2025SOL    HW217712   1.166   4.230   0.646  0.6639 -1.5586  2.4288
 2026SOL     OW17713   2.455   1.310   7.189  0.2489 -0.5995 -0.3387
 2026SOL    HW117714   2.518   1.365   7.236 -0.4369 -0.5468  0.5160
 2026SOL    HW217715   2.512   1.237   7.169 -1.1390 -1.7958  0.0805
 2027SOL     OW17716   0.346   4.111  17.212 -0.1755  0.0457  0.0801
 2027SOL    HW117717   0.390   4.099  17.128 -1.1407 -0.9406 -0.2843
 2027SOL    HW217718   0.255   4.125  17.185 -0.8647  1.2827  2.9623
 2028SOL     OW17719   1.599   1.974   8.011 -0.3706 -0.3579 -0.5921
 2028SOL    HW117720   1.523   1.954   7.956 -1.2638  1.5751 -0.0835
 2028SOL    HW217721   1.671   1.924   7.975  0.3689 -0.1628  0.6086
 2029SOL     OW17722   4.285   4.074  12.628 -0.1754  0.2709 -0.5403
 2029SOL    HW117723   4.306   3.995  12.577 -0.7919  0.2251 -0.7386
 2029SOL    HW217724   4.297   4.147  12.567  1.8730 -1.1284 -1.8424
 2030SOL     OW17725   1.977   0.665  14.119 -0.2317 -0.2679  0.4717
 2030SOL    HW117726   2.072   0.671  14.110 -0.0621 -1.2694  1.6283
 2030SOL    HW217727   1.971   0.687  14.212 -0.6357  0.2910  0.3165
 2031SOL     OW17728   2.781   3.833   3.549 -0.3063 -0.3000 -0.1940
 2031SOL    HW117729   2.772   3.758   3.491  1.8393  0.2530 -1.2534
 2031SOL    HW217730   2.737   3.800   3.627 -0.1929  1.1852  0.5047
 2032SOL     OW17731   2.358   4.171  10.264 -0.4214 -0.3818 -0.0934
 2032SOL    HW117732   2.350   4.233  10.191 -1.5262 -1.4418 -0.8734
 2032SOL    HW217733   2.269   4.140  10.282 -0.6399 -0.5479 -1.4897
 2033SOL     OW17734   3.735   4.715   2.572 -0.4533 -0.3252  0.0659
 2033SOL    HW117735   3.776   4.649   2.516 -0.4406  0.3858 -0.7604
 2033SOL    HW217736   3.724   4.671   2.657  1.2420 -1.2300 -0.1813
 2034SOL     OW17737   1.190   0.859   2.285  0.4986  0.4324 -0.5414
 2034SOL    HW117738   1.283   0.846   2.304 -0.0937 -1.2845  1.2766
 2034SOL    HW217739   1.188   0.954   2.280  2.4153  0.5661  1.0912
 2035SOL     OW17740   1.743   1.054   5.826 -0.0844  0.3873  0.0991
 2035SOL    HW117741   1.725   1.126   5.886  0.1793 -1.1288  2.0148
 2035SOL    HW217742   1.686   1.074   5.752  1.5034 -0.7057 -1.4498
 2036SOL     OW17743   1.343   4.004   7.687 -0.7540 -0.2462  0.6953
 2036SOL    HW117744   1.363   4.036   7.599  2.6164  0.2505  1.6404
 2036SOL    HW217745   1.334   3.910   7.673 -1.6874  0.2155 -1.9497
 2037SOL     OW17746   2.254   3.396   5.997 -0.0674  0.2648 -0.1321
 2037SOL    HW117747   2.342   3.369   6.022 -0.4082 -1.1940 -0.5127
 2037SOL    HW217748   2.264   3.368   5.907 -0.2486  0.1341 -0.1119
 2038SOL     OW17749   1.653   0.755   8.605  0.1330 -0.0936 -0.1866
 2038SOL    HW117750   1.725   0.709   8.563 -0.0467  0.4030 -1.0330
 2038SOL    HW217751   1.589   0.685   8.602  1.7432 -1.5946  0.3863
 2039SOL     OW17752   0.484   4.542   8.869 -0.3495 -0.0527 -0.1946
 2039SOL    HW117753   0.423   4.562   8.940  2.0463  1.5321  1.4537
 2039SOL    HW217754   0.436   4.527   8.788  1.7165  0.0577 -1.4193
 2040SOL     OW17755   3.657   2.208  11.501  0.7489 -0.2243 -0.1141
 2040SOL    HW117756   3.602   2.163  11.565  0.3869  0.5897  0.1529
 2040SOL    HW217757   3.724   2.147  11.470  0.1422 -0.3341 -1.1778
 2041SOL     OW17758   3.138   4.451   7.071  0.2543 -0.0548 -0.6336
 2041SOL    HW117759   3.083   4.528   7.053 -0.1169 -0.3649 -0.8089
 2041SOL    HW217760   3.143   4.466   7.166  0.4815  1.3681 -0.8639
 2042SOL     OW17761   0.479   4.081  13.520 -0.3599  0.4948  0.5187
 2042SOL    HW117762   0.446   4.171  13.519  0.8651  0.9274 -0.9840
 2042SOL    HW217763   0.554   4.104  13.573  1.3782  0.0546 -1.7451
 2043SOL     OW17764   1.832   3.067   3.083  0.2517  0.1361 -0.5051
 2043SOL    HW117765   1.818   3.062   2.988  1.6570  0.4197 -0.7418
 2043SOL    HW217766   1.910   3.122   3.090 -1.7221  2.4503  2.8013
 2044SOL     OW17767   3.466   3.251   7.164 -0.3926  0.1481 -0.5774
 2044SOL    HW117768   3.420   3.167   7.167  0.2386 -0.2216 -1.5984
 2044SOL    HW217769   3.460   3.277   7.256 -0.5004  2.0107 -1.1105
 2045SOL     OW17770   4.542   4.526   6.594  0.6147 -0.0042 -0.2976
 2045SOL    HW117771   4.532   4.451   6.652 -1.4285  0.6740  0.2671
 2045SOL    HW217772   4.460   4.519   6.545  1.0429  1.4146 -1.2266
 2046SOL     OW17773   3.601   1.499  14.600 -0.3972  0.3030 -0.4879
 2046SOL    HW117774   3.507   1.495  14.620 -0.5460  1.1252 -1.0281
 2046SOL    HW217775   3.603   1.411  14.562 -0.8075 -0.9685  2.3890
 2047SOL     OW17776   3.771   1.707   7.190  0.3582 -0.4053 -0.2334
 2047SOL    HW117777   3.785   1.777   7.126  0.4934  0.4284  0.6932
 2047SOL    HW217778   3.682   1.678   7.172  1.4386 -3.5911 -0.3849
 2048SOL     OW17779   0.266   0.962  10.041  0.1016  0.1584  0.1848
 2048SOL    HW117780   0.355   0.949  10.009 -0.7864  0.1232 -2.2482
 2048SOL    HW217781   0.242   0.882  10.089  0.2720 -0.7976 -1.2956
 2049SOL     OW17782   3.482   0.791   2.952 -0.4223 -0.0011  0.5024
 2049SOL    HW117783   3.415   0.856   2.930 -0.0551  0.2924  0.2453
 2049SOL    HW217784   3.552   0.851   2.927 -0.8240 -0.3171 -1.4299
 2050SOL     OW17785   4.402   0.607   3.240 -0.0533  0.2645 -0.1616
 2050SOL    HW117786   4.363   0.593   3.326 -2.0064  1.3993 -0.8714
 2050SOL    HW217787   4.463   0.533   3.240 -0.2990  0.0601 -0.2696
 2051SOL     OW17788   1.898   4.105  15.267 -0.2226  0.0288  0.2686
 2051SOL    HW117789   1.991   4.099  15.290 -0.8710 -2.6711  2.0880
 2051SOL    HW217790   1.854   4.073  15.345 -1.7647  0.1959 -0.5379
 2052SOL     OW17791   0.999   2.586   6.694  0.2424  1.0406 -0.3187
 2052SOL    HW117792   0.991   2.502   6.738  2.0891  1.3095  0.5653
 2052SOL    HW217793   1.093   2.606   6.704  0.4425  0.2305 -0.5941
 2053SOL     OW17794   0.763   2.866   1.868 -0.4199  0.3740 -0.4971
 2053SOL    HW117795   0.841   2.811   1.869  0.2310  1.3297  0.5354
 2053SOL    HW217796   0.748   2.870   1.963 -0.4329  1.4005 -0.5437
 2054SOL     OW17797   1.104   2.854   5.085  0.8008 -0.1448 -0.4940
 2054SOL    HW117798   1.193   2.847   5.050  1.0340 -0.0967  0.0720
 2054SOL    HW217799   1.061   2.776   5.050  0.1437  0.5679 -1.2554
 2055SOL     OW17800   0.619   4.572   0.287  0.6654 -0.0002 -0.4430
 2055SOL    HW117801   0.646   4.525   0.208 -0.2611 -0.4053 -0.5178
 2055SOL    HW217802   0.544   4.519   0.313  0.7844 -0.2412 -0.5780
 2056SOL     OW17803   4.256   3.622   2.355  0.2428  0.3039 -0.3439
 2056SOL    HW117804   4.329   3.576   2.398  0.7905  0.2426 -1.3363
 2056SOL    HW217805   4.296   3.709   2.350  1.0018  0.0067  0.5586
 2057SOL     OW17806   2.648   1.715   0.445 -0.2394 -0.2780  0.0293
 2057SOL    HW117807   2.584   1.653   0.410 -0.0001 -1.0882  1.0264
 2057SOL    HW217808   2.704   1.653   0.493 -1.3396 -0.4379  1.1192
 2058SOL     OW17809   0.949   0.422   9.416  0.4032  0.0935  0.1395
 2058SOL    HW117810   0.885   0.418   9.345 -0.5868  0.8152  0.9954
 2058SOL    HW217811   0.900   0.364   9.476  2.5563  0.2298  2.0158
 2059SOL     OW17812   0.750   1.991   1.647  0.3814  0.0770  0.2868
 2059SOL    HW117813   0.845   1.991   1.636  0.0492 -0.9652 -2.5485
 2059SOL    HW217814   0.732   2.080   1.615 -0.5350 -1.0911 -2.4406
 2060SOL     OW17815   4.225   2.364   2.437  0.7045 -0.6328  0.4166
 2060SOL    HW117816   4.295   2.383   2.375 -0.1971 -0.4482 -0.5412
 2060SOL    HW217817   4.276   2.317   2.502  2.2692  0.9068  0.2924
 2061SOL     OW17818   1.271   3.052   3.011  0.0658 -0.4835  0.3424
 2061SOL    HW117819   1.216   3.014   3.079  2.3832  2.3509  3.8186
 2061SOL    HW217820   1.227   3.017   2.934 -0.3085 -1.1711  0.8687
 2062SOL     OW17821   3.583   0.643  11.822  0.4980 -0.1462  0.1617
 2062SOL    HW117822   3.497   0.606  11.842  1.0784 -1.2493  0.6208
 2062SOL    HW217823   3.550   0.732  11.814 -0.0066 -0.2295  1.3169
 2063SOL     OW17824   3.211   0.567  13.108 -0.7904 -0.7956  0.1014
 2063SOL    HW117825   3.188   0.660  13.108  2.3955  0.0220  0.5791
 2063SOL    HW217826   3.201   0.546  13.015 -0.1428  0.6466 -0.2863
 2064SOL     OW17827   1.675   1.628   6.125 -0.3920 -0.2503  0.5303
 2064SOL    HW117828   1.678   1.631   6.030 -0.7840  0.9662  0.5554
 2064SOL    HW217829   1.610   1.558   6.130  1.1000 -1.6209  0.7734
 2065SOL     OW17830   4.284   4.645  13.126 -0.2053  0.0272 -0.3161
 2065SOL    HW117831   4.376   4.621  13.136 -0.8856 -2.0491  0.8466
 2065SOL    HW217832   4.252   4.571  13.075 -0.3833 -0.3773  0.3910
 2066SOL     OW17833   0.616   3.196   8.623  0.7629  0.2012 -0.3549
 2066SOL    HW117834   0.638   3.130   8.688  2.0844  0.1131 -0.8817
 2066SOL    HW217835   0.609   3.277   8.673  1.3039 -0.1625  0.3052
 2067SOL     OW17836   1.608   1.603   4.468 -0.6735 -0.5352  0.2744
 2067SOL    HW117837   1.674   1.544   4.431 -2.5558 -2.1403 -0.5079
 2067SOL    HW217838   1.654   1.641   4.543 -3.0347 -1.4074  2.1497
 2068SOL     OW17839   3.025   2.466   9.681 -0.0673 -0.7311 -0.3516
 2068SOL    HW117840   2.980   2.536   9.729 -0.2120 -0.9700 -0.1383
 2068SOL    HW217841   2.961   2.426   9.622 -1.8087  0.5870  0.6383
 2069SOL     OW17842   2.133   2.802  11.646 -0.3686  0.2303  0.4946
 2069SOL    HW117843   2.070   2.765  11.707  0.0855  1.1635  1.5195
 2069SOL    HW217844   2.094   2.773  11.563  3.2763  1.3581 -1.6215
 2070SOL     OW17845   3.810   1.700  16.582  0.2542 -0.2041 -0.0091
 2070SOL    HW117846   3.870   1.637  16.623 -0.9871 -0.1807  1.8196
 2070SOL    HW217847   3.864   1.723  16.507 -1.6376  2.2447 -0.5989
 2071SOL     OW17848   2.850   2.366   0.795  0.3146 -0.5051  0.4991
 2071SOL    HW117849   2.837   2.349   0.702  0.1114  2.0292  0.0650
 2071SOL    HW217850   2.926   2.424   0.794 -0.3207  0.3620  2.5073
 2072SOL     OW17851   3.348   2.923  15.892 -0.3421 -0.0177  0.0738
 2072SOL    HW117852   3.435   2.921  15.852  0.0791  2.0450  0.9176
 2072SOL    HW217853   3.373   2.951  15.980 -0.5550 -4.8914  1.7172
 2073SOL     OW17854   0.674   0.345   8.582 -0.3743 -0.1308 -0.0799
 2073SOL    HW117855   0.747   0.322   8.524 -0.2999  1.1739 -0.5041
 2073SOL    HW217856   0.721   0.329   8.663 -0.7734 -1.0325 -0.0217
 2074SOL     OW17857   1.873   3.293   8.642 -0.1384 -0.2989  0.8807
 2074SOL    HW117858   1.939   3.294   8.712  0.1671 -0.3161  0.5929
 2074SOL    HW217859   1.871   3.202   8.611  0.4017  0.3537 -1.0578
 2075SOL     OW17860   2.570   1.282   8.331  0.0140 -0.2958 -0.2492
 2075SOL    HW117861   2.646   1.261   8.387  0.8725  2.4222 -0.4121
 2075SOL    HW217862   2.514   1.337   8.385  0.5871 -1.0629  1.1324
 2076SOL     OW17863   4.623   0.299   3.463 -0.7014  0.2399 -0.6346
 2076SOL    HW117864   4.618   0.376   3.520  1.5946 -1.3708  1.7359
 2076SOL    HW217865   4.637   0.336   3.376 -0.6585 -1.4455 -1.3361
 2077SOL     OW17866   0.069   0.645   0.367 -0.1581 -0.3126 -0.3911
 2077SOL    HW117867   0.144   0.596   0.400 -2.4279 -3.3143  0.3854
 2077SOL    HW217868   0.006   0.619   0.435  0.7660 -0.9734  0.2213
 2078SOL     OW17869   2.346   3.458  10.909 -0.1813  0.2525 -0.0408
 2078SOL    HW117870   2.402   3.492  10.980  2.4990 -1.3909 -1.3830
 2078SOL    HW217871   2.363   3.365  10.920  1.1371  0.4693 -0.2375
 2079SOL     OW17872   1.238   1.042  15.096  0.4950  0.4197  0.3219
 2079SOL    HW117873   1.175   1.054  15.026  1.8711 -3.0326 -1.5185
 2079SOL    HW217874   1.258   0.949  15.083  0.2535  0.4006  0.0873
 2080SOL     OW17875   4.294   1.357   7.149  0.3762  0.0697 -0.0126
 2080SOL    HW117876   4.207   1.361   7.188  0.0890  2.2841 -0.9132
 2080SOL    HW217877   4.275   1.400   7.066  0.4525  0.9372  0.4297
 2081SOL     OW17878   0.560   2.842   6.060  0.0290 -0.2246 -0.5043
 2081SOL    HW117879   0.480   2.874   6.018  0.6979  0.3572 -1.3436
 2081SOL    HW217880   0.621   2.916   6.055 -0.4502  0.3861  3.2798
 2082SOL     OW17881   1.018   4.551   7.955 -0.5716 -0.0454 -0.2482
 2082SOL    HW117882   1.103   4.523   7.989  0.1676 -0.0927 -2.1381
 2082SOL    HW217883   1.025   4.647   7.961  0.1843 -0.0696 -0.7221
 2083SOL     OW17884   3.086   4.512  16.692  0.3357  0.2125 -0.3070
 2083SOL    HW117885   3.032   4.572  16.743  2.3103  0.3361  1.6343
 2083SOL    HW217886   3.079   4.559  16.608 -0.2204 -1.6661 -1.3203
 2084SOL     OW17887   2.542   4.126   9.330  1.0286 -0.3746 -0.1340
 2084SOL    HW117888   2.492   4.140   9.249 -1.4286 -0.7976  1.2940
 2084SOL    HW217889   2.601   4.059   9.297  1.3791  0.8337 -1.9275
 2085SOL     OW17890   2.762   1.967   5.963 -0.0179  0.4302  0.0213
 2085SOL    HW117891   2.697   1.922   6.016  0.1038 -1.2625 -1.2427
 2085SOL    HW217892   2.797   2.034   6.022 -1.0845  2.3946 -1.5750
 2086SOL     OW17893   1.938   0.809   8.374  0.3601 -0.2876 -0.1871
 2086SOL    HW117894   1.912   0.899   8.391 -0.1613 -0.6503  0.9399
 2086SOL    HW217895   1.959   0.817   8.281  0.3651 -1.5432 -0.3023
 2087SOL     OW17896   4.134   4.228   2.116  0.1944 -0.1414  0.6208
 2087SOL    HW117897   4.161   4.136   2.116  0.8009  0.0450 -0.8528
 2087SOL    HW217898   4.148   4.252   2.208  0.8096  0.9600  0.2338
 2088SOL     OW17899   2.229   0.608   0.028 -0.9026  0.1156  0.5720
 2088SOL    HW117900   2.275   0.691   0.045 -1.1741  0.4465 -0.3139
 2088SOL    HW217901   2.185   0.632  17.690  0.3345  1.2348  0.2224
 2089SOL     OW17902   0.475   2.418   9.361  0.1768 -0.3321  0.0860
 2089SOL    HW117903   0.497   2.437   9.452  2.4692  2.2948 -0.9978
 2089SOL    HW217904   0.409   2.351   9.378  0.3283 -0.1829  1.2475
 2090SOL     OW17905   3.224   4.664   0.010  0.1135  0.5003  0.6190
 2090SOL    HW117906   3.250   4.720  17.680 -0.1770 -0.9772 -0.6242
 2090SOL    HW217907   3.183   4.731   0.064 -0.1039  1.0204 -0.1924
 2091SOL     OW17908   1.588   4.134   4.319  0.0287  0.2819  0.0540
 2091SOL    HW117909   1.499   4.101   4.332  0.7505 -0.9275  1.8314
 2091SOL    HW217910   1.634   4.083   4.385  0.4317  0.4217 -0.1187
 2092SOL     OW17911   0.643   2.541   2.318  0.6432  0.4197  0.1598
 2092SOL    HW117912   0.678   2.478   2.381  0.9621  1.2800  0.8493
 2092SOL    HW217913   0.681   2.620   2.357  0.4812 -0.8175  2.8040
 2093SOL     OW17914   3.081   1.631   6.662  0.4698 -0.0797 -0.1318
 2093SOL    HW117915   3.077   1.725   6.677 -0.3740 -0.1992  0.3998
 2093SOL    HW217916   2.990   1.603   6.658  0.4285  0.0734 -0.2344
 2094SOL     OW17917   0.546   1.558   6.132  0.5577 -0.3064 -0.6521
 2094SOL    HW117918   0.631   1.577   6.172  0.7309 -1.0264 -0.6813
 2094SOL    HW217919   0.497   1.639   6.147 -0.5153 -0.8818 -1.0458
 2095SOL     OW17920   3.762   4.470   2.715 -0.1331 -0.1871 -0.5222
 2095SOL    HW117921   3.813   4.413   2.657 -2.8550 -2.4012 -0.7349
 2095SOL    HW217922   3.713   4.399   2.758  0.7992  0.1279  1.0691
 2096SOL     OW17923   2.796   2.866  13.975  0.5969  0.0528  0.1959
 2096SOL    HW117924   2.799   2.860  13.880  0.9000  0.6340  0.1670
 2096SOL    HW217925   2.844   2.787  14.001  1.5946 -0.0829 -2.1030
 2097SOL     OW17926   0.057   1.424  11.112  0.0531 -0.0898 -0.0284
 2097SOL    HW117927   0.130   1.362  11.110 -0.2667 -0.5033  1.3012
 2097SOL    HW217928   0.107   1.505  11.102 -0.2484 -0.1259 -1.8318
 2098SOL     OW17929   2.049   1.348   0.647  0.5034 -0.0915 -0.7133
 2098SOL    HW117930   1.954   1.347   0.639  0.5478 -1.1082 -1.1380
 2098SOL    HW217931   2.077   1.437   0.622  0.6361 -0.3594 -1.5320
 2099SOL     OW17932   2.589   3.125   8.823  0.2218  0.6594  0.3298
 2099SOL    HW117933   2.652   3.103   8.754  0.5163 -2.6312  1.6670
 2099SOL    HW217934   2.629   3.102   8.907  1.3549  0.5158 -0.2473
 2100SOL     OW17935   1.756   4.369  15.957 -0.1331 -0.2841  0.2934
 2100SOL    HW117936   1.836   4.332  15.994  0.7196  1.7610  0.4652
 2100SOL    HW217937   1.734   4.435  16.022  0.6583 -0.6340  0.9097
 2101SOL     OW17938   2.976   1.899  16.789 -0.2594  0.5922  0.1095
 2101SOL    HW117939   3.006   1.966  16.851 -1.5066  0.1332  1.1969
 2101SOL    HW217940   2.987   1.946  16.706 -2.6247  5.3000  2.3991
 2102SOL     OW17941   4.007   4.314  12.648  0.0788  0.3028  0.0942
 2102SOL    HW117942   4.035   4.241  12.703  1.0517  0.4507 -0.1997
 2102SOL    HW217943   3.924   4.342  12.687 -0.3883 -0.6909 -0.2004
 2103SOL     OW17944   3.199   1.233   0.487 -0.1124 -0.1390  0.5592
 2103SOL    HW117945   3.131   1.167   0.477 -1.0389  0.8996 -0.0068
 2103SOL    HW217946   3.269   1.186   0.531  0.7499  0.2253 -0.4257
 2104SOL     OW17947   0.225   3.687   8.374 -0.0811 -0.0793  0.8541
 2104SOL    HW117948   0.253   3.719   8.460  1.5588  1.6563 -0.3459
 2104SOL    HW217949   0.246   3.593   8.377 -2.0209 -0.5139  1.0816
 2105SOL     OW17950   2.541   3.929  16.883  0.0090 -0.3234 -0.0244
 2105SOL    HW117951   2.559   3.838  16.903 -1.6803 -0.6491 -0.0559
 2105SOL    HW217952   2.608   3.933  16.814  0.0831  1.0080  0.1205
 2106SOL     OW17953   2.805   3.710   5.180  0.1454  0.5251  0.3036
 2106SOL    HW117954   2.882   3.669   5.218  2.3751  2.2463 -2.3590
 2106SOL    HW217955   2.774   3.648   5.114  0.9031  1.6547 -1.1206
 2107SOL     OW17956   1.151   4.174   6.753 -0.2698 -0.4320 -0.1105
 2107SOL    HW117957   1.170   4.130   6.670  1.8807  1.8397 -0.8409
 2107SOL    HW217958   1.227   4.150   6.807  1.8081  1.4195 -2.1653
 2108SOL     OW17959   4.069   1.268   5.585 -0.0748  0.2840 -0.6599
 2108SOL    HW117960   3.990   1.298   5.539 -1.9140  0.1972  2.4419
 2108SOL    HW217961   4.059   1.306   5.672  0.9669  1.4513 -1.0457
 2109SOL     OW17962   3.416   2.480   3.740  0.3709  0.2729 -0.2407
 2109SOL    HW117963   3.432   2.418   3.812  0.9266 -1.0387 -1.4975
 2109SOL    HW217964   3.341   2.438   3.699  1.2618  0.5199 -2.1366
 2110SOL     OW17965   0.844   0.238  12.001 -0.3374  0.5989 -0.1057
 2110SOL    HW117966   0.885   0.161  11.962  1.2342  2.6283 -2.4047
 2110SOL    HW217967   0.902   0.306  11.968 -1.0917  1.2286 -0.1465
 2111SOL     OW17968   3.204   3.458  17.120 -0.8903  0.5176 -0.3922
 2111SOL    HW117969   3.219   3.466  17.025 -0.6290  1.0603 -0.3073
 2111SOL    HW217970   3.161   3.538  17.148  0.8312  0.9167  1.1444
 2112SOL     OW17971   1.769   3.040   9.040  0.4590 -0.2212  0.3787
 2112SOL    HW117972   1.765   3.042   9.135  0.5439  2.0378  0.3528
 2112SOL    HW217973   1.718   3.119   9.023  0.1997 -0.5505 -0.3660
 2113SOL     OW17974   3.904   1.801   6.439 -0.0456  0.2723 -0.2579
 2113SOL    HW117975   3.841   1.864   6.474 -0.1946 -0.5987  1.0387
 2113SOL    HW217976   3.922   1.827   6.349 -1.2458 -1.4907 -0.9868
 2114SOL     OW17977   0.675   4.079   9.574 -0.3087  0.0492  0.0027
 2114SOL    HW117978   0.700   4.044   9.488  1.0277 -0.5585  0.6507
 2114SOL    HW217979   0.743   4.144   9.591 -0.3674  0.2667 -0.5874
 2115SOL     OW17980   4.222   1.247   2.004  0.1214 -0.1687 -0.1766
 2115SOL    HW117981   4.273   1.252   2.085  1.4756 -1.6687 -0.9567
 2115SOL    HW217982   4.254   1.324   1.958 -2.0174  0.5083 -0.5211
 2116SOL     OW17983   4.301   1.813   1.128 -0.3424 -0.1853 -0.4815
 2116SOL    HW117984   4.339   1.769   1.204 -2.4041 -0.2061  0.5421
 2116SOL    HW217985   4.275   1.895   1.170 -0.3019 -0.6461  0.4432
 2117SOL     OW17986   4.280   3.384   2.699  0.5280 -0.3429 -0.3799
 2117SOL    HW117987   4.312   3.296   2.676 -1.1203 -0.9862 -0.2263
 2117SOL    HW217988   4.335   3.442   2.648  1.2611  0.6491  1.5390
 2118SOL     OW17989   1.061   0.004  12.212  1.0152  0.2764 -0.4302
 2118SOL    HW117990   1.070   0.009  12.116  0.3170 -1.6635 -0.5962
 2118SOL    HW217991   0.970   4.710  12.210  0.9800  0.2978  1.5316
 2119SOL     OW17992   3.715   3.081   2.579  0.6298  0.2140 -0.6599
 2119SOL    HW117993   3.632   3.124   2.555  1.3498  0.7322 -2.2500
 2119SOL    HW217994   3.741   3.128   2.658 -1.5097 -1.9727  1.3174
 2120SOL     OW17995   1.468   1.150  16.163 -0.8319  0.2078 -0.0727
 2120SOL    HW117996   1.562   1.166  16.170 -0.7276 -0.0530 -0.8570
 2120SOL    HW217997   1.424   1.214  16.219 -0.1650 -0.2338  0.9626
 2121SOL     OW17998   0.928   1.729   5.747  0.3611  0.4966  0.1043
 2121SOL    HW117999   0.882   1.695   5.824  1.6098 -1.6199 -0.0867
 2121SOL    HW218000   0.863   1.796   5.727 -0.2243  0.3014  1.3638
 2122SOL     OW18001   0.026   0.256  10.330 -0.1030  0.0635 -1.0609
 2122SOL    HW118002   0.063   0.331  10.284 -1.0720  1.2494  0.0952
 2122SOL    HW218003   4.680   0.239  10.285  0.3507 -2.0666 -1.0883
 2123SOL     OW18004   1.557   2.441   9.451  0.0066 -0.1681  0.2785
 2123SOL    HW118005   1.500   2.441   9.374 -0.0181  0.1029  0.2949
 2123SOL    HW218006   1.567   2.347   9.465  3.1200  0.0159 -0.8437
 2124SOL     OW18007   1.070   2.470   3.356  0.0250 -0.0578 -0.3300
 2124SOL    HW118008   1.009   2.431   3.293  0.7097 -1.7357  0.0394
 2124SOL    HW218009   1.022   2.451   3.436 -1.9511  0.4899 -1.3994
 2125SOL     OW18010   3.104   3.143   3.297 -0.4715  0.1758  0.5448
 2125SOL    HW118011   3.020   3.127   3.254 -0.2002  1.9102 -0.6456
 2125SOL    HW218012   3.155   3.077   3.251 -2.7488 -0.2542 -1.3795
 2126SOL     OW18013   3.111   1.147   1.556  0.0190 -0.3522  0.0723
 2126SOL    HW118014   3.172   1.121   1.625 -2.1689  2.0557  2.9272
 2126SOL    HW218015   3.079   1.065   1.520 -0.4978  0.8199 -2.1129
 2127SOL     OW18016   0.928   0.175  16.899 -0.0149 -0.3848 -0.0549
 2127SOL    HW118017   0.849   0.228  16.889  1.1684  1.8539  2.4034
 2127SOL    HW218018   0.957   0.216  16.981  0.3606  0.0357 -0.3971
 2128SOL     OW18019   1.088   3.682   6.004 -0.3012 -0.4212  0.0468
 2128SOL    HW118020   1.151   3.717   5.941  0.1667 -1.1822  0.0767
 2128SOL    HW218021   1.138   3.619   6.057  1.3267 -0.2210 -1.2373
 2129SOL     OW18022   2.817   2.795  13.537  0.3545  0.1106 -1.0082
 2129SOL    HW118023   2.907   2.770  13.557 -0.2257 -0.9749  0.3267
 2129SOL    HW218024   2.826   2.890  13.535  1.2809 -0.0014 -1.8950
 2130SOL     OW18025   2.917   0.094   7.262  0.4635 -0.2275 -0.3359
 2130SOL    HW118026   2.846   0.046   7.220  1.4654 -0.7597 -1.4181
 2130SOL    HW218027   2.911   0.181   7.223 -0.5808  0.1730  0.7001
 2131SOL     OW18028   2.486   1.408  13.372 -0.1307 -0.1607 -0.0642
 2131SOL    HW118029   2.485   1.396  13.467 -0.3643  1.0712  0.0881
 2131SOL    HW218030   2.461   1.321  13.340  0.2104  0.2290 -1.3902
 2132SOL     OW18031   3.107   3.343  12.110  0.1326 -0.2335 -0.3430
 2132SOL    HW118032   3.163   3.266  12.106 -1.0674 -1.1398  0.5399
 2132SOL    HW218033   3.108   3.364  12.203 -2.1595  1.4466 -0.7018
 2133SOL     OW18034   4.122   4.721   3.775  0.4545 -0.4536  0.1611
 2133SOL    HW118035   4.191   4.654   3.779  2.2980  1.4521 -0.0563
 2133SOL    HW218036   4.162   0.063   3.738 -0.8414  0.2109  0.1785
 2134SOL     OW18037   1.306   4.412   1.667  0.2656  0.0572 -0.6447
 2134SOL    HW118038   1.376   4.399   1.731  1.7869 -3.4776 -3.0212
 2134SOL    HW218039   1.344   4.478   1.609 -0.5846 -0.7047 -2.0706
 2135SOL     OW18040   1.757   0.458   5.204  0.4130  0.0399  0.1248
 2135SOL    HW118041   1.676   0.502   5.229  0.8657  1.9010 -1.6446
 2135SOL    HW218042   1.756   0.485   5.112  2.2226 -2.0152 -0.4888
 2136SOL     OW18043   3.428   2.478  11.857 -0.0017 -0.2537  0.8078
 2136SOL    HW118044   3.354   2.537  11.851 -1.0715 -1.4964  1.6230
 2136SOL    HW218045   3.389   2.399  11.896 -0.3471 -0.1315  0.7058
 2137SOL     OW18046   2.293   3.757   3.542  0.0204 -0.8757  0.5254
 2137SOL    HW118047   2.364   3.821   3.548  0.0987 -1.0783  1.9500
 2137SOL    HW218048   2.237   3.816   3.492  0.3205 -0.8621  0.2077
 2138SOL     OW18049   0.909   0.263   6.645  0.8603 -0.2214  0.6464
 2138SOL    HW118050   0.858   0.339   6.675  1.4690  1.6645 -3.0822
 2138SOL    HW218051   0.848   0.199   6.681 -0.5273 -0.1866 -1.6306
 2139SOL     OW18052   0.575   3.293   2.490 -0.5256  0.0971  0.3991
 2139SOL    HW118053   0.669   3.310   2.486 -0.0318 -2.4350  0.9362
 2139SOL    HW218054   0.544   3.368   2.540  1.0513  0.9353  0.1222
 2140SOL     OW18055   1.092   0.509   4.464  0.1860  0.5625  0.0520
 2140SOL    HW118056   1.046   0.591   4.483 -2.1231 -0.7192 -0.0699
 2140SOL    HW218057   1.185   0.531   4.472  0.2001 -0.2314  1.9713
 2141SOL     OW18058   3.749   3.319   6.645  0.2703 -0.2172 -0.4470
 2141SOL    HW118059   3.713   3.248   6.593 -0.3792 -0.6576  0.5965
 2141SOL    HW218060   3.692   3.314   6.722 -0.3062  2.7252 -0.6855
 2142SOL     OW18061   2.778   4.255   4.896  0.3954 -0.2050 -0.8834
 2142SOL    HW118062   2.822   4.337   4.921 -0.7031  0.3020 -0.6355
 2142SOL    HW218063   2.810   4.198   4.967  2.2041  2.3803  0.4053
 2143SOL     OW18064   3.963   2.445  14.177  0.1285  0.0928 -0.0556
 2143SOL    HW118065   3.867   2.438  14.173 -0.0671  1.2879  2.6352
 2143SOL    HW218066   3.998   2.403  14.099 -0.5828  3.1789 -2.0081
 2144SOL     OW18067   3.657   1.501   6.823  0.0445  0.1388  0.3361
 2144SOL    HW118068   3.681   1.432   6.885 -0.7140 -0.6559 -0.2440
 2144SOL    HW218069   3.563   1.504   6.839  0.3573 -0.4137  2.2858
 2145SOL     OW18070   4.620   3.250  17.102 -0.0154 -0.5650 -0.3711
 2145SOL    HW118071   4.594   3.176  17.048 -0.2492 -1.0124  0.3464
 2145SOL    HW218072   4.715   3.258  17.100  0.0094 -0.6513  0.6297
 2146SOL     OW18073   4.168   4.251   8.128 -0.7574 -0.0182 -0.3436
 2146SOL    HW118074   4.166   4.201   8.209 -0.4784 -0.8777 -0.8679
 2146SOL    HW218075   4.117   4.332   8.135  0.5797  0.8400 -0.7214
 2147SOL     OW18076   0.643   4.026   2.738 -0.0449 -0.5213 -0.4381
 2147SOL    HW118077   0.695   3.976   2.800  0.6158 -0.0861 -0.6441
 2147SOL    HW218078   0.649   4.112   2.779 -1.7036 -0.8245  0.4643
 2148SOL     OW18079   2.214   2.679   1.387  0.1372  0.6491  0.8104
 2148SOL    HW118080   2.184   2.596   1.424 -2.8411  1.1185 -0.6053
 2148SOL    HW218081   2.191   2.743   1.454 -0.5200 -0.3348  1.5283
 2149SOL     OW18082   0.115   3.205   4.989 -0.0898  0.0349  0.4093
 2149SOL    HW118083   0.023   3.212   5.015  0.5646  2.6742  2.0372
 2149SOL    HW218084   0.138   3.125   5.036 -0.2561 -0.0025  0.4253
 2150SOL     OW18085   1.042   3.168   8.576  0.5809 -0.0792 -0.0969
 2150SOL    HW118086   1.072   3.083   8.608 -0.3084  0.4705  2.2435
 2150SOL    HW218087   1.082   3.173   8.490 -0.6025  0.4283 -0.6229
 2151SOL     OW18088   2.093   0.246  11.579  0.0225  0.2435  0.1072
 2151SOL    HW118089   2.086   0.341  11.578 -0.3049  0.2207  0.5108
 2151SOL    HW218090   2.160   0.237  11.511 -0.1035  5.0985 -0.6454
 2152SOL     OW18091   3.412   2.938  12.422  0.5543  0.2378 -0.0549
 2152SOL    HW118092   3.317   2.935  12.414  0.5082  1.8404 -0.0117
 2152SOL    HW218093   3.439   2.962  12.334 -0.4499  0.3359 -0.3279
 2153SOL     OW18094   1.687   4.291   9.615  0.3009  0.5490 -0.7973
 2153SOL    HW118095   1.637   4.212   9.590 -0.8700  0.1899  2.6493
 2153SOL    HW218096   1.753   4.247   9.669  0.9997 -0.1967 -2.2750
 2154SOL     OW18097   1.117   4.208   1.765 -0.2466 -0.7676  0.0220
 2154SOL    HW118098   1.113   4.293   1.721 -0.0186 -0.7836 -0.0275
 2154SOL    HW218099   1.022   4.196   1.775 -0.2769 -0.5572 -0.0241
 2155SOL     OW18100   0.421   3.057   3.707  0.0472 -0.7770  0.4078
 2155SOL    HW118101   0.428   2.964   3.729 -0.1993 -1.5086 -2.5773
 2155SOL    HW218102   0.439   3.088   3.796  0.7409 -3.3837  1.1889
 2156SOL     OW18103   3.316   1.139   3.788  0.2012 -0.2579 -0.1087
 2156SOL    HW118104   3.366   1.144   3.707 -3.5149  0.3406 -2.3830
 2156SOL    HW218105   3.344   1.055   3.823 -1.1864 -0.6108  0.1716
 2157SOL     OW18106   0.209   2.872   7.994 -0.2291 -0.2601 -0.1043
 2157SOL    HW118107   0.151   2.906   8.063 -0.4735 -0.4129 -0.2333
 2157SOL    HW218108   0.171   2.919   7.919  0.3768  2.2336  1.1404
 2158SOL     OW18109   0.155   1.501   1.350  0.1478 -0.3752  0.3531
 2158SOL    HW118110   0.207   1.491   1.271  0.4439 -0.9459  0.6189
 2158SOL    HW218111   0.215   1.554   1.403  1.1136 -0.3370 -0.7983
 2159SOL     OW18112   3.181   0.534   2.390  0.2295 -0.4854  0.3182
 2159SOL    HW118113   3.266   0.577   2.401  0.5676 -0.6018 -1.7505
 2159SOL    HW218114   3.161   0.510   2.480 -2.1424  1.3371  0.2650
 2160SOL     OW18115   0.091   1.686   6.499  0.0114 -0.3342 -0.2858
 2160SOL    HW118116   0.075   1.668   6.592 -1.3649  0.9705 -0.2634
 2160SOL    HW218117   0.166   1.746   6.497  1.3861 -2.1395 -2.2464
 2161SOL     OW18118   4.466   2.508   5.603  0.0943  0.0107  0.5272
 2161SOL    HW118119   4.488   2.599   5.584  0.7205 -0.2824 -0.1546
 2161SOL    HW218120   4.545   2.478   5.647  0.9473  0.8441 -0.4278
 2162SOL     OW18121   4.149   4.345   4.130 -0.5267  0.1742  0.0906
 2162SOL    HW118122   4.214   4.306   4.188 -0.4934 -2.1447 -1.5176
 2162SOL    HW218123   4.086   4.386   4.190 -0.5867  0.3329 -0.0778
 2163SOL     OW18124   4.456   4.123   5.400  0.2430 -0.4921 -0.9088
 2163SOL    HW118125   4.514   4.047   5.407 -0.4369 -0.7814  1.6226
 2163SOL    HW218126   4.372   4.078   5.386 -0.5108  0.3478  0.8455
 2164SOL     OW18127   4.202   4.462   1.609 -0.2862  0.0176 -0.0209
 2164SOL    HW118128   4.176   4.507   1.529 -1.7511 -0.2997  0.2796
 2164SOL    HW218129   4.172   4.373   1.594  0.2193  0.3557 -2.9409
 2165SOL     OW18130   2.790   1.843   3.680  0.2505  0.0379  0.1522
 2165SOL    HW118131   2.789   1.853   3.585 -0.0341 -2.3248 -0.0793
 2165SOL    HW218132   2.699   1.859   3.702 -0.0391 -2.2377  0.5891
 2166SOL     OW18133   2.506   3.396  16.901  0.3274  0.1395 -0.7233
 2166SOL    HW118134   2.414   3.394  16.927  0.0908 -1.4190 -1.6927
 2166SOL    HW218135   2.549   3.343  16.969  1.4323 -0.8122 -2.1527
 2167SOL     OW18136   1.727   4.620   3.963  0.4071  0.3624  0.1110
 2167SOL    HW118137   1.757   4.696   3.913  0.8056 -1.3420 -2.2780
 2167SOL    HW218138   1.646   4.648   4.005  0.6377  1.9848 -0.5290
 2168SOL     OW18139   2.852   1.990  16.052 -0.6245  0.0768  0.3176
 2168SOL    HW118140   2.771   2.009  16.005 -1.0906  2.2039  1.9799
 2168SOL    HW218141   2.881   1.905  16.019  2.3418  0.8010  1.0256
 2169SOL     OW18142   4.551   2.639   4.045  0.0252  0.0523  0.4914
 2169SOL    HW118143   4.539   2.585   4.123 -1.6812  3.4634  2.5945
 2169SOL    HW218144   4.540   2.578   3.972  1.2275  1.6634 -1.0288
 2170SOL     OW18145   3.605   3.980   8.258  0.3440 -0.4865  0.2462
 2170SOL    HW118146   3.661   4.001   8.332 -0.4934 -1.2629  1.1038
 2170SOL    HW218147   3.674   3.944   8.202 -0.6656 -0.0772 -1.2641
 2171SOL     OW18148   3.703   3.012  14.026 -0.1683  0.3849  0.3524
 2171SOL    HW118149   3.658   3.095  14.012 -2.9793 -1.5681 -2.2467
 2171SOL    HW218150   3.734   2.998  13.937  0.0847 -1.3502  0.7112
 2172SOL     OW18151   0.578   2.304   3.133 -0.1444 -0.5940  0.1999
 2172SOL    HW118152   0.507   2.289   3.071 -1.1083  1.2583  0.8811
 2172SOL    HW218153   0.651   2.303   3.070 -0.5355  0.4861 -0.2701
 2173SOL     OW18154   3.933   1.254  16.271  0.1215  1.0880  0.5769
 2173SOL    HW118155   3.896   1.335  16.307  1.1077  1.3342  1.0476
 2173SOL    HW218156   4.009   1.248  16.329  0.7342 -1.4704 -0.4962
 2174SOL     OW18157   2.404   1.276  13.619  0.2664 -0.0774 -0.9125
 2174SOL    HW118158   2.372   1.295  13.707  1.2542 -1.3665 -0.2839
 2174SOL    HW218159   2.497   1.276  13.642 -0.2027  1.2429  1.0026
 2175SOL     OW18160   2.691   3.622  11.697 -0.5438  1.0389 -0.1930
 2175SOL    HW118161   2.662   3.565  11.627  0.6803  0.1911 -0.0134
 2175SOL    HW218162   2.768   3.661  11.657  0.3640 -1.0156 -0.4509
 2176SOL     OW18163   0.256   3.787  14.192 -0.3538 -0.3256  0.0293
 2176SOL    HW118164   0.222   3.698  14.179  0.0984 -0.2806 -1.3955
 2176SOL    HW218165   0.345   3.776  14.161 -0.9837 -1.5468 -1.3159
 2177SOL     OW18166   2.302   4.702   3.809 -0.0051 -0.4622 -0.5248
 2177SOL    HW118167   2.277   4.733   3.896  2.1137 -0.7514  0.1772
 2177SOL    HW218168   2.277   4.613   3.833  0.5762 -0.9387 -1.6999
 2178SOL     OW18169   0.214   2.265   7.784 -0.3700 -0.0534  0.3239
 2178SOL    HW118170   0.262   2.260   7.702 -1.8991 -2.0177 -0.4570
 2178SOL    HW218171   0.164   2.345   7.770  0.3881  0.2780 -0.4238
 2179SOL     OW18172   3.657   0.886   2.495 -0.1822 -0.1818  0.7285
 2179SOL    HW118173   3.565   0.878   2.521  0.1417 -1.4845  1.4665
 2179SOL    HW218174   3.676   0.979   2.510  0.2617 -0.4802  2.0113
 2180SOL     OW18175   1.377   3.811   0.451  0.2700 -0.4176 -0.0490
 2180SOL    HW118176   1.409   3.899   0.434 -1.4195  0.4377  1.1596
 2180SOL    HW218177   1.435   3.780   0.520 -0.9059  0.6004  1.4083
 2181SOL     OW18178   3.315   1.152  10.833 -0.1666  0.2438  0.8367
 2181SOL    HW118179   3.401   1.111  10.834 -0.9757 -1.4334  1.7376
 2181SOL    HW218180   3.340   1.236  10.794  2.6940 -1.7778 -1.7272
 2182SOL     OW18181   0.137   0.054  11.252  0.2445  0.1136  0.1353
 2182SOL    HW118182   0.062   0.096  11.294  0.4683  0.4590  0.1899
 2182SOL    HW218183   0.097   4.703  11.259 -0.0188  0.0793 -1.7733
 2183SOL     OW18184   1.616   4.187   8.357 -0.2387 -0.3754  0.1474
 2183SOL    HW118185   1.623   4.232   8.441 -0.8793 -1.5147  0.8151
 2183SOL    HW218186   1.550   4.248   8.327  0.0171 -1.0703 -1.8172
 2184SOL     OW18187   2.109   3.090   8.764 -0.4879 -1.0822  0.3969
 2184SOL    HW118188   2.090   3.039   8.686 -1.8733  0.6699 -0.3919
 2184SOL    HW218189   2.189   3.135   8.738 -0.1689 -2.0463 -0.3032
 2185SOL     OW18190   1.588   1.970   4.254 -0.0727 -0.1335  0.0259
 2185SOL    HW118191   1.563   2.045   4.199 -0.1308 -0.7691 -0.8100
 2185SOL    HW218192   1.662   1.938   4.204 -1.1830  0.3528 -1.9448
 2186SOL     OW18193   1.213   0.363   8.087 -0.2658 -0.1671 -0.5137
 2186SOL    HW118194   1.215   0.448   8.131 -0.0406 -1.5831  2.2192
 2186SOL    HW218195   1.230   0.388   7.996 -1.4607  1.6896 -0.2343
 2187SOL     OW18196   2.352   1.248   8.859 -0.2977  0.1530  0.3550
 2187SOL    HW118197   2.283   1.204   8.909 -0.4471  0.1945  0.1886
 2187SOL    HW218198   2.428   1.238   8.916  1.1344  1.2564 -1.3521
 2188SOL     OW18199   2.184   2.195   5.736  0.5685 -0.1760 -0.2429
 2188SOL    HW118200   2.227   2.269   5.779 -1.2055  0.3354  0.6512
 2188SOL    HW218201   2.244   2.164   5.668  2.0608 -0.1297  1.0585
 2189SOL     OW18202   3.504   2.075   8.413  0.1072 -0.1216  0.5424
 2189SOL    HW118203   3.535   2.165   8.423 -0.6836  0.3111 -1.1023
 2189SOL    HW218204   3.590   2.037   8.433  1.0289  1.2600 -0.8173
 2190SOL     OW18205   2.903   3.159   5.777  0.2111 -0.1258  0.0860
 2190SOL    HW118206   2.866   3.166   5.865  0.7326  1.0673  0.2146
 2190SOL    HW218207   2.868   3.075   5.749 -0.0662  0.4178 -1.1895
 2191SOL     OW18208   3.895   0.441   4.456 -0.1733  0.1549 -0.3916
 2191SOL    HW118209   3.971   0.490   4.424  0.3869 -1.1230 -1.0186
 2191SOL    HW218210   3.844   0.515   4.489 -0.3616 -1.3018  2.5689
 2192SOL     OW18211   2.245   0.344   0.108  0.0725  0.4231  0.1503
 2192SOL    HW118212   2.226   0.430   0.070  4.0777  0.4013 -1.8262
 2192SOL    HW218213   2.312   0.372   0.171 -0.4007 -0.8201  1.2101
 2193SOL     OW18214   2.779   1.690   8.393  0.0562  0.4940  0.2212
 2193SOL    HW118215   2.728   1.749   8.338  1.1826 -1.7880 -3.2456
 2193SOL    HW218216   2.835   1.760   8.427  1.3807 -1.4388  1.9950
 2194SOL     OW18217   0.140   3.315  10.582 -0.3286  0.2640 -0.2249
 2194SOL    HW118218   0.130   3.337  10.674 -2.5095  2.0524 -0.8867
 2194SOL    HW218219   0.225   3.272  10.577  0.1427  0.9209  2.1461
 2195SOL     OW18220   1.634   3.537   6.881  0.0637  0.0089 -0.1051
 2195SOL    HW118221   1.560   3.567   6.932  0.1186 -1.7347  1.0119
 2195SOL    HW218222   1.689   3.615   6.877 -1.7302  1.2094 -1.0033
 2196SOL     OW18223   2.831   3.618  13.898  0.1296 -0.5686  0.2916
 2196SOL    HW118224   2.913   3.641  13.943 -0.8611  2.4361  0.5476
 2196SOL    HW218225   2.772   3.633  13.972 -1.0649 -0.8680 -0.6124
 2197SOL     OW18226   3.061   3.349   6.157  0.2678 -0.1382  0.2655
 2197SOL    HW118227   3.031   3.411   6.090 -0.1402  2.2370  2.6614
 2197SOL    HW218228   2.995   3.361   6.225  0.4666 -0.1735  0.4667
 2198SOL     OW18229   3.755   0.963   5.488 -0.4235  0.3524  0.4637
 2198SOL    HW118230   3.839   1.001   5.465  0.4296 -1.6133  0.3277
 2198SOL    HW218231   3.741   1.009   5.571 -0.8676  0.4195  0.3489
 2199SOL     OW18232   0.510   2.789   7.683 -0.4483 -0.4525  0.8543
 2199SOL    HW118233   0.420   2.818   7.701 -0.3339 -0.0456  0.7522
 2199SOL    HW218234   0.502   2.694   7.670  1.1475 -0.7018  1.7990
 2200SOL     OW18235   0.658   3.773   0.504  0.4080  0.1782 -0.3441
 2200SOL    HW118236   0.638   3.689   0.463  3.6571 -1.4122  1.3266
 2200SOL    HW218237   0.745   3.752   0.536  0.0741 -1.3111 -0.4445
 2201SOL     OW18238   2.012   3.802   1.618 -0.1835 -0.6221  0.0723
 2201SOL    HW118239   1.976   3.716   1.596 -1.1190 -0.0343 -0.6918
 2201SOL    HW218240   2.012   3.843   1.532 -1.6246  0.6250  0.6641
 2202SOL     OW18241   3.057   0.777   9.289  0.0653 -0.0842 -0.2397
 2202SOL    HW118242   3.034   0.729   9.369  3.1677  1.9137  1.8571
 2202SOL    HW218243   3.151   0.787   9.302 -0.2883  1.4736  1.1098
 2203SOL     OW18244   2.210   2.939   9.315 -0.1304  0.3070  0.4393
 2203SOL    HW118245   2.251   3.025   9.304  2.6776 -1.3971 -2.5958
 2203SOL    HW218246   2.250   2.916   9.399  0.1480  1.3613  0.6055
 2204SOL     OW18247   4.445   0.500   8.518  0.1783 -0.3971  0.1097
 2204SOL    HW118248   4.381   0.443   8.474 -0.4091 -0.3003  0.8340
 2204SOL    HW218249   4.391   0.560   8.569 -0.1166 -0.5750  0.0050
 2205SOL     OW18250   1.915   2.751   2.814  0.5157 -0.3693 -0.6154
 2205SOL    HW118251   1.843   2.740   2.876  0.0467 -3.3589 -1.6709
 2205SOL    HW218252   1.877   2.807   2.746  0.3219 -0.4493 -0.5727
 2206SOL     OW18253   3.919   3.788   3.560  0.1196 -0.0471 -0.0706
 2206SOL    HW118254   4.004   3.763   3.524 -0.0279 -0.1006 -0.3856
 2206SOL    HW218255   3.948   3.820   3.645  1.2029  0.3501 -0.5937
 2207SOL     OW18256   2.479   0.455   3.137  0.3907  0.0431  0.2822
 2207SOL    HW118257   2.558   0.421   3.095  1.2166  1.5132  0.6528
 2207SOL    HW218258   2.452   0.372   3.176  0.7012 -0.2023 -0.0206
 2208SOL     OW18259   2.774   1.582  11.943 -0.1501 -0.1086  0.2497
 2208SOL    HW118260   2.804   1.492  11.928  0.3768  0.2043 -0.5609
 2208SOL    HW218261   2.835   1.634  11.891  0.0521  0.2867  0.8846
 2209SOL     OW18262   0.343   3.981   6.897  0.8988 -0.1187 -0.0120
 2209SOL    HW118263   0.338   4.002   6.804  1.6513 -1.0142 -0.2526
 2209SOL    HW218264   0.249   3.988   6.915  0.6481 -2.1926 -0.4795
 2210SOL     OW18265   4.020   1.846  16.462 -0.3553  0.4384 -0.4001
 2210SOL    HW118266   4.100   1.852  16.514  1.4148  2.7139 -3.3925
 2210SOL    HW218267   4.021   1.757  16.426  0.7277 -0.6173  2.2198
 2211SOL     OW18268   4.658   4.049   7.433 -0.5917 -0.0081 -0.0528
 2211SOL    HW118269   4.666   4.132   7.479  0.9646  0.5437 -1.3207
 2211SOL    HW218270   4.724   3.992   7.471  0.8788  1.4954 -0.3349
 2212SOL     OW18271   2.121   2.063   9.174 -0.0222 -0.3239  0.1852
 2212SOL    HW118272   2.079   2.117   9.107 -0.2759 -1.4256 -0.5336
 2212SOL    HW218273   2.078   2.098   9.253  0.2465 -1.1305  0.6924
 2213SOL     OW18274   4.012   3.486   7.437  0.0835  0.2482 -0.3755
 2213SOL    HW118275   4.016   3.472   7.531 -1.6917 -1.8278 -0.6184
 2213SOL    HW218276   3.960   3.410   7.410  0.6731  0.1826 -1.3197
 2214SOL     OW18277   0.482   4.469  17.421 -0.0698  0.2181  0.6135
 2214SOL    HW118278   0.479   4.380  17.455  1.8094 -0.1709 -0.2659
 2214SOL    HW218279   0.572   4.491  17.446  0.4994 -1.0249 -0.4062
 2215SOL     OW18280   0.635   3.413   8.227  0.3134 -0.1915 -0.3377
 2215SOL    HW118281   0.598   3.334   8.267  1.1488  0.0428  0.9226
 2215SOL    HW218282   0.726   3.396   8.254  1.1793 -0.7795 -3.6938
 2216SOL     OW18283   1.545   1.531   2.453  0.2532  0.1079  0.2292
 2216SOL    HW118284   1.591   1.464   2.403 -0.1022 -1.0057  1.3964
 2216SOL    HW218285   1.460   1.514   2.413 -0.0015  0.7495  0.4846
 2217SOL     OW18286   1.469   1.173   7.842  0.5107 -0.2673 -0.2816
 2217SOL    HW118287   1.553   1.211   7.817 -0.9433  1.9989 -1.6759
 2217SOL    HW218288   1.403   1.232   7.804  1.3107  0.6255 -0.2730
 2218SOL     OW18289   0.706   0.246   7.855  0.0692 -0.1240 -0.3584
 2218SOL    HW118290   0.619   0.213   7.831 -0.4753 -1.3031  3.3423
 2218SOL    HW218291   0.749   0.161   7.862 -0.4738 -0.3943 -0.3337
 2219SOL     OW18292   1.260   3.138   4.474 -0.3484 -0.1398  0.5109
 2219SOL    HW118293   1.176   3.094   4.490 -0.4367  0.3206  1.2971
 2219SOL    HW218294   1.270   3.126   4.380 -1.7434 -3.9236  0.8220
 2220SOL     OW18295   2.405   1.381   5.461 -0.2273  0.6377 -0.0907
 2220SOL    HW118296   2.419   1.427   5.543 -1.4741  1.0105 -0.0916
 2220SOL    HW218297   2.455   1.299   5.463  0.5454  1.1226  0.1553
 2221SOL     OW18298   4.485   0.361   6.158  0.3382  0.0345  0.5296
 2221SOL    HW118299   4.394   0.389   6.164  0.3193  1.2031 -5.0153
 2221SOL    HW218300   4.508   0.390   6.069  0.3308  1.5085  1.0088
 2222SOL     OW18301   3.642   3.500  17.719  0.4243  0.0066  0.3102
 2222SOL    HW118302   3.724   3.548  17.730  0.9722 -0.5550 -1.4355
 2222SOL    HW218303   3.656   3.415   0.019 -2.2608 -0.3475  0.5292
 2223SOL     OW18304   0.221   0.124  10.421 -0.4737 -0.7354  0.1124
 2223SOL    HW118305   0.152   0.186  10.395 -0.3506 -0.4370  0.5024
 2223SOL    HW218306   0.221   0.060  10.350  1.5154  1.6158 -2.0060
 2224SOL     OW18307   2.755   1.869   7.116 -0.1099  0.2712  0.2546
 2224SOL    HW118308   2.722   1.781   7.097  0.0972  0.1239  0.5700
 2224SOL    HW218309   2.780   1.860   7.209  3.3329  1.6970 -0.5296
 2225SOL     OW18310   4.735   3.832  13.316  0.3404  0.5814 -0.0295
 2225SOL    HW118311   0.049   3.899  13.363  0.2771 -2.1594  3.9646
 2225SOL    HW218312   0.065   3.817  13.249 -1.0494 -0.9686 -1.0344
 2226SOL     OW18313   4.713   3.217   6.743  0.4419  0.3103 -0.1240
 2226SOL    HW118314   0.002   3.290   6.799  2.2678  1.1913 -2.0821
 2226SOL    HW218315   4.619   3.210   6.756  0.5423 -0.8360  0.0314
 2227SOL     OW18316   1.832   0.458   6.943  0.2672  0.4201 -0.8506
 2227SOL    HW118317   1.842   0.458   6.848 -3.9935  4.7818 -1.2662
 2227SOL    HW218318   1.823   0.364   6.960 -2.4571  0.8262  0.0500
 2228SOL     OW18319   3.762   0.550   5.313  0.2389  1.2688  0.3591
 2228SOL    HW118320   3.799   0.583   5.395  2.6364  0.2225 -0.2955
 2228SOL    HW218321   3.749   0.464   5.355  2.1314  0.4050 -0.8439
 2229SOL     OW18322   1.243   2.031   3.745 -0.4906 -0.4017 -0.0220
 2229SOL    HW118323   1.304   1.958   3.732 -0.7203 -0.6673  0.3749
 2229SOL    HW218324   1.172   1.993   3.797  1.1353 -0.3070  2.2738
 2230SOL     OW18325   4.536   3.399   9.112  0.2622 -0.4638  0.2183
 2230SOL    HW118326   4.502   3.461   9.175 -1.1915  1.6098 -2.6229
 2230SOL    HW218327   4.459   3.397   9.055  0.1701  1.2665  0.2841
 2231SOL     OW18328   2.905   0.030   1.855 -0.1645  0.1673 -0.4623
 2231SOL    HW118329   2.814   0.034   1.828  0.3246 -1.2814 -2.3413
 2231SOL    HW218330   2.915   0.073   1.940  0.4016 -0.0853 -0.3958
 2232SOL     OW18331   4.206   1.949   6.384  0.2212 -0.3689 -0.7114
 2232SOL    HW118332   4.302   1.954   6.377  0.1658  0.9516 -0.4426
 2232SOL    HW218333   4.187   1.855   6.391 -2.1951  0.1860  0.0827
 2233SOL     OW18334   4.500   1.548   0.363 -0.1207 -0.8965  0.1734
 2233SOL    HW118335   4.571   1.594   0.319 -0.7597 -1.3464 -1.3556
 2233SOL    HW218336   4.510   1.587   0.449 -0.6058 -1.2391  0.3874
 2234SOL     OW18337   1.687   3.371   2.522  0.0332 -0.4298 -0.4387
 2234SOL    HW118338   1.613   3.359   2.463 -0.5147 -0.0127  0.1730
 2234SOL    HW218339   1.674   3.296   2.580 -1.8050 -0.7148 -1.2489
 2235SOL     OW18340   4.074   2.781   7.689  0.4584 -0.6131  0.0459
 2235SOL    HW118341   4.064   2.875   7.706 -2.3523 -1.0368  0.6932
 2235SOL    HW218342   4.170   2.780   7.685  0.5179 -0.0688  1.3794
 2236SOL     OW18343   3.077   1.279   2.132 -0.1840 -0.3766 -0.0313
 2236SOL    HW118344   3.080   1.233   2.048  0.9729 -3.8200  1.8550
 2236SOL    HW218345   2.996   1.241   2.169  0.8336 -1.7397  0.8016
 2237SOL     OW18346   1.020   3.424   8.020 -0.2507  0.2417  0.0617
 2237SOL    HW118347   0.987   3.413   7.931  1.0758  0.5211 -0.4722
 2237SOL    HW218348   1.112   3.448   8.010 -0.6811  0.5274 -3.2600
 2238SOL     OW18349   3.930   4.426   9.027  0.2806  0.0292  0.3248
 2238SOL    HW118350   3.866   4.438   9.097  0.6360  3.8550  0.0089
 2238SOL    HW218351   4.013   4.400   9.067  1.1925  1.0133 -0.9482
 2239SOL     OW18352   0.343   4.586   6.094 -0.4227  0.3348 -0.2962
 2239SOL    HW118353   0.286   4.550   6.026  0.6290 -1.1466 -0.3885
 2239SOL    HW218354   0.422   4.538   6.070  0.5836  1.3996  0.8902
 2240SOL     OW18355   4.623   0.832   1.098 -0.3952 -0.1282 -0.2516
 2240SOL    HW118356   4.626   0.808   1.191  0.8347 -0.5871 -0.4187
 2240SOL    HW218357   4.629   0.928   1.103  0.6573 -0.1727 -0.6591
 2241SOL     OW18358   1.490   2.945   5.889  0.0860  0.3414 -0.0146
 2241SOL    HW118359   1.410   2.986   5.922 -1.2453 -2.8209  0.6833
 2241SOL    HW218360   1.501   2.871   5.949 -0.8263  0.0559 -0.1959
 2242SOL     OW18361   3.692   3.348   8.309 -0.2099 -0.2939 -0.1467
 2242SOL    HW118362   3.720   3.261   8.281  0.6174  0.3216 -1.1935
 2242SOL    HW218363   3.698   3.343   8.405  4.4386  0.1510 -0.4180
 2243SOL     OW18364   3.479   2.456   6.856  0.4717 -0.2608 -0.2702
 2243SOL    HW118365   3.398   2.433   6.900  0.3218  1.4300  0.3722
 2243SOL    HW218366   3.528   2.498   6.927  1.2379 -0.3832 -0.7160
 2244SOL     OW18367   3.225   4.015   6.926  0.5235 -0.2105 -0.0416
 2244SOL    HW118368   3.235   4.031   6.832 -2.7541  1.0016 -0.1599
 2244SOL    HW218369   3.170   4.088   6.953 -2.2164 -2.1185 -0.4528
 2245SOL     OW18370   3.569   1.947  12.803 -0.1197  0.0084 -0.3685
 2245SOL    HW118371   3.551   1.893  12.880  1.2776 -1.8481 -1.3322
 2245SOL    HW218372   3.557   2.036  12.836  0.1901  0.7748 -2.3691
 2246SOL     OW18373   3.342   1.006   8.244 -0.1655 -0.6096 -0.0217
 2246SOL    HW118374   3.427   0.986   8.206 -1.1521 -1.3833 -1.8668
 2246SOL    HW218375   3.366   1.013   8.336 -2.8061  3.2381  0.4242
 2247SOL     OW18376   0.209   3.504   6.241  0.0294 -0.3293  0.0756
 2247SOL    HW118377   0.147   3.547   6.300  0.3075  1.9115 -1.2621
 2247SOL    HW218378   0.261   3.580   6.216 -0.7574  0.0168 -0.5303
 2248SOL     OW18379   3.010   4.531  14.652 -0.5172 -0.5886 -0.5822
 2248SOL    HW118380   3.071   4.463  14.681  0.4338  0.2263 -0.6506
 2248SOL    HW218381   3.077   4.587  14.612 -0.2678 -0.6426 -0.2440
 2249SOL     OW18382   2.781   3.757   5.531  0.3147  0.1969 -0.2380
 2249SOL    HW118383   2.759   3.756   5.624 -2.6754 -2.6943 -0.9515
 2249SOL    HW218384   2.822   3.671   5.522 -1.4027 -0.5242 -1.1210
 2250SOL     OW18385   4.470   4.073   1.751 -0.3522  0.5156  0.1919
 2250SOL    HW118386   4.438   4.140   1.811  0.8475  2.3033 -1.1395
 2250SOL    HW218387   4.564   4.087   1.764 -0.4847 -0.0069  1.7336
 2251SOL     OW18388   0.474   1.856   6.858 -0.4564 -0.0344  0.1678
 2251SOL    HW118389   0.449   1.925   6.920  0.0306 -0.1093  0.4479
 2251SOL    HW218390   0.549   1.904   6.823  0.5692 -3.0280 -1.7269
 2252SOL     OW18391   1.739   2.918   4.175 -0.4045  0.1087  0.6019
 2252SOL    HW118392   1.668   2.930   4.238 -0.3398  0.5881  0.5856
 2252SOL    HW218393   1.735   2.998   4.123  1.5218  0.6778  1.3432
 2253SOL     OW18394   0.042   1.594  11.928 -0.1227  1.2654  0.1743
 2253SOL    HW118395   4.735   1.518  11.968  0.6617  0.6905 -0.0838
 2253SOL    HW218396   0.034   1.569  11.836  0.3499 -1.4656  0.8619
 2254SOL     OW18397   0.234   4.490   5.518 -0.1693  0.1251  0.6665
 2254SOL    HW118398   0.272   4.515   5.434  0.7155 -1.2107  0.6611
 2254SOL    HW218399   0.143   4.470   5.495 -0.2767  1.0151  0.3202
 2255SOL     OW18400   2.048   1.502  10.838 -0.3594 -0.5877  0.4411
 2255SOL    HW118401   2.107   1.447  10.785 -1.8770  0.8244 -2.7242
 2255SOL    HW218402   2.071   1.494  10.930 -0.2626 -0.1850  0.4509
 2256SOL     OW18403   4.479   3.269   3.242  0.5682  0.7768  0.1519
 2256SOL    HW118404   4.550   3.332   3.255  0.6847  1.2843 -2.8030
 2256SOL    HW218405   4.524   3.186   3.224 -1.0449  0.4177 -2.1340
 2257SOL     OW18406   3.938   3.413   5.011  0.1951 -0.5913  0.2348
 2257SOL    HW118407   3.868   3.400   4.947  0.4242 -0.0960 -0.1177
 2257SOL    HW218408   3.941   3.331   5.060  0.6985 -0.7772 -0.1081
 2258SOL     OW18409   1.878   2.623   7.258 -0.0781 -0.3732 -0.4708
 2258SOL    HW118410   1.927   2.673   7.193 -2.2343 -2.3552 -3.5749
 2258SOL    HW218411   1.933   2.652   7.331 -2.1244  1.7710  0.2441
 2259SOL     OW18412   3.403   0.408   3.180 -0.1317 -0.8103  0.1379
 2259SOL    HW118413   3.490   0.379   3.206 -0.1192 -1.8226 -1.0566
 2259SOL    HW218414   3.398   0.368   3.093  1.0946  0.2750 -0.4327
 2260SOL     OW18415   4.509   1.019   7.820 -0.2669  0.3607  0.3669
 2260SOL    HW118416   4.561   1.093   7.791 -0.2453  0.2185  0.0431
 2260SOL    HW218417   4.418   1.049   7.822 -0.2897  0.2733  0.7035
 2261SOL     OW18418   4.181   2.102   4.836  0.0091  0.5973 -0.2011
 2261SOL    HW118419   4.152   2.039   4.770 -2.1333 -0.6098  1.8577
 2261SOL    HW218420   4.186   2.055   4.920  2.1777  2.2337  0.5740
 2262SOL     OW18421   3.964   2.978   5.183  0.0411  0.8229  0.1001
 2262SOL    HW118422   3.949   3.072   5.185 -3.6066  0.2161  0.4675
 2262SOL    HW218423   3.878   2.942   5.162  0.8593 -0.2782 -1.4603
 2263SOL     OW18424   4.680   2.120   5.000 -0.3621 -0.6112  0.5013
 2263SOL    HW118425   4.628   2.069   4.938  0.2292 -0.1836 -0.3539
 2263SOL    HW218426   4.710   2.191   4.942 -2.1111 -0.1450  0.1634
 2264SOL     OW18427   4.026   3.739   8.791 -0.5828  0.3685 -0.2703
 2264SOL    HW118428   4.103   3.725   8.846 -0.9181 -0.7610 -0.0896
 2264SOL    HW218429   3.955   3.731   8.854  0.8142 -1.4707  1.0685
 2265SOL     OW18430   0.289   2.163   8.029 -0.1914 -0.1768  0.2706
 2265SOL    HW118431   0.380   2.139   8.009 -0.5160  0.2431 -1.6714
 2265SOL    HW218432   0.269   2.192   7.941 -0.7711 -0.3201  0.3566
 2266SOL     OW18433   2.572   1.511   6.034  0.1873 -0.3814  0.0840
 2266SOL    HW118434   2.485   1.470   6.042  0.5842 -1.1805  0.3648
 2266SOL    HW218435   2.632   1.450   6.076 -1.2059  0.3322  3.1501
 2267SOL     OW18436   1.021   4.070   2.731 -0.0402 -0.4790  0.3327
 2267SOL    HW118437   0.966   4.002   2.769  0.4166 -1.8895 -1.5097
 2267SOL    HW218438   1.046   4.117   2.810  0.3222  1.8351 -1.1507
 2268SOL     OW18439   4.682   0.795   2.647 -0.1501 -0.4865 -0.6321
 2268SOL    HW118440   4.682   0.877   2.599  0.7986 -1.1553 -1.7718
 2268SOL    HW218441   4.588   0.774   2.638 -0.3210 -0.2916  0.7034
 2269SOL     OW18442   3.863   0.698  13.057  0.1027  0.5900  0.1277
 2269SOL    HW118443   3.947   0.653  13.050 -0.9515 -1.2778 -0.5545
 2269SOL    HW218444   3.807   0.643  13.112 -0.1356  0.4270 -0.2815
 2270SOL     OW18445   2.021   0.312   5.231 -0.0432  0.1237  0.0592
 2270SOL    HW118446   2.064   0.360   5.161 -1.2982 -0.2529 -0.9781
 2270SOL    HW218447   1.947   0.370   5.248  0.0169 -0.4711  2.3833
 2271SOL     OW18448   3.854   4.593   8.367  0.3868  0.2125  0.2527
 2271SOL    HW118449   3.892   4.671   8.408 -2.2327  1.5259  0.2628
 2271SOL    HW218450   3.761   4.618   8.369  1.0373  2.5205  2.5573
 2272SOL     OW18451   2.988   2.595   5.465  0.2354  0.2467 -0.2638
 2272SOL    HW118452   3.068   2.573   5.512  1.6106 -1.3368 -3.3656
 2272SOL    HW218453   2.921   2.540   5.506  1.4960  0.1781  1.7062
 2273SOL     OW18454   0.263   4.015   1.667  0.3908  0.4117  0.0424
 2273SOL    HW118455   0.305   3.942   1.713  0.1001 -0.1109 -0.5311
 2273SOL    HW218456   0.332   4.082   1.660  0.7063  0.1484  0.6477
 2274SOL     OW18457   1.954   3.092   3.601 -0.4865 -0.3698 -0.6510
 2274SOL    HW118458   1.897   3.166   3.623 -1.1676 -0.8237 -0.8936
 2274SOL    HW218459   1.941   3.090   3.507  0.7667  1.4496 -0.8655
 2275SOL     OW18460   3.049   1.855   1.991 -0.0065 -0.3112  0.0474
 2275SOL    HW118461   3.035   1.802   2.069  0.5136 -0.7477 -0.1564
 2275SOL    HW218462   2.964   1.898   1.985 -0.2224 -0.7316  0.1243
 2276SOL     OW18463   4.696   1.029   6.363  0.1063 -0.4566  0.4653
 2276SOL    HW118464   0.023   0.966   6.398  1.3642 -0.3512 -1.5934
 2276SOL    HW218465   4.647   1.029   6.445 -0.2966 -1.6413  0.2189
 2277SOL     OW18466   4.001   2.082   2.649 -0.2034 -0.2815 -0.0090
 2277SOL    HW118467   3.948   2.111   2.722  1.3396 -1.7930  1.7257
 2277SOL    HW218468   3.954   2.004   2.618 -0.5478 -1.0861  2.5413
 2278SOL     OW18469   3.857   1.511  12.153  0.4366 -0.9109  0.5682
 2278SOL    HW118470   3.773   1.554  12.137  0.4724 -0.6534  1.0552
 2278SOL    HW218471   3.914   1.588  12.159  0.4899 -1.2528  5.0261
 2279SOL     OW18472   2.361   0.959  14.664 -0.7553  0.5878 -0.6256
 2279SOL    HW118473   2.405   0.893  14.717  3.5321  2.4768 -1.8730
 2279SOL    HW218474   2.401   0.942  14.579  1.3961 -0.5873  0.6369
 2280SOL     OW18475   2.108   1.427   2.901  0.6348 -0.1373  0.9062
 2280SOL    HW118476   2.199   1.456   2.900  0.8879 -0.8887  2.6358
 2280SOL    HW218477   2.063   1.511   2.890  0.9963 -0.3702 -2.4698
 2281SOL     OW18478   0.733   3.282   8.948 -0.1284 -0.0744 -0.2576
 2281SOL    HW118479   0.718   3.343   8.876 -1.7521  0.0840  0.2084
 2281SOL    HW218480   0.741   3.198   8.903  1.1917 -1.4292  2.5140
 2282SOL     OW18481   3.361   0.484   3.598 -0.3294 -0.1751 -0.4711
 2282SOL    HW118482   3.410   0.405   3.576 -0.8497 -1.0966  1.6764
 2282SOL    HW218483   3.282   0.486   3.543  1.4475 -0.0773 -2.9985
 2283SOL     OW18484   3.315   0.648   4.572  0.1907  0.4708  0.2751
 2283SOL    HW118485   3.245   0.683   4.517  0.1903  0.6604  0.3938
 2283SOL    HW218486   3.266   0.576   4.610 -1.3041  0.7508 -1.1454
 2284SOL     OW18487   3.538   0.540   4.412  0.3255  0.2482 -0.3401
 2284SOL    HW118488   3.579   0.589   4.483 -0.9003 -1.2310  1.3859
 2284SOL    HW218489   3.449   0.574   4.425 -0.2088 -0.0692 -3.1174
 2285SOL     OW18490   1.077   4.161   3.005  0.0647 -0.1393  0.6076
 2285SOL    HW118491   1.094   4.073   3.037  1.7236  0.8416  2.4253
 2285SOL    HW218492   1.020   4.205   3.068  0.4080 -1.2889  1.7085
 2286SOL     OW18493   1.444   0.853   6.093 -0.6257  0.3010  0.1347
 2286SOL    HW118494   1.508   0.809   6.037 -3.1532 -0.0686 -2.3927
 2286SOL    HW218495   1.502   0.870   6.168 -1.6552 -4.5322  2.0138
 2287SOL     OW18496   2.638   0.540   6.314  0.2759  0.2866 -0.2351
 2287SOL    HW118497   2.689   0.586   6.247  0.6635 -0.1777 -0.2529
 2287SOL    HW218498   2.617   0.609   6.377 -1.4034 -0.6982  0.2915
 2288SOL     OW18499   1.310   2.671   6.203 -0.0663 -0.2896  0.5511
 2288SOL    HW118500   1.237   2.693   6.260  0.0146  0.0703  0.5191
 2288SOL    HW218501   1.365   2.750   6.202  0.2182 -0.4686  3.0284
 2289SOL     OW18502   1.002   2.963   4.797  0.7678  0.2775 -0.1747
 2289SOL    HW118503   0.944   3.009   4.858 -0.4825 -2.7300  0.8995
 2289SOL    HW218504   1.082   3.005   4.829  0.1995  0.8269  0.5202
 2290SOL     OW18505   0.372   3.258   4.356  0.0169 -1.0407 -0.6323
 2290SOL    HW118506   0.347   3.169   4.379 -3.0562  0.0400  0.2742
 2290SOL    HW218507   0.405   3.285   4.442 -1.4041  0.1082 -0.4322
 2291SOL     OW18508   1.780   3.464   1.185 -0.6751  0.2722  0.1530
 2291SOL    HW118509   1.769   3.388   1.129  0.2667  1.4359 -1.6053
 2291SOL    HW218510   1.738   3.525   1.124 -1.3895 -1.3709 -0.9963
 2292SOL     OW18511   1.139   3.753   3.466 -0.1781 -0.0755 -0.0709
 2292SOL    HW118512   1.118   3.689   3.535 -0.3171  0.4036  0.3294
 2292SOL    HW218513   1.180   3.698   3.399  0.0177  0.6444 -0.5353
 2293SOL     OW18514   1.254   1.063   2.878  0.1723  0.3264  0.0141
 2293SOL    HW118515   1.243   0.979   2.924 -0.0490 -0.2221 -1.0279
 2293SOL    HW218516   1.320   1.029   2.817  0.2317 -0.0467  0.2878
 2294SOL     OW18517   1.158   2.178   3.525  0.4200  0.6318 -0.0048
 2294SOL    HW118518   1.203   2.181   3.609  2.3847  0.0373 -1.0327
 2294SOL    HW218519   1.138   2.084   3.517  0.3300  0.6386  0.1525
 2295SOL     OW18520   4.288   3.393   3.390  0.1821 -0.5543  0.2212
 2295SOL    HW118521   4.340   3.346   3.325 -0.0400 -0.7360  0.1740
 2295SOL    HW218522   4.359   3.441   3.432  0.4813 -0.4554 -0.4000
 2296SOL     OW18523   4.200   4.721   7.044 -0.2050 -0.0194  0.4523
 2296SOL    HW118524   4.128   4.658   7.033 -0.5374  0.1375  1.6505
 2296SOL    HW218525   4.236   4.704   7.131 -0.0754  0.3175  0.4647
 2297SOL     OW18526   1.102   4.092   8.536 -0.3907 -0.1463 -0.0082
 2297SOL    HW118527   1.128   4.176   8.573  1.5280 -1.5215  1.7925
 2297SOL    HW218528   1.015   4.106   8.498  0.1766 -0.7550 -1.5366
 2298SOL     OW18529   1.300   3.188  11.305  0.0607  0.0815  0.0648
 2298SOL    HW118530   1.341   3.185  11.392 -0.1814 -1.5014  0.1131
 2298SOL    HW218531   1.272   3.097  11.309  1.6888 -0.5115 -1.9146
 2299SOL     OW18532   2.620   1.839   8.044  0.1477 -0.4985  0.0734
 2299SOL    HW118533   2.550   1.816   7.983 -0.5649  1.1372  0.2706
 2299SOL    HW218534   2.664   1.755   8.032 -2.6343 -1.6696 -1.9439
 2300SOL     OW18535   3.092   2.005  15.167 -0.0612  0.2367  0.0117
 2300SOL    HW118536   3.070   1.945  15.096  2.1854  0.8637 -1.1888
 2300SOL    HW218537   3.002   2.031  15.187  0.1225  0.6186  0.3526
 2301SOL     OW18538   2.849   2.356   9.001 -0.1521  0.1536  0.1501
 2301SOL    HW118539   2.933   2.328   9.037 -0.6732  0.6546  1.7614
 2301SOL    HW218540   2.830   2.289   8.936 -0.0025 -0.5696  0.8556
 2302SOL     OW18541   3.953   2.422   7.047  0.0536  0.4278 -0.1042
 2302SOL    HW118542   3.879   2.426   7.108 -0.9543  0.9307 -1.3694
 2302SOL    HW218543   4.027   2.463   7.091  0.5676 -0.8910  0.2696
 2303SOL     OW18544   2.115   1.136   7.226 -0.3522 -0.5744 -0.0881
 2303SOL    HW118545   2.024   1.141   7.255  0.0143  0.1077  0.9685
 2303SOL    HW218546   2.110   1.082   7.148  2.2377 -0.6977 -0.1585
 2304SOL     OW18547   4.103   4.383   6.227  0.0634  0.1018 -0.3148
 2304SOL    HW118548   4.129   4.467   6.191  1.2872 -0.1172  0.0684
 2304SOL    HW218549   4.104   4.400   6.322 -0.8828  3.7371 -0.9712
 2305SOL     OW18550   3.480   1.139  16.172 -0.1835  0.1449  0.0028
 2305SOL    HW118551   3.567   1.174  16.152 -0.7783  1.4317 -0.3548
 2305SOL    HW218552   3.470   1.080  16.097 -1.0752 -1.8977  1.7300
 2306SOL     OW18553   4.468   3.348  17.319 -0.1819  0.4444 -0.1942
 2306SOL    HW118554   4.518   3.429  17.306  1.9968 -1.0526 -1.2971
 2306SOL    HW218555   4.482   3.316  17.230  0.5561 -0.4351  0.2397
 2307SOL     OW18556   1.849   0.814   4.912 -0.2005 -0.3751 -0.0379
 2307SOL    HW118557   1.788   0.863   4.857 -0.8728 -1.1064  0.0622
 2307SOL    HW218558   1.933   0.851   4.882 -1.4071  0.3645 -2.4970
 2308SOL     OW18559   0.904   2.310   4.680 -0.0264  0.5791  0.1164
 2308SOL    HW118560   0.933   2.222   4.658 -0.2041  0.4311  0.4779
 2308SOL    HW218561   0.861   2.291   4.763 -2.3049  2.3462 -0.6348
 2309SOL     OW18562   2.857   3.309  11.985  0.2472 -0.2022  0.1303
 2309SOL    HW118563   2.953   3.308  11.990  0.0958  0.8622  3.5657
 2309SOL    HW218564   2.835   3.259  11.907  0.2982  0.0006 -0.0117
 2310SOL     OW18565   2.442   2.087   5.923  0.4314  0.2433 -0.0472
 2310SOL    HW118566   2.363   2.050   5.883 -0.2973  2.5771 -0.7635
 2310SOL    HW218567   2.465   2.020   5.986 -0.4890  2.3152  2.4995
 2311SOL     OW18568   0.970   0.713  12.147  0.4941  0.4201 -1.0871
 2311SOL    HW118569   0.902   0.698  12.212  0.5420 -2.4356 -1.6947
 2311SOL    HW218570   0.912   0.746  12.078  0.8714 -1.5452 -2.3502
 2312SOL     OW18571   1.090   3.820   9.297  0.7122 -0.2476 -0.2182
 2312SOL    HW118572   1.129   3.788   9.216  0.1004 -0.2373 -0.5177
 2312SOL    HW218573   1.162   3.824   9.360  1.4007  1.6510 -1.1320
 2313SOL     OW18574   2.808   1.816   2.690  0.0723 -0.5227  0.1051
 2313SOL    HW118575   2.828   1.888   2.749 -1.7910  0.8942 -0.9898
 2313SOL    HW218576   2.822   1.861   2.607 -1.5296 -1.3686 -0.6366
 2314SOL     OW18577   4.710   3.947   6.195 -0.3697 -0.2983  0.0423
 2314SOL    HW118578   4.669   3.947   6.282 -1.4209  0.7620 -0.4565
 2314SOL    HW218579   4.674   4.034   6.180  2.6962  0.8421 -0.5977
 2315SOL     OW18580   2.512   0.140   8.994  0.1792 -0.1053 -0.2569
 2315SOL    HW118581   2.463   0.104   8.921 -1.4370 -0.9843  1.2564
 2315SOL    HW218582   2.445   0.165   9.059  2.1301  0.2894  1.6073
 2316SOL     OW18583   0.087   2.982   5.555 -0.1403 -0.6274 -0.1098
 2316SOL    HW118584   0.148   3.012   5.622  0.0363  1.2421 -1.0952
 2316SOL    HW218585   0.117   2.892   5.540 -0.9545 -0.9190  0.0121
 2317SOL     OW18586   1.479   3.778   5.649 -0.1756 -0.3522  0.1114
 2317SOL    HW118587   1.412   3.803   5.585  0.1696  0.2078 -0.0316
 2317SOL    HW218588   1.514   3.692   5.628  1.6876 -0.1775  2.4865
 2318SOL     OW18589   4.585   0.313   3.857 -0.1589 -0.6899 -0.7899
 2318SOL    HW118590   4.657   0.256   3.885 -0.1761 -0.1020  0.4850
 2318SOL    HW218591   4.595   0.376   3.928 -0.8154  1.0852 -2.2856
 2319SOL     OW18592   4.014   3.868   5.437  0.0243  0.9798  0.6963
 2319SOL    HW118593   3.983   3.932   5.374 -0.7292  1.5388  1.6230
 2319SOL    HW218594   3.939   3.876   5.497  1.3289 -1.2971  2.6242
 2320SOL     OW18595   4.245   0.410   4.090 -0.1654 -0.0945  0.3530
 2320SOL    HW118596   4.273   0.495   4.055 -1.1514  0.1078  0.0703
 2320SOL    HW218597   4.300   0.398   4.168  1.1952 -1.1302 -0.7613
 2321SOL     OW18598   1.420   4.173   3.134  0.0478  0.6168  0.2588
 2321SOL    HW118599   1.408   4.220   3.217  2.9791  1.3502  0.2942
 2321SOL    HW218600   1.357   4.104   3.152 -1.8419  2.2121 -0.3219
 2322SOL     OW18601   2.960   1.774  15.942 -0.5305 -0.2496 -0.0930
 2322SOL    HW118602   2.877   1.728  15.955 -0.5379 -0.4236 -0.7419
 2322SOL    HW218603   2.968   1.760  15.848 -0.8672 -2.7065  0.2448
 2323SOL     OW18604   4.561   4.367   3.651  0.2888 -0.0473  0.0273
 2323SOL    HW118605   4.473   4.346   3.617 -1.5738  3.6217  2.6256
 2323SOL    HW218606   4.549   4.364   3.746  0.7622 -1.6131  0.0340
 2324SOL     OW18607   1.592   4.352   7.965  0.0766 -0.0077  0.1632
 2324SOL    HW118608   1.624   4.422   8.022  0.1043  0.2124 -0.1246
 2324SOL    HW218609   1.662   4.338   7.902 -0.8383 -0.9393 -0.6550
 2325SOL     OW18610   2.932   2.488  10.469 -0.1990  0.2579  0.4403
 2325SOL    HW118611   3.015   2.534  10.478  0.6638 -0.6314 -2.9685
 2325SOL    HW218612   2.929   2.436  10.549 -1.2540 -0.7594 -0.2609
 2326SOL     OW18613   2.168   2.726   2.962 -0.1511  0.2546  0.9951
 2326SOL    HW118614   2.074   2.731   2.947 -0.0102  1.2324  0.3824
 2326SOL    HW218615   2.191   2.787   2.891  1.0665  1.2271  2.2205
 2327SOL     OW18616   1.937   2.203   5.354 -0.2823 -0.6519  0.1161
 2327SOL    HW118617   1.887   2.204   5.436 -0.0160  0.5948  0.2521
 2327SOL    HW218618   2.002   2.136   5.376 -1.4526 -1.8289  0.0189
 2328SOL     OW18619   0.381   0.915   8.277 -0.4664  0.7350  0.1524
 2328SOL    HW118620   0.288   0.904   8.258  0.3525 -2.8916 -1.5902
 2328SOL    HW218621   0.384   1.010   8.290 -0.7416  0.6393  0.8802
 2329SOL     OW18622   4.184   2.847   5.028  0.6615 -0.2436 -0.3476
 2329SOL    HW118623   4.106   2.854   5.083 -0.3204  0.3269 -1.8172
 2329SOL    HW218624   4.194   2.752   5.026 -1.0818 -0.3713 -2.6755
 2330SOL     OW18625   1.091   0.630   1.282  0.5962  0.5563 -0.4953
 2330SOL    HW118626   1.034   0.656   1.209  0.7570  3.7396  0.5392
 2330SOL    HW218627   1.033   0.574   1.334 -0.0562  1.0204 -0.7256
 2331SOL     OW18628   0.436   0.311   5.751  0.7274 -0.0267 -0.5408
 2331SOL    HW118629   0.349   0.277   5.730  0.6822 -0.5615  0.5226
 2331SOL    HW218630   0.432   0.320   5.846 -0.2782 -2.4784 -0.3706
 2332SOL     OW18631   2.183   1.877  12.872 -0.1990  0.1199 -0.4935
 2332SOL    HW118632   2.199   1.793  12.916  0.9816 -0.0838 -1.3163
 2332SOL    HW218633   2.257   1.934  12.894 -0.8591  0.4182  1.0046
 2333SOL     OW18634   4.600   2.477   6.232  0.8591  0.2247 -0.1421
 2333SOL    HW118635   4.558   2.420   6.167 -0.6652 -0.8761  1.7839
 2333SOL    HW218636   4.582   2.561   6.190  0.0055 -0.7572 -1.7605
 2334SOL     OW18637   0.332   3.496   3.552  0.1146 -0.3762 -0.5796
 2334SOL    HW118638   0.258   3.441   3.577  0.4163 -0.2567  0.5806
 2334SOL    HW218639   0.399   3.429   3.545  1.2334  0.7280 -0.5361
 2335SOL     OW18640   3.606   3.604   1.987 -0.0274  0.1812 -0.1727
 2335SOL    HW118641   3.543   3.533   1.973 -1.3753  1.3476 -0.0408
 2335SOL    HW218642   3.539   3.672   1.979 -1.0745 -1.1091 -2.3826
 2336SOL     OW18643   2.724   0.702   8.622  0.5397 -0.1113  0.6331
 2336SOL    HW118644   2.701   0.630   8.563 -1.5846  0.2262  1.0353
 2336SOL    HW218645   2.772   0.652   8.688 -0.1104 -0.1596  1.0699
 2337SOL     OW18646   1.114   2.271   2.569 -0.0245 -0.1445 -0.2458
 2337SOL    HW118647   1.180   2.204   2.586  0.7163  0.8964  0.9213
 2337SOL    HW218648   1.082   2.239   2.484 -1.0620 -0.8520  0.4145
 2338SOL     OW18649   2.069   3.223   9.012 -0.7471 -0.0654 -0.1863
 2338SOL    HW118650   2.111   3.307   8.992  0.7518 -0.5120  1.0669
 2338SOL    HW218651   2.058   3.187   8.924 -1.5384 -2.5974  0.9666
 2339SOL     OW18652   2.903   3.218   3.909 -0.4653 -0.4485  0.7358
 2339SOL    HW118653   2.897   3.278   3.835 -1.7494 -1.7468 -0.2043
 2339SOL    HW218654   2.970   3.154   3.884 -1.2737 -1.1045  0.2952
 2340SOL     OW18655   1.816   0.816  17.531 -0.5997 -0.0993 -0.0228
 2340SOL    HW118656   1.903   0.782  17.553 -0.0305  0.7679 -0.9274
 2340SOL    HW218657   1.811   0.892  17.588  0.9061  0.0072 -0.0338
 2341SOL     OW18658   2.840   1.233   3.281 -0.3058  0.4081  0.4055
 2341SOL    HW118659   2.785   1.207   3.207 -0.5637 -1.7893  1.3718
 2341SOL    HW218660   2.821   1.164   3.345 -0.5089 -2.3858 -2.6474
 2342SOL     OW18661   1.176   0.311   2.357  0.1671 -0.3332  1.0786
 2342SOL    HW118662   1.148   0.403   2.347 -0.4548 -0.8277 -1.8401
 2342SOL    HW218663   1.151   0.295   2.448  1.9349 -0.6065  1.5165
 2343SOL     OW18664   1.690   3.280  17.358  0.3575 -0.1950  0.0800
 2343SOL    HW118665   1.666   3.227  17.435  1.5299 -0.5632  0.1905
 2343SOL    HW218666   1.623   3.347  17.370  2.3198  1.5946  1.0807
 2344SOL     OW18667   4.226   2.669   5.333  0.3727 -0.0191 -0.0122
 2344SOL    HW118668   4.182   2.592   5.367  0.4169 -0.1817 -0.3176
 2344SOL    HW218669   4.179   2.741   5.375  3.1220  1.5749  0.3570
 2345SOL     OW18670   1.012   1.172   5.210 -0.4707  0.3721  0.0127
 2345SOL    HW118671   0.945   1.188   5.277 -1.1168  1.5145 -0.8992
 2345SOL    HW218672   1.000   1.241   5.145  0.1085  0.3307 -0.1393
 2346SOL     OW18673   3.332   4.080  14.541 -0.0356  0.3312 -0.0359
 2346SOL    HW118674   3.364   4.164  14.508 -0.2086  0.1912 -0.5533
 2346SOL    HW218675   3.411   4.028  14.558  0.5453  0.5994 -1.8959
 2347SOL     OW18676   1.505   3.837   7.460  0.4912 -0.1947  0.6691
 2347SOL    HW118677   1.535   3.746   7.468  0.7385 -0.2023 -0.3650
 2347SOL    HW218678   1.587   3.878   7.435  0.0928 -0.2022 -0.6483
 2348SOL     OW18679   0.323   1.247   1.906 -0.2188  0.2038  0.0093
 2348SOL    HW118680   0.367   1.189   1.844  0.1072  0.0483  0.3841
 2348SOL    HW218681   0.244   1.195   1.920 -0.5260  0.7704  0.4032
 2349SOL     OW18682   1.571   0.560   3.364 -0.2770  0.0779 -0.4429
 2349SOL    HW118683   1.487   0.550   3.320 -1.9012  0.2565  2.6150
 2349SOL    HW218684   1.621   0.495   3.315 -0.5028  0.1040 -0.7062
 2350SOL     OW18685   3.389   3.507   6.855  0.0387  0.3851  0.1022
 2350SOL    HW118686   3.351   3.595   6.861 -0.3097  0.1653  1.2386
 2350SOL    HW218687   3.322   3.469   6.799  1.6488 -2.2366 -0.0192
 2351SOL     OW18688   1.562   4.288  14.831 -0.1493  0.0993  0.4973
 2351SOL    HW118689   1.568   4.279  14.736 -1.3009  1.5004  0.2759
 2351SOL    HW218690   1.577   4.199  14.863  0.0469 -0.1139 -0.2021
 2352SOL     OW18691   3.932   4.087   6.263 -0.5836  0.0649 -0.5184
 2352SOL    HW118692   3.984   4.007   6.251 -1.2347 -0.5832  1.0801
 2352SOL    HW218693   3.991   4.153   6.226  0.8686 -0.8018  0.2695
 2353SOL     OW18694   1.212   3.761   2.478  0.3708 -0.3351  0.0796
 2353SOL    HW118695   1.231   3.836   2.534  0.1684 -1.1268  1.2126
 2353SOL    HW218696   1.139   3.800   2.431 -1.6519 -2.5970  1.3574
 2354SOL     OW18697   2.923   0.345   7.942  0.7936 -0.6288  0.1893
 2354SOL    HW118698   2.912   0.320   8.034 -0.3433  1.1838  0.5366
 2354SOL    HW218699   2.834   0.369   7.918  1.9845  0.8567 -2.7039
 2355SOL     OW18700   2.785   0.399  16.746 -0.0689  0.1039 -0.3897
 2355SOL    HW118701   2.798   0.316  16.793 -1.4576  0.3137  0.3795
 2355SOL    HW218702   2.723   0.452  16.796 -0.9873 -0.5069 -0.8741
 2356SOL     OW18703   2.489   3.553   8.252  0.1493  0.1337 -0.1694
 2356SOL    HW118704   2.442   3.513   8.179 -1.9795  0.8994  0.7895
 2356SOL    HW218705   2.570   3.583   8.210  0.8604 -2.4864 -0.6724
 2357SOL     OW18706   3.500   0.486   8.578  0.2076  0.0449 -0.5744
 2357SOL    HW118707   3.591   0.456   8.580 -0.6036 -2.4265 -0.4911
 2357SOL    HW218708   3.461   0.469   8.664  0.9396 -1.4159 -0.5322
 2358SOL     OW18709   2.514   2.423   9.163 -0.0898 -0.2676  0.2082
 2358SOL    HW118710   2.474   2.480   9.097  0.2396  0.6993  0.8353
 2358SOL    HW218711   2.447   2.426   9.232  0.1156  0.7485  0.3752
 2359SOL     OW18712   0.872   3.877   3.653  0.2935 -0.1011  0.0665
 2359SOL    HW118713   0.867   3.821   3.576  0.7768  1.9293 -1.4307
 2359SOL    HW218714   0.835   3.827   3.726 -0.9644  2.4232  1.1740
 2360SOL     OW18715   0.753   4.368   8.945  0.0905  0.1023  0.1965
 2360SOL    HW118716   0.800   4.286   8.930 -1.1250  0.0046 -3.0114
 2360SOL    HW218717   0.794   4.406   9.023  0.7749 -3.4940  1.5916
 2361SOL     OW18718   0.222   2.522   1.663  0.2772 -0.1818  0.1751
 2361SOL    HW118719   0.233   2.489   1.574 -1.0790 -2.7320  0.9546
 2361SOL    HW218720   0.176   2.458   1.717 -0.4587  0.2678  0.0800
 2362SOL     OW18721   3.341   0.948   5.346 -0.2144  0.5474 -0.3762
 2362SOL    HW118722   3.350   1.043   5.359 -1.3225  0.9115 -2.3045
 2362SOL    HW218723   3.350   0.927   5.439  0.6049 -1.8378 -1.0093
 2363SOL     OW18724   2.512   1.394   2.425  0.0029  0.0765  0.8364
 2363SOL    HW118725   2.437   1.334   2.429 -0.0662 -0.0302 -2.4084
 2363SOL    HW218726   2.583   1.331   2.429 -0.2568 -0.2821 -0.3715
 2364SOL     OW18727   0.548   4.300   8.177  0.0650  0.0683  0.0556
 2364SOL    HW118728   0.483   4.309   8.247  0.5299 -1.0817  0.6252
 2364SOL    HW218729   0.583   4.215   8.202  2.3293  0.7736 -0.7348
 2365SOL     OW18730   0.811   3.850   0.959 -0.0694 -0.1717  0.4505
 2365SOL    HW118731   0.738   3.850   0.897  2.0627  0.5163 -2.0595
 2365SOL    HW218732   0.876   3.900   0.910 -0.8704 -0.3454 -0.7865
 2366SOL     OW18733   0.658   0.510   4.634 -0.0346  0.3636 -0.3096
 2366SOL    HW118734   0.636   0.430   4.681  1.4615  1.1120  1.6519
 2366SOL    HW218735   0.741   0.533   4.676 -0.9103  0.8860  1.1422
 2367SOL     OW18736   2.052   1.166   3.358  0.7419 -0.0525 -0.1443
 2367SOL    HW118737   2.101   1.088   3.386  0.1404  0.7993  3.2966
 2367SOL    HW218738   2.122   1.225   3.333 -1.7478  1.7804 -2.8745
 2368SOL     OW18739   1.183   2.726   4.702 -0.3858 -0.2856 -0.4031
 2368SOL    HW118740   1.095   2.761   4.707  0.0531  0.4088  2.3053
 2368SOL    HW218741   1.166   2.646   4.652  1.8568  0.0242 -1.6664
 2369SOL     OW18742   1.007   3.697   4.474  0.2494 -0.0077 -0.8316
 2369SOL    HW118743   1.087   3.695   4.421  0.9254  2.7828  0.1067
 2369SOL    HW218744   1.018   3.776   4.527 -2.7612 -0.0868 -0.0903
 2370SOL     OW18745   0.349   0.286   9.015 -0.0762 -0.0875 -0.1242
 2370SOL    HW118746   0.301   0.352   8.965  0.0954  0.5036  0.4856
 2370SOL    HW218747   0.439   0.298   8.986 -0.3070  0.7451 -0.5073
 2371SOL     OW18748   2.300   4.096   4.282 -0.0638  0.0148  0.2766
 2371SOL    HW118749   2.332   4.006   4.277  0.3838  0.2080 -0.4402
 2371SOL    HW218750   2.379   4.147   4.298  0.3741 -1.0696  1.5159
 2372SOL     OW18751   1.363   1.022   9.534 -0.1710  0.0821  0.3976
 2372SOL    HW118752   1.272   1.048   9.519  0.1670 -0.1496 -1.9927
 2372SOL    HW218753   1.365   1.028   9.630 -0.0518  0.1702  0.3894
 2373SOL     OW18754   1.609   4.412   9.223 -0.0522  0.2390  0.3835
 2373SOL    HW118755   1.670   4.396   9.151 -0.9878  0.9528 -0.5605
 2373SOL    HW218756   1.569   4.325   9.230  1.7772 -0.6470  0.0567
 2374SOL     OW18757   3.059   3.565   6.559 -0.7601 -0.4027  0.1503
 2374SOL    HW118758   3.024   3.593   6.644  1.3915  2.0883  0.1889
 2374SOL    HW218759   3.135   3.514   6.583 -1.8181 -1.3706  1.4491
 2375SOL     OW18760   3.860   4.517   2.344 -0.1596  0.1799  0.0548
 2375SOL    HW118761   3.881   4.509   2.251 -1.9961 -0.5380 -0.3030
 2375SOL    HW218762   3.858   4.427   2.377  2.1656 -0.6818 -2.1374
 2376SOL     OW18763   2.760   2.757   6.751 -0.0134  0.1853  0.1383
 2376SOL    HW118764   2.721   2.844   6.756  2.0511  0.9433  3.0835
 2376SOL    HW218765   2.846   2.782   6.718  0.1496 -0.9608 -0.3225
 2377SOL     OW18766   3.817   0.679   2.815 -0.2817  0.1972  0.3951
 2377SOL    HW118767   3.853   0.748   2.760 -1.4273 -0.5640 -1.3156
 2377SOL    HW218768   3.731   0.663   2.776 -0.3182 -0.1667  0.6214
 2378SOL     OW18769   0.124   0.241  13.412  0.2114 -0.0395 -0.0760
 2378SOL    HW118770   0.049   0.195  13.451  1.7058 -1.5032  1.0611
 2378SOL    HW218771   0.126   0.322  13.463 -0.5542 -0.8838  1.2867
 2379SOL     OW18772   2.503   0.914  13.473  0.1887 -0.6143 -0.0068
 2379SOL    HW118773   2.556   0.926  13.552 -0.6533 -0.0269  0.4642
 2379SOL    HW218774   2.521   0.823  13.449  0.2145 -1.0368  1.5913
 2380SOL     OW18775   4.130   0.314   5.834  0.1794  0.0042 -0.1176
 2380SOL    HW118776   4.080   0.235   5.856  1.1051 -0.4643  0.2972
 2380SOL    HW218777   4.063   0.369   5.794 -0.3691 -0.8108 -0.3301
 2381SOL     OW18778   0.714   2.361   9.210 -0.1934  0.0878 -0.0468
 2381SOL    HW118779   0.758   2.340   9.293 -1.0095 -1.6174 -0.0461
 2381SOL    HW218780   0.626   2.378   9.245  0.4033  0.5819  1.2173
 2382SOL     OW18781   2.649   4.444   6.274  0.3208  0.0290 -0.4689
 2382SOL    HW118782   2.664   4.539   6.275  0.3046  0.0254 -0.0723
 2382SOL    HW218783   2.566   4.432   6.227 -0.6641  2.2194  0.7076
 2383SOL     OW18784   4.698   1.979   2.122  0.7591 -0.6299 -0.2908
 2383SOL    HW118785   4.626   2.016   2.173  0.2389 -0.7956 -0.8888
 2383SOL    HW218786   4.658   1.953   2.038 -0.1287  1.9693 -0.6909
 2384SOL     OW18787   2.577   3.360   0.353  0.1523  0.7410 -0.1388
 2384SOL    HW118788   2.518   3.286   0.358 -0.0216  0.9166  0.4372
 2384SOL    HW218789   2.633   3.330   0.281  0.9891 -1.1998  1.3340
 2385SOL     OW18790   1.312   3.109   6.003  0.0652  0.2244  0.1745
 2385SOL    HW118791   1.343   3.149   6.084 -0.9575 -1.9435  1.6285
 2385SOL    HW218792   1.224   3.077   6.020 -0.0552  0.6688  0.4000
 2386SOL     OW18793   4.414   3.290   4.473 -0.5840  0.2440  0.3508
 2386SOL    HW118794   4.475   3.355   4.438 -0.8509  0.4298  0.2322
 2386SOL    HW218795   4.459   3.253   4.549  0.1075  2.2963  0.9214
 2387SOL     OW18796   2.614   3.452  10.759  0.0808  0.7580  0.0868
 2387SOL    HW118797   2.552   3.491  10.698  0.3211 -1.5048 -1.5885
 2387SOL    HW218798   2.590   3.480  10.847 -1.4817 -2.1558  0.5878
 2388SOL     OW18799   1.120   1.739   7.104 -0.0753  0.4679 -0.0762
 2388SOL    HW118800   1.177   1.816   7.097 -0.4169  0.9155  2.1182
 2388SOL    HW218801   1.047   1.773   7.053 -0.3214  1.8095  1.1525
 2389SOL     OW18802   1.992   0.044  15.702 -0.9241 -0.2696  0.1317
 2389SOL    HW118803   1.915   0.096  15.678  0.5924  1.2490 -1.4537
 2389SOL    HW218804   2.012   4.736  15.620 -0.2241 -1.1677  0.7823
 2390SOL     OW18805   2.784   4.151  15.198  0.5874  0.2639  0.2443
 2390SOL    HW118806   2.808   4.154  15.291  0.5613  0.5680  0.2437
 2390SOL    HW218807   2.761   4.244  15.186  0.0074 -0.5301 -4.6927
 2391SOL     OW18808   0.124   3.342   6.505  0.0895 -0.1344 -0.4993
 2391SOL    HW118809   0.130   3.434   6.480 -0.0861  0.3348  1.2004
 2391SOL    HW218810   0.031   3.333   6.524  0.2416  2.0958  1.2712
 2392SOL     OW18811   1.592   3.730  16.777 -0.1487 -0.1006 -0.1575
 2392SOL    HW118812   1.541   3.811  16.779  0.5433  0.3329 -0.1303
 2392SOL    HW218813   1.524   3.674  16.740 -1.1232  0.0615  1.3979
 2393SOL     OW18814   1.020   3.988  10.479  0.4651  0.3474  0.6681
 2393SOL    HW118815   1.022   3.893  10.488  1.8340  0.4149  1.0457
 2393SOL    HW218816   1.085   4.008  10.412  0.3039 -1.4582 -0.0173
 2394SOL     OW18817   3.293   0.144   5.150  0.1093 -0.1670  0.4647
 2394SOL    HW118818   3.315   0.225   5.194 -1.5662 -0.8468  2.5161
 2394SOL    HW218819   3.221   0.169   5.091  1.0701 -0.2104 -0.7326
 2395SOL     OW18820   3.009   2.318   7.315 -0.1562  0.2977  0.4316
 2395SOL    HW118821   2.988   2.314   7.408 -1.4590  2.0721  0.2000
 2395SOL    HW218822   3.066   2.395   7.312  1.2487 -0.6394  3.1326
 2396SOL     OW18823   1.081   1.538   0.229 -0.1026 -0.1341  0.2995
 2396SOL    HW118824   1.086   1.445   0.252  0.1258 -0.3111 -0.4525
 2396SOL    HW218825   1.108   1.524   0.138  1.0045 -1.9096  0.9023
 2397SOL     OW18826   3.259   0.225   2.591  0.4269  0.0349 -0.2944
 2397SOL    HW118827   3.233   0.138   2.562 -0.2272 -0.1133  0.7326
 2397SOL    HW218828   3.272   0.275   2.510  0.0987 -0.9123 -0.9204
 2398SOL     OW18829   2.351   4.143   1.250 -0.1835 -0.1987  0.8888
 2398SOL    HW118830   2.299   4.093   1.187  1.8722  0.2772 -1.1800
 2398SOL    HW218831   2.287   4.175   1.313 -1.1164  1.2790 -0.8359
 2399SOL     OW18832   3.886   3.228   5.222 -0.3187  0.7344 -0.1744
 2399SOL    HW118833   3.805   3.254   5.179 -0.7632 -1.1623 -0.4751
 2399SOL    HW218834   3.905   3.306   5.274 -3.8818  1.7655 -0.4479
 2400SOL     OW18835   1.199   2.567  16.379  0.8850 -0.5918 -0.3441
 2400SOL    HW118836   1.278   2.606  16.417  0.5235 -0.9083  0.7354
 2400SOL    HW218837   1.177   2.636  16.317  1.3923 -0.5742 -0.5042
 2401SOL     OW18838   2.622   4.590  10.001  0.4963 -0.5376  0.4177
 2401SOL    HW118839   2.618   4.525   9.931  1.8315 -1.9988  1.7146
 2401SOL    HW218840   2.716   4.608   9.998  0.2817  0.1072 -1.9969
 2402SOL     OW18841   4.429   0.952   7.030 -0.2691  0.3095 -0.0744
 2402SOL    HW118842   4.449   0.928   7.121  0.8811 -0.1305 -0.4461
 2402SOL    HW218843   4.350   0.901   7.017 -0.8497  1.3665 -0.7251
 2403SOL     OW18844   3.797   4.617   4.846  0.0296  0.2591 -0.8410
 2403SOL    HW118845   3.705   4.610   4.872  0.5821  0.1054  1.1357
 2403SOL    HW218846   3.818   4.701   4.887  0.4157  0.0936 -0.7005
 2404SOL     OW18847   0.277   4.404   1.150  0.3444  0.6283 -0.3052
 2404SOL    HW118848   0.372   4.396   1.158  0.4814 -0.0149 -2.6526
 2404SOL    HW218849   0.260   4.455   1.229  3.2127  0.9663  0.0787
 2405SOL     OW18850   0.827   2.042   5.367 -0.6397  0.0618  0.7457
 2405SOL    HW118851   0.798   1.955   5.338 -1.4316  0.6805 -0.3267
 2405SOL    HW218852   0.849   2.016   5.456 -1.3674 -0.6071  0.7306
 2406SOL     OW18853   4.702   0.670  11.662  0.8008  0.0507  0.1337
 2406SOL    HW118854   4.733   0.735  11.599  1.9260  1.2999  1.9480
 2406SOL    HW218855   0.003   0.713  11.739  0.7320 -2.4739  1.5723
 2407SOL     OW18856   0.849   1.367   9.359  0.6160 -0.4678 -0.0449
 2407SOL    HW118857   0.793   1.290   9.357  2.9841 -2.1775  0.7288
 2407SOL    HW218858   0.866   1.370   9.264  0.5919  0.1487 -0.0297
 2408SOL     OW18859   1.970   0.157   1.903 -0.6090 -0.5013 -0.3389
 2408SOL    HW118860   2.009   0.221   1.844  0.7572  0.7006  1.8521
 2408SOL    HW218861   1.997   0.076   1.860  0.7050  0.0261 -0.4820
 2409SOL     OW18862   4.132   4.314   3.869 -0.0462 -0.8950  0.1732
 2409SOL    HW118863   4.149   4.341   3.959 -0.2783 -1.8895  0.5175
 2409SOL    HW218864   4.195   4.243   3.865 -2.1936 -2.7554 -0.7613
 2410SOL     OW18865   3.396   3.850   6.420 -0.7591  0.6397 -0.0485
 2410SOL    HW118866   3.368   3.817   6.335  3.2220  0.4401 -1.2823
 2410SOL    HW218867   3.450   3.925   6.398 -1.3309  0.8383 -0.7634
 2411SOL     OW18868   3.403   2.811  13.517 -0.5364 -0.3305  0.4115
 2411SOL    HW118869   3.354   2.739  13.559 -2.3285  0.2354 -0.6972
 2411SOL    HW218870   3.446   2.764  13.445  0.3227 -1.3817  1.6144
 2412SOL     OW18871   0.606   4.440  12.227 -0.0458  0.6727 -0.1667
 2412SOL    HW118872   0.678   4.433  12.291 -0.8188 -3.2857  0.2625
 2412SOL    HW218873   0.546   4.506  12.261  0.4093 -0.2302  2.3957
 2413SOL     OW18874   1.448   4.462  12.987  0.0138  0.1682  0.4358
 2413SOL    HW118875   1.453   4.555  13.008 -2.9923  0.2614  0.8286
 2413SOL    HW218876   1.375   4.466  12.925 -0.1761 -0.8813  0.5919
 2414SOL     OW18877   4.593   4.709  16.704 -0.1958  0.0765  0.1132
 2414SOL    HW118878   4.572   4.616  16.715  0.2370 -0.1133 -0.6497
 2414SOL    HW218879   4.530   0.002  16.638  1.9295 -0.4705 -2.1611
 2415SOL     OW18880   0.873   1.750   7.211  0.0506  0.3375  0.6776
 2415SOL    HW118881   0.788   1.741   7.169  0.2289 -1.1773  0.6527
 2415SOL    HW218882   0.917   1.666   7.197 -1.3493 -0.8482  3.5693
 2416SOL     OW18883   1.904   1.138  11.003  0.0188 -0.0614  0.0019
 2416SOL    HW118884   1.858   1.221  10.994  0.0452 -0.0224  0.2176
 2416SOL    HW218885   1.983   1.164  11.052 -0.4420  0.9703  0.2001
 2417SOL     OW18886   2.230   4.328   6.910  0.1395  0.2645  0.1340
 2417SOL    HW118887   2.198   4.396   6.850  0.1366  1.7443  1.8033
 2417SOL    HW218888   2.170   4.326   6.985 -1.1051  0.2721 -0.8589
 2418SOL     OW18889   4.345   2.706   2.410 -0.1080 -0.2735  0.3467
 2418SOL    HW118890   4.308   2.744   2.330 -1.0202  0.5207  1.1448
 2418SOL    HW218891   4.428   2.745   2.438 -0.5946  1.8720 -1.1378
 2419SOL     OW18892   2.452   4.674   2.458  0.1281  0.7085  0.3800
 2419SOL    HW118893   2.507   4.719   2.395 -1.2936  0.4857 -1.0234
 2419SOL    HW218894   2.415   4.600   2.410  1.2127  0.6771 -0.3856
 2420SOL     OW18895   0.889   1.910   6.197 -0.1394 -0.4231 -0.4405
 2420SOL    HW118896   0.938   1.855   6.258  0.5157 -0.5967 -1.1267
 2420SOL    HW218897   0.964   1.946   6.150  1.7562  0.9429  3.5774
 2421SOL     OW18898   3.519   2.687   3.917  0.0880 -0.9587 -0.2628
 2421SOL    HW118899   3.493   2.622   3.852  0.2839 -0.5036 -0.7925
 2421SOL    HW218900   3.585   2.638   3.966  0.9916  0.6059  0.1210
 2422SOL     OW18901   1.921   4.471   3.666  0.2128 -0.8531  0.2763
 2422SOL    HW118902   1.889   4.418   3.593  0.0531  2.3182 -1.9599
 2422SOL    HW218903   2.015   4.464   3.648 -0.5504  0.5931 -4.2234
 2423SOL     OW18904   0.393   0.786   4.818  0.1171 -0.3919 -0.2187
 2423SOL    HW118905   0.357   0.775   4.906  0.1968 -2.0426 -0.3890
 2423SOL    HW218906   0.471   0.834   4.844 -1.4343  0.8071  2.2030
 2424SOL     OW18907   2.746   0.636   3.682 -0.0470  0.1862  0.7529
 2424SOL    HW118908   2.777   0.561   3.733 -0.3801 -0.6804 -0.3042
 2424SOL    HW218909   2.746   0.596   3.595  0.7316 -0.5072  1.0769
 2425SOL     OW18910   4.421   1.542   4.199 -0.0252 -0.8506 -0.0830
 2425SOL    HW118911   4.508   1.557   4.236  0.4036  0.3468 -1.5538
 2425SOL    HW218912   4.432   1.449   4.180  0.8788 -0.4164 -1.6595
 2426SOL     OW18913   4.593   1.716   3.100 -0.4152  0.2967 -0.6971
 2426SOL    HW118914   4.648   1.769   3.159  0.6564 -2.5749  0.8733
 2426SOL    HW218915   4.562   1.649   3.161 -0.2965  2.0608  1.3188
 2427SOL     OW18916   2.742   1.418   7.814 -0.6796  0.1253  0.1767
 2427SOL    HW118917   2.661   1.367   7.813 -0.3251 -0.4077 -0.8688
 2427SOL    HW218918   2.790   1.353   7.764 -0.0108  1.4547 -0.8944
 2428SOL     OW18919   4.343   4.622   9.235  0.2500  0.1971  0.4704
 2428SOL    HW118920   4.381   4.543   9.197 -0.4385  0.5765 -0.9852
 2428SOL    HW218921   4.413   4.640   9.298 -0.4118 -0.5341  1.4222
 2429SOL     OW18922   0.585   4.170   2.097 -0.1039  0.1999  0.0345
 2429SOL    HW118923   0.583   4.093   2.154  0.0709  0.4699  0.4128
 2429SOL    HW218924   0.662   4.213   2.135 -1.4004  2.5930 -0.0166
 2430SOL     OW18925   2.214   0.575   6.441 -0.2581 -0.8227  0.3423
 2430SOL    HW118926   2.292   0.629   6.451  0.1496 -1.6844  1.8866
 2430SOL    HW218927   2.222   0.540   6.353  0.9809 -0.0825  0.1590
 2431SOL     OW18928   4.150   3.551   1.946 -0.2051 -0.6058  0.4041
 2431SOL    HW118929   4.189   3.484   1.891  1.3549  0.3053  0.3966
 2431SOL    HW218930   4.066   3.556   1.901  0.3451  0.6656 -0.4971
 2432SOL     OW18931   1.581   0.003  15.810 -0.0356 -0.0862 -0.3885
 2432SOL    HW118932   1.628   4.678  15.867 -0.2464  0.7937  0.7263
 2432SOL    HW218933   1.536   0.059  15.873  0.3776 -1.0308  0.7435
 2433SOL     OW18934   4.699   3.448   6.088 -0.2431  0.0234  0.5589
 2433SOL    HW118935   0.037   3.466   6.146 -0.2036  0.5883  0.3386
 2433SOL    HW218936   4.648   3.529   6.089  0.5796  0.5459  0.3632
 2434SOL     OW18937   2.988   2.664   2.090 -0.2143  0.3741 -0.3536
 2434SOL    HW118938   2.926   2.642   2.020  2.5753 -2.4896 -1.9149
 2434SOL    HW218939   3.065   2.624   2.049 -0.0311  0.3787 -0.0085
 2435SOL     OW18940   0.951   4.697   3.735 -0.2321 -0.1647 -0.1474
 2435SOL    HW118941   0.968   0.044   3.780 -4.2068  0.9943 -0.7766
 2435SOL    HW218942   0.857   4.681   3.736 -0.0944 -1.3196 -5.3759
 2436SOL     OW18943   3.881   4.338   8.499 -0.2264  0.7837  0.0054
 2436SOL    HW118944   3.862   4.405   8.565  0.1810  0.0618  0.8556
 2436SOL    HW218945   3.896   4.400   8.427 -1.3415  0.7640 -0.2546
 2437SOL     OW18946   3.310   1.391  14.086  0.3713  0.2022  0.1315
 2437SOL    HW118947   3.246   1.324  14.111  1.0784 -0.0365  1.2836
 2437SOL    HW218948   3.394   1.352  14.063  0.5727  0.8101 -0.1425
 2438SOL     OW18949   0.534   1.258   4.289  0.5733 -0.2343  0.0889
 2438SOL    HW118950   0.562   1.282   4.378 -0.0361 -2.8086  0.9702
 2438SOL    HW218951   0.472   1.187   4.306 -2.0665  2.1090  0.3099
 2439SOL     OW18952   3.784   3.792   9.959  0.3766 -0.1806  0.0706
 2439SOL    HW118953   3.792   3.707   9.916  1.2974  0.7634 -1.6301
 2439SOL    HW218954   3.751   3.777  10.048  0.7740 -1.1320  0.0578
 2440SOL     OW18955   4.722   0.438   7.708 -0.5488  0.5305 -0.4159
 2440SOL    HW118956   0.008   0.355   7.666 -0.4846 -0.0574  0.7934
 2440SOL    HW218957   0.013   0.423   7.798  2.3953  0.5062 -1.3119
 2441SOL     OW18958   0.460   4.501   7.503 -0.4466 -0.4704  0.0297
 2441SOL    HW118959   0.508   4.419   7.502  0.6115  0.1495 -0.1901
 2441SOL    HW218960   0.477   4.533   7.415 -0.0618 -1.7411 -0.3521
 2442SOL     OW18961   3.295   2.406   6.601 -0.0157  0.0714  0.4137
 2442SOL    HW118962   3.361   2.337   6.608 -0.9900 -0.8893  0.2009
 2442SOL    HW218963   3.324   2.449   6.681  0.1284 -0.3324  0.5791
 2443SOL     OW18964   2.379   4.124  17.088 -0.2271  0.8070 -0.4981
 2443SOL    HW118965   2.350   4.060  17.154 -0.4267  1.1360 -0.2691
 2443SOL    HW218966   2.422   4.187  17.145 -0.8275  1.5568 -0.8705
 2444SOL     OW18967   1.473   2.314   8.153 -0.4539 -0.7411  0.1564
 2444SOL    HW118968   1.550   2.360   8.186 -2.2847  0.1954  3.0617
 2444SOL    HW218969   1.511   2.288   8.069  0.6064  2.6817 -0.3942
 2445SOL     OW18970   4.513   4.133   8.334  0.2571 -0.1027 -0.0333
 2445SOL    HW118971   4.467   4.069   8.388  0.2061 -1.2412 -1.4209
 2445SOL    HW218972   4.602   4.134   8.371  0.3487 -2.0396 -0.1978
 2446SOL     OW18973   1.940   0.283   8.481 -0.1263 -0.0365  0.5203
 2446SOL    HW118974   1.894   0.366   8.469 -0.6739 -0.2547  1.0881
 2446SOL    HW218975   2.001   0.288   8.408 -0.9102 -0.1872 -0.1420
 2447SOL     OW18976   0.738   0.479   2.373  0.1661 -0.0765  0.2024
 2447SOL    HW118977   0.811   0.488   2.311 -2.8820  1.5084 -3.2051
 2447SOL    HW218978   0.661   0.479   2.317  0.7627 -1.2921 -0.6217
 2448SOL     OW18979   3.054   2.705   7.989 -0.3328 -0.6544  0.2025
 2448SOL    HW118980   2.991   2.754   8.041  1.3483  2.0987 -0.3539
 2448SOL    HW218981   3.119   2.680   8.054  0.1127 -1.8339 -0.6827
 2449SOL     OW18982   1.698   4.228   7.156  0.0611 -0.7357  0.1106
 2449SOL    HW118983   1.664   4.205   7.243 -0.5985  1.2582  0.3816
 2449SOL    HW218984   1.614   4.263   7.126  0.7137  1.6000  1.0417
 2450SOL     OW18985   4.023   2.127  16.201 -0.1560  0.1142 -0.4791
 2450SOL    HW118986   4.070   2.166  16.274  0.1461 -0.6968 -0.2486
 2450SOL    HW218987   4.098   2.126  16.142  1.5048 -1.5124  1.6976
 2451SOL     OW18988   1.314   4.448   2.329 -0.0904  0.4668  0.3090
 2451SOL    HW118989   1.269   4.408   2.254 -0.9092  2.6419 -0.3355
 2451SOL    HW218990   1.306   4.538   2.297 -1.2637  0.0377 -0.6342
 2452SOL     OW18991   3.830   0.500   5.944  0.1960 -0.3274 -0.3911
 2452SOL    HW118992   3.749   0.551   5.944  0.8595  0.7093  2.3230
 2452SOL    HW218993   3.845   0.485   6.037 -0.0316  0.6371 -0.1930
 2453SOL     OW18994   3.309   3.355   5.549  0.0373 -0.4536  0.0370
 2453SOL    HW118995   3.256   3.277   5.563 -0.7174  0.1070  0.3449
 2453SOL    HW218996   3.278   3.384   5.463 -0.3458 -1.3583 -0.1289
 2454SOL     OW18997   1.259   4.539   8.472 -0.5706  0.0465  0.5721
 2454SOL    HW118998   1.178   4.582   8.445 -0.0001  0.8798  0.1841
 2454SOL    HW218999   1.303   4.603   8.528  2.3703 -2.1829  0.8130
 2455SOL     OW19000   4.404   1.240   3.196 -0.2978 -0.5137 -0.4681
 2455SOL    HW119001   4.437   1.325   3.169 -0.2975  0.2664  1.9679
 2455SOL    HW219002   4.468   1.187   3.148 -0.4606 -0.2374 -0.9888
 2456SOL     OW19003   3.243   4.687   3.053 -0.0776 -0.2635 -0.1634
 2456SOL    HW119004   3.257   4.594   3.071  0.0349  0.7280  4.7904
 2456SOL    HW219005   3.271   4.723   3.137  1.5079 -2.5254  0.2858
 2457SOL     OW19006   4.475   3.463   0.756  0.0781 -0.5379 -0.1903
 2457SOL    HW119007   4.380   3.455   0.759  0.0500  0.2381  1.0229
 2457SOL    HW219008   4.498   3.409   0.681 -1.5281 -0.8452 -0.4608
 2458SOL     OW19009   0.698   1.609   2.676 -0.0891  0.8352  0.5188
 2458SOL    HW119010   0.778   1.619   2.727  0.0879 -0.0291  0.4138
 2458SOL    HW219011   0.632   1.622   2.744  0.3801 -1.8103  1.4811
 2459SOL     OW19012   1.581   1.663   9.588 -0.1210 -0.5003 -0.2740
 2459SOL    HW119013   1.646   1.620   9.532 -0.9384 -0.2870 -1.3979
 2459SOL    HW219014   1.512   1.598   9.605 -0.3226 -0.2699 -0.2115
 2460SOL     OW19015   2.503   0.807   3.922 -0.1440 -0.5468  0.5086
 2460SOL    HW119016   2.448   0.755   3.863 -2.9346  4.0568 -0.9758
 2460SOL    HW219017   2.509   0.888   3.871  0.0795 -1.5119 -0.9928
 2461SOL     OW19018   2.690   0.368   2.652  0.0465 -0.1566  0.3700
 2461SOL    HW119019   2.611   0.420   2.636  0.3833 -0.2099 -1.4712
 2461SOL    HW219020   2.753   0.422   2.604 -1.4185  1.8823  0.7374
 2462SOL     OW19021   2.972   2.853   7.003 -0.1098 -0.0804  0.0859
 2462SOL    HW119022   3.023   2.875   7.081  2.7774  0.4581 -1.9613
 2462SOL    HW219023   2.887   2.895   7.023 -0.6156 -1.0153 -0.1236
 2463SOL     OW19024   2.884   3.390   4.938 -0.1006  0.2531 -0.0018
 2463SOL    HW119025   2.792   3.400   4.916 -0.1851  1.5817  0.9209
 2463SOL    HW219026   2.928   3.468   4.902  1.1660  0.7688  2.6747
 2464SOL     OW19027   0.765   3.600   4.391  0.4834  0.2180 -0.4362
 2464SOL    HW119028   0.727   3.663   4.452 -0.1091 -0.2464 -0.3185
 2464SOL    HW219029   0.857   3.620   4.407  0.7896 -0.4841 -1.2697
 2465SOL     OW19030   3.939   3.403  12.616 -0.1175 -0.3641  0.4105
 2465SOL    HW119031   3.853   3.445  12.608  0.4317  0.3692 -1.7292
 2465SOL    HW219032   3.906   3.316  12.636  1.5536 -0.6277  1.9504
 2466SOL     OW19033   3.142   3.851   9.303 -0.0519 -0.0567 -0.8417
 2466SOL    HW119034   3.059   3.810   9.327 -0.0234  0.5405  0.2559
 2466SOL    HW219035   3.166   3.876   9.392 -1.0630  0.7136 -0.7822
 2467SOL     OW19036   0.618   2.455  17.446  0.0819  0.7412  0.1264
 2467SOL    HW119037   0.672   2.478  17.521 -2.3710  2.9614  1.2473
 2467SOL    HW219038   0.550   2.399  17.485 -1.5537  3.4044  1.1656
 2468SOL     OW19039   3.483   3.699  11.646  0.0535  0.0653  0.3615
 2468SOL    HW119040   3.485   3.648  11.726 -0.1173 -1.7614 -0.7999
 2468SOL    HW219041   3.463   3.785  11.683 -4.2837 -0.9596  0.3415
 2469SOL     OW19042   4.312   0.912   5.901  0.5242  0.0093  0.3531
 2469SOL    HW119043   4.350   0.913   5.813 -0.8202 -3.3285 -0.2659
 2469SOL    HW219044   4.220   0.928   5.883  0.7735  0.4626 -0.4980
 2470SOL     OW19045   1.175   1.630   8.724  0.3194  0.1394 -0.0505
 2470SOL    HW119046   1.101   1.573   8.705  0.2689  0.5403 -1.0606
 2470SOL    HW219047   1.147   1.694   8.789  1.2118 -1.9088  2.3561
 2471SOL     OW19048   2.776   1.469   6.673 -0.0271  0.6718 -0.3852
 2471SOL    HW119049   2.795   1.375   6.675 -3.8937 -0.0904 -1.0052
 2471SOL    HW219050   2.771   1.492   6.580  0.3036 -0.5777 -0.7025
 2472SOL     OW19051   2.195   1.793   6.728 -0.0006 -0.1028 -0.2798
 2472SOL    HW119052   2.115   1.754   6.764  0.9874 -1.0500  0.8906
 2472SOL    HW219053   2.194   1.757   6.640  1.2429 -0.3707 -0.1803
 2473SOL     OW19054   3.429   2.486   5.219 -0.0201 -0.1572  0.1737
 2473SOL    HW119055   3.404   2.572   5.252  0.7066 -0.5662  1.7863
 2473SOL    HW219056   3.341   2.448   5.216  0.5205 -1.4870  1.5937
 2474SOL     OW19057   0.416   4.497  15.125  0.7240 -0.3973 -0.5092
 2474SOL    HW119058   0.488   4.525  15.181 -1.2870  0.5022  1.6075
 2474SOL    HW219059   0.371   4.580  15.108  2.6646  0.8835  0.5656
 2475SOL     OW19060   1.145   0.254   4.311  0.1249  0.3543 -0.1201
 2475SOL    HW119061   1.137   0.187   4.378 -0.0606  1.9601  1.4686
 2475SOL    HW219062   1.129   0.332   4.365 -0.7551 -0.2890  0.5505
 2476SOL     OW19063   3.504   4.058  13.380 -0.1129  0.4439  0.0546
 2476SOL    HW119064   3.421   4.049  13.426  0.8022 -1.1475  1.3714
 2476SOL    HW219065   3.535   4.148  13.394 -0.7764  0.7850 -0.6057
 2477SOL     OW19066   2.173   4.692   4.309  0.2175 -0.6501  0.8421
 2477SOL    HW119067   2.229   4.616   4.294 -0.0644 -0.7453  0.2648
 2477SOL    HW219068   2.088   4.648   4.315  0.1317 -0.6202 -0.0929
 2478SOL     OW19069   2.501   1.753   5.910 -0.5683  0.6402  0.5790
 2478SOL    HW119070   2.547   1.745   5.827 -0.5956  0.0706  0.6183
 2478SOL    HW219071   2.541   1.672   5.942 -0.3077  0.4942 -0.1189
 2479SOL     OW19072   1.859   2.333   4.796  0.3080  0.4029 -0.6180
 2479SOL    HW119073   1.765   2.333   4.779  0.1361  2.3187  0.2595
 2479SOL    HW219074   1.892   2.343   4.707  3.4091 -1.5045  0.3126
 2480SOL     OW19075   1.501   0.893  17.539 -0.2706 -0.0361 -0.2246
 2480SOL    HW119076   1.493   0.829  17.609  0.9266 -0.0730 -0.1355
 2480SOL    HW219077   1.540   0.969  17.582 -4.2147  2.2205 -0.5529
 2481SOL     OW19078   4.004   1.744   0.648 -0.8056 -0.4252 -0.5085
 2481SOL    HW119079   4.031   1.822   0.696  0.2363 -0.7724 -0.5400
 2481SOL    HW219080   3.936   1.785   0.594 -2.3724 -0.4939  1.3845
 2482SOL     OW19081   0.861   4.312  16.290  0.6064 -0.7210  0.3893
 2482SOL    HW119082   0.913   4.244  16.331  0.1526 -0.8608  0.7285
 2482SOL    HW219083   0.911   4.392  16.310  2.2440 -1.1694 -1.8825
 2483SOL     OW19084   1.292   3.812   5.445  0.3486  0.8401 -0.5896
 2483SOL    HW119085   1.201   3.793   5.470  0.1827  3.5308  0.8988
 2483SOL    HW219086   1.301   3.773   5.358 -3.9065  1.1449 -1.1704
 2484SOL     OW19087   2.280   0.983   2.613 -0.3041  0.2796 -0.4545
 2484SOL    HW119088   2.302   0.948   2.700  2.4053  3.5421  0.1712
 2484SOL    HW219089   2.234   1.064   2.636 -1.5779 -0.5825  0.0257
 2485SOL     OW19090   4.343   4.613   6.438  0.0512 -0.0361 -0.6473
 2485SOL    HW119091   4.300   4.626   6.353 -1.3911 -0.3719  0.0261
 2485SOL    HW219092   4.358   4.705   6.458 -2.5889  0.0485  0.9069
 2486SOL     OW19093   0.284   1.651   1.552  0.0410 -0.3775  0.1899
 2486SOL    HW119094   0.299   1.745   1.540 -0.1946 -0.1732  1.4505
 2486SOL    HW219095   0.283   1.638   1.647 -0.8056 -2.9258 -0.1684
 2487SOL     OW19096   4.197   1.787  17.377  0.5270 -0.1652 -0.7894
 2487SOL    HW119097   4.281   1.830  17.360  0.6415 -0.3045 -0.5787
 2487SOL    HW219098   4.173   1.824  17.462  2.5534 -0.5149 -0.0727
 2488SOL     OW19099   1.321   2.826   4.483  0.1617  0.3728  0.0971
 2488SOL    HW119100   1.305   2.806   4.575  0.6995 -3.4063 -0.6297
 2488SOL    HW219101   1.229   2.835   4.460  0.1216  3.0148  1.3064
 2489SOL     OW19102   2.990   1.179  16.887  0.2386  0.6487  0.3118
 2489SOL    HW119103   3.076   1.149  16.918  0.0429 -0.5424 -0.2876
 2489SOL    HW219104   3.008   1.269  16.861 -0.3594  0.7644  0.3091
 2490SOL     OW19105   3.710   4.698   7.181 -0.1877 -0.3785  0.2405
 2490SOL    HW119106   3.660   4.629   7.226  2.5802 -1.8540  1.0212
 2490SOL    HW219107   3.679   0.032   7.239  1.1354  0.6599 -0.3220
 2491SOL     OW19108   0.406   1.532   8.567  0.1455 -0.4402  0.2708
 2491SOL    HW119109   0.390   1.619   8.532  0.4929 -1.0907 -1.5133
 2491SOL    HW219110   0.331   1.486   8.529  1.6676 -0.9350 -2.1517
 2492SOL     OW19111   0.376   1.482   8.852  0.2913  0.2083  0.2992
 2492SOL    HW119112   0.461   1.501   8.890  0.9683 -0.4523 -0.8805
 2492SOL    HW219113   0.395   1.492   8.759  0.2141  0.6403  0.3302
 2493SOL     OW19114   2.828   4.034   7.580 -0.4731 -0.1910 -0.0460
 2493SOL    HW119115   2.893   4.084   7.530 -1.2093  0.3033 -0.5218
 2493SOL    HW219116   2.767   4.102   7.609  1.3348  1.8207 -0.9065
 2494SOL     OW19117   2.747   4.540   9.621 -0.4536 -0.3216 -0.3999
 2494SOL    HW119118   2.698   4.488   9.558  1.9164 -4.0472  0.8012
 2494SOL    HW219119   2.736   4.482   9.696  2.2957  0.9212  0.9621
 2495SOL     OW19120   0.757   1.848   3.214 -0.1290  0.0648 -0.5428
 2495SOL    HW119121   0.809   1.768   3.222 -0.0780  0.0365 -1.1717
 2495SOL    HW219122   0.691   1.821   3.150 -0.1140 -0.6687 -0.2510
 2496SOL     OW19123   1.153   1.854   9.359 -0.7081 -0.2575 -0.0880
 2496SOL    HW119124   1.154   1.788   9.429  0.8441 -0.2991 -0.1403
 2496SOL    HW219125   1.065   1.888   9.376 -0.3178  0.8914 -0.4102
 2497SOL     OW19126   4.087   1.738   7.297  0.8647  0.0281  0.3902
 2497SOL    HW119127   4.056   1.774   7.214  0.9361 -1.8552 -0.4505
 2497SOL    HW219128   4.181   1.726   7.285  0.8040  1.3102 -1.3236
 2498SOL     OW19129   0.013   1.042  16.918 -0.3985  0.4563  0.1714
 2498SOL    HW119130   0.022   0.995  16.836  1.3734 -1.6426  1.5554
 2498SOL    HW219131   4.666   1.004  16.947 -1.3916  3.9911  1.9225
 2499SOL     OW19132   2.475   3.415   6.804 -0.2520 -0.3306  0.3184
 2499SOL    HW119133   2.457   3.437   6.895 -0.6316  0.2575  0.1002
 2499SOL    HW219134   2.568   3.439   6.798 -0.5103  0.9956  1.8515
 2500SOL     OW19135   4.411   1.834  12.926 -0.4306  0.2565 -0.4261
 2500SOL    HW119136   4.474   1.830  12.997 -0.5139 -2.2209 -0.5070
 2500SOL    HW219137   4.404   1.744  12.895  1.0786 -0.2761  0.8076
 2501SOL     OW19138   0.943   3.552   2.029  0.3814 -0.1898  0.0004
 2501SOL    HW119139   0.931   3.606   2.107  0.3491  0.2748 -0.3258
 2501SOL    HW219140   1.038   3.565   2.024  0.3494 -0.2461 -0.7780
 2502SOL     OW19141   2.428   2.195   2.860 -0.9115 -0.6925 -0.2147
 2502SOL    HW119142   2.508   2.239   2.889 -0.5397 -1.3425 -0.2762
 2502SOL    HW219143   2.404   2.161   2.946  0.8269 -0.2871  0.4268
 2503SOL     OW19144   0.299   3.574  15.131 -0.7647  0.0677  0.4707
 2503SOL    HW119145   0.244   3.508  15.173 -0.7848  1.0322  1.9531
 2503SOL    HW219146   0.384   3.530  15.139 -0.4787  0.4141 -0.5793
 2504SOL     OW19147   1.134   4.154   9.862  0.2711 -0.1989 -0.0811
 2504SOL    HW119148   1.171   4.194   9.784 -1.0121  0.0417 -0.5686
 2504SOL    HW219149   1.220   4.143   9.902  1.8695 -0.5473 -3.6913
 2505SOL     OW19150   0.831   1.415   2.525  0.0226  0.3817  0.6938
 2505SOL    HW119151   0.785   1.469   2.589  1.2214  2.0441  0.1823
 2505SOL    HW219152   0.885   1.482   2.480 -0.6995  0.1738 -0.4913
 2506SOL     OW19153   4.575   1.293  10.769  0.2555 -0.0372 -0.9528
 2506SOL    HW119154   4.661   1.268  10.736  0.5721  0.6775 -0.6675
 2506SOL    HW219155   4.519   1.302  10.692  1.4043 -2.0522 -2.0233
 2507SOL     OW19156   3.235   2.940   7.534  0.0243  0.4181  0.3466
 2507SOL    HW119157   3.142   2.945   7.555 -0.1384 -0.0499 -0.2329
 2507SOL    HW219158   3.232   2.911   7.442 -0.0289  0.2734  0.3940
 2508SOL     OW19159   1.479   4.625  12.668 -0.4265  0.0028  0.1064
 2508SOL    HW119160   1.399   4.673  12.688  0.0415  1.5171 -1.6586
 2508SOL    HW219161   1.471   4.604  12.575  2.4674  0.9695 -0.3665
 2509SOL     OW19162   3.585   4.274   3.243 -0.0692 -0.0297 -0.1496
 2509SOL    HW119163   3.600   4.180   3.241  0.2660 -0.0134  1.5248
 2509SOL    HW219164   3.530   4.287   3.166 -1.6887  0.0039  1.0228
 2510SOL     OW19165   1.545   0.105   8.008  0.7602 -0.2165 -0.3869
 2510SOL    HW119166   1.511   0.020   7.982 -1.8667  0.6035  0.3540
 2510SOL    HW219167   1.491   0.161   7.952  0.1823  0.4772  0.8673
 2511SOL     OW19168   2.457   0.187   6.528  0.0080 -0.2835 -0.3319
 2511SOL    HW119169   2.447   0.243   6.451 -0.5481  0.4622  0.2776
 2511SOL    HW219170   2.502   0.240   6.594  2.0959 -0.5097 -1.5611
 2512SOL     OW19171   0.147   0.346   6.540 -0.6402  0.2635  0.3287
 2512SOL    HW119172   0.164   0.294   6.619  1.1760  2.2192  1.2058
 2512SOL    HW219173   0.057   0.374   6.555 -1.2734 -2.1211  1.1011
 2513SOL     OW19174   2.207   3.205  11.083 -0.5223 -0.5729 -0.2272
 2513SOL    HW119175   2.269   3.171  11.018  2.2776 -0.6049  2.4835
 2513SOL    HW219176   2.156   3.128  11.108 -0.6297  0.1437  1.7565
 2514SOL     OW19177   3.224   1.664   7.005 -0.3311 -0.2619  0.3211
 2514SOL    HW119178   3.194   1.754   7.020 -1.0169 -0.1438 -1.7496
 2514SOL    HW219179   3.140   1.620   7.019 -0.0991 -1.0853 -0.8430
 2515SOL     OW19180   2.277   3.219   3.353 -0.1394 -0.2787  0.8010
 2515SOL    HW119181   2.303   3.138   3.308 -2.0271 -0.0650 -0.6747
 2515SOL    HW219182   2.285   3.197   3.446 -1.0265 -1.4496  0.5965
 2516SOL     OW19183   0.471   1.053   2.179 -0.2218 -0.4997 -0.3013
 2516SOL    HW119184   0.546   0.999   2.205  0.1985 -0.6323 -1.7663
 2516SOL    HW219185   0.455   1.008   2.096  0.1395  0.4449 -0.8786
 2517SOL     OW19186   2.216   4.593   9.073 -0.2484 -0.0086 -0.1552
 2517SOL    HW119187   2.253   4.681   9.061  0.3307 -0.2051  0.2095
 2517SOL    HW219188   2.126   4.621   9.093 -0.4455 -0.0250 -1.0098
 2518SOL     OW19189   0.135   2.948   7.474  0.4504  0.4188 -0.2702
 2518SOL    HW119190   0.085   2.941   7.393  1.5168 -1.8485 -0.7321
 2518SOL    HW219191   0.158   3.041   7.474  0.6721  0.3634 -0.5828
 2519SOL     OW19192   2.410   4.385  16.882 -0.1695  0.2564  0.4728
 2519SOL    HW119193   2.491   4.434  16.898  0.4357 -1.0832  1.4943
 2519SOL    HW219194   2.400   4.411  16.790  1.4683 -1.4528 -0.1846
 2520SOL     OW19195   1.192   0.077   3.236  0.1046 -0.0617  0.2570
 2520SOL    HW119196   1.192   0.144   3.167 -0.2356 -0.6268 -0.2863
 2520SOL    HW219197   1.186   4.735   3.182  0.5655 -0.5331  0.8873
 2521SOL     OW19198   3.193   1.572  15.291  0.1594  0.3069 -0.1427
 2521SOL    HW119199   3.254   1.502  15.315 -1.1748  0.0696  2.5795
 2521SOL    HW219200   3.225   1.595  15.204 -0.0374 -3.6535 -1.2664
 2522SOL     OW19201   2.056   1.904   3.772 -0.0553  0.6835  0.6905
 2522SOL    HW119202   1.988   1.838   3.758  0.9028 -0.5665  1.8713
 2522SOL    HW219203   2.118   1.889   3.700  0.1941 -0.2807  1.1031
 2523SOL     OW19204   3.371   2.943   0.855  0.5362  0.2823  0.3288
 2523SOL    HW119205   3.414   2.857   0.856 -0.8022 -0.3653  2.8319
 2523SOL    HW219206   3.306   2.929   0.785  1.7102  1.2614 -0.9596
 2524SOL     OW19207   0.219   2.295   6.803 -0.1029  0.0149  0.3951
 2524SOL    HW119208   0.156   2.325   6.737  0.7428 -0.5967 -0.6887
 2524SOL    HW219209   0.277   2.240   6.750  0.4584  0.4724  0.5448
 2525SOL     OW19210   0.671   1.679  16.801 -0.1285 -0.4376  0.1205
 2525SOL    HW119211   0.719   1.597  16.787 -0.8085 -0.8363  0.1179
 2525SOL    HW219212   0.581   1.650  16.787 -0.2042 -0.0225 -0.2649
 2526SOL     OW19213   2.954   0.772   3.178  0.4219  0.0733  0.9063
 2526SOL    HW119214   2.983   0.767   3.270 -1.1356  0.3790  1.4050
 2526SOL    HW219215   3.035   0.744   3.134 -0.8102  0.1266 -1.3528
 2527SOL     OW19216   0.391   1.779   2.667  0.0997 -0.3882  0.7258
 2527SOL    HW119217   0.310   1.799   2.714 -0.8076 -0.9075 -0.6331
 2527SOL    HW219218   0.363   1.755   2.579 -4.4633 -0.2342  2.1576
 2528SOL     OW19219   0.104   2.335   2.652 -0.2862  0.1285 -0.7032
 2528SOL    HW119220   0.105   2.241   2.672  0.8053  0.6371  1.5573
 2528SOL    HW219221   0.055   2.361   2.730  1.6094  1.2066  0.1075
 2529SOL     OW19222   2.889   0.266   7.602  0.1303  0.3887  0.0107
 2529SOL    HW119223   2.830   0.272   7.527 -0.3611  3.1409  0.6197
 2529SOL    HW219224   2.859   0.338   7.658  0.4982  0.1464  0.5229
 2530SOL     OW19225   2.477   2.419  17.181  0.5126  0.0347  0.0204
 2530SOL    HW119226   2.522   2.338  17.203 -1.3065 -0.4150  2.0976
 2530SOL    HW219227   2.526   2.482  17.233 -0.9197  2.7065 -1.8542
 2531SOL     OW19228   0.739   3.804   9.356 -0.5353 -0.1104  0.5409
 2531SOL    HW119229   0.657   3.775   9.395 -0.9915 -0.1818 -0.4676
 2531SOL    HW219230   0.787   3.801   9.438 -1.2136 -1.4910  0.8865
 2532SOL     OW19231   1.874   1.934   5.040 -0.0875 -0.1173 -0.1897
 2532SOL    HW119232   1.923   1.869   4.990 -0.3680 -0.7430  0.3354
 2532SOL    HW219233   1.888   1.918   5.134  2.0306  1.2705 -0.2745
 2533SOL     OW19234   3.635   0.654   5.115 -0.3896 -0.2897 -0.5284
 2533SOL    HW119235   3.699   0.605   5.167 -4.5825 -2.1002  2.9119
 2533SOL    HW219236   3.624   0.729   5.174 -2.2636 -1.7263  0.9348
 2534SOL     OW19237   3.133   4.330  15.687  0.3710  1.0557 -0.8521
 2534SOL    HW119238   3.143   4.375  15.771  0.8995 -0.0581 -0.3169
 2534SOL    HW219239   3.142   4.403  15.626  0.4213  2.1212  0.4356
 2535SOL     OW19240   1.684   3.666   1.898  0.1788 -0.1976 -0.0003
 2535SOL    HW119241   1.689   3.572   1.913  1.9674 -0.2909 -1.1141
 2535SOL    HW219242   1.773   3.691   1.921 -0.1537  1.0270 -0.0692
 2536SOL     OW19243   0.904   2.852   1.224  0.5272 -0.1739 -0.7862
 2536SOL    HW119244   0.979   2.912   1.214 -1.0160  1.5352 -2.0790
 2536SOL    HW219245   0.937   2.797   1.294 -1.3340  0.8883  0.9201
 2537SOL     OW19246   4.676   1.701   1.563  0.1286  0.3253 -0.2985
 2537SOL    HW119247   0.014   1.759   1.580  0.0703 -0.1586  1.5845
 2537SOL    HW219248   4.708   1.647   1.491 -0.2967 -2.2546  1.4522
 2538SOL     OW19249   3.078   0.128  14.931 -0.5542  0.2355 -0.2243
 2538SOL    HW119250   3.130   0.144  14.852  1.7820  0.6843  1.4130
 2538SOL    HW219251   3.045   0.216  14.943  1.2825  0.7971  0.7163
 2539SOL     OW19252   2.656   3.957   1.809 -0.0165  0.1221  0.1538
 2539SOL    HW119253   2.746   3.979   1.836 -0.0711  0.7296 -0.1589
 2539SOL    HW219254   2.662   3.996   1.722 -1.7708 -1.2524 -0.5783
 2540SOL     OW19255   3.463   0.746   9.026 -0.1062  0.5052  0.3130
 2540SOL    HW119256   3.447   0.673   8.966  1.4725 -0.5073  1.1021
 2540SOL    HW219257   3.485   0.705   9.110 -1.5149  1.1718  0.9931
 2541SOL     OW19258   4.290   3.517   9.391  0.5701  0.0207  0.2824
 2541SOL    HW119259   4.376   3.509   9.351  0.2327  0.1741 -0.4704
 2541SOL    HW219260   4.283   3.610   9.411  1.9647  0.1541  0.0769
 2542SOL     OW19261   2.964   0.283   8.933 -0.4874  0.8211  0.1973
 2542SOL    HW119262   2.962   0.216   8.864 -1.3819 -0.9029  1.9144
 2542SOL    HW219263   3.038   0.251   8.985 -0.1307  0.9014 -0.2596
 2543SOL     OW19264   2.298   0.523   8.448  0.3948  0.2259  0.1449
 2543SOL    HW119265   2.269   0.614   8.440  0.4472  0.4319  2.2657
 2543SOL    HW219266   2.221   0.466   8.446 -0.2024  1.0711 -0.6391
 2544SOL     OW19267   2.997   2.620  15.648 -0.7643 -0.2181  0.2455
 2544SOL    HW119268   2.912   2.595  15.685 -0.3915 -0.6674  0.8019
 2544SOL    HW219269   3.030   2.689  15.706  1.4131 -1.3854  0.4026
 2545SOL     OW19270   3.736   3.728  14.620 -0.3330 -0.1559  0.0297
 2545SOL    HW119271   3.708   3.665  14.553  1.2708 -0.7409 -0.0833
 2545SOL    HW219272   3.749   3.673  14.697 -0.1148 -0.8608 -0.5118
 2546SOL     OW19273   1.603   1.058   0.530  0.0682 -0.2541 -0.0109
 2546SOL    HW119274   1.608   1.127   0.596 -0.0876 -2.2515  2.0640
 2546SOL    HW219275   1.685   1.071   0.482  0.7709 -0.9786  0.9994
 2547SOL     OW19276   2.011   3.032   3.918 -0.1022 -0.4065  0.2651
 2547SOL    HW119277   1.931   3.081   3.936  0.8487  1.7997 -1.4350
 2547SOL    HW219278   1.982   2.967   3.855  0.8482 -1.1161  0.5706
 2548SOL     OW19279   2.397   2.093   4.194 -0.5170  0.1737 -0.0757
 2548SOL    HW119280   2.456   2.082   4.268 -0.8276 -0.3312  0.0958
 2548SOL    HW219281   2.434   2.159   4.136  1.1687 -1.1929 -0.5295
 2549SOL     OW19282   1.224   4.057   1.159 -0.8886  0.4828 -0.3107
 2549SOL    HW119283   1.251   4.062   1.251  0.1804  1.8545 -0.6902
 2549SOL    HW219284   1.280   4.128   1.127 -1.5859  1.5499  0.8343
 2550SOL     OW19285   0.774   3.071   3.733  0.2564 -0.1054 -0.4284
 2550SOL    HW119286   0.713   3.002   3.707 -1.3092  1.4288 -0.8266
 2550SOL    HW219287   0.857   3.031   3.708  1.2107  1.1971  0.6749
 2551SOL     OW19288   3.557   0.244  17.601 -0.3095  0.0262 -0.6942
 2551SOL    HW119289   3.620   0.173  17.600  1.2219  1.3730  0.8878
 2551SOL    HW219290   3.559   0.283  17.513 -2.4118  0.4515 -0.5705
 2552SOL     OW19291   1.305   0.498   7.271 -0.8041  0.3684 -0.7993
 2552SOL    HW119292   1.388   0.544   7.264 -0.6280  0.0254 -0.9512
 2552SOL    HW219293   1.283   0.507   7.178 -0.2809  1.9203 -0.7648
 2553SOL     OW19294   2.519   3.156  10.025  0.3379 -0.2448 -0.0801
 2553SOL    HW119295   2.600   3.106  10.039 -0.7158 -1.9766 -0.1885
 2553SOL    HW219296   2.560   3.242  10.013  0.9309 -0.5992 -0.5705
 2554SOL     OW19297   1.713   0.560   4.953  0.0042 -0.1740  0.5164
 2554SOL    HW119298   1.628   0.561   4.908 -0.6313  0.9922  1.7327
 2554SOL    HW219299   1.771   0.635   4.938  2.6184 -2.2670  0.1637
 2555SOL     OW19300   3.372   1.897   6.809 -0.4365 -0.3421  0.0541
 2555SOL    HW119301   3.399   1.989   6.802 -2.7329  0.3145 -0.2435
 2555SOL    HW219302   3.457   1.857   6.793 -0.2187  0.4990 -0.8527
 2556SOL     OW19303   2.368   4.696   9.451  0.4542  0.0808 -0.3529
 2556SOL    HW119304   2.298   0.014   9.414  1.8701  2.5313  0.5461
 2556SOL    HW219305   2.373   4.630   9.382 -0.1567  2.0216 -2.2499
 2557SOL     OW19306   2.714   4.572   4.854  0.2565 -0.0457 -0.2116
 2557SOL    HW119307   2.649   4.503   4.870  1.4524 -0.6793  1.9225
 2557SOL    HW219308   2.776   4.547   4.922 -0.4863 -0.3676  0.3456
 2558SOL     OW19309   4.143   2.278  16.722 -0.3642 -0.0059 -0.2462
 2558SOL    HW119310   4.192   2.203  16.690 -0.4011 -0.9839  1.9524
 2558SOL    HW219311   4.209   2.327  16.772  1.0319 -0.1561 -1.9677
 2559SOL     OW19312   3.013   0.761   1.176  0.5790  0.2660 -0.1701
 2559SOL    HW119313   2.974   0.786   1.093  2.9247  0.1936 -1.3050
 2559SOL    HW219314   3.104   0.751   1.148  0.3399  2.7833 -1.7992
 2560SOL     OW19315   2.203   3.837   7.316  0.2731  0.7541  0.5006
 2560SOL    HW119316   2.111   3.853   7.298 -0.1745 -1.8894  0.4449
 2560SOL    HW219317   2.198   3.782   7.394  0.0688 -2.2510 -1.6213
 2561SOL     OW19318   1.132   2.927   8.648  0.4749 -0.3242 -0.3867
 2561SOL    HW119319   1.107   2.912   8.739  0.0817 -0.3822 -0.5039
 2561SOL    HW219320   1.187   2.849   8.634 -1.2532 -1.1178 -2.9560
 2562SOL     OW19321   4.546   0.943   1.512 -0.7723 -0.0063 -0.2752
 2562SOL    HW119322   4.602   0.877   1.471  0.0624 -0.3440  1.3854
 2562SOL    HW219323   4.593   1.022   1.486 -0.5753 -0.5236 -1.4831
 2563SOL     OW19324   1.170   0.758   5.028 -0.1670 -0.9093  0.6161
 2563SOL    HW119325   1.239   0.824   5.032 -1.9699  0.8486  2.5677
 2563SOL    HW219326   1.095   0.817   5.031  1.7741  1.6488 -0.7483
 2564SOL     OW19327   3.827   1.748  16.117  0.2254  0.4436 -0.4374
 2564SOL    HW119328   3.884   1.822  16.139  1.0666 -0.0454 -0.9674
 2564SOL    HW219329   3.892   1.679  16.106 -0.7168 -0.2182 -1.8357
 2565SOL     OW19330   0.395   1.716  16.773 -0.0799 -0.4955  0.3395
 2565SOL    HW119331   0.398   1.811  16.784  2.6187 -0.5852  0.3980
 2565SOL    HW219332   0.312   1.706  16.726  0.1818 -0.1997 -0.1882
 2566SOL     OW19333   1.663   2.067  10.394 -0.2106 -0.4174 -0.2136
 2566SOL    HW119334   1.698   2.143  10.441 -0.0301 -1.1929  0.9099
 2566SOL    HW219335   1.747   2.022  10.390 -0.4409 -0.7249 -1.5057
 2567SOL     OW19336   3.397   2.925  11.535 -0.3195 -0.2025  0.0901
 2567SOL    HW119337   3.401   2.989  11.464 -0.6263 -1.0065 -0.6472
 2567SOL    HW219338   3.492   2.913  11.537 -0.2557  0.0531 -1.0309
 2568SOL     OW19339   2.320   0.351   7.052 -0.1825  0.0361 -0.0480
 2568SOL    HW119340   2.239   0.396   7.074 -0.0404  0.8854 -1.2447
 2568SOL    HW219341   2.291   0.264   7.079 -0.5633 -0.3799 -1.8038
 2569SOL     OW19342   0.019   0.150   5.946  0.1811 -0.2406  0.1823
 2569SOL    HW119343   0.072   0.185   6.017 -0.6287  1.6434 -0.1480
 2569SOL    HW219344   0.095   0.155   5.887  0.1749 -1.3165  0.0772
 2570SOL     OW19345   1.189   0.542   9.346 -0.1608  0.6435 -0.4180
 2570SOL    HW119346   1.100   0.526   9.377 -0.1469 -0.4123 -0.9383
 2570SOL    HW219347   1.186   0.635   9.367  1.3570  0.3386  1.2293
 2571SOL     OW19348   4.363   1.444   1.367  0.0149  0.2002  0.1637
 2571SOL    HW119349   4.384   1.536   1.351 -0.1273  0.0349 -0.9658
 2571SOL    HW219350   4.303   1.423   1.296 -1.0857 -1.5265  1.5872
 2572SOL     OW19351   1.397   4.557   3.613 -0.6722  0.2329 -0.2906
 2572SOL    HW119352   1.302   4.551   3.623 -0.7872  1.8150 -0.4737
 2572SOL    HW219353   1.402   4.598   3.527 -0.7949  2.2605  0.6625
 2573SOL     OW19354   4.637   0.872   5.694 -0.1257  0.4300  0.0044
 2573SOL    HW119355   4.677   0.959   5.697  1.4190 -0.2607 -1.2055
 2573SOL    HW219356   4.542   0.887   5.687 -0.3545  0.0632  2.3408
 2574SOL     OW19357   0.093   0.367  11.336 -0.5333  0.0005  0.0670
 2574SOL    HW119358   0.149   0.319  11.397  0.2312  0.5233 -0.2197
 2574SOL    HW219359   0.041   0.415  11.400 -1.1141 -0.6009  0.0389
 2575SOL     OW19360   0.802   2.815   9.353 -0.2472 -0.1888 -0.1950
 2575SOL    HW119361   0.781   2.801   9.445  0.6328  0.7626  0.1532
 2575SOL    HW219362   0.717   2.844   9.320 -0.1967  1.3959  1.0515
 2576SOL     OW19363   0.910   4.444  16.802  0.2085 -0.0595  0.2543
 2576SOL    HW119364   0.937   4.533  16.822 -2.3023  1.2440 -2.2643
 2576SOL    HW219365   0.822   4.451  16.839  0.0368  0.9981 -0.3596
 2577SOL     OW19366   3.283   3.547   8.624  0.7248  0.3309 -0.2265
 2577SOL    HW119367   3.287   3.636   8.590 -1.8583  0.6993  0.4628
 2577SOL    HW219368   3.189   3.548   8.638  0.6684  2.8043 -0.8096
 2578SOL     OW19369   0.772   1.930   5.634  0.2867 -0.3700  0.1285
 2578SOL    HW119370   0.702   1.992   5.655 -0.9866 -0.6890 -3.2549
 2578SOL    HW219371   0.838   1.971   5.691 -1.6825 -0.8245  2.6940
 2579SOL     OW19372   1.263   3.763   3.072 -0.1625 -0.6376  0.6146
 2579SOL    HW119373   1.325   3.722   3.133 -0.1251  1.2580  1.8361
 2579SOL    HW219374   1.251   3.684   3.018  2.7260 -0.2314 -0.6411
 2580SOL     OW19375   4.606   4.250  10.168 -0.0947  0.4951  0.5859
 2580SOL    HW119376   4.636   4.224  10.256 -0.3008 -0.4870  0.3717
 2580SOL    HW219377   4.603   4.163  10.127 -0.3038 -0.5309  2.7628
 2581SOL     OW19378   3.110   0.033   4.886 -0.3073  0.4822  0.0231
 2581SOL    HW119379   3.154   0.065   4.808  0.7742 -0.5568  0.1991
 2581SOL    HW219380   3.019   0.024   4.857  0.4134 -0.5771 -1.8954
 2582SOL     OW19381   2.387   3.704   4.649  0.2317 -0.4621  0.3357
 2582SOL    HW119382   2.322   3.773   4.634  1.3989  0.3269 -0.9740
 2582SOL    HW219383   2.470   3.741   4.620 -1.2081  0.9525 -1.9974
 2583SOL     OW19384   0.839   2.814   5.551 -0.9276 -0.2372 -0.5574
 2583SOL    HW119385   0.817   2.867   5.475 -0.0715  0.9216  0.0066
 2583SOL    HW219386   0.934   2.805   5.542 -0.8631 -1.1744  1.1063
 2584SOL     OW19387   3.705   1.477  15.674 -0.0714  0.0130  0.2525
 2584SOL    HW119388   3.626   1.524  15.701 -0.3793 -0.6325  0.4795
 2584SOL    HW219389   3.769   1.493  15.744 -0.5321  0.8005  0.4981
 2585SOL     OW19390   4.180   0.446  16.973 -0.0808 -0.5899 -0.2422
 2585SOL    HW119391   4.144   0.441  16.885 -0.3182 -0.6228 -0.1415
 2585SOL    HW219392   4.219   0.360  16.990  3.9711  1.5623  1.3440
 2586SOL     OW19393   4.206   3.276   5.296 -0.5327 -0.2052 -0.4536
 2586SOL    HW119394   4.113   3.298   5.293 -0.6495 -0.8828 -1.5456
 2586SOL    HW219395   4.217   3.227   5.214  0.4594 -1.4779  0.4329
 2587SOL     OW19396   0.788   1.631   4.097 -0.3978  0.2088  0.5011
 2587SOL    HW119397   0.865   1.676   4.131 -0.5712 -0.5090  1.8482
 2587SOL    HW219398   0.747   1.707   4.057  1.1062  0.2586 -0.9402
 2588SOL     OW19399   2.517   2.334   6.002  0.2074  0.1222  0.4201
 2588SOL    HW119400   2.494   2.242   5.990  0.5257  0.0966  0.0052
 2588SOL    HW219401   2.589   2.322   6.065  2.1714 -0.3732 -1.9191
 2589SOL     OW19402   0.762   0.001   9.608  0.1567 -0.2287  0.8423
 2589SOL    HW119403   0.756   4.675   9.680 -1.4527 -0.4495  0.5229
 2589SOL    HW219404   0.849   4.716   9.576 -0.9005 -0.6306 -1.8152
 2590SOL     OW19405   2.158   1.124   8.986 -0.2596 -0.3396  0.4350
 2590SOL    HW119406   2.181   1.077   9.066  1.1161  1.4654  1.0825
 2590SOL    HW219407   2.064   1.139   9.000 -0.5287  1.0887 -2.8773
 2591SOL     OW19408   0.154   1.249   6.634 -0.3546  0.0978  0.6387
 2591SOL    HW119409   0.186   1.163   6.607 -1.5660 -0.4131  0.8359
 2591SOL    HW219410   0.072   1.223   6.676 -1.7351  0.4032 -1.8286
 2592SOL     OW19411   4.416   1.944  17.241  0.4725  0.3899 -0.1190
 2592SOL    HW119412   4.488   1.880  17.243 -0.6833 -0.8790  0.7234
 2592SOL    HW219413   4.463   2.025  17.219 -1.0532  0.9184 -1.4297
 2593SOL     OW19414   1.262   1.945   7.008  0.4050 -0.0767  0.0565
 2593SOL    HW119415   1.310   2.014   7.054  1.2887 -1.3090  0.9731
 2593SOL    HW219416   1.330   1.916   6.947  0.2348  1.9176 -1.0524
 2594SOL     OW19417   3.046   1.370   8.439  0.1784  0.7144 -0.4104
 2594SOL    HW119418   3.034   1.360   8.344  1.1926  0.9317 -0.5639
 2594SOL    HW219419   2.956   1.354   8.470  0.9033  0.9974  1.8433
 2595SOL     OW19420   3.058   2.248   1.822  0.2354  0.4672  0.3146
 2595SOL    HW119421   3.057   2.207   1.735  0.1960 -0.8592  0.9422
 2595SOL    HW219422   3.079   2.335   1.790  0.7150  0.5888  0.9571
 2596SOL     OW19423   2.710   0.342  12.705  0.3490 -0.3132  0.1780
 2596SOL    HW119424   2.693   0.296  12.622 -0.7229 -0.0431  0.2394
 2596SOL    HW219425   2.639   0.406  12.704  3.1911  2.7323 -2.9096
 2597SOL     OW19426   1.044   2.859   3.183 -0.6330  0.0687  0.0680
 2597SOL    HW119427   0.977   2.917   3.220  1.7740  2.5514  0.4333
 2597SOL    HW219428   1.095   2.843   3.263  0.9809 -1.2567 -1.2207
 2598SOL     OW19429   0.859   2.487   6.137  0.1465 -0.1714  0.0518
 2598SOL    HW119430   0.780   2.541   6.126  1.9933  2.7192  1.0718
 2598SOL    HW219431   0.905   2.495   6.054 -1.5450 -0.8083 -0.9568
 2599SOL     OW19432   2.221   1.049   8.445 -0.2630 -0.2449  0.0001
 2599SOL    HW119433   2.265   1.098   8.514 -0.7327  0.3135 -0.0962
 2599SOL    HW219434   2.137   1.046   8.489 -1.2455 -2.1579 -1.9990
 2600SOL     OW19435   3.504   0.815   6.345 -0.3788 -0.0126  0.2718
 2600SOL    HW119436   3.495   0.907   6.320  0.0430  0.2882  1.2333
 2600SOL    HW219437   3.534   0.817   6.435  2.2861  0.7619 -0.6276
 2601SOL     OW19438   0.791   0.994   7.648 -0.3176 -0.1766  0.0310
 2601SOL    HW119439   0.817   0.939   7.722  0.2642  2.6758  1.9411
 2601SOL    HW219440   0.870   1.049   7.648 -0.8122  0.5446  1.4525
 2602SOL     OW19441   1.465   1.495  14.100  0.3785  0.1275  0.2599
 2602SOL    HW119442   1.494   1.585  14.083 -0.5479  0.2167 -0.8697
 2602SOL    HW219443   1.468   1.450  14.015 -2.5268 -0.0910  0.2973
 2603SOL     OW19444   2.532   3.633   6.226  0.4119  0.2778  0.0672
 2603SOL    HW119445   2.448   3.678   6.230 -0.2511 -0.9603  0.0915
 2603SOL    HW219446   2.589   3.706   6.249  0.7746 -0.5225  1.7010
 2604SOL     OW19447   2.600   4.057   3.364 -0.1078 -0.8855  0.4737
 2604SOL    HW119448   2.571   4.145   3.338 -0.2278 -0.9139  0.5150
 2604SOL    HW219449   2.680   4.062   3.310 -0.3423 -0.1532  0.1827
 2605SOL     OW19450   2.896   4.394   4.180  0.2581 -0.2529  0.3015
 2605SOL    HW119451   2.948   4.467   4.211  0.1316 -0.7738  1.7250
 2605SOL    HW219452   2.903   4.408   4.085  1.3560 -2.3004  0.0851
 2606SOL     OW19453   1.737   1.491   5.317  0.2210  0.4917  0.1142
 2606SOL    HW119454   1.660   1.472   5.370  0.0063 -2.2309 -1.1652
 2606SOL    HW219455   1.708   1.520   5.230  0.3039  0.8825  0.2170
 2607SOL     OW19456   4.572   1.559   3.582 -0.3363 -0.1980 -0.4533
 2607SOL    HW119457   4.535   1.516   3.659  1.1721  0.4341  0.6271
 2607SOL    HW219458   4.521   1.640   3.576 -1.0149 -0.5614  0.4908
 2608SOL     OW19459   1.580   2.293   3.006  0.0442  0.2964 -0.7224
 2608SOL    HW119460   1.647   2.238   3.045  1.0813  2.7396  0.9137
 2608SOL    HW219461   1.534   2.339   3.076 -0.5656 -0.1086 -0.8607
 2609SOL     OW19462   4.398   0.983   6.269  0.1515  0.1811 -0.3733
 2609SOL    HW119463   4.428   1.030   6.347 -0.2811 -0.7574  0.3459
 2609SOL    HW219464   4.352   1.047   6.214 -1.7136 -1.9810 -1.2972
 2610SOL     OW19465   3.640   1.976   4.434  0.4708  0.5318 -0.5813
 2610SOL    HW119466   3.635   2.001   4.526  0.1047  0.4497 -0.5788
 2610SOL    HW219467   3.573   1.908   4.435 -0.2264  1.2312  1.9990
 2611SOL     OW19468   1.579   3.084   4.399 -0.2306 -0.3805 -0.2755
 2611SOL    HW119469   1.498   3.064   4.446 -0.5418  1.3637 -0.0674
 2611SOL    HW219470   1.569   3.174   4.367  1.3562 -0.5091 -1.1408
 2612SOL     OW19471   0.778   2.894   8.028  0.2176 -0.4090  0.1756
 2612SOL    HW119472   0.734   2.810   8.039  1.8002 -1.2645 -0.1145
 2612SOL    HW219473   0.865   2.860   8.007  0.5488 -0.3196  1.3974
 2613SOL     OW19474   1.206   1.170   8.810  0.1486 -0.3352 -0.2809
 2613SOL    HW119475   1.288   1.125   8.791  0.7973  1.0499 -0.7327
 2613SOL    HW219476   1.219   1.262   8.787 -1.8779  0.0837  0.1813
 2614SOL     OW19477   1.660   2.958  16.614  0.1887  0.2919  0.6069
 2614SOL    HW119478   1.707   3.021  16.560 -0.3143  1.1466  1.1706
 2614SOL    HW219479   1.667   2.880  16.559  0.0602 -1.1413  2.6171
 2615SOL     OW19480   2.317   2.446   2.271 -0.0305  0.4617 -0.0752
 2615SOL    HW119481   2.285   2.512   2.334 -0.3928  0.6431 -0.4516
 2615SOL    HW219482   2.397   2.418   2.316  0.5254  0.0045 -1.3661
 2616SOL     OW19483   1.021   3.325   5.372  0.1988 -0.1046  0.2546
 2616SOL    HW119484   1.030   3.360   5.460 -1.4852 -0.6974  0.6632
 2616SOL    HW219485   1.109   3.336   5.336  0.7006  0.7240  1.7608
 2617SOL     OW19486   4.085   3.705  11.655 -0.3206  0.1529  0.2014
 2617SOL    HW119487   4.139   3.784  11.656 -0.7593  0.4460  0.7502
 2617SOL    HW219488   3.994   3.734  11.649 -1.5264 -3.7282 -0.3880
 2618SOL     OW19489   1.904   1.870  13.862  0.2171  0.0712 -0.4124
 2618SOL    HW119490   1.839   1.802  13.880 -1.2272  1.7154  0.5571
 2618SOL    HW219491   1.980   1.842  13.913  0.5020 -1.0512 -1.4324
 2619SOL     OW19492   1.102   2.138   3.251 -0.2042 -0.2480  0.6582
 2619SOL    HW119493   1.021   2.190   3.255  0.1601  0.5310 -2.1785
 2619SOL    HW219494   1.125   2.160   3.341 -0.8320 -1.1497  1.0316
 2620SOL     OW19495   3.086   0.674   5.053 -0.0707 -0.2401 -0.1770
 2620SOL    HW119496   3.030   0.694   4.978  0.2525  0.3958 -0.2457
 2620SOL    HW219497   3.158   0.735   5.043 -0.5305  0.2357 -0.5882
 2621SOL     OW19498   1.673   3.193   8.164  0.0451 -0.3463  1.0863
 2621SOL    HW119499   1.676   3.238   8.248  1.4862 -0.9987  1.3887
 2621SOL    HW219500   1.740   3.245   8.118 -0.9202 -0.6632 -0.6585
 2622SOL     OW19501   1.955   3.346   4.731  0.8133 -0.1859 -0.5687
 2622SOL    HW119502   1.938   3.420   4.672  0.7631  1.9307  2.0940
 2622SOL    HW219503   1.875   3.294   4.722 -0.0436  0.9506  0.5842
 2623SOL     OW19504   1.088   2.473  17.593  0.4831 -0.2666  0.0141
 2623SOL    HW119505   1.151   2.544  17.580  0.0211 -0.0271 -0.8813
 2623SOL    HW219506   1.152   2.421  17.642 -1.0987 -2.2470 -0.0485
 2624SOL     OW19507   2.505   3.317   7.873 -0.3238 -0.4395  0.3547
 2624SOL    HW119508   2.551   3.288   7.794  1.4834 -0.6075  1.4808
 2624SOL    HW219509   2.529   3.409   7.865 -0.6003 -0.2454  1.6966
 2625SOL     OW19510   2.662   3.406   4.662  0.2677  0.1121  0.1137
 2625SOL    HW119511   2.718   3.422   4.586  0.6569  0.0991  0.3951
 2625SOL    HW219512   2.586   3.360   4.626 -0.6844  0.9086  1.1010
 2626SOL     OW19513   3.909   3.559   9.900 -0.0916  0.6931 -0.6140
 2626SOL    HW119514   4.004   3.561   9.891  0.0949 -2.2034  0.5772
 2626SOL    HW219515   3.892   3.468   9.873  1.3005  0.7670 -1.6865
 2627SOL     OW19516   1.414   3.356   5.280  0.3940 -0.9467 -0.8402
 2627SOL    HW119517   1.438   3.388   5.193 -0.7034 -0.4101 -0.9454
 2627SOL    HW219518   1.460   3.273   5.271 -0.2702 -1.3833 -0.2307
 2628SOL     OW19519   1.277   0.786   8.766 -0.6826  0.3650  0.1506
 2628SOL    HW119520   1.263   0.718   8.831 -1.4395 -1.1023 -1.5601
 2628SOL    HW219521   1.344   0.752   8.708 -1.3676 -1.4532  0.4329
 2629SOL     OW19522   1.247   4.440   7.722  0.0407  0.4197 -0.1982
 2629SOL    HW119523   1.203   4.369   7.770 -0.0552 -0.5881 -1.7700
 2629SOL    HW219524   1.263   4.389   7.643  0.1851  0.0713  0.0538
 2630SOL     OW19525   2.897   2.824   2.290 -0.2248 -0.8788  0.4842
 2630SOL    HW119526   2.916   2.763   2.219 -0.4535 -0.5542  0.1418
 2630SOL    HW219527   2.976   2.826   2.344 -1.0150 -3.3701  1.7261
 2631SOL     OW19528   3.848   4.374   9.386  0.3560 -0.4625  0.1870
 2631SOL    HW119529   3.889   4.450   9.428  1.4739 -1.4955  0.9689
 2631SOL    HW219530   3.755   4.396   9.391  0.2550 -0.0206 -3.1053
 2632SOL     OW19531   1.884   4.351   2.996 -0.2155 -0.2214  0.3594
 2632SOL    HW119532   1.948   4.370   3.064 -0.3317  0.2747  0.3276
 2632SOL    HW219533   1.867   4.258   3.008 -3.1262  0.2946  0.2641
 2633SOL     OW19534   2.187   4.042   2.553 -0.5436 -0.4340  0.0985
 2633SOL    HW119535   2.271   4.087   2.545 -0.6804 -0.1728  0.1591
 2633SOL    HW219536   2.212   3.958   2.515  0.4335  0.6046 -1.5603
 2634SOL     OW19537   2.189   0.519   4.237  0.0611  0.0130 -0.2346
 2634SOL    HW119538   2.226   0.487   4.155 -0.1786 -1.5620  0.2691
 2634SOL    HW219539   2.160   0.434   4.270  1.3217 -0.5887 -0.6459
 2635SOL     OW19540   2.391   2.642   3.510 -0.2170 -0.1948 -0.1265
 2635SOL    HW119541   2.381   2.692   3.592  1.1936 -4.4114  2.6081
 2635SOL    HW219542   2.361   2.714   3.454  0.5653 -0.8368 -1.3604
 2636SOL     OW19543   3.073   3.935   8.086  0.4157 -0.6328 -0.0230
 2636SOL    HW119544   3.064   3.908   8.177 -1.5812  0.4783  0.1039
 2636SOL    HW219545   3.143   4.000   8.095  0.8490 -1.3451  1.7729
 2637SOL     OW19546   1.495   2.087   2.814  0.2138  0.4697 -0.4865
 2637SOL    HW119547   1.462   2.152   2.877 -2.6674 -1.5893  0.1330
 2637SOL    HW219548   1.485   2.010   2.871  2.3982  0.1216 -0.5669
 2638SOL     OW19549   1.083   2.214   9.563  0.3564  0.0946  0.1312
 2638SOL    HW119550   1.066   2.304   9.591  0.2081 -1.2496  4.4265
 2638SOL    HW219551   1.138   2.243   9.491  0.4067  0.0151  0.1383
 2639SOL     OW19552   3.996   3.721   9.576  0.4505 -0.6243  0.3277
 2639SOL    HW119553   4.061   3.778   9.619  0.7438  0.2635 -1.2792
 2639SOL    HW219554   3.919   3.768   9.608  0.0735 -0.6951 -0.4586
 2640SOL     OW19555   2.865   3.131   6.823 -0.6465  0.1710 -0.2746
 2640SOL    HW119556   2.854   3.141   6.918 -0.2373  1.4843 -0.3674
 2640SOL    HW219557   2.922   3.054   6.818 -1.6224 -0.5263 -0.6414
 2641SOL     OW19558   2.648   2.170  17.704 -0.2602  0.3629  0.4438
 2641SOL    HW119559   2.560   2.207  17.697 -0.4608 -0.5818 -1.8713
 2641SOL    HW219560   2.640   2.146   0.053  2.9812 -0.0123  0.6177
 2642SOL     OW19561   3.665   0.353   3.252 -0.9984 -0.4878  0.0078
 2642SOL    HW119562   3.735   0.324   3.194 -0.8396  1.0654 -0.5618
 2642SOL    HW219563   3.724   0.367   3.326 -1.3326 -1.4943  0.4720
 2643SOL     OW19564   4.176   1.331   0.415  0.4719  0.4016  0.6189
 2643SOL    HW119565   4.164   1.241   0.386 -1.9338  0.7108  0.6638
 2643SOL    HW219566   4.093   1.376   0.403  0.7648  1.2146  1.7111
 2644SOL     OW19567   3.497   1.734   0.421 -0.0637  0.0400  0.1877
 2644SOL    HW119568   3.452   1.672   0.478 -0.6996 -0.2046 -0.5873
 2644SOL    HW219569   3.574   1.760   0.471 -1.2085  3.1041  0.3796
 2645SOL     OW19570   4.046   3.202   8.758  0.7036  0.4703  0.3926
 2645SOL    HW119571   3.980   3.242   8.814 -0.0618  0.2913 -0.4020
 2645SOL    HW219572   3.990   3.149   8.701 -1.2133  1.4467  1.3738
 2646SOL     OW19573   2.256   1.518   0.197 -0.0306  0.0358 -0.1394
 2646SOL    HW119574   2.221   1.600   0.232 -2.4592 -1.3784  0.8041
 2646SOL    HW219575   2.345   1.529   0.230  0.5526  1.3822 -2.1693
 2647SOL     OW19576   1.438   2.650   8.294  0.4226 -0.3301  0.2960
 2647SOL    HW119577   1.502   2.620   8.229 -1.2356  0.6769 -1.8121
 2647SOL    HW219578   1.363   2.607   8.253  0.3490  1.5414 -1.5384
 2648SOL     OW19579   3.291   1.804   7.749 -0.1124 -0.3287  0.3701
 2648SOL    HW119580   3.329   1.752   7.678 -2.3733 -0.7486 -0.5518
 2648SOL    HW219581   3.371   1.814   7.800 -0.5057 -1.1798  1.1420
 2649SOL     OW19582   1.177   3.701  10.230  0.2347  0.1333  0.2285
 2649SOL    HW119583   1.222   3.781  10.254  2.2765 -1.5658  2.0986
 2649SOL    HW219584   1.110   3.703  10.299  0.7322 -2.3005  0.7879
 2650SOL     OW19585   2.373   0.607   3.755 -0.3056 -0.0948 -0.1260
 2650SOL    HW119586   2.376   0.611   3.660 -0.7329  0.8547 -0.1033
 2650SOL    HW219587   2.388   0.514   3.771 -0.7273 -0.4172 -1.6865
 2651SOL     OW19588   0.236   1.302  10.897  0.6930 -0.5001  0.0227
 2651SOL    HW119589   0.278   1.383  10.868 -2.8197  2.4840  3.2469
 2651SOL    HW219590   0.202   1.277  10.810 -0.3003 -0.5536  0.4227
 2652SOL     OW19591   0.112   0.019  10.898 -0.1344 -0.3506  0.2942
 2652SOL    HW119592   0.188   4.700  10.917 -0.4705 -0.1252  2.3093
 2652SOL    HW219593   0.087   4.717  10.814 -0.3687  0.7149 -0.1245
 2653SOL     OW19594   2.487   0.590  15.851 -0.1496 -0.6015 -0.5418
 2653SOL    HW119595   2.441   0.613  15.770  0.2572  0.9795 -0.3367
 2653SOL    HW219596   2.499   0.496  15.844  0.9261 -0.5859  1.0773
 2654SOL     OW19597   1.023   4.205  16.917  0.4752  0.0164  0.5309
 2654SOL    HW119598   0.937   4.188  16.955  0.4594  0.1373  0.5509
 2654SOL    HW219599   1.002   4.277  16.858 -3.2675 -0.8502  0.8074
 2655SOL     OW19600   0.193   3.348  12.028  0.2240 -0.3883  0.2334
 2655SOL    HW119601   0.170   3.412  11.961  0.0888 -0.6662  0.0121
 2655SOL    HW219602   0.140   3.382  12.100 -0.9788 -0.5937 -0.5385
 2656SOL     OW19603   0.765   0.787   7.477 -0.0801 -0.6971 -0.2465
 2656SOL    HW119604   0.753   0.870   7.524  1.3203  0.3422 -1.7356
 2656SOL    HW219605   0.833   0.818   7.418  0.6975 -1.7171  0.1199
 2657SOL     OW19606   3.227   1.955   9.747 -0.0207  0.6024 -0.0223
 2657SOL    HW119607   3.306   1.918   9.787 -0.4987 -1.6052 -1.1201
 2657SOL    HW219608   3.261   2.044   9.732 -1.4776  1.5160  2.2180
 2658SOL     OW19609   0.638   2.403  10.275 -0.5635  0.4297  0.2087
 2658SOL    HW119610   0.676   2.383  10.361  0.6424  0.4170 -0.3217
 2658SOL    HW219611   0.562   2.456  10.300 -0.4128  0.8387 -0.1868
 2659SOL     OW19612   3.777   2.832  12.455 -0.7053  0.2755  0.0862
 2659SOL    HW119613   3.737   2.814  12.369  2.0206 -1.7378 -0.7834
 2659SOL    HW219614   3.709   2.886  12.495  0.1625  0.3416  1.4716
 2660SOL     OW19615   1.843   0.138  10.809 -0.2936  0.2375 -0.0617
 2660SOL    HW119616   1.778   0.173  10.870  0.9083  0.9325  0.8277
 2660SOL    HW219617   1.921   0.134  10.864  1.7676 -0.4003 -3.0745
 2661SOL     OW19618   3.429   1.511   3.864 -0.1458 -0.1998 -0.2919
 2661SOL    HW119619   3.408   1.477   3.777  1.3029 -1.9236  0.0368
 2661SOL    HW219620   3.415   1.433   3.918  1.8713 -0.4534 -0.1527
 2662SOL     OW19621   0.350   1.337   6.797  0.7847 -0.5876 -0.1910
 2662SOL    HW119622   0.278   1.300   6.745 -0.8170 -0.2496  1.7644
 2662SOL    HW219623   0.404   1.386   6.735  0.2102 -0.0139 -0.2404
 2663SOL     OW19624   2.450   1.888  16.593  0.7625  0.0095  0.4225
 2663SOL    HW119625   2.377   1.951  16.592  1.4540  0.7508 -1.5264
 2663SOL    HW219626   2.396   1.812  16.573 -1.9488  2.2252 -0.6663
 2664SOL     OW19627   1.567   4.278  14.563  0.3304 -0.3894  0.4886
 2664SOL    HW119628   1.645   4.254  14.514  1.3779  4.5494 -0.2014
 2664SOL    HW219629   1.555   4.372  14.549 -0.1548 -0.1393  2.4786
 2665SOL     OW19630   2.632   2.563  16.617  0.2812  0.3107  0.3895
 2665SOL    HW119631   2.608   2.543  16.527 -2.1312 -0.9620  1.3186
 2665SOL    HW219632   2.655   2.477  16.654 -0.7780 -0.2837 -0.3322
 2666SOL     OW19633   4.526   2.089  11.586  0.1047 -0.1313 -0.1791
 2666SOL    HW119634   4.590   2.020  11.607  1.3357  1.9312  2.9014
 2666SOL    HW219635   4.558   2.120  11.502  2.8929 -2.6377 -0.0476
 2667SOL     OW19636   0.928   3.112   4.495  0.1023 -0.8665 -0.7519
 2667SOL    HW119637   0.957   3.053   4.426  2.0467 -1.5393  0.6343
 2667SOL    HW219638   0.935   3.057   4.573 -0.4075  1.9328  1.3000
 2668SOL     OW19639   2.206   3.031   3.115 -0.0648 -0.0405 -0.0034
 2668SOL    HW119640   2.259   3.002   3.041  0.6517  0.2999  0.3744
 2668SOL    HW219641   2.154   3.099   3.072  3.6949  1.8407 -1.6325
 2669SOL     OW19642   0.292   0.478   5.535  0.0203 -0.0627  0.1535
 2669SOL    HW119643   0.354   0.406   5.539  0.9238  0.6386 -1.1707
 2669SOL    HW219644   0.347   0.542   5.581  0.3245 -0.1254 -0.1240
 2670SOL     OW19645   0.562   3.110   2.134  0.1787  0.0162  0.1229
 2670SOL    HW119646   0.638   3.158   2.166  0.5834 -0.9694  0.6484
 2670SOL    HW219647   0.606   3.029   2.108 -1.1760  0.5445 -3.8597
 2671SOL     OW19648   0.589   0.643   7.336 -0.2923 -1.0261 -0.3356
 2671SOL    HW119649   0.546   0.571   7.381  1.6541 -1.7394  0.3649
 2671SOL    HW219650   0.644   0.672   7.409  0.1065  2.5037 -2.0344
 2672SOL     OW19651   2.809   1.243   1.860  0.5020 -0.6005 -0.2454
 2672SOL    HW119652   2.778   1.155   1.879 -0.6610  0.0632  0.9379
 2672SOL    HW219653   2.903   1.225   1.864  0.9265  1.3836 -1.3174
 2673SOL     OW19654   1.181   4.656  12.443 -0.9324 -0.8152  0.4258
 2673SOL    HW119655   1.147   4.689  12.360 -1.6430 -0.0223  1.0379
 2673SOL    HW219656   1.259   4.606  12.417 -1.5510 -1.6842  0.2270
 2674SOL     OW19657   4.047   1.695   8.781  0.3465  0.0543 -0.1281
 2674SOL    HW119658   4.083   1.777   8.747  0.2503 -0.0327 -0.4395
 2674SOL    HW219659   4.012   1.661   8.699 -1.0770  2.3768 -0.5109
 2675SOL     OW19660   2.474   0.847  14.431 -0.2577 -0.0489  0.1875
 2675SOL    HW119661   2.447   0.880  14.345 -1.6661  0.2421  0.7341
 2675SOL    HW219662   2.546   0.796  14.395  0.2454  1.4564 -0.9353
 2676SOL     OW19663   0.063   3.815   4.613  0.2292  0.4515  0.0095
 2676SOL    HW119664   4.705   3.836   4.610 -0.2792 -1.9521 -0.4186
 2676SOL    HW219665   0.066   3.734   4.663 -0.5944  0.6546  0.3943
 2677SOL     OW19666   4.133   3.631  14.163 -0.3349 -0.8148 -0.3123
 2677SOL    HW119667   4.221   3.655  14.192 -0.0254 -1.6248 -0.6001
 2677SOL    HW219668   4.151   3.556  14.107 -0.7226 -1.3775  0.3273
 2678SOL     OW19669   2.610   3.181   5.780 -0.0247 -0.0955  0.3325
 2678SOL    HW119670   2.622   3.110   5.843  2.6376  0.7722  0.8114
 2678SOL    HW219671   2.598   3.124   5.703 -2.6205  0.3023  0.4421
 2679SOL     OW19672   4.463   4.723   5.660 -0.0097  0.5141 -0.2882
 2679SOL    HW119673   4.411   4.643   5.666 -0.9104  1.0690 -0.6521
 2679SOL    HW219674   4.419   0.029   5.586 -0.6912  0.2603 -0.0224
 2680SOL     OW19675   4.554   0.250  10.024  0.0583  0.4794  0.2112
 2680SOL    HW119676   4.525   0.159  10.036  0.2692  0.3654 -0.1709
 2680SOL    HW219677   4.588   0.251   9.935  1.7541 -1.8625  0.8126
 2681SOL     OW19678   2.782   0.683   2.886 -0.1992 -0.4203 -0.2823
 2681SOL    HW119679   2.751   0.655   2.800 -1.9686  0.1790  0.1601
 2681SOL    HW219680   2.849   0.616   2.902 -0.0993 -0.4218 -0.7060
 2682SOL     OW19681   2.701   0.306   3.069 -0.0933 -0.4959  0.0811
 2682SOL    HW119682   2.726   0.233   3.013  0.1995  1.3282 -2.1987
 2682SOL    HW219683   2.768   0.303   3.138 -0.3160 -2.6345  0.1839
 2683SOL     OW19684   0.744   3.838   2.887 -0.3128 -0.0508 -0.1033
 2683SOL    HW119685   0.677   3.772   2.904  0.5016 -1.0260 -0.6491
 2683SOL    HW219686   0.783   3.859   2.972  0.4573  0.0044 -0.4662
 2684SOL     OW19687   0.724   1.229   7.790 -0.3071 -0.2700 -0.1262
 2684SOL    HW119688   0.714   1.156   7.730 -0.3822 -0.3127 -0.0612
 2684SOL    HW219689   0.818   1.249   7.784 -0.5059  0.5689 -0.5857
 2685SOL     OW19690   0.052   3.022   7.826 -0.4194 -0.0082  0.1828
 2685SOL    HW119691   0.141   3.048   7.803  0.5886 -2.1917  1.6035
 2685SOL    HW219692   4.734   3.053   7.753 -0.1602 -0.8649 -0.3763
 2686SOL     OW19693   0.926   3.061   5.116 -0.2447  0.8656 -0.1996
 2686SOL    HW119694   0.893   3.064   5.206  1.1071 -0.7197  0.3326
 2686SOL    HW219695   0.988   2.989   5.117  2.1301  2.9211  0.8285
 2687SOL     OW19696   3.487   4.178  12.653 -0.1314  0.2460  0.0450
 2687SOL    HW119697   3.412   4.189  12.594  0.0589 -0.0329 -0.2428
 2687SOL    HW219698   3.559   4.214  12.602 -0.5646  0.1412 -0.6360
 2688SOL     OW19699   3.296   2.966   5.721  0.2272  0.3909  0.3892
 2688SOL    HW119700   3.255   2.934   5.801  0.5840 -2.6067 -0.6191
 2688SOL    HW219701   3.220   2.986   5.666  0.6922  0.0335 -0.3724
 2689SOL     OW19702   4.327   2.458  16.496  0.1359  0.0226 -0.3013
 2689SOL    HW119703   4.387   2.472  16.422  1.1997  1.2008  0.7937
 2689SOL    HW219704   4.252   2.515  16.478  0.3168  0.0661 -0.9244
 2690SOL     OW19705   1.604   2.671   9.221 -0.6541 -0.1086 -0.0895
 2690SOL    HW119706   1.658   2.698   9.146  0.5431 -0.5743  0.6124
 2690SOL    HW219707   1.553   2.751   9.240 -1.5351 -0.8121  0.5111
 2691SOL     OW19708   2.185   0.977   7.586  0.1978  0.1613  0.1025
 2691SOL    HW119709   2.190   0.888   7.553  2.5815  1.4918 -3.0994
 2691SOL    HW219710   2.198   1.025   7.505 -1.0672  0.5195  0.1183
 2692SOL     OW19711   0.123   2.515   9.463 -0.1944  0.5357 -0.0377
 2692SOL    HW119712   0.140   2.594   9.410 -0.1998 -1.2533 -2.7045
 2692SOL    HW219713   0.162   2.455   9.400 -1.2687 -0.5983  0.3718
 2693SOL     OW19714   0.253   1.790   2.947 -0.0046 -0.2453  0.0315
 2693SOL    HW119715   0.189   1.835   3.003 -1.5354 -2.1754 -0.1717
 2693SOL    HW219716   0.196   1.737   2.891 -2.2157 -0.8908  2.8674
 2694SOL     OW19717   4.656   3.292   4.210 -0.2139  0.2273 -0.1247
 2694SOL    HW119718   4.691   3.306   4.122 -0.6496 -1.6385 -0.5911
 2694SOL    HW219719   4.570   3.333   4.202 -0.0767  0.5972  0.2858
 2695SOL     OW19720   0.400   2.213   9.581 -0.6309  0.2812  0.4098
 2695SOL    HW119721   0.321   2.158   9.576 -0.2482 -0.2427  0.0708
 2695SOL    HW219722   0.360   2.294   9.611 -0.3148  0.2002  1.0365
 2696SOL     OW19723   3.742   1.424  15.029 -0.0548  0.4667 -0.0009
 2696SOL    HW119724   3.699   1.398  14.947  0.3542 -0.5253  0.0967
 2696SOL    HW219725   3.828   1.453  15.000  0.7050 -1.1029  0.6781
 2697SOL     OW19726   1.818   4.101   0.811  0.1297  0.2502  0.2645
 2697SOL    HW119727   1.791   4.162   0.743 -0.0611  0.5567  0.6105
 2697SOL    HW219728   1.822   4.174   0.874 -0.8895  0.6852 -0.1660
 2698SOL     OW19729   0.118   3.557   7.334 -0.2187  0.2038 -0.2383
 2698SOL    HW119730   0.183   3.509   7.385  0.4444  0.5494 -0.7595
 2698SOL    HW219731   0.097   3.484   7.277  3.9695 -0.1119 -1.3958
 2699SOL     OW19732   3.188   2.656   8.235  0.0046 -0.3332  0.2530
 2699SOL    HW119733   3.227   2.742   8.247  0.7204 -0.6645  0.3288
 2699SOL    HW219734   3.118   2.654   8.300 -1.8001 -2.0090 -1.7229
 2700SOL     OW19735   3.209   3.110   6.198 -0.3636 -0.4928 -0.6723
 2700SOL    HW119736   3.265   3.139   6.126 -1.0104  0.3307 -0.8374
 2700SOL    HW219737   3.142   3.177   6.186  1.1906  1.4973  1.8102
 2701SOL     OW19738   0.654   4.079   7.032  0.3020  0.0042 -0.2867
 2701SOL    HW119739   0.604   4.134   7.092  0.9813 -1.9094  2.0076
 2701SOL    HW219740   0.655   4.124   6.948  1.7285 -0.6530 -0.6300
 2702SOL     OW19741   2.517   0.554   7.086 -0.5327  0.5913  0.2975
 2702SOL    HW119742   2.469   0.471   7.089 -1.4682  1.0969 -1.0307
 2702SOL    HW219743   2.485   0.606   7.159 -0.4147  1.5191 -0.3088
 2703SOL     OW19744   0.086   4.352   9.999  0.1589 -0.7937 -0.1305
 2703SOL    HW119745   0.057   4.283   9.939 -3.6359  1.3609 -0.8071
 2703SOL    HW219746   0.036   4.327  10.077 -0.8625  0.2061 -0.4616
 2704SOL     OW19747   1.679   1.319   7.729  0.4270  0.0269  0.2848
 2704SOL    HW119748   1.766   1.305   7.691 -0.4042 -3.9712 -0.1484
 2704SOL    HW219749   1.645   1.387   7.670  1.5888  0.6091  0.2875
 2705SOL     OW19750   2.141   0.248   1.697  0.0594 -0.3933  0.2360
 2705SOL    HW119751   2.202   0.175   1.708  1.8018  1.2483  1.3942
 2705SOL    HW219752   2.120   0.230   1.606  3.6786  1.1361 -0.8997
 2706SOL     OW19753   3.657   0.367   3.926  0.2607 -0.3020 -0.2220
 2706SOL    HW119754   3.657   0.423   4.004 -2.5830 -1.3193  0.5114
 2706SOL    HW219755   3.629   0.429   3.858 -0.0352 -1.0931 -0.8161
 2707SOL     OW19756   1.841   1.429   6.097 -0.1322 -0.7006  0.1935
 2707SOL    HW119757   1.909   1.434   6.164 -1.1913  1.6361  1.0808
 2707SOL    HW219758   1.797   1.512   6.112 -1.5600 -1.3471 -0.3402
 2708SOL     OW19759   1.162   3.740   9.045 -0.1880  0.3341  0.4262
 2708SOL    HW119760   1.229   3.681   9.012 -1.4520 -0.3718 -0.8886
 2708SOL    HW219761   1.115   3.771   8.967  0.5414  0.2628 -0.0346
 2709SOL     OW19762   2.286   2.593   8.936 -0.3973  0.4755 -0.0553
 2709SOL    HW119763   2.288   2.688   8.925 -0.4749  0.5097  0.2197
 2709SOL    HW219764   2.198   2.580   8.901 -1.0894  2.2054  1.0313
 2710SOL     OW19765   2.519   1.020   3.758 -0.1392  0.1408 -0.1146
 2710SOL    HW119766   2.593   0.980   3.713 -1.4244 -0.9154 -1.3060
 2710SOL    HW219767   2.468   1.060   3.687 -0.2014 -2.2923 -1.4287
 2711SOL     OW19768   3.897   1.813  11.585  0.1394  0.1436 -0.0297
 2711SOL    HW119769   3.855   1.869  11.520  0.8397 -0.2810 -0.8491
 2711SOL    HW219770   3.918   1.878  11.652 -2.4977  0.7058  0.2430
 2712SOL     OW19771   4.580   0.766   8.728 -0.2070 -0.5444 -0.2779
 2712SOL    HW119772   4.488   0.756   8.752 -0.3945 -0.3284 -0.9126
 2712SOL    HW219773   4.603   0.674   8.740  1.1706 -0.2205 -0.4069
 2713SOL     OW19774   1.990   3.958   2.267 -0.1007 -0.5952  0.1403
 2713SOL    HW119775   1.895   3.956   2.255 -0.1352 -3.6418  0.9217
 2713SOL    HW219776   2.002   3.870   2.303  0.8564  0.3123  2.0356
 2714SOL     OW19777   2.768   0.850   4.563 -0.0966 -0.6584 -0.1881
 2714SOL    HW119778   2.757   0.925   4.621 -2.3847 -1.5333  0.5101
 2714SOL    HW219779   2.832   0.885   4.501 -2.1299  1.2923 -1.1718
 2715SOL     OW19780   3.284   0.265   6.555  0.2236 -0.4751 -0.5125
 2715SOL    HW119781   3.325   0.310   6.482  3.1968 -1.3323  0.6121
 2715SOL    HW219782   3.294   0.174   6.525 -0.6704 -0.8215  0.2265
 2716SOL     OW19783   4.176   3.811   9.725 -0.1487 -0.2881 -1.0728
 2716SOL    HW119784   4.265   3.802   9.692  0.2147  0.5603 -0.3098
 2716SOL    HW219785   4.185   3.848   9.813  1.5367  1.1932 -1.8843
 2717SOL     OW19786   2.977   0.078   6.866 -0.1684  0.1573 -0.7212
 2717SOL    HW119787   2.971   0.004   6.805  1.6918  1.2738 -2.2492
 2717SOL    HW219788   3.042   0.138   6.829 -1.5752  0.9741 -1.8418
 2718SOL     OW19789   1.698   3.714   3.201 -0.3896  0.0344  0.1212
 2718SOL    HW119790   1.648   3.793   3.217 -0.8285 -0.6482  2.0737
 2718SOL    HW219791   1.625   3.653   3.211 -0.8105  0.5613  0.1802
 2719SOL     OW19792   4.561   3.342  14.257  0.0724  0.1150 -0.2782
 2719SOL    HW119793   4.591   3.261  14.298 -0.3729  0.3072  0.4225
 2719SOL    HW219794   4.514   3.393  14.322  2.0282  1.9738 -0.3234
 2720SOL     OW19795   3.795   0.183   0.281 -0.6283 -0.2302  0.6692
 2720SOL    HW119796   3.762   0.103   0.240 -0.8488  0.4648 -0.4939
 2720SOL    HW219797   3.751   0.256   0.239 -2.4580 -2.5973 -1.5215
 2721SOL     OW19798   3.892   4.024   5.243 -0.6299  0.0309 -0.1944
 2721SOL    HW119799   3.850   3.950   5.199  0.3949 -1.8253  1.9717
 2721SOL    HW219800   3.833   4.097   5.225 -0.4054  0.0818 -0.6949
 2722SOL     OW19801   2.204   3.544   2.600 -0.1344 -0.1450 -0.0689
 2722SOL    HW119802   2.275   3.606   2.623 -1.6019  1.4935  0.0487
 2722SOL    HW219803   2.247   3.492   2.532  0.7287  1.5023 -0.7963
 2723SOL     OW19804   1.539   3.897   3.364  0.6168 -0.1085 -0.3445
 2723SOL    HW119805   1.469   3.895   3.429  0.7850 -0.3801 -0.1747
 2723SOL    HW219806   1.570   3.988   3.367  1.7643 -0.5110  0.0031
 2724SOL     OW19807   2.188   2.553  17.642 -0.4793  0.0314 -0.3994
 2724SOL    HW119808   2.207   2.607  17.719  1.4486  0.5597 -1.2393
 2724SOL    HW219809   2.188   2.622  17.576 -0.4304 -0.2737 -0.7158
 2725SOL     OW19810   1.828   0.313   6.317 -0.5789  0.2643  0.0731
 2725SOL    HW119811   1.850   0.358   6.236  0.2313  0.0116  0.1522
 2725SOL    HW219812   1.876   0.366   6.381  2.4755 -0.5287 -1.5392
 2726SOL     OW19813   0.866   2.294   7.953 -0.7556  0.1292 -0.4043
 2726SOL    HW119814   0.910   2.378   7.936 -0.8403  0.7078  2.1676
 2726SOL    HW219815   0.884   2.296   8.047 -1.7195  1.1137 -0.2397
 2727SOL     OW19816   1.158   0.762  10.004  0.5812 -0.2301  0.1261
 2727SOL    HW119817   1.133   0.772  10.096 -2.2300  0.1830 -0.6693
 2727SOL    HW219818   1.098   0.818   9.954  1.0915  0.1067 -0.1142
 2728SOL     OW19819   0.822   4.712   9.985  0.3965  0.4177 -0.6905
 2728SOL    HW119820   0.751   0.004   9.927  0.4792  0.0436 -0.9680
 2728SOL    HW219821   0.779   4.702  10.070  0.8194  0.0673 -0.5215
 2729SOL     OW19822   3.640   0.864   7.444  0.2593  0.1053  0.4153
 2729SOL    HW119823   3.588   0.927   7.494 -1.0828  0.0901 -0.9496
 2729SOL    HW219824   3.636   0.901   7.355 -0.8995  0.8484  0.7880
 2730SOL     OW19825   3.717   1.532   6.071 -0.2587  0.1995 -0.1330
 2730SOL    HW119826   3.806   1.563   6.060  0.3979 -1.4670  0.4605
 2730SOL    HW219827   3.677   1.612   6.038 -0.6610 -0.1948 -0.6154
 2731SOL     OW19828   4.568   0.912   2.208  0.1317 -1.0828 -0.5250
 2731SOL    HW119829   4.535   0.959   2.131  1.6640 -2.7854 -2.2110
 2731SOL    HW219830   4.654   0.879   2.184 -1.0103 -3.2451 -1.6210
 2732SOL     OW19831   0.231   2.125   1.665 -0.4255  0.2579 -0.3249
 2732SOL    HW119832   0.279   2.161   1.739  0.2914 -1.1555 -0.0973
 2732SOL    HW219833   0.303   2.077   1.623  1.1328  1.2091  1.2664
 2733SOL     OW19834   4.146   3.115   7.177 -0.3110 -0.3861  0.5530
 2733SOL    HW119835   4.116   3.188   7.123 -0.8687 -1.7655 -1.0093
 2733SOL    HW219836   4.159   3.162   7.259  0.1834  0.1003  0.1978
 2734SOL     OW19837   3.259   4.014  13.518 -0.0471 -0.0333 -0.4047
 2734SOL    HW119838   3.215   4.097  13.504 -2.1539 -0.7111  2.1909
 2734SOL    HW219839   3.196   3.965  13.571  2.2393 -1.9425  0.5441
 2735SOL     OW19840   2.680   1.236  15.631  0.4517 -0.0291  0.4038
 2735SOL    HW119841   2.751   1.175  15.648 -0.9035 -2.3044 -2.0450
 2735SOL    HW219842   2.724   1.313  15.667  2.8844  1.0235 -4.8663
 2736SOL     OW19843   4.316   1.205   5.712  0.0896  0.0299 -0.5733
 2736SOL    HW119844   4.226   1.193   5.742 -0.1315 -1.5660 -1.8776
 2736SOL    HW219845   4.313   1.296   5.681 -0.6072  0.6761  1.3894
 2737SOL     OW19846   0.257   3.824  13.128  0.0961  0.5849 -0.0311
 2737SOL    HW119847   0.180   3.777  13.094 -0.5206  0.5023  1.4886
 2737SOL    HW219848   0.310   3.751  13.160  1.5492  1.8611  0.4690
 2738SOL     OW19849   3.087   1.765   8.323  0.3487  0.2127  0.7263
 2738SOL    HW119850   3.143   1.712   8.266 -0.8049  0.2395 -0.4030
 2738SOL    HW219851   3.124   1.730   8.404  0.0549 -1.6236  0.0541
 2739SOL     OW19852   0.937   1.296  14.935 -0.3119 -0.3317 -0.2604
 2739SOL    HW119853   0.958   1.384  14.966 -0.1694 -1.0048  1.5180
 2739SOL    HW219854   0.868   1.281  14.999  0.7320  0.1328  0.9618
 2740SOL     OW19855   2.404   0.060   8.779  0.1391 -0.1667 -0.0925
 2740SOL    HW119856   2.471   0.064   8.711  0.9279  2.0414  0.8289
 2740SOL    HW219857   2.329   0.078   8.721 -0.6393  1.2888  1.3627
 2741SOL     OW19858   3.825   3.982   2.099  0.4993  0.1473 -0.1063
 2741SOL    HW119859   3.769   4.040   2.151  0.5542  0.5262 -0.4663
 2741SOL    HW219860   3.911   4.002   2.137  1.0343 -0.8816 -0.7530
 2742SOL     OW19861   0.270   0.374   3.870 -0.5510 -0.0087  0.3024
 2742SOL    HW119862   0.224   0.302   3.913 -0.2764 -0.9770 -1.0176
 2742SOL    HW219863   0.258   0.337   3.782  1.7731 -0.8871  0.3571
 2743SOL     OW19864   0.472   2.773   4.073  0.3571 -0.0272 -0.4127
 2743SOL    HW119865   0.417   2.813   4.005 -0.2967 -3.1025 -1.6621
 2743SOL    HW219866   0.473   2.848   4.133  0.5744 -0.5965  0.2954
 2744SOL     OW19867   4.582   0.075   3.651  0.2653 -0.0973  0.0821
 2744SOL    HW119868   4.610   0.154   3.605 -1.6437  2.0393  2.6190
 2744SOL    HW219869   4.608   0.081   3.743  0.5209  1.6518 -0.1011
 2745SOL     OW19870   2.195   1.806   0.505  0.3530 -0.4774  0.0179
 2745SOL    HW119871   2.179   1.789   0.412  1.0377  2.3797 -0.6260
 2745SOL    HW219872   2.114   1.854   0.522  0.2881  0.2413 -2.2640
 2746SOL     OW19873   3.575   0.373   7.589  0.0399 -0.2380 -0.4879
 2746SOL    HW119874   3.496   0.409   7.629  0.5710 -0.9424  1.2409
 2746SOL    HW219875   3.628   0.379   7.669 -2.5118 -2.4816  1.3617
 2747SOL     OW19876   0.025   0.638   6.313  0.6115 -0.0275  0.2816
 2747SOL    HW119877   0.033   0.581   6.236 -0.4564 -1.4697  1.2341
 2747SOL    HW219878   0.086   0.600   6.376  1.1854  1.1965  0.4556
 2748SOL     OW19879   0.545   0.844  13.019  0.2336 -0.1255  0.5292
 2748SOL    HW119880   0.584   0.930  13.035  1.1883 -0.4860  0.1327
 2748SOL    HW219881   0.611   0.810  12.959 -1.3824  0.6534 -1.7431
 2749SOL     OW19882   0.662   0.055   3.371  0.4851  0.1290 -0.3323
 2749SOL    HW119883   0.724   0.126   3.383  0.6163  0.1271 -1.0152
 2749SOL    HW219884   0.713   4.710   3.377 -1.0289 -0.9502 -1.8025
 2750SOL     OW19885   0.848   2.914   8.563  0.0776 -0.2120  0.0025
 2750SOL    HW119886   0.938   2.913   8.595  0.8898  1.4949 -2.1738
 2750SOL    HW219887   0.853   2.923   8.468 -2.6114 -0.2924 -0.1499
 2751SOL     OW19888   0.873   1.593  11.021  0.3712 -0.4508  0.0208
 2751SOL    HW119889   0.953   1.603  10.969  0.3190  0.7702  0.1572
 2751SOL    HW219890   0.908   1.619  11.106  2.1194 -1.0531 -0.5138
 2752SOL     OW19891   3.799   3.170   0.133 -0.0866 -0.2500 -0.0791
 2752SOL    HW119892   3.712   3.182   0.097 -0.6386  0.6537  1.5265
 2752SOL    HW219893   3.842   3.251   0.104 -2.0292  0.8306  0.0800
 2753SOL     OW19894   4.148   0.894  11.860  0.0565 -0.1927  0.5968
 2753SOL    HW119895   4.078   0.959  11.856 -0.4793 -0.8382 -0.5347
 2753SOL    HW219896   4.110   0.809  11.841  1.4083 -0.7734  0.4441
 2754SOL     OW19897   2.366   3.336   2.078  0.0427  0.4471 -0.2801
 2754SOL    HW119898   2.280   3.375   2.070 -1.1422 -2.0943 -0.1166
 2754SOL    HW219899   2.353   3.242   2.060 -1.6077  0.4006  1.1364
 2755SOL     OW19900   0.520   4.248   7.191  0.1522  0.0442  0.3775
 2755SOL    HW119901   0.543   4.339   7.210 -1.4805  0.1230  1.9936
 2755SOL    HW219902   0.447   4.246   7.253  2.9531  1.3035  3.6795
 2756SOL     OW19903   2.212   3.899   5.810  0.5938 -0.1844 -0.6693
 2756SOL    HW119904   2.274   3.827   5.819  0.2392 -0.5696 -1.3028
 2756SOL    HW219905   2.176   3.886   5.722 -0.5469 -1.9593  0.0522
 2757SOL     OW19906   2.287   3.441   3.005 -0.2988 -0.2933 -0.2810
 2757SOL    HW119907   2.218   3.424   2.942 -1.2315 -0.6803  0.8503
 2757SOL    HW219908   2.248   3.480   3.083 -1.6961  0.0418 -1.1574
 2758SOL     OW19909   2.646   0.181  13.618  0.1404 -0.1152  0.6793
 2758SOL    HW119910   2.578   0.120  13.645 -0.2254 -0.6410 -1.3801
 2758SOL    HW219911   2.641   0.241  13.692 -2.6647  1.2310 -0.6139
 2759SOL     OW19912   0.637   1.690   5.062  0.1893 -0.5606  0.2863
 2759SOL    HW119913   0.590   1.742   4.996 -0.9310 -1.5504  0.3045
 2759SOL    HW219914   0.650   1.750   5.135 -1.9047  1.6129 -1.1414
 2760SOL     OW19915   3.037   4.038   1.339  0.4668 -0.1060 -0.0857
 2760SOL    HW119916   3.118   4.087   1.346  0.2054  0.2359  0.5433
 2760SOL    HW219917   3.042   3.992   1.423  1.0912  2.0210  1.0263
 2761SOL     OW19918   1.944   3.022  14.687 -0.0093  0.0977 -0.1540
 2761SOL    HW119919   1.883   3.083  14.727  1.5234  1.1717  0.5535
 2761SOL    HW219920   1.922   2.942  14.735 -2.0512  0.9490  0.3201
 2762SOL     OW19921   1.734   2.398   1.846 -0.1916 -0.5782 -0.2447
 2762SOL    HW119922   1.689   2.393   1.931 -0.8705  2.5117 -0.4041
 2762SOL    HW219923   1.764   2.488   1.859 -0.1059 -0.8520  1.4198
 2763SOL     OW19924   4.338   1.582  14.642  0.8106 -0.1085 -0.1674
 2763SOL    HW119925   4.274   1.603  14.574  1.3476 -1.1133 -0.9808
 2763SOL    HW219926   4.312   1.491  14.658  1.8794 -0.1690  1.2079
 2764SOL     OW19927   2.127   0.506   5.027 -0.5654  0.7786  0.3421
 2764SOL    HW119928   2.120   0.423   4.979 -0.0431 -0.0085  1.6061
 2764SOL    HW219929   2.216   0.537   5.012 -0.7078  0.0046 -2.0602
 2765SOL     OW19930   4.313   3.428  15.317 -0.7116  0.7278  0.1899
 2765SOL    HW119931   4.254   3.469  15.381  0.7031  1.8666  0.7676
 2765SOL    HW219932   4.272   3.458  15.236  1.6681  1.6962 -0.6357
 2766SOL     OW19933   3.449   0.091   6.740 -0.1418 -0.4323 -0.9627
 2766SOL    HW119934   3.410   0.175   6.719 -0.6317 -1.2906 -3.4052
 2766SOL    HW219935   3.538   0.125   6.745 -0.0397 -1.0898  2.3228
 2767SOL     OW19936   1.829   1.158   1.765 -0.0396  0.5363  0.1508
 2767SOL    HW119937   1.746   1.201   1.743 -0.9542 -1.0095  0.6120
 2767SOL    HW219938   1.810   1.068   1.737  2.5775 -0.1718  0.6512
 2768SOL     OW19939   4.327   4.187   2.770  0.1285  0.1447 -0.1716
 2768SOL    HW119940   4.251   4.150   2.725 -0.0538  0.9603 -0.5323
 2768SOL    HW219941   4.379   4.107   2.780  3.2063  2.1664 -0.0515
 2769SOL     OW19942   2.447   3.649   2.923 -0.0677  0.4797 -0.0077
 2769SOL    HW119943   2.533   3.607   2.931 -1.2372 -1.7835  0.8376
 2769SOL    HW219944   2.391   3.579   2.955 -0.0807  0.5471  0.1141
 2770SOL     OW19945   0.144   4.455   8.248  0.1847 -0.1265 -1.3018
 2770SOL    HW119946   0.067   4.436   8.195 -1.0799 -0.4813  0.6468
 2770SOL    HW219947   0.159   4.374   8.298  0.6561  0.4430 -0.5287
 2771SOL     OW19948   1.420   1.954  10.475 -0.4709 -0.1715  0.7855
 2771SOL    HW119949   1.497   1.994  10.434 -1.7889  0.6350 -0.9245
 2771SOL    HW219950   1.408   2.007  10.554  2.5481 -0.1802  1.2557
 2772SOL     OW19951   1.419   3.600   0.800 -0.5643  0.0922  0.6003
 2772SOL    HW119952   1.352   3.636   0.858 -1.1764  0.8212 -0.5616
 2772SOL    HW219953   1.366   3.547   0.740 -0.8083  2.2447 -1.0776
 2773SOL     OW19954   2.873   4.509  10.642  0.7278 -0.1158 -0.2928
 2773SOL    HW119955   2.939   4.469  10.699 -2.2238 -0.1205  3.1134
 2773SOL    HW219956   2.838   4.437  10.590  1.4167 -0.6099 -0.0778
 2774SOL     OW19957   3.639   0.375  10.081  0.1481 -0.2904 -0.6085
 2774SOL    HW119958   3.685   0.459  10.083 -0.7606  0.1969 -0.1496
 2774SOL    HW219959   3.722   0.329  10.068  0.1967  0.0564 -1.5416
 2775SOL     OW19960   0.240   1.365   8.197  0.4608  0.1002 -0.3912
 2775SOL    HW119961   0.235   1.461   8.197  1.4685  0.1536 -0.7097
 2775SOL    HW219962   0.246   1.351   8.103  0.9085 -1.3961 -0.1388
 2776SOL     OW19963   0.473   3.738   9.423 -0.2860  0.3022 -0.7745
 2776SOL    HW119964   0.385   3.739   9.385 -1.3027 -1.2743  1.5372
 2776SOL    HW219965   0.454   3.714   9.513 -0.3752 -0.1511 -0.9127
 2777SOL     OW19966   0.086   2.211   4.423 -0.3604 -0.3064 -0.4325
 2777SOL    HW119967   0.152   2.188   4.358 -0.4561 -0.5751 -0.4329
 2777SOL    HW219968   0.053   2.295   4.392 -1.0615 -0.1267  0.8125
 2778SOL     OW19969   1.338   0.398  10.039  0.5416  0.4566  0.6191
 2778SOL    HW119970   1.274   0.333  10.011  1.0547  0.7821 -1.2977
 2778SOL    HW219971   1.422   0.364  10.007 -1.3539 -0.9508 -2.7804
 2779SOL     OW19972   3.054   2.668   7.340  0.1708  0.0191  0.5402
 2779SOL    HW119973   2.975   2.708   7.303  1.7155  1.9859 -0.5783
 2779SOL    HW219974   3.026   2.654   7.431 -0.9019 -3.7437 -0.3546
 2780SOL     OW19975   2.379   2.319   7.259  0.3539 -0.5281  0.5693
 2780SOL    HW119976   2.383   2.414   7.247  0.3835 -0.7546 -1.1074
 2780SOL    HW219977   2.376   2.283   7.171 -0.4698 -0.3885  0.5461
 2781SOL     OW19978   3.282   2.217   8.883  0.0573 -0.2233  0.6948
 2781SOL    HW119979   3.228   2.222   8.804  0.2523  1.3369  0.6590
 2781SOL    HW219980   3.372   2.234   8.854 -0.4952 -1.8434 -1.9576
 2782SOL     OW19981   3.559   1.050  15.249 -0.5321  0.1221  0.2220
 2782SOL    HW119982   3.645   1.036  15.289 -1.5182 -3.6995  0.9661
 2782SOL    HW219983   3.576   1.058  15.155 -0.9484 -0.3958  0.1040
 2783SOL     OW19984   2.891   3.168  15.515 -0.6595 -0.0656  0.2620
 2783SOL    HW119985   2.926   3.129  15.595  1.2662  0.5371 -0.2629
 2783SOL    HW219986   2.866   3.255  15.544 -0.6244  0.4912 -1.3943
 2784SOL     OW19987   0.534   4.435   9.609  0.6523  0.0637 -0.0745
 2784SOL    HW119988   0.595   4.484   9.665 -0.3588 -0.7046  1.7003
 2784SOL    HW219989   0.589   4.447   9.531 -1.4999 -0.5866 -1.6933
 2785SOL     OW19990   0.811   3.380   7.061  0.2730 -0.6149 -0.6381
 2785SOL    HW119991   0.734   3.430   7.089 -0.0858 -1.2735 -0.4589
 2785SOL    HW219992   0.839   3.434   6.987  2.0640 -1.6520 -0.7066
 2786SOL     OW19993   1.845   4.350   0.885  0.7505  0.0330 -0.3961
 2786SOL    HW119994   1.909   4.395   0.830  1.8659 -2.5086 -1.1484
 2786SOL    HW219995   1.802   4.422   0.931  1.0573 -0.4299  0.5931
 2787SOL     OW19996   3.817   3.800  16.724 -0.5460  0.0888  0.1304
 2787SOL    HW119997   3.836   3.707  16.739 -2.2003  0.0432  2.1062
 2787SOL    HW219998   3.857   3.849  16.796 -0.0044  0.8805 -0.7202
 2788SOL     OW19999   1.925   2.202   0.320 -0.3005 -0.2931  0.0368
 2788SOL    HW120000   1.945   2.175   0.230 -2.1048 -1.7561  0.0744
 2788SOL    HW220001   1.832   2.182   0.325 -0.6196  1.2008 -0.0748
 2789SOL     OW20002   4.186   0.520  10.592 -0.0331  0.1282  0.2232
 2789SOL    HW120003   4.225   0.555  10.672 -1.3576  0.8101  0.5742
 2789SOL    HW220004   4.171   0.429  10.617  0.8402 -0.0363  0.1245
 2790SOL     OW20005   2.002   4.009   6.352 -0.1318 -0.3551  0.6345
 2790SOL    HW120006   2.059   4.009   6.276 -1.9595  2.8586 -0.7352
 2790SOL    HW220007   2.050   3.958   6.417 -1.0412  0.4277  1.9448
 2791SOL     OW20008   2.465   1.124   6.341  0.4008 -0.1334  0.1528
 2791SOL    HW120009   2.470   1.095   6.250 -0.2179 -4.2653  1.4275
 2791SOL    HW220010   2.371   1.134   6.355  0.1656 -2.2990  0.1277
 2792SOL     OW20011   2.511   1.953   2.745 -0.5124  0.2558  0.7302
 2792SOL    HW120012   2.475   2.033   2.783 -1.5255 -0.2913  0.8941
 2792SOL    HW220013   2.463   1.959   2.663 -0.5068 -0.7736  0.6609
 2793SOL     OW20014   3.599   1.056  14.978 -0.0416  0.3829 -0.1468
 2793SOL    HW120015   3.570   1.024  14.893  2.0048 -0.9552 -0.3394
 2793SOL    HW220016   3.607   1.146  14.947 -2.7440  0.2811 -1.0730
 2794SOL     OW20017   2.013   2.405   4.563 -0.0946  0.0650 -0.2023
 2794SOL    HW120018   2.001   2.500   4.574  0.1058  0.2017 -1.1481
 2794SOL    HW220019   1.952   2.389   4.492 -1.0449 -1.1441  0.9000
 2795SOL     OW20020   0.869   0.924  12.421 -0.6726 -0.4884 -0.6824
 2795SOL    HW120021   0.856   0.894  12.331  0.0052 -2.8314  0.0046
 2795SOL    HW220022   0.924   1.000  12.403  2.9412 -2.5045  1.9288
 2796SOL     OW20023   1.671   2.695   2.950  0.4588  0.4228  0.0973
 2796SOL    HW120024   1.640   2.641   3.023  0.9517  0.4718  0.3373
 2796SOL    HW220025   1.604   2.763   2.950  0.3843  0.3481 -1.4799
 2797SOL     OW20026   4.290   1.270   8.899  0.1204 -0.2010  0.2033
 2797SOL    HW120027   4.355   1.251   8.831  1.0310 -0.6499  1.1933
 2797SOL    HW220028   4.243   1.188   8.908 -2.1042  0.9971 -0.5829
 2798SOL     OW20029   2.251   1.366   4.668  0.0633  0.6695  0.2920
 2798SOL    HW120030   2.205   1.316   4.600  0.7967  0.5944 -0.1428
 2798SOL    HW220031   2.232   1.313   4.745 -0.7822 -1.3545 -1.3148
 2799SOL     OW20032   0.558   2.507   9.663  0.2632 -0.4551  0.0665
 2799SOL    HW120033   0.502   2.470   9.732 -0.5027  2.6235  1.0956
 2799SOL    HW220034   0.630   2.536   9.718  1.6099  1.9481 -2.9673
 2800SOL     OW20035   1.914   3.267  10.029  0.1813  0.1042 -0.4377
 2800SOL    HW120036   1.841   3.237   9.975  0.7503  0.8518 -1.6280
 2800SOL    HW220037   1.916   3.361  10.012  1.7475 -0.2869 -2.5227
 2801SOL     OW20038   2.887   0.498   2.411  0.3260  0.1411 -0.3985
 2801SOL    HW120039   2.963   0.551   2.390  0.1422  0.4278 -0.3332
 2801SOL    HW220040   2.939   0.418   2.406 -0.2154 -0.1197 -1.9140
 2802SOL     OW20041   4.050   4.356   5.535  0.5700 -0.1746 -0.2788
 2802SOL    HW120042   4.038   4.281   5.593 -0.5504 -2.5852 -3.6708
 2802SOL    HW220043   4.076   4.303   5.460 -0.1740 -1.2735  0.2414
 2803SOL     OW20044   4.711   1.782   0.614 -0.8336  0.4192  0.0423
 2803SOL    HW120045   4.727   1.689   0.630 -1.1275  0.6225  1.5126
 2803SOL    HW220046   4.617   1.777   0.596 -0.8610 -0.1025  0.3335
 2804SOL     OW20047   3.755   0.031  13.556 -0.0669  0.3151 -0.4292
 2804SOL    HW120048   3.830   0.025  13.616 -1.1319  1.1163  0.9930
 2804SOL    HW220049   3.725   0.119  13.578 -1.7126 -0.3974  0.2135
 2805SOL     OW20050   1.499   2.104   4.043  0.1689  1.0436  0.2674
 2805SOL    HW120051   1.511   2.049   3.965  2.1784  0.9792  0.6348
 2805SOL    HW220052   1.409   2.134   4.032 -0.1524  0.3108  0.8967
 2806SOL     OW20053   2.601   1.816   1.355 -0.2153 -0.2749 -0.0661
 2806SOL    HW120054   2.506   1.822   1.368 -0.6161 -3.5217 -1.8232
 2806SOL    HW220055   2.616   1.755   1.283  2.0244  1.8467 -1.4049
 2807SOL     OW20056   0.357   3.093   2.785  0.2533  0.4229 -0.5438
 2807SOL    HW120057   0.277   3.141   2.806  0.1034 -0.6766  1.4219
 2807SOL    HW220058   0.426   3.153   2.811 -1.5094  2.1205  0.1761
 2808SOL     OW20059   2.657   4.233   8.645 -0.0739 -0.3477 -0.0338
 2808SOL    HW120060   2.738   4.217   8.596 -1.2272  0.3768 -2.2265
 2808SOL    HW220061   2.693   4.213   8.731 -0.4115 -0.1246  0.1570
 2809SOL     OW20062   4.702   2.401   7.223  1.0162 -0.0832 -0.6065
 2809SOL    HW120063   4.701   2.312   7.259  0.9523  1.7004  3.8141
 2809SOL    HW220064   4.697   2.387   7.129 -0.1110  1.7784 -0.8200
 2810SOL     OW20065   2.734   3.295   0.044 -0.3481  0.5969  0.3741
 2810SOL    HW120066   2.713   3.357  17.718 -3.4356 -0.1162  0.6639
 2810SOL    HW220067   2.790   3.354   0.095 -1.4594  0.1974  2.0654
 2811SOL     OW20068   1.750   0.347   2.804  0.4071  0.1171 -0.6171
 2811SOL    HW120069   1.811   0.421   2.806 -0.2812  0.7346 -3.4879
 2811SOL    HW220070   1.740   0.337   2.710 -1.0471 -0.2104 -0.4386
 2812SOL     OW20071   3.577   3.483   3.250 -0.2597  0.5547  0.4423
 2812SOL    HW120072   3.559   3.571   3.217 -0.5532  0.5314  0.5382
 2812SOL    HW220073   3.650   3.503   3.308  0.7221  0.9371 -0.9394
 2813SOL     OW20074   2.302   4.148   2.892 -0.2364  0.0450  0.2100
 2813SOL    HW120075   2.223   4.162   2.944 -2.3352 -1.3251 -2.5486
 2813SOL    HW220076   2.290   4.067   2.842  2.0071 -0.2448  0.1251
 2814SOL     OW20077   3.488   0.097   8.600  0.5179 -0.5763 -0.0540
 2814SOL    HW120078   3.454   0.106   8.689 -2.4887 -2.4580 -1.0026
 2814SOL    HW220079   3.471   0.184   8.564  1.7242 -0.9468 -1.5277
 2815SOL     OW20080   2.710   2.205   4.139 -0.1372  0.5188 -0.5003
 2815SOL    HW120081   2.688   2.112   4.130  0.5191  0.3746 -0.5730
 2815SOL    HW220082   2.787   2.206   4.196  0.3334  0.0264 -1.1225
 2816SOL     OW20083   0.219   2.900  11.695  0.4391 -0.5948 -0.1924
 2816SOL    HW120084   0.313   2.902  11.677  0.1855  1.1039 -1.3486
 2816SOL    HW220085   0.211   2.983  11.743  0.9965 -0.0819 -0.9665
 2817SOL     OW20086   3.972   3.439  13.440 -0.0636  0.5597 -0.5176
 2817SOL    HW120087   4.053   3.427  13.490 -1.1095 -1.9419  0.5786
 2817SOL    HW220088   4.005   3.483  13.362 -2.1118  0.2715 -1.5449
 2818SOL     OW20089   4.175   0.913   7.197  0.1220 -0.3790  0.2193
 2818SOL    HW120090   4.136   0.984   7.147  0.9107 -1.9741 -2.6608
 2818SOL    HW220091   4.178   0.839   7.136  1.2453 -0.2585  0.1212
 2819SOL     OW20092   0.893   1.254   6.239  0.6706  0.1621  0.3050
 2819SOL    HW120093   0.905   1.176   6.186 -0.8861  0.7641 -0.9464
 2819SOL    HW220094   0.798   1.263   6.228  0.8869  1.5585 -0.4830
 2820SOL     OW20095   2.075   3.259  12.304  0.1212  0.6678  0.1954
 2820SOL    HW120096   2.110   3.339  12.265 -1.7756 -0.4798 -3.8096
 2820SOL    HW220097   2.107   3.266  12.394 -1.7347  0.8939  0.8543
 2821SOL     OW20098   4.091   1.743   0.296 -0.3874  0.0474  0.4779
 2821SOL    HW120099   4.139   1.809   0.345 -3.7043  1.2428  2.1179
 2821SOL    HW220100   4.156   1.678   0.271  0.4381  0.7129  0.9092
 2822SOL     OW20101   3.618   0.057   8.917  0.2772  0.2024 -0.4603
 2822SOL    HW120102   3.536   0.080   8.960 -0.0529 -0.1817 -0.8794
 2822SOL    HW220103   3.601   4.708   8.876 -1.8839  1.1872 -1.5631
 2823SOL     OW20104   2.043   3.185   2.944  0.3236 -0.6046 -0.4572
 2823SOL    HW120105   2.032   3.269   2.901  0.5888 -1.5429 -2.3824
 2823SOL    HW220106   2.043   3.123   2.871 -0.4497  0.0299 -1.0003
 2824SOL     OW20107   2.024   0.774   3.641 -0.0762  0.4006  0.1997
 2824SOL    HW120108   2.064   0.785   3.728  0.2295  0.1781  0.0873
 2824SOL    HW220109   2.017   0.679   3.636 -0.2169  0.3640  1.0594
 2825SOL     OW20110   1.769   1.455   8.132  0.0476 -0.1006 -0.5380
 2825SOL    HW120111   1.784   1.368   8.167 -0.7972 -0.3132 -0.7154
 2825SOL    HW220112   1.679   1.479   8.154  1.0082  0.7354  2.3653
 2826SOL     OW20113   0.668   4.620   6.547  0.0679 -0.1396  0.1817
 2826SOL    HW120114   0.576   4.598   6.533  0.1952 -0.2843 -0.4426
 2826SOL    HW220115   0.715   4.557   6.492  1.3409  0.5680  0.4523
 2827SOL     OW20116   1.757   2.157   3.836 -0.8990 -0.2493  0.4837
 2827SOL    HW120117   1.850   2.174   3.823 -0.8536  0.6069  1.9852
 2827SOL    HW220118   1.748   2.198   3.922  1.5872  2.1333 -0.4049
 2828SOL     OW20119   3.309   4.359  16.728 -0.7526  0.5376 -0.2974
 2828SOL    HW120120   3.242   4.426  16.720 -0.7155  0.4387 -1.3929
 2828SOL    HW220121   3.264   4.295  16.673 -0.0579 -0.9049  0.7837
 2829SOL     OW20122   4.706   1.311  16.960 -0.0475 -0.3540 -0.0351
 2829SOL    HW120123   0.028   1.377  16.922 -0.8815  1.0880  1.1809
 2829SOL    HW220124   0.018   1.232  16.934  0.9961  0.6968 -1.2771
 2830SOL     OW20125   2.668   0.455   5.047  0.7291  0.4248 -0.4125
 2830SOL    HW120126   2.634   0.415   5.127  2.4492  0.0710  0.1393
 2830SOL    HW220127   2.729   0.517   5.087  0.4626 -1.1544  2.4316
 2831SOL     OW20128   3.899   1.419   7.736 -0.2964  0.2605 -0.0849
 2831SOL    HW120129   3.831   1.474   7.776 -1.3124 -2.2289  1.6665
 2831SOL    HW220130   3.852   1.356   7.681 -0.8758 -0.8366  1.6434
 2832SOL     OW20131   0.876   0.582  17.123  0.5809  0.0942 -0.2787
 2832SOL    HW120132   0.801   0.619  17.076  0.8178  2.0951  0.9384
 2832SOL    HW220133   0.932   0.659  17.128  1.2134 -0.3509 -0.4978
 2833SOL     OW20134   3.592   1.786  11.704 -0.8918 -0.4259  0.0524
 2833SOL    HW120135   3.644   1.724  11.654 -0.6427 -0.6582  0.5976
 2833SOL    HW220136   3.632   1.788  11.791  1.6347  1.9223 -1.1823
 2834SOL     OW20137   3.755   2.431   4.842  0.4749 -0.1119  0.5470
 2834SOL    HW120138   3.838   2.477   4.849 -0.2015  1.3329 -0.7068
 2834SOL    HW220139   3.738   2.433   4.747  0.3876 -0.1162  0.5621
 2835SOL     OW20140   4.482   0.288  16.828 -0.4388  0.7131  0.5028
 2835SOL    HW120141   4.400   0.267  16.783  1.2244  0.7255 -2.5591
 2835SOL    HW220142   4.530   0.340  16.763  1.3475 -0.9726  0.4724
 2836SOL     OW20143   3.322   3.673  13.906 -0.1961  0.0667 -0.2268
 2836SOL    HW120144   3.377   3.677  13.828 -0.2376  0.5489 -0.2314
 2836SOL    HW220145   3.258   3.608  13.878  1.4990 -1.0830 -1.3934
 2837SOL     OW20146   4.735   4.568   5.970  0.1875 -0.6896 -0.4012
 2837SOL    HW120147   4.726   4.663   5.962  0.1172 -0.5780  1.1469
 2837SOL    HW220148   0.062   4.546   5.901 -0.9252  0.2675 -1.7454
 2838SOL     OW20149   3.323   3.860  10.608 -0.5620  0.2176  0.2220
 2838SOL    HW120150   3.395   3.915  10.580 -1.2075  1.4070  0.9156
 2838SOL    HW220151   3.325   3.798  10.535 -1.5383 -0.0307  0.3916
 2839SOL     OW20152   0.675   3.596   2.404  0.1163  0.2226  0.1293
 2839SOL    HW120153   0.710   3.606   2.493 -1.0357  1.9029  0.3820
 2839SOL    HW220154   0.758   3.602   2.357 -0.3499 -1.3912 -0.8807
 2840SOL     OW20155   1.717   0.004   3.565 -0.2177 -0.2047  0.0744
 2840SOL    HW120156   1.692   4.657   3.524 -2.6464  0.1572  0.8424
 2840SOL    HW220157   1.633   0.030   3.602  0.2484  0.9769  0.2757
 2841SOL     OW20158   2.744   4.340   6.782  0.4171  0.2029 -0.4711
 2841SOL    HW120159   2.676   4.364   6.719  0.8015 -0.1110 -1.0084
 2841SOL    HW220160   2.767   4.424   6.822  0.4607 -0.3247  0.6175
 2842SOL     OW20161   4.442   2.174   5.133  0.3621 -0.2888  0.2665
 2842SOL    HW120162   4.422   2.084   5.157  2.5939 -0.6700  0.6836
 2842SOL    HW220163   4.529   2.174   5.093  0.3214  1.4113  0.1591
 2843SOL     OW20164   2.805   0.070   0.757  0.3772  0.3218  0.3086
 2843SOL    HW120165   2.836   0.054   0.846 -1.5462 -0.0824  0.8904
 2843SOL    HW220166   2.720   0.111   0.766  1.5388  2.4830  1.3528
 2844SOL     OW20167   3.292   4.207   6.376  0.6568  0.0489 -0.3506
 2844SOL    HW120168   3.201   4.236   6.383 -0.2148 -2.9272  0.8276
 2844SOL    HW220169   3.321   4.214   6.467  1.6473  1.2981 -0.7734
 2845SOL     OW20170   1.914   2.774  14.963 -0.1356 -0.3176 -0.2534
 2845SOL    HW120171   1.962   2.723  14.897  0.9544  0.5534 -0.1356
 2845SOL    HW220172   1.961   2.747  15.042 -0.3809  0.6679  0.2242
 2846SOL     OW20173   3.478   3.562   8.822  0.3993 -0.1461  0.1407
 2846SOL    HW120174   3.401   3.587   8.770 -0.4559 -0.8701  1.0658
 2846SOL    HW220175   3.479   3.631   8.889 -2.3670  0.7033 -0.6774
 2847SOL     OW20176   0.391   3.192   6.554  0.0365 -0.2936 -0.1274
 2847SOL    HW120177   0.348   3.270   6.588  2.4386  0.8516  0.2978
 2847SOL    HW220178   0.352   3.192   6.466  0.0040 -2.3911 -0.1237
 2848SOL     OW20179   2.353   2.824   6.742 -0.4671  1.0956 -0.2171
 2848SOL    HW120180   2.373   2.797   6.653  0.5246  0.7917  0.1009
 2848SOL    HW220181   2.323   2.746   6.787  0.3860 -0.2560 -2.0237
 2849SOL     OW20182   2.902   4.420   2.654  0.4123  0.0455  0.1105
 2849SOL    HW120183   2.994   4.429   2.681 -0.1393  0.5012  1.8373
 2849SOL    HW220184   2.859   4.478   2.716 -0.8658 -1.2776  0.4746
 2850SOL     OW20185   2.977   0.010  12.145  0.5184 -0.4936 -0.6245
 2850SOL    HW120186   3.067   4.719  12.132  0.9869  1.0244 -0.5082
 2850SOL    HW220187   2.987   0.075  12.213  1.0913 -0.6029 -0.6093
 2851SOL     OW20188   2.974   0.164   1.609  0.4457 -0.1889 -0.1319
 2851SOL    HW120189   2.948   0.096   1.671  3.0617 -2.0867 -1.0982
 2851SOL    HW220190   3.006   0.235   1.664 -1.8849 -0.2562  1.2855
 2852SOL     OW20191   2.520   0.285   3.457  0.8032  0.0553  0.2544
 2852SOL    HW120192   2.555   0.205   3.417  2.7671  0.0576  1.9735
 2852SOL    HW220193   2.425   0.269   3.458  0.8014  0.0727  0.3816
 2853SOL     OW20194   4.001   0.716  16.529  0.2336  0.3996  0.3601
 2853SOL    HW120195   3.954   0.796  16.553 -0.9873 -0.0416 -0.5314
 2853SOL    HW220196   4.050   0.741  16.450  1.0008  0.1324  0.7521
 2854SOL     OW20197   4.639   0.437   5.268  0.3198  0.5367 -0.7159
 2854SOL    HW120198   4.700   0.394   5.329 -1.0348 -1.0185 -0.4525
 2854SOL    HW220199   4.670   0.397   5.187  1.8877 -1.2673  0.7349
 2855SOL     OW20200   3.065   2.834  12.570 -0.3527  0.4850 -0.0345
 2855SOL    HW120201   3.096   2.856  12.482 -1.0674  1.5228 -0.0205
 2855SOL    HW220202   3.011   2.759  12.544  0.7947 -0.1380 -0.6134
 2856SOL     OW20203   3.556   1.418   5.783 -0.1741  0.2448  0.0047
 2856SOL    HW120204   3.479   1.470   5.762 -1.1220 -1.1883 -0.1130
 2856SOL    HW220205   3.603   1.487   5.829  0.7486 -0.4799  0.1326
 2857SOL     OW20206   0.784   1.946   0.600 -0.7445  0.3833  0.1020
 2857SOL    HW120207   0.751   2.032   0.628 -1.6064 -0.3534  1.3730
 2857SOL    HW220208   0.874   1.967   0.628 -0.6650  1.5577 -1.0621
 2858SOL     OW20209   0.679   3.088   6.043 -0.5554  0.2052  0.0177
 2858SOL    HW120210   0.639   3.146   5.977 -1.9744 -0.2348  0.4925
 2858SOL    HW220211   0.657   3.130   6.126 -0.4222  0.8627 -0.2750
 2859SOL     OW20212   4.297   3.577   5.657 -0.0609  0.2228  0.0082
 2859SOL    HW120213   4.366   3.639   5.679  0.0978 -0.6935  2.1243
 2859SOL    HW220214   4.340   3.502   5.617  1.8253  1.3544 -0.0907
 2860SOL     OW20215   1.603   0.287   4.749 -0.6630 -0.4804 -0.1233
 2860SOL    HW120216   1.698   0.292   4.738 -0.9867  0.1108 -2.4780
 2860SOL    HW220217   1.581   0.241   4.668  0.7092  1.6919 -1.7239
 2861SOL     OW20218   2.312   3.111   5.437  0.0817  0.7039 -0.9976
 2861SOL    HW120219   2.340   3.200   5.458 -1.3151  0.3790  2.3713
 2861SOL    HW220220   2.219   3.127   5.455 -0.0774 -1.7894  0.3381
 2862SOL     OW20221   4.565   0.970  11.996 -0.6001  0.5012  0.5399
 2862SOL    HW120222   4.491   0.911  11.980  0.5998 -0.9846  0.4871
 2862SOL    HW220223   4.546   1.045  11.940  0.8851 -0.2058 -0.9215
 2863SOL     OW20224   4.331   3.334   4.892  0.5459 -0.1866 -0.0822
 2863SOL    HW120225   4.292   3.281   4.961 -0.5628  0.6071 -0.0972
 2863SOL    HW220226   4.353   3.269   4.825 -0.9606 -1.5215  0.7350
 2864SOL     OW20227   1.601   4.021   7.765 -0.5354 -0.0705  0.6679
 2864SOL    HW120228   1.513   4.013   7.726  0.2735  0.5138 -1.2806
 2864SOL    HW220229   1.586   4.071   7.844 -1.6882  0.3917  0.1560
 2865SOL     OW20230   1.153   4.481   5.377  0.2646  0.8100  0.3166
 2865SOL    HW120231   1.114   4.462   5.291  0.8985  0.0846  0.1904
 2865SOL    HW220232   1.155   4.576   5.368 -2.0991  0.8009 -0.4441
 2866SOL     OW20233   1.877   4.431   7.235 -0.0877 -0.3696  0.3603
 2866SOL    HW120234   1.819   4.354   7.235 -0.1106 -0.3525  0.1326
 2866SOL    HW220235   1.814   4.495   7.202 -0.1534 -0.4371  0.3539
 2867SOL     OW20236   0.227   4.387   3.463 -0.9718 -0.2489 -0.5353
 2867SOL    HW120237   0.211   4.466   3.411  0.5517  0.0522 -0.5477
 2867SOL    HW220238   0.136   4.360   3.477 -0.7402 -1.0846 -0.6675
 2868SOL     OW20239   2.139   0.096   2.251  0.3878  0.3922  0.4933
 2868SOL    HW120240   2.197   0.090   2.175  0.7014 -1.0804  0.8436
 2868SOL    HW220241   2.088   0.015   2.246  0.7022  0.1512  1.2049
 2869SOL     OW20242   1.114   0.184   5.544 -0.2931  0.1194 -0.2878
 2869SOL    HW120243   1.046   0.207   5.608  0.5592 -1.1038  1.0474
 2869SOL    HW220244   1.117   0.268   5.498 -1.8221 -0.3833 -1.3192
 2870SOL     OW20245   2.351   4.404   2.259  0.2801  0.0565 -0.4192
 2870SOL    HW120246   2.305   4.387   2.342  0.6293  2.9907  0.4089
 2870SOL    HW220247   2.291   4.357   2.202  1.9508 -0.5967 -1.6293
 2871SOL     OW20248   1.852   2.986   6.199  0.2063 -0.7456 -0.7497
 2871SOL    HW120249   1.912   2.929   6.151  2.2765  0.7340  0.1041
 2871SOL    HW220250   1.818   2.933   6.271 -0.7916  1.0971  0.1254
 2872SOL     OW20251   3.000   4.508   3.297  0.2197 -0.4926  0.4985
 2872SOL    HW120252   2.981   4.440   3.362 -2.8700  0.1683  0.2635
 2872SOL    HW220253   3.095   4.493   3.295  0.6461  2.1717  1.1502
 2873SOL     OW20254   2.618   2.341   7.928  0.5879  0.0863 -0.3151
 2873SOL    HW120255   2.704   2.354   7.967  1.1355 -1.6487 -0.9265
 2873SOL    HW220256   2.596   2.277   7.995  2.0845  0.9028  0.9450
 2874SOL     OW20257   0.579   0.889   1.300 -0.4200 -0.4136 -0.5241
 2874SOL    HW120258   0.488   0.865   1.319  0.3415 -1.0271  2.3240
 2874SOL    HW220259   0.582   0.960   1.364 -2.5455 -0.0296 -0.8418
 2875SOL     OW20260   4.150   0.425  15.946 -0.0611 -0.4543 -0.1202
 2875SOL    HW120261   4.218   0.388  15.890 -1.0889 -1.3707 -0.7627
 2875SOL    HW220262   4.177   0.516  15.953 -0.1394 -0.4700  0.3920
 2876SOL     OW20263   3.663   1.775   5.970 -0.6356  0.5362  0.2579
 2876SOL    HW120264   3.643   1.820   5.888  0.7816  3.5823  1.5819
 2876SOL    HW220265   3.734   1.829   6.005 -0.0005 -0.8230  1.0648
 2877SOL     OW20266   1.454   3.022   3.978 -0.3972  0.3739  0.5869
 2877SOL    HW120267   1.444   3.078   3.901 -1.4987  1.4532  1.5215
 2877SOL    HW220268   1.525   2.963   3.953  0.2360  1.2662  0.2783
 2878SOL     OW20269   2.801   4.459  14.162  0.6912 -0.1406  0.1388
 2878SOL    HW120270   2.816   4.425  14.250 -2.1675  1.3263  1.2018
 2878SOL    HW220271   2.736   4.527  14.179  0.1045 -0.3528 -1.2199
 2879SOL     OW20272   4.416   0.086   8.589 -0.6948  0.6960  0.1835
 2879SOL    HW120273   4.445   0.099   8.679  1.0043  0.6106 -0.3548
 2879SOL    HW220274   4.358   0.010   8.601 -2.1317  1.6515 -0.6962
 2880SOL     OW20275   2.482   1.712   7.846  0.3104 -0.1522  0.0947
 2880SOL    HW120276   2.497   1.703   7.752 -1.7310  2.9290 -0.5172
 2880SOL    HW220277   2.392   1.679   7.851  0.1174  0.3957  0.2336
 2881SOL     OW20278   0.913   0.470  12.876  0.2039  0.0750  0.4258
 2881SOL    HW120279   0.931   0.558  12.843 -1.0323 -0.2058 -0.9945
 2881SOL    HW220280   0.837   0.476  12.934  0.7656 -0.1700  1.1737
 2882SOL     OW20281   3.850   0.978   0.355 -0.2201  0.0609  0.6074
 2882SOL    HW120282   3.813   1.052   0.307  1.9971 -0.8423 -2.5144
 2882SOL    HW220283   3.774   0.957   0.408 -2.8547 -1.2386 -3.7335
 2883SOL     OW20284   0.189   3.324   5.683  0.2686 -0.0146 -0.1418
 2883SOL    HW120285   0.150   3.323   5.771  1.5262 -0.2537  0.4196
 2883SOL    HW220286   0.232   3.238   5.681  1.5410  0.6406 -0.8662
 2884SOL     OW20287   0.839   3.189   7.841  0.6347 -0.2851  0.2630
 2884SOL    HW120288   0.801   3.101   7.835  0.5980 -0.2184 -0.3961
 2884SOL    HW220289   0.816   3.220   7.754  1.3446  1.8969  0.8586
 2885SOL     OW20290   2.204   3.734  16.380  1.0445  0.8251 -0.2276
 2885SOL    HW120291   2.252   3.771  16.454  0.1736  2.1204 -0.3092
 2885SOL    HW220292   2.245   3.649  16.361 -1.0825 -0.3432  0.3628
 2886SOL     OW20293   1.590   1.041   5.170  0.2147  0.1705 -0.8540
 2886SOL    HW120294   1.623   1.108   5.111 -1.0541  1.8003  0.2776
 2886SOL    HW220295   1.617   0.965   5.118 -1.9909 -1.1354 -0.1283
 2887SOL     OW20296   2.593   3.764   4.428  0.4750 -0.4012  0.7937
 2887SOL    HW120297   2.592   3.668   4.423  1.4278 -0.3122 -0.9333
 2887SOL    HW220298   2.682   3.776   4.395 -0.5771 -0.0735 -1.8540
 2888SOL     OW20299   0.098   1.112  11.039  0.4459 -0.7242 -0.1346
 2888SOL    HW120300   0.169   1.067  11.084  0.5124 -1.1122 -0.6194
 2888SOL    HW220301   0.145   1.178  10.989 -1.2808 -1.6115 -2.9833
 2889SOL     OW20302   4.676   1.836   8.803 -0.2468  0.4525 -0.0440
 2889SOL    HW120303   4.714   1.923   8.816 -1.0975  0.9845 -1.0956
 2889SOL    HW220304   4.587   1.851   8.835 -0.3923  1.5722 -0.9695
 2890SOL     OW20305   1.968   1.806  16.432  0.3416 -0.0083  0.1707
 2890SOL    HW120306   2.044   1.824  16.376 -0.5641  3.0247 -0.0886
 2890SOL    HW220307   1.907   1.762  16.374 -1.8581 -0.2925  2.7014
 2891SOL     OW20308   3.111   1.579  12.003 -0.6441 -0.5006 -0.1737
 2891SOL    HW120309   3.082   1.645  12.066  0.3483  0.8836 -1.1671
 2891SOL    HW220310   3.037   1.569  11.942  1.0847  0.8746 -2.4877
 2892SOL     OW20311   2.176   3.524   6.771 -0.7644  0.9605  0.4844
 2892SOL    HW120312   2.218   3.602   6.735 -1.9604  1.7179  0.7192
 2892SOL    HW220313   2.231   3.495   6.844 -1.4926  0.5493  0.8787
 2893SOL     OW20314   3.510   3.864   7.980  0.1239 -0.3306 -0.8714
 2893SOL    HW120315   3.564   3.901   8.050 -0.7471  0.5273 -0.6462
 2893SOL    HW220316   3.552   3.780   7.965 -0.1777 -0.6154 -0.1366
 2894SOL     OW20317   3.635   0.001   6.542 -0.5051 -0.3926  0.1251
 2894SOL    HW120318   3.621   4.676   6.613 -0.7231  0.5148  0.8640
 2894SOL    HW220319   3.546   4.735   6.507 -0.3116  2.0733 -0.5571
 2895SOL     OW20320   3.818   4.307  11.310  0.0982 -0.6553  0.1026
 2895SOL    HW120321   3.809   4.237  11.246 -1.4461 -0.4195  0.0611
 2895SOL    HW220322   3.733   4.335  11.343 -0.0279 -1.2999  0.3204
 2896SOL     OW20323   3.948   2.422  10.328 -0.0289  0.2301 -0.0432
 2896SOL    HW120324   3.893   2.500  10.328  0.1440  0.3470 -0.6414
 2896SOL    HW220325   3.882   2.353  10.336  0.6561 -0.4499 -0.2837
 2897SOL     OW20326   4.336   0.392  12.452  0.0566  0.6785  0.1263
 2897SOL    HW120327   4.345   0.446  12.374  1.3203 -2.5353 -1.9329
 2897SOL    HW220328   4.320   0.451  12.526  1.3057 -0.9378  1.7096
 2898SOL     OW20329   2.678   4.713   5.200 -0.1780 -1.1313 -0.0167
 2898SOL    HW120330   2.653   4.625   5.228 -1.7704  0.4634  3.5740
 2898SOL    HW220331   2.769   4.713   5.231 -0.8160  0.4115  1.8543
 2899SOL     OW20332   4.377   1.713   8.371 -0.1459  0.5414 -0.0424
 2899SOL    HW120333   4.347   1.654   8.302  1.6629 -1.3122  0.7701
 2899SOL    HW220334   4.382   1.799   8.329  0.8534 -0.6468 -2.3258
 2900SOL     OW20335   1.224   0.014  12.674 -0.3362  0.1802  0.1597
 2900SOL    HW120336   1.251   0.105  12.686 -1.0392  0.8044 -3.0562
 2900SOL    HW220337   1.212   4.730  12.581 -0.2849  1.1347 -0.0456
 2901SOL     OW20338   3.513   0.318  10.343 -0.0560 -0.0659 -0.0787
 2901SOL    HW120339   3.487   0.401  10.303 -4.0651 -1.1945  0.1695
 2901SOL    HW220340   3.573   0.292  10.274  1.8620  2.7784  0.5341
 2902SOL     OW20341   0.085   0.386   2.733  0.1402  0.1409  0.2081
 2902SOL    HW120342   0.103   0.477   2.756  2.3624 -0.2153 -0.1732
 2902SOL    HW220343   4.731   0.377   2.766  0.2929 -0.2725  0.5157
 2903SOL     OW20344   2.996   1.426  15.131  0.4514  0.0811 -0.1099
 2903SOL    HW120345   3.059   1.490  15.097  1.3240 -0.9636 -0.4513
 2903SOL    HW220346   3.062   1.367  15.168  0.7022  0.5439  0.1820
 2904SOL     OW20347   1.789   0.213   6.590  0.0046 -0.1459  0.1024
 2904SOL    HW120348   1.850   0.215   6.517  1.3629  1.0722  1.2910
 2904SOL    HW220349   1.714   0.177   6.543  0.6860  0.8287 -1.7158
 2905SOL     OW20350   2.741   0.648  16.283 -0.4113 -0.0870  0.4785
 2905SOL    HW120351   2.647   0.644  16.297 -0.6234  0.0342 -0.8723
 2905SOL    HW220352   2.777   0.594  16.353  1.1652 -1.6920 -1.5293
 2906SOL     OW20353   4.025   0.583  17.177 -0.0652  0.2779 -0.2145
 2906SOL    HW120354   4.050   0.673  17.158 -1.2054  0.2072 -2.0934
 2906SOL    HW220355   4.070   0.530  17.110 -1.9750 -0.1916 -1.1135
 2907SOL     OW20356   0.381   3.589  13.125 -0.0350  0.1111  0.5675
 2907SOL    HW120357   0.474   3.589  13.148  0.3866  0.4551 -1.1770
 2907SOL    HW220358   0.356   3.499  13.147  1.0075 -0.5752 -1.0604
 2908SOL     OW20359   2.235   1.120   3.914 -0.4670 -0.1457 -0.4450
 2908SOL    HW120360   2.284   1.189   3.869  1.4573 -1.9662 -1.1541
 2908SOL    HW220361   2.299   1.049   3.906 -1.3097 -1.0233  0.5428
 2909SOL     OW20362   3.916   1.103   8.696  0.3063 -0.0051  0.7060
 2909SOL    HW120363   3.887   1.100   8.788 -0.0098  0.3031  0.6187
 2909SOL    HW220364   3.951   1.192   8.692 -0.8029  0.4702  1.4766
 2910SOL     OW20365   1.408   1.958   7.756  0.0971 -0.5454 -0.3943
 2910SOL    HW120366   1.333   1.926   7.705 -0.4069  0.3988 -0.2264
 2910SOL    HW220367   1.422   2.043   7.715  1.2632  0.0049  1.1718
 2911SOL     OW20368   0.857   2.447   8.471  0.2372  0.0039 -0.0585
 2911SOL    HW120369   0.846   2.482   8.560 -2.3201  1.5357 -0.9586
 2911SOL    HW220370   0.934   2.496   8.443  0.2805  0.4469  0.8499
 2912SOL     OW20371   3.521   2.257   8.732 -0.3938 -0.1735 -0.4640
 2912SOL    HW120372   3.546   2.322   8.797 -0.9968  0.5927 -0.9944
 2912SOL    HW220373   3.534   2.301   8.647 -0.2001  2.6055  0.9943
 2913SOL     OW20374   2.391   2.275   3.154 -0.2339 -0.8851  0.0928
 2913SOL    HW120375   2.335   2.353   3.160  0.7289 -0.2074  0.1485
 2913SOL    HW220376   2.324   2.218   3.116 -2.2367  0.2653  1.8745
 2914SOL     OW20377   4.353   4.369   8.639 -0.5083 -0.2748 -0.1652
 2914SOL    HW120378   4.341   4.277   8.662  0.0909 -0.5215 -0.8347
 2914SOL    HW220379   4.272   4.382   8.589 -0.1380 -2.5785 -1.3744
 2915SOL     OW20380   3.567   1.072  10.878  0.6033  0.2472  0.5551
 2915SOL    HW120381   3.634   1.119  10.827  0.0883 -0.5536 -0.8430
 2915SOL    HW220382   3.614   1.067  10.962  1.5350  1.2766  0.1065
 2916SOL     OW20383   2.491   1.959   3.886  0.2721 -0.1801 -0.3324
 2916SOL    HW120384   2.537   2.022   3.830  0.3512 -0.4881 -0.6160
 2916SOL    HW220385   2.417   2.009   3.920 -0.6938 -1.2826 -0.7943
 2917SOL     OW20386   2.920   2.063   4.459  0.1000 -0.2265  0.0609
 2917SOL    HW120387   2.843   2.012   4.483  0.3874 -0.1063  1.2231
 2917SOL    HW220388   2.895   2.152   4.483  0.8974  0.7709 -2.7817
 2918SOL     OW20389   1.125   1.579   3.980 -0.3186 -0.5911  0.3841
 2918SOL    HW120390   1.187   1.507   3.986 -0.8864 -1.0332  0.9510
 2918SOL    HW220391   1.145   1.639   4.052  0.8726  0.1558 -0.5801
 2919SOL     OW20392   0.374   3.436   4.144 -0.0324  0.3341  0.5077
 2919SOL    HW120393   0.450   3.404   4.095 -0.3401 -0.4074  0.5102
 2919SOL    HW220394   0.373   3.382   4.223  0.5676  0.5623  0.6714
 2920SOL     OW20395   4.382   1.173  10.956 -0.7178 -1.0634 -0.3238
 2920SOL    HW120396   4.450   1.204  10.896  0.8894 -1.3431  1.3623
 2920SOL    HW220397   4.379   1.254  11.007 -0.9594 -1.1818 -0.1500
 2921SOL     OW20398   4.685   3.858  11.080  0.8208  0.1761 -0.7510
 2921SOL    HW120399   4.690   3.924  11.149  1.6909 -1.7152  1.0119
 2921SOL    HW220400   4.734   3.892  11.006  1.2548  1.9012  0.3422
 2922SOL     OW20401   2.810   0.513   5.630 -0.6001 -0.0977  0.5049
 2922SOL    HW120402   2.866   0.548   5.699  1.4960 -0.2587 -1.1231
 2922SOL    HW220403   2.844   0.559   5.554  1.7951  0.8518  2.1498
 2923SOL     OW20404   1.348   3.609  10.474  0.3261  0.2459  0.2940
 2923SOL    HW120405   1.335   3.659  10.394  1.8063  0.6138  0.2824
 2923SOL    HW220406   1.305   3.529  10.445  1.2188  0.2042 -0.9189
 2924SOL     OW20407   4.180   1.118   6.169  0.4312 -0.5004 -0.1950
 2924SOL    HW120408   4.151   1.097   6.080  0.1412  0.9706 -0.4546
 2924SOL    HW220409   4.149   1.208   6.173 -0.5646 -0.8251 -0.6628
 2925SOL     OW20410   4.566   0.458  10.164 -0.5246 -0.5593 -0.0574
 2925SOL    HW120411   4.584   0.391  10.097 -0.2769  0.2641 -0.8082
 2925SOL    HW220412   4.632   0.520  10.134  0.5498 -2.5050 -1.7058
 2926SOL     OW20413   1.250   4.237   8.791  0.5381 -0.1692 -0.3709
 2926SOL    HW120414   1.180   4.269   8.733  0.2571 -0.8510 -0.4163
 2926SOL    HW220415   1.296   4.317   8.816 -0.4309 -0.2225  1.6205
 2927SOL     OW20416   0.946   2.364  16.459 -0.4425 -0.0177  0.0687
 2927SOL    HW120417   0.977   2.275  16.475  2.3408  1.5276  3.2460
 2927SOL    HW220418   1.031   2.409  16.465 -1.3530  1.5445  1.1211
 2928SOL     OW20419   0.529   2.883  11.720  0.7663  0.0525 -0.3615
 2928SOL    HW120420   0.568   2.941  11.655  0.0799  1.8453  0.8086
 2928SOL    HW220421   0.539   2.931  11.803 -0.3138 -0.6681  0.1799
 2929SOL     OW20422   4.475   3.346   7.009  0.1432  0.2831 -0.7003
 2929SOL    HW120423   4.568   3.362   6.990  0.0653 -0.4229 -1.6921
 2929SOL    HW220424   4.469   3.250   7.008 -0.0424  0.3026 -2.2528
 2930SOL     OW20425   0.241   3.943   6.128 -0.2815  0.0180  0.2075
 2930SOL    HW120426   0.236   3.984   6.042  1.4573 -1.7693 -0.7619
 2930SOL    HW220427   0.149   3.940   6.152 -0.5306 -0.2339 -0.7754
 2931SOL     OW20428   0.742   2.672   6.890 -0.0667 -0.1861 -0.0694
 2931SOL    HW120429   0.723   2.667   6.796 -0.3478 -0.5217  0.0047
 2931SOL    HW220430   0.701   2.757   6.907 -1.2153 -1.1596  1.9285
 2932SOL     OW20431   2.308   1.946   8.799  0.3364 -0.7574 -0.0162
 2932SOL    HW120432   2.236   1.997   8.837  1.0969 -1.0166  1.7474
 2932SOL    HW220433   2.266   1.861   8.787  0.9777 -0.9427 -0.9464
 2933SOL     OW20434   2.504   4.295   7.578  0.2589 -0.0507 -0.6209
 2933SOL    HW120435   2.598   4.284   7.590  0.1885  0.4849  0.4111
 2933SOL    HW220436   2.484   4.255   7.493 -0.0924 -1.3294  0.0620
 2934SOL     OW20437   4.162   0.879   3.108 -0.0917 -0.5051  0.2426
 2934SOL    HW120438   4.099   0.911   3.172 -0.0661  0.5450 -0.2538
 2934SOL    HW220439   4.244   0.876   3.159  0.4311 -0.3331 -0.5923
 2935SOL     OW20440   0.509   0.918   0.425 -0.0380 -0.3168 -0.6129
 2935SOL    HW120441   0.599   0.947   0.410  0.3364  0.4966  3.0216
 2935SOL    HW220442   0.514   0.863   0.504  1.2371  2.9145  1.5395
 2936SOL     OW20443   1.695   0.240   5.523 -0.2134 -0.5328 -0.2220
 2936SOL    HW120444   1.787   0.216   5.519  0.5016  1.9535  0.9199
 2936SOL    HW220445   1.661   0.182   5.455  0.2617 -0.3121 -0.6518
 2937SOL     OW20446   1.509   2.474  14.493 -0.0113  0.0609  0.4121
 2937SOL    HW120447   1.554   2.415  14.433  0.0434 -1.8054  2.2770
 2937SOL    HW220448   1.540   2.458  14.583 -1.0361  1.2251  0.9713
 2938SOL     OW20449   3.348   0.363   7.374 -0.1202  0.1552 -0.2003
 2938SOL    HW120450   3.366   0.300   7.444  1.1016  2.4637  1.5768
 2938SOL    HW220451   3.348   0.442   7.429  0.1014  0.4771 -0.6623
 2939SOL     OW20452   0.359   3.412   5.476 -0.3198  0.4969  0.0227
 2939SOL    HW120453   0.306   3.388   5.401  2.2588 -2.1440 -0.9529
 2939SOL    HW220454   0.298   3.374   5.540 -1.8611  0.0274 -1.7466
 2940SOL     OW20455   1.969   3.445  15.982  0.2049  0.5137 -0.6606
 2940SOL    HW120456   1.967   3.492  16.066  0.5412 -1.7824  0.6208
 2940SOL    HW220457   2.057   3.468  15.952  0.9285 -0.9453  0.3397
 2941SOL     OW20458   1.890   4.641   3.306  0.4381 -0.3983 -0.0308
 2941SOL    HW120459   1.856   4.722   3.268 -0.7173 -1.9257 -2.2183
 2941SOL    HW220460   1.810   4.603   3.341  0.5884  0.0565  0.8276
 2942SOL     OW20461   0.441   1.593   4.469 -0.2789  0.1267  0.5657
 2942SOL    HW120462   0.491   1.514   4.493 -0.7444 -0.9477 -1.9362
 2942SOL    HW220463   0.500   1.666   4.489  0.4572 -0.5070  0.7355
 2943SOL     OW20464   2.458   1.575  10.039  0.2975  0.8272 -0.0013
 2943SOL    HW120465   2.421   1.597  10.124 -0.2266 -1.4851  0.3667
 2943SOL    HW220466   2.534   1.632  10.033  0.5020  0.9831  3.9794
 2944SOL     OW20467   2.014   2.862   4.139 -0.3626 -0.1404  0.3016
 2944SOL    HW120468   2.017   2.921   4.064  2.0082 -0.2152  0.3486
 2944SOL    HW220469   1.923   2.866   4.168  0.3327  2.1001  2.1093
 2945SOL     OW20470   0.475   3.580  12.036  0.0577 -0.4507  0.0037
 2945SOL    HW120471   0.555   3.596  12.086 -0.3849 -0.2046  0.6365
 2945SOL    HW220472   0.457   3.490  12.063  1.7585 -0.9939 -0.6883
 2946SOL     OW20473   2.783   1.468   8.574 -0.1529 -0.4606  0.4550
 2946SOL    HW120474   2.816   1.532   8.511  0.8039 -0.4670  0.9550
 2946SOL    HW220475   2.822   1.497   8.657 -2.0754 -0.6799  1.4339
 2947SOL     OW20476   1.086   4.547  15.155  0.2270  0.0275  0.3706
 2947SOL    HW120477   1.059   4.639  15.146  2.6074  0.6327 -0.4118
 2947SOL    HW220478   1.158   4.552  15.093  1.7246  1.8826  2.2538
 2948SOL     OW20479   2.416   3.230   8.456  0.3474  0.2492 -0.3441
 2948SOL    HW120480   2.351   3.211   8.388  2.0946 -1.6194 -1.4728
 2948SOL    HW220481   2.458   3.311   8.425 -1.6707  0.6425 -2.1295
 2949SOL     OW20482   4.583   2.791   2.482 -0.0601  0.3621  0.4253
 2949SOL    HW120483   4.617   2.833   2.403 -0.7390 -1.2945 -0.7497
 2949SOL    HW220484   4.658   2.740   2.510 -0.2793 -0.2105 -0.0454
 2950SOL     OW20485   2.764   0.506   3.451  0.5231 -0.1530  0.3216
 2950SOL    HW120486   2.684   0.489   3.401  1.2036  2.2104 -1.6089
 2950SOL    HW220487   2.796   0.417   3.467  1.0494  0.3031  1.7893
 2951SOL     OW20488   0.716   0.594   5.695  0.0234  0.4704 -0.3953
 2951SOL    HW120489   0.804   0.566   5.720 -0.3537 -0.6212 -0.2841
 2951SOL    HW220490   0.687   0.635   5.776  2.2333  2.2708 -0.5305
 2952SOL     OW20491   0.788   3.328   8.426  0.2114 -0.8395  0.0281
 2952SOL    HW120492   0.765   3.257   8.485 -1.0686  0.2991  0.8902
 2952SOL    HW220493   0.884   3.320   8.422  0.1371 -1.5569 -0.2445
 2953SOL     OW20494   0.122   3.318   8.747 -0.1361 -0.2185  0.3209
 2953SOL    HW120495   0.064   3.250   8.715 -0.9498  0.3853  0.5206
 2953SOL    HW220496   0.102   3.326   8.840 -0.6164  2.9512 -0.0466
 2954SOL     OW20497   0.489   3.212   8.377  0.0494 -0.2946 -0.0190
 2954SOL    HW120498   0.526   3.210   8.465  1.2305  2.0983 -0.4691
 2954SOL    HW220499   0.474   3.119   8.360  0.6571 -0.6236  1.2039
 2955SOL     OW20500   1.589   0.898  15.942  0.4833 -0.7771 -0.4312
 2955SOL    HW120501   1.528   0.953  15.893 -0.7924  0.0370  2.0479
 2955SOL    HW220502   1.672   0.939  15.919  1.9355 -1.5233  3.4772
 2956SOL     OW20503   2.013   1.604   8.619  0.1726 -0.2212  0.1905
 2956SOL    HW120504   2.013   1.532   8.682 -0.7511 -0.3330  0.0646
 2956SOL    HW220505   1.985   1.557   8.540 -1.3774 -0.5284  0.9239
 2957SOL     OW20506   2.185   2.515  14.149 -0.1013 -0.2816 -0.0527
 2957SOL    HW120507   2.114   2.580  14.149 -0.5240 -0.7489  1.1357
 2957SOL    HW220508   2.177   2.465  14.068 -2.2411  1.4796 -0.9174
 2958SOL     OW20509   0.141   1.808   8.094  0.4458  0.5376 -0.5711
 2958SOL    HW120510   0.106   1.827   8.007 -1.0942 -2.5724 -0.6329
 2958SOL    HW220511   0.113   1.886   8.141  2.2858  0.9965 -0.2462
 2959SOL     OW20512   3.328   3.292  17.324 -0.0050  0.1147 -0.1644
 2959SOL    HW120513   3.286   3.349  17.259  0.9318 -0.0359 -0.9058
 2959SOL    HW220514   3.266   3.298  17.397  0.7431  0.1061  0.4792
 2960SOL     OW20515   2.543   4.267   6.480  0.1342  0.9332  0.2174
 2960SOL    HW120516   2.561   4.329   6.409 -0.6355  1.0114  0.0959
 2960SOL    HW220517   2.527   4.330   6.551  2.4425  0.3421  1.2578
 2961SOL     OW20518   1.777   1.307  10.752  0.5510  0.5119 -0.0662
 2961SOL    HW120519   1.787   1.386  10.806 -0.8781 -0.4103  1.5580
 2961SOL    HW220520   1.830   1.246  10.804  1.8709  0.8560 -1.0157
 2962SOL     OW20521   2.555   2.705   5.105 -0.2834  0.5822 -0.3348
 2962SOL    HW120522   2.460   2.703   5.095 -0.2228  0.2774 -0.9073
 2962SOL    HW220523   2.572   2.771   5.171  0.4012  0.6058 -0.5340
 2963SOL     OW20524   2.238   2.341  14.342 -0.5091 -0.1149 -0.5828
 2963SOL    HW120525   2.262   2.270  14.282  0.6093 -1.7355  1.7774
 2963SOL    HW220526   2.222   2.408  14.276 -3.0282 -0.4768 -0.3087
 2964SOL     OW20527   0.591   1.763   5.853  0.0053 -0.1341  0.2725
 2964SOL    HW120528   0.520   1.717   5.808 -0.3572  1.0436 -0.3500
 2964SOL    HW220529   0.558   1.839   5.900 -1.4925 -0.7662  0.2387
 2965SOL     OW20530   2.768   4.183   4.505 -0.2417  0.6307  0.0691
 2965SOL    HW120531   2.693   4.166   4.562  0.0379 -1.5753 -0.2219
 2965SOL    HW220532   2.726   4.165   4.421  0.4101  1.9989 -0.5428
 2966SOL     OW20533   4.346   4.273   6.338 -0.2210 -0.2230 -0.5432
 2966SOL    HW120534   4.292   4.295   6.413  0.8869  1.0379 -0.1166
 2966SOL    HW220535   4.295   4.302   6.262 -0.0044  2.6179  0.3946
 2967SOL     OW20536   4.053   3.094   2.606  0.1293  0.1194 -0.2144
 2967SOL    HW120537   3.977   3.105   2.550  1.2822 -0.8313 -1.9524
 2967SOL    HW220538   4.051   3.003   2.635 -0.6988  0.0151 -0.6163
 2968SOL     OW20539   0.892   2.304   5.829  0.1484 -0.3126 -0.0572
 2968SOL    HW120540   0.874   2.316   5.736 -1.6019  0.9741  0.4374
 2968SOL    HW220541   0.961   2.370   5.833  1.9265 -2.1344 -1.0532
 2969SOL     OW20542   3.141   0.432   6.323  0.0004  0.3768 -0.2481
 2969SOL    HW120543   3.107   0.392   6.243  2.9625 -1.5870 -0.5309
 2969SOL    HW220544   3.206   0.364   6.344 -0.8058  0.4406  2.4754
 2970SOL     OW20545   0.390   2.230   0.546  0.4572  0.0359 -0.0212
 2970SOL    HW120546   0.403   2.217   0.640 -3.1190  0.5517  0.5495
 2970SOL    HW220547   0.397   2.139   0.517  0.8204  0.6858 -1.9756
 2971SOL     OW20548   3.885   3.053   3.887 -0.0618  0.1760  0.2534
 2971SOL    HW120549   3.809   3.058   3.945 -0.5263 -1.2689 -0.2261
 2971SOL    HW220550   3.866   2.988   3.819  1.5419 -0.5640  0.5021
 2972SOL     OW20551   0.109   2.703  11.833  0.4303  0.0019 -0.7058
 2972SOL    HW120552   0.180   2.717  11.896 -1.4140 -0.3873  1.4547
 2972SOL    HW220553   0.142   2.755  11.760 -2.4702  2.9256  0.0585
 2973SOL     OW20554   0.200   2.131   5.459  0.0268  0.8090 -0.0437
 2973SOL    HW120555   0.247   2.143   5.542 -0.5722 -0.4508  0.4778
 2973SOL    HW220556   0.206   2.036   5.449 -2.2828  0.3785  2.5523
 2974SOL     OW20557   2.653   2.497   3.137 -0.5256 -0.1925 -0.5731
 2974SOL    HW120558   2.558   2.495   3.149 -0.6996 -0.7479 -1.9948
 2974SOL    HW220559   2.676   2.406   3.118 -0.6963 -0.3715  0.0843
 2975SOL     OW20560   3.813   1.354  10.001 -0.0276 -0.5621 -0.1532
 2975SOL    HW120561   3.769   1.438  10.012  1.2530  0.4571 -2.7662
 2975SOL    HW220562   3.741   1.311   9.955 -1.6042  1.2599  0.6115
 2976SOL     OW20563   0.676   2.455   7.069 -0.4282 -0.4824 -0.0463
 2976SOL    HW120564   0.738   2.520   7.036  1.6589 -1.9833  0.9054
 2976SOL    HW220565   0.600   2.510   7.086 -0.5355 -0.1713 -1.5375
 2977SOL     OW20566   3.204   2.450   6.939  0.8477 -0.0110 -0.0626
 2977SOL    HW120567   3.201   2.463   7.034 -2.0881 -1.0681 -0.0045
 2977SOL    HW220568   3.123   2.494   6.914 -0.1395 -0.4916  2.2861
 2978SOL     OW20569   0.828   1.639  14.862  0.2343 -0.3282 -0.6651
 2978SOL    HW120570   0.899   1.625  14.925 -1.4384  0.6278  1.4258
 2978SOL    HW220571   0.868   1.681  14.785 -0.2424 -1.9538 -1.8103
 2979SOL     OW20572   1.907   1.553   7.694 -0.6886  0.1570 -0.0094
 2979SOL    HW120573   1.865   1.622   7.644 -0.7024  0.6347  0.6561
 2979SOL    HW220574   1.958   1.506   7.628 -0.5881 -1.5405  1.2589
 2980SOL     OW20575   3.744   0.646  16.847  0.5019  0.8657 -0.0447
 2980SOL    HW120576   3.712   0.736  16.849 -0.9295  0.3255  0.9826
 2980SOL    HW220577   3.766   0.627  16.938 -0.7758 -0.5816 -0.0387
 2981SOL     OW20578   0.678   1.392  11.052 -0.3355  0.3673  0.7304
 2981SOL    HW120579   0.591   1.424  11.076 -1.3187 -1.5464 -0.2674
 2981SOL    HW220580   0.735   1.469  11.046 -2.0354  1.5385 -0.6739
 2982SOL     OW20581   3.292   3.225  13.840  0.3316 -0.5083  0.1653
 2982SOL    HW120582   3.308   3.158  13.774 -0.6019 -0.1684 -0.4083
 2982SOL    HW220583   3.237   3.183  13.906  0.6636  1.8496  1.9480
 2983SOL     OW20584   0.699   3.394  16.790 -0.5745  0.3000  0.5398
 2983SOL    HW120585   0.611   3.410  16.824 -0.0700 -2.3339  3.0358
 2983SOL    HW220586   0.704   3.299  16.776 -2.0176  0.2389  0.4164
 2984SOL     OW20587   4.440   0.363   5.588  0.0357  0.1964 -0.2876
 2984SOL    HW120588   4.444   0.361   5.684 -0.5988  0.9354 -0.2474
 2984SOL    HW220589   4.504   0.421   5.548 -1.0438  1.4462 -0.2018
 2985SOL     OW20590   0.583   0.116   9.035  0.2489 -0.2025 -0.4014
 2985SOL    HW120591   0.616   0.031   9.064 -0.0402 -0.1026  0.2317
 2985SOL    HW220592   0.577   0.158   9.121 -1.7624  0.6958 -0.9822
 2986SOL     OW20593   4.005   0.287  16.547  0.1197 -0.2455 -0.5202
 2986SOL    HW120594   3.918   0.263  16.578  0.0639 -0.7245 -1.0365
 2986SOL    HW220595   3.990   0.267  16.455  1.5385  0.7415 -0.9685
 2987SOL     OW20596   3.276   2.073   5.826  0.3861 -0.4750  0.4151
 2987SOL    HW120597   3.185   2.060   5.800  0.4209  3.0441 -1.4798
 2987SOL    HW220598   3.296   2.130   5.752  1.7067 -0.6897  0.5995
 2988SOL     OW20599   1.460   0.506  13.391  0.2796  0.1728  0.0199
 2988SOL    HW120600   1.422   0.592  13.373 -1.9129 -1.1970 -1.7768
 2988SOL    HW220601   1.551   0.529  13.370  0.1444  1.8801  1.2707
 2989SOL     OW20602   2.164   4.203   7.684 -0.3793  0.0311  0.2745
 2989SOL    HW120603   2.242   4.243   7.724 -0.7634  3.0034 -1.9497
 2989SOL    HW220604   2.094   4.248   7.731 -2.0026 -1.0641 -1.0698
 2990SOL     OW20605   1.072   2.537   4.555  0.4424  0.1162 -0.4109
 2990SOL    HW120606   1.067   2.459   4.609  0.4019 -0.4745 -1.2548
 2990SOL    HW220607   1.015   2.502   4.485  0.0408  0.7307 -0.3953
 2991SOL     OW20608   4.219   1.569   6.574 -0.3762 -0.5617  0.2774
 2991SOL    HW120609   4.267   1.592   6.654  3.0943  1.2081 -2.2759
 2991SOL    HW220610   4.134   1.604   6.599  0.3450  0.9216  0.6840
 2992SOL     OW20611   0.958   3.811  14.058  0.1531  0.4646  0.7579
 2992SOL    HW120612   0.922   3.851  13.979  2.4255  1.0150  0.0194
 2992SOL    HW220613   0.909   3.729  14.063  2.3061 -0.7461  1.7287
 2993SOL     OW20614   2.757   2.900   5.762  0.1056 -0.0840 -0.1285
 2993SOL    HW120615   2.837   2.876   5.715 -1.5619 -2.4602 -1.7072
 2993SOL    HW220616   2.698   2.894   5.687 -0.3509  1.6707  0.0913
 2994SOL     OW20617   2.246   3.458   0.398  0.0331  0.1682  0.4336
 2994SOL    HW120618   2.259   3.443   0.304 -0.3334  0.0150  0.4050
 2994SOL    HW220619   2.337   3.470   0.423  0.5226  0.0785 -1.2581
 2995SOL     OW20620   0.689   1.541   8.392 -0.2102  0.7789 -0.1071
 2995SOL    HW120621   0.600   1.532   8.426 -0.0479  1.0138  0.3857
 2995SOL    HW220622   0.743   1.579   8.461 -2.1933 -4.1309  4.1016
 2996SOL     OW20623   2.521   1.743   9.286  0.2765 -0.0388  0.2511
 2996SOL    HW120624   2.488   1.712   9.371  0.5585  0.4951  0.5509
 2996SOL    HW220625   2.468   1.821   9.270 -1.1638 -1.4293 -1.7883
 2997SOL     OW20626   3.170   2.382   9.362  0.0605  0.0755 -0.3676
 2997SOL    HW120627   3.257   2.416   9.340  0.9530 -2.2287 -0.3477
 2997SOL    HW220628   3.192   2.374   9.455 -0.0203  2.3069 -0.1554
 2998SOL     OW20629   3.354   3.703   1.891  0.3548  0.0928  0.2684
 2998SOL    HW120630   3.274   3.729   1.936  1.4069  1.2051  1.4629
 2998SOL    HW220631   3.381   3.786   1.852 -1.5165  0.6036  0.0549
 2999SOL     OW20632   1.898   2.809  13.616  0.4236 -0.5567  0.1143
 2999SOL    HW120633   1.874   2.896  13.583 -0.9848 -0.5932  1.0314
 2999SOL    HW220634   1.987   2.807  13.582  0.3056  1.8358 -0.3796
 3000SOL     OW20635   4.653   3.909   2.295  0.7158 -0.6783 -0.7361
 3000SOL    HW120636   0.001   3.934   2.257  1.1779 -0.3626  0.4654
 3000SOL    HW220637   4.625   3.984   2.349 -0.8563 -1.4696 -0.4660
 3001SOL     OW20638   0.886   1.382   5.866  0.1193  0.0360 -0.0732
 3001SOL    HW120639   0.866   1.475   5.880 -1.7904 -0.4885  0.6441
 3001SOL    HW220640   0.812   1.353   5.814  1.6107  0.0696 -2.2337
 3002SOL     OW20641   2.486   2.026   4.421  0.4389  0.4903 -0.0822
 3002SOL    HW120642   2.491   1.930   4.430  3.3863  0.6120 -0.4816
 3002SOL    HW220643   2.503   2.055   4.510  0.5426  0.4319 -0.0832
 3003SOL     OW20644   2.423   4.298   5.543 -0.2528 -0.0706 -0.6442
 3003SOL    HW120645   2.384   4.305   5.455 -1.5300 -2.3770 -0.2557
 3003SOL    HW220646   2.432   4.389   5.572 -2.3470 -0.3917  0.9991
 3004SOL     OW20647   0.427   2.799   3.791  0.3577 -0.2012  0.3261
 3004SOL    HW120648   0.393   2.710   3.785 -2.4840  0.9681 -1.3924
 3004SOL    HW220649   0.515   2.783   3.757 -0.5463 -1.1550 -1.5926
 3005SOL     OW20650   1.282   4.092  11.774 -0.1362  0.1672  0.6624
 3005SOL    HW120651   1.193   4.104  11.740 -0.7078 -2.9194  1.0338
 3005SOL    HW220652   1.324   4.060  11.695  0.5440  0.5071  0.8878
 3006SOL     OW20653   1.685   1.013   7.029  0.0691 -0.1888 -0.4288
 3006SOL    HW120654   1.728   0.932   7.055  1.0468  0.4600 -0.0212
 3006SOL    HW220655   1.676   1.052   7.116  1.3201 -0.2979 -0.2429
 3007SOL     OW20656   1.702   0.809   5.972 -0.2653 -0.0937  0.7478
 3007SOL    HW120657   1.712   0.897   5.936 -0.8322 -0.4821 -0.3506
 3007SOL    HW220658   1.716   0.756   5.893 -2.6114 -0.3483  0.5262
 3008SOL     OW20659   3.455   1.607   5.292  0.1830  0.1069  0.3563
 3008SOL    HW120660   3.389   1.627   5.226 -0.5485  0.3922  1.1658
 3008SOL    HW220661   3.472   1.514   5.276  2.4664  0.3540  1.3194
 3009SOL     OW20662   0.798   2.969  15.452 -0.1834  0.9315  0.4925
 3009SOL    HW120663   0.774   3.051  15.496  0.5676  0.3878  1.9341
 3009SOL    HW220664   0.837   2.927  15.528  0.8452  2.2370  0.7018
 3010SOL     OW20665   3.090   4.220  11.890  0.0598  0.2126  0.3528
 3010SOL    HW120666   3.102   4.264  11.975 -0.8740  0.5915  0.2978
 3010SOL    HW220667   2.995   4.225  11.876  0.1256 -0.2073 -0.2421
 3011SOL     OW20668   4.648   3.560   8.117  0.1669 -0.1406 -0.0634
 3011SOL    HW120669   4.600   3.524   8.042  0.5620  2.1745 -1.4221
 3011SOL    HW220670   0.002   3.569   8.085 -0.5717 -1.6269 -2.5984
 3012SOL     OW20671   2.944   3.454   9.564  0.6267  0.1232 -0.0550
 3012SOL    HW120672   2.985   3.380   9.519  1.4320  0.2308  0.4894
 3012SOL    HW220673   2.871   3.412   9.610  0.4822 -1.7068 -1.9797
 3013SOL     OW20674   4.341   1.197   0.589 -0.5088 -0.5166  0.1970
 3013SOL    HW120675   4.368   1.114   0.550  5.9152  1.1327  1.1859
 3013SOL    HW220676   4.278   1.241   0.532 -0.0055 -2.2698 -1.7534
 3014SOL     OW20677   4.148   3.747   3.416  0.9802  0.0010  0.1352
 3014SOL    HW120678   4.186   3.683   3.476 -0.2692 -0.4838  0.4148
 3014SOL    HW220679   4.152   3.714   3.326 -0.4832 -0.8190  0.3582
 3015SOL     OW20680   1.373   2.262  12.076  0.0500 -0.3028 -0.1775
 3015SOL    HW120681   1.437   2.258  12.147 -0.8841 -0.2030  0.6710
 3015SOL    HW220682   1.302   2.218  12.123 -2.3796  2.8023 -0.9864
 3016SOL     OW20683   1.467   0.669   4.185 -0.2521  0.7283  0.0226
 3016SOL    HW120684   1.422   0.621   4.254 -0.2123  3.0818  1.6749
 3016SOL    HW220685   1.408   0.744   4.179  2.0801  2.6328  1.0082
 3017SOL     OW20686   1.405   2.905   6.369  0.0610  0.0202 -0.0940
 3017SOL    HW120687   1.377   2.995   6.386  1.3254  0.7766 -1.9987
 3017SOL    HW220688   1.398   2.865   6.456 -0.5138 -1.1499 -0.6845
 3018SOL     OW20689   0.521   4.363   8.500  0.4722 -0.1819 -0.3689
 3018SOL    HW120690   0.603   4.338   8.542  1.4304  1.7410 -1.1428
 3018SOL    HW220691   0.520   4.458   8.506 -2.0020 -0.3201  1.3308
 3019SOL     OW20692   0.844   2.293   7.690  0.2937 -0.0772 -0.7472
 3019SOL    HW120693   0.865   2.213   7.643 -0.0948 -1.8894  2.1771
 3019SOL    HW220694   0.861   2.267   7.780  4.3256  0.6514 -1.2970
 3020SOL     OW20695   1.385   1.726   5.986  0.0618 -0.0780  0.0818
 3020SOL    HW120696   1.375   1.716   5.892  1.5327 -2.8588  0.2327
 3020SOL    HW220697   1.419   1.647   6.028 -1.2587 -1.8545 -2.2078
 3021SOL     OW20698   3.518   1.176  11.886 -0.1296 -0.2378 -0.5102
 3021SOL    HW120699   3.538   1.268  11.867  1.7595 -0.3947  0.7453
 3021SOL    HW220700   3.450   1.192  11.952  0.2708 -0.9364  0.0629
 3022SOL     OW20701   3.677   1.477  15.275 -0.1673  0.2242  0.4698
 3022SOL    HW120702   3.717   1.564  15.279  2.6554 -1.0581  0.1054
 3022SOL    HW220703   3.678   1.465  15.180  0.4941  0.0107  0.5029
 3023SOL     OW20704   4.716   0.354   5.693 -0.0353  0.0931 -0.4703
 3023SOL    HW120705   4.701   0.426   5.755  0.3776 -0.5348  0.3498
 3023SOL    HW220706   0.058   0.314   5.729 -0.5788 -0.2787  0.2980
 3024SOL     OW20707   4.272   1.526   0.237  0.0844 -0.2477 -0.0465
 3024SOL    HW120708   4.239   1.447   0.278  0.3049 -0.0321  0.5429
 3024SOL    HW220709   4.364   1.517   0.261 -0.2615 -0.3148  1.2448
 3025SOL     OW20710   0.948   3.512   4.163  0.2746 -0.1035 -0.4925
 3025SOL    HW120711   0.864   3.516   4.209  0.3218  0.1616 -0.4272
 3025SOL    HW220712   0.986   3.427   4.183 -1.9386 -1.1519 -0.6998
 3026SOL     OW20713   0.507   3.837   7.043 -0.1428 -0.2837 -0.1072
 3026SOL    HW120714   0.460   3.890   6.979  0.3172  0.2526 -0.0059
 3026SOL    HW220715   0.570   3.906   7.062 -0.1701 -0.2243 -0.2353
 3027SOL     OW20716   1.593   3.548   2.236 -0.4440  0.6744 -0.6479
 3027SOL    HW120717   1.554   3.611   2.175 -1.0703  0.3261 -0.6116
 3027SOL    HW220718   1.535   3.551   2.312  0.2621  0.0950 -0.0878
 3028SOL     OW20719   1.491   1.079   2.133 -0.0014  0.3731  0.6046
 3028SOL    HW120720   1.446   1.163   2.143  1.6797  1.2499  0.8397
 3028SOL    HW220721   1.515   1.057   2.223 -1.1033 -0.1220  0.7772
 3029SOL     OW20722   4.597   0.448  16.606 -0.0164  0.2393 -0.3428
 3029SOL    HW120723   4.619   0.408  16.521  2.7736 -0.7536  0.8532
 3029SOL    HW220724   4.670   0.504  16.632  0.9399 -1.1872  0.0706
 3030SOL     OW20725   3.530   2.051   4.744  0.4023 -0.0446 -0.3138
 3030SOL    HW120726   3.615   2.093   4.757 -1.3399  2.6890  2.0752
 3030SOL    HW220727   3.486   2.123   4.699  0.7510 -0.5234 -1.4288
 3031SOL     OW20728   4.590   3.202  11.751 -0.7316 -0.4102  0.0251
 3031SOL    HW120729   4.550   3.210  11.838  1.1063  1.9169  0.6572
 3031SOL    HW220730   4.529   3.233  11.684 -1.3976 -1.0870  0.3251
 3032SOL     OW20731   2.900   3.986   3.253 -0.0169 -0.3464 -0.2577
 3032SOL    HW120732   2.886   3.917   3.318 -1.2188 -0.6885 -0.8779
 3032SOL    HW220733   2.995   3.994   3.259 -0.2697  3.4713 -1.5632
 3033SOL     OW20734   2.365   1.866   2.281 -0.6149  0.3754  0.0392
 3033SOL    HW120735   2.427   1.793   2.291 -0.8169  0.4952  1.9955
 3033SOL    HW220736   2.423   1.924   2.232 -0.8575  1.3507  0.9158
 3034SOL     OW20737   4.190   0.659   7.089 -0.1470 -0.2794  0.2869
 3034SOL    HW120738   4.228   0.590   7.035 -0.6720 -1.2417  1.1758
 3034SOL    HW220739   4.188   0.611   7.171  1.4075  0.2942  0.6532
 3035SOL     OW20740   2.316   1.971   7.476  0.3068 -0.2137  0.1206
 3035SOL    HW120741   2.301   1.960   7.570 -0.6213  1.8382  0.2211
 3035SOL    HW220742   2.261   2.043   7.446  1.1493  0.4054  0.0653
 3036SOL     OW20743   2.069   1.092   7.964  0.1247 -0.3164  0.1182
 3036SOL    HW120744   2.129   1.131   8.028 -0.6936  0.9348  0.1201
 3036SOL    HW220745   2.116   1.101   7.881 -1.4735  2.6708 -0.4567
 3037SOL     OW20746   0.596   3.544   7.819 -0.0742 -0.5033 -0.3183
 3037SOL    HW120747   0.522   3.603   7.833  2.8187  2.7946  0.9281
 3037SOL    HW220748   0.644   3.547   7.902 -1.2245 -1.4793  0.3892
 3038SOL     OW20749   1.871   0.889   6.311  0.4155 -0.5385  0.0084
 3038SOL    HW120750   1.777   0.907   6.320  0.5585 -0.0763  0.5632
 3038SOL    HW220751   1.859   0.801   6.276 -3.1163 -0.4257  0.9175
 3039SOL     OW20752   4.003   1.207   6.691 -0.0243  0.1823 -0.1935
 3039SOL    HW120753   4.020   1.153   6.614  1.6402  0.5159 -0.0723
 3039SOL    HW220754   3.908   1.206   6.681 -0.0482 -0.3228  0.0697
 3040SOL     OW20755   2.138   4.231   6.138 -0.6853 -0.0737  0.3695
 3040SOL    HW120756   2.107   4.248   6.049 -0.9356 -1.6006  0.1731
 3040SOL    HW220757   2.185   4.150   6.121 -2.1115 -1.0390  1.0807
 3041SOL     OW20758   0.997   2.608   5.050  0.2747  0.2031  0.5622
 3041SOL    HW120759   0.914   2.562   5.043 -0.2164  1.1609  0.1053
 3041SOL    HW220760   1.050   2.531   5.028 -1.2576 -0.3063 -1.2971
 3042SOL     OW20761   1.470   3.625  12.366 -0.8309  0.2877  0.1044
 3042SOL    HW120762   1.416   3.555  12.330 -0.1155 -1.7050  2.8942
 3042SOL    HW220763   1.408   3.685  12.408 -0.6996 -0.5088  1.4326
 3043SOL     OW20764   2.558   0.546   4.802  0.1083 -0.2154 -0.8820
 3043SOL    HW120765   2.592   0.479   4.861 -0.1898 -0.7725 -1.3426
 3043SOL    HW220766   2.635   0.552   4.745  0.1625 -0.0897 -0.7969
 3044SOL     OW20767   4.547   2.058   1.688  0.0988  0.6952  0.0303
 3044SOL    HW120768   4.496   2.037   1.610 -0.6361 -1.5633  1.1071
 3044SOL    HW220769   4.592   2.138   1.662 -0.4007  0.7698 -0.6145
 3045SOL     OW20770   2.985   1.094  12.315 -0.2693  0.0124  0.2920
 3045SOL    HW120771   2.896   1.079  12.346  0.0635 -0.7936  0.8568
 3045SOL    HW220772   2.970   1.148  12.237 -0.4177 -0.2634  0.1281
 3046SOL     OW20773   0.079   0.295  15.064 -0.2079  0.3291 -0.4590
 3046SOL    HW120774   0.065   0.356  14.992  0.2482  0.3424 -0.5380
 3046SOL    HW220775   4.728   0.268  15.092  0.9782 -2.4756  0.5733
 3047SOL     OW20776   4.546   0.085   3.306  0.5813 -0.5182  0.0682
 3047SOL    HW120777   4.482   0.052   3.370  0.1043  2.6272  1.2268
 3047SOL    HW220778   4.573   0.167   3.346 -2.5774  0.4705  0.2163
 3048SOL     OW20779   0.148   1.073  15.927 -0.2168  0.1504  0.0674
 3048SOL    HW120780   0.207   1.087  16.001 -0.4154 -1.3755  0.5080
 3048SOL    HW220781   0.216   1.049  15.863  0.4743 -1.6968  1.4990
 3049SOL     OW20782   2.942   4.394   3.881 -0.7670  0.1979  0.3145
 3049SOL    HW120783   2.960   4.300   3.879 -0.5932  0.2211  0.8488
 3049SOL    HW220784   3.035   4.413   3.892 -0.6472 -0.1162 -0.1610
 3050SOL     OW20785   0.928   3.817   1.716  0.0545  0.2566  0.6009
 3050SOL    HW120786   0.992   3.882   1.688 -0.8664  1.0665  0.3912
 3050SOL    HW220787   0.850   3.849   1.671 -0.8177 -3.0344 -0.2177
 3051SOL     OW20788   3.240   3.088   0.653  0.1679 -0.0436 -0.0462
 3051SOL    HW120789   3.269   3.121   0.738  0.8036 -0.6170 -0.0458
 3051SOL    HW220790   3.322   3.093   0.604  0.6233 -2.4315  0.4981
 3052SOL     OW20791   3.911   4.364  11.014 -0.0972  0.4754  0.3594
 3052SOL    HW120792   3.944   4.399  11.096  2.5504 -1.1607 -0.0096
 3052SOL    HW220793   3.860   4.289  11.047 -0.5832  0.6287 -0.0468
 3053SOL     OW20794   1.011   2.411  16.118 -0.1665  0.1141 -0.0417
 3053SOL    HW120795   1.046   2.451  16.198 -1.5903  0.8457  0.2135
 3053SOL    HW220796   1.007   2.319  16.143  0.9398 -0.2240 -1.0867
 3054SOL     OW20797   0.518   3.946  16.200  0.3190  0.1895 -0.3582
 3054SOL    HW120798   0.479   3.863  16.226 -0.7593  0.6826 -0.4330
 3054SOL    HW220799   0.597   3.934  16.253  0.2201  0.0413 -0.2444
 3055SOL     OW20800   4.558   0.510  13.056 -0.4345 -0.3229  0.1987
 3055SOL    HW120801   4.611   0.447  13.007  1.2757  2.1804 -1.1311
 3055SOL    HW220802   4.592   0.595  13.029  1.4631 -0.4100  2.3278
 3056SOL     OW20803   1.757   2.834   9.474 -0.9069 -0.7039  0.1629
 3056SOL    HW120804   1.670   2.828   9.433 -0.1729  1.4243 -1.6913
 3056SOL    HW220805   1.771   2.741   9.492 -1.0110 -1.2715 -2.6650
 3057SOL     OW20806   3.681   4.145   7.790 -0.3410 -0.2860  0.6416
 3057SOL    HW120807   3.595   4.104   7.781  0.3721 -1.5600 -0.3832
 3057SOL    HW220808   3.660   4.223   7.842  0.2539  2.3811 -3.1368
 3058SOL     OW20809   2.653   0.521   4.225 -0.1661 -0.3518  0.0352
 3058SOL    HW120810   2.610   0.447   4.181 -0.3574 -0.9472  1.2160
 3058SOL    HW220811   2.624   0.514   4.316 -0.8369 -1.4742 -0.2558
 3059SOL     OW20812   4.204   3.745   7.311  0.6330  0.0129  0.0433
 3059SOL    HW120813   4.242   3.660   7.289  0.1252 -0.1660 -0.1327
 3059SOL    HW220814   4.132   3.738   7.249  2.0905  1.4815 -1.7940
 3060SOL     OW20815   1.708   2.914   8.066  0.2016 -0.1343 -0.7622
 3060SOL    HW120816   1.704   2.975   7.993 -0.5651  0.1889 -0.4554
 3060SOL    HW220817   1.700   2.977   8.137 -1.1472 -3.0156  1.6307
 3061SOL     OW20818   4.569   0.489   8.757 -0.0244  0.0041 -0.4232
 3061SOL    HW120819   4.490   0.497   8.810  0.0482 -1.0190 -0.1487
 3061SOL    HW220820   4.530   0.463   8.673  1.8573  2.9550 -2.1890
 3062SOL     OW20821   3.789   2.700   8.670 -0.0393  0.2016 -0.1299
 3062SOL    HW120822   3.868   2.744   8.638  0.6503 -2.3318 -1.8974
 3062SOL    HW220823   3.720   2.766   8.670  0.0562  0.3051  0.1376
 3063SOL     OW20824   3.757   4.708   9.290  0.0965  0.1650  0.0752
 3063SOL    HW120825   3.837   4.659   9.309  0.1137  0.1816  0.0455
 3063SOL    HW220826   3.796   0.050   9.250 -0.9595  0.0596 -1.1283
 3064SOL     OW20827   3.070   1.460  16.911 -0.2375  0.5428 -0.0720
 3064SOL    HW120828   3.145   1.516  16.894  1.1768 -0.9702  1.1684
 3064SOL    HW220829   3.099   1.435  16.999 -1.1110 -0.1475  0.0264
 3065SOL     OW20830   1.143   0.002   5.935 -0.3648  0.6023 -0.1421
 3065SOL    HW120831   1.164   4.728   5.842  2.0701 -1.3708  0.6077
 3065SOL    HW220832   1.229   4.731   5.976 -0.5836  0.8876  0.3673
 3066SOL     OW20833   2.742   1.439  15.026  0.0294 -0.2260 -0.1209
 3066SOL    HW120834   2.670   1.378  15.044 -1.6714  1.9361  0.2763
 3066SOL    HW220835   2.802   1.424  15.099  0.6578 -0.3451 -0.6631
 3067SOL     OW20836   2.378   3.163  12.606  0.5869  0.5562  0.4483
 3067SOL    HW120837   2.355   3.073  12.629  0.9785  0.5412  0.7968
 3067SOL    HW220838   2.463   3.140  12.570  0.6435 -1.1196  1.6360
 3068SOL     OW20839   2.588   2.472   5.255 -0.2280 -0.3715  0.2324
 3068SOL    HW120840   2.605   2.523   5.334 -0.0971 -1.6297  1.0111
 3068SOL    HW220841   2.564   2.536   5.188 -0.3857 -1.1253 -0.4197
 3069SOL     OW20842   1.045   0.340  14.715  0.4299 -0.0174 -0.2787
 3069SOL    HW120843   0.998   0.382  14.643  0.0043 -1.5280 -0.8769
 3069SOL    HW220844   1.054   0.252  14.677  1.6390 -0.0411  0.0516
 3070SOL     OW20845   2.921   1.177   6.672  0.8606  0.3399  0.3572
 3070SOL    HW120846   2.880   1.144   6.752  0.6716 -1.3328 -0.4265
 3070SOL    HW220847   2.973   1.103   6.641  0.1360  0.2468 -0.6332
 3071SOL     OW20848   1.096   0.347   9.695 -0.2614  0.5871 -0.3605
 3071SOL    HW120849   1.076   0.422   9.638  2.3529 -0.0242 -2.1020
 3071SOL    HW220850   1.014   0.304   9.673  0.6812 -3.0574  3.3177
 3072SOL     OW20851   3.679   1.889   2.009 -1.0960  0.1198  0.3718
 3072SOL    HW120852   3.690   1.931   1.924 -2.9083 -1.6329 -0.7479
 3072SOL    HW220853   3.597   1.931   2.035 -1.1170 -0.2314  0.8805
 3073SOL     OW20854   1.929   0.374  16.838 -0.0806  0.2440  0.0148
 3073SOL    HW120855   1.915   0.281  16.820 -0.8420  0.4762 -0.6020
 3073SOL    HW220856   1.844   0.412  16.814  0.3917  0.7720 -0.7953
 3074SOL     OW20857   4.714   3.638   8.948 -0.3481 -0.1926  0.1210
 3074SOL    HW120858   4.670   3.553   8.945  0.0831 -0.4035 -0.1996
 3074SOL    HW220859   4.636   3.688   8.921 -0.5971 -0.9455 -0.5456
 3075SOL     OW20860   1.270   1.183   4.251  0.2934  0.2012 -0.1963
 3075SOL    HW120861   1.294   1.275   4.236  0.7450 -0.0436 -1.0059
 3075SOL    HW220862   1.256   1.187   4.345 -0.5142  0.4809 -0.3292
 3076SOL     OW20863   4.025   1.826   7.046  0.3839  0.8870  0.4093
 3076SOL    HW120864   3.943   1.864   7.016  1.6836  2.4545 -1.1937
 3076SOL    HW220865   4.079   1.881   6.989 -0.9557  1.5691 -0.2111
 3077SOL     OW20866   0.580   1.292  15.417  1.0043 -0.6951  0.3353
 3077SOL    HW120867   0.562   1.385  15.430 -2.4186 -1.5179  1.3412
 3077SOL    HW220868   0.505   1.258  15.466  0.1435 -1.1781 -1.3139
 3078SOL     OW20869   2.037   4.599   2.195  0.1027 -0.6119  0.0787
 3078SOL    HW120870   2.026   4.537   2.123 -0.4799 -2.1648  1.5135
 3078SOL    HW220871   1.980   4.566   2.264  0.6255 -1.6641  0.0132
 3079SOL     OW20872   2.470   2.563   1.199  0.2274 -0.1363  0.2942
 3079SOL    HW120873   2.400   2.627   1.182  0.8262  0.0662 -1.4380
 3079SOL    HW220874   2.420   2.493   1.242 -0.6966 -0.0456 -0.6224
 3080SOL     OW20875   3.273   4.096   8.092 -0.0865  0.3306  0.0138
 3080SOL    HW120876   3.244   4.178   8.132  1.3953 -0.0646  1.8692
 3080SOL    HW220877   3.364   4.088   8.122  0.0719  1.6430 -0.1131
 3081SOL     OW20878   1.002   1.866   6.602  0.0491  0.1939 -0.3186
 3081SOL    HW120879   1.043   1.949   6.579  1.3702 -0.5456 -0.6606
 3081SOL    HW220880   0.912   1.896   6.590 -0.2992 -1.0640 -0.9441
 3082SOL     OW20881   1.628   4.187  15.815  0.5126  0.4237  0.9892
 3082SOL    HW120882   1.684   4.236  15.874  1.2571  1.3528 -0.4893
 3082SOL    HW220883   1.653   4.095  15.827 -0.9519 -0.3086 -1.5391
 3083SOL     OW20884   3.617   1.818  14.613  0.4638 -0.4891  0.2270
 3083SOL    HW120885   3.594   1.800  14.521 -0.7507  1.3843  0.1576
 3083SOL    HW220886   3.571   1.743  14.652  0.5026 -2.1461 -2.8508
 3084SOL     OW20887   3.837   3.902   3.869  0.1376  0.4226  0.1518
 3084SOL    HW120888   3.908   3.939   3.816 -1.3079 -0.2669 -2.2237
 3084SOL    HW220889   3.841   3.813   3.835 -0.1244  0.4504  0.0525
 3085SOL     OW20890   2.195   0.774  11.987 -0.5499 -0.1051  0.3822
 3085SOL    HW120891   2.181   0.779  11.893  0.3215  1.3009  0.3382
 3085SOL    HW220892   2.291   0.778  11.993 -0.3247 -3.0289 -1.3757
 3086SOL     OW20893   1.238   2.667   3.346 -0.1910  0.0014  0.4418
 3086SOL    HW120894   1.274   2.657   3.434  0.3838  2.3648  0.4752
 3086SOL    HW220895   1.198   2.580   3.341  1.6328 -0.9152  1.6940
 3087SOL     OW20896   0.306   0.712   5.861 -0.1874  0.3385  0.0525
 3087SOL    HW120897   0.281   0.619   5.863 -0.3996  0.3423 -2.0344
 3087SOL    HW220898   0.225   0.757   5.881 -0.2140  0.6588 -0.7527
 3088SOL     OW20899   0.521   0.653   9.538 -0.1307 -0.1914 -0.1695
 3088SOL    HW120900   0.454   0.630   9.473 -0.3342 -1.8389  0.6000
 3088SOL    HW220901   0.486   0.605   9.613 -1.5418 -2.7756 -2.4570
 3089SOL     OW20902   0.022   2.575   8.747 -0.8568  0.7971 -0.6645
 3089SOL    HW120903   0.035   2.481   8.758 -2.2591  0.3416 -2.7507
 3089SOL    HW220904   0.086   2.601   8.812  0.1721  0.0421 -1.3843
 3090SOL     OW20905   4.125   2.405   9.224 -0.1648  0.5597 -0.1468
 3090SOL    HW120906   4.129   2.314   9.196  2.3686 -0.7723  4.6722
 3090SOL    HW220907   4.116   2.398   9.319 -0.1892  1.3678 -0.0875
 3091SOL     OW20908   0.588   4.185   9.251 -0.3969  0.2296 -0.1390
 3091SOL    HW120909   0.585   4.209   9.158  0.4585 -0.8856 -0.4659
 3091SOL    HW220910   0.519   4.118   9.253  0.1340 -0.3317 -0.2670
 3092SOL     OW20911   3.547   2.568   4.950  0.3597  0.2260 -0.3913
 3092SOL    HW120912   3.537   2.532   5.038  1.3514 -1.6515 -1.0521
 3092SOL    HW220913   3.624   2.523   4.917  0.6437  0.3662  0.0817
 3093SOL     OW20914   4.260   4.202   7.474  0.1873 -0.7582  0.1199
 3093SOL    HW120915   4.226   4.112   7.472 -1.0246 -0.2438 -3.1439
 3093SOL    HW220916   4.184   4.259   7.468 -0.2947 -1.3657  0.3940
 3094SOL     OW20917   0.983   3.349   5.071 -0.2128  0.1174 -0.4009
 3094SOL    HW120918   1.044   3.318   5.137  0.6879  0.7608 -0.9330
 3094SOL    HW220919   0.908   3.290   5.071  0.2688 -0.5024 -1.0366
 3095SOL     OW20920   2.743   0.827  13.643  0.0089 -0.0139 -0.6631
 3095SOL    HW120921   2.784   0.746  13.673  0.5720  0.1310 -1.0397
 3095SOL    HW220922   2.655   0.824  13.681 -0.2009 -2.6905 -1.3631
 3096SOL     OW20923   2.391   3.442   7.293  0.5211  0.3547 -0.5423
 3096SOL    HW120924   2.380   3.357   7.336  0.6065  0.7733  0.3070
 3096SOL    HW220925   2.311   3.483   7.324  0.0688 -1.4299  0.6493
 3097SOL     OW20926   1.625   1.631  10.357  0.6981 -0.3109  0.4844
 3097SOL    HW120927   1.679   1.660  10.431 -0.7781  2.2254  0.5881
 3097SOL    HW220928   1.628   1.536  10.365  0.8194 -0.3696 -0.2704
 3098SOL     OW20929   1.294   3.250  15.167 -0.6993  0.1971 -0.0910
 3098SOL    HW120930   1.243   3.271  15.090  0.9650 -1.0127 -1.5180
 3098SOL    HW220931   1.252   3.311  15.228  0.2893  0.4591  0.3408
 3099SOL     OW20932   3.061   2.795   9.509 -0.0298  0.5986  0.0223
 3099SOL    HW120933   3.078   2.733   9.439 -1.2635  0.2944  0.0008
 3099SOL    HW220934   3.051   2.741   9.588 -0.2867  0.8950  0.1938
 3100SOL     OW20935   2.456   4.454   7.967  0.4083 -0.0272 -0.4917
 3100SOL    HW120936   2.491   4.368   7.989  0.4969 -0.0101 -0.5669
 3100SOL    HW220937   2.367   4.446   8.002  1.0920  0.6696  1.4072
 3101SOL     OW20938   4.657   1.819   4.573 -0.1969 -0.4966 -0.2185
 3101SOL    HW120939   4.709   1.899   4.581 -1.5510  0.3879 -0.2489
 3101SOL    HW220940   4.724   1.751   4.580  0.4066 -0.0522 -1.6031
 3102SOL     OW20941   4.654   0.658   8.466  0.6753  0.2428  0.1066
 3102SOL    HW120942   4.587   0.595   8.492  0.8883 -0.3662 -0.8180
 3102SOL    HW220943   4.666   0.727   8.531 -0.5838 -0.7256  1.3619
 3103SOL     OW20944   1.165   4.535   6.355  0.0916  0.4122 -0.0924
 3103SOL    HW120945   1.156   4.513   6.262 -0.0766  1.6241 -0.3607
 3103SOL    HW220946   1.145   4.447   6.386 -0.0804  0.5638  0.2289
 3104SOL     OW20947   3.321   0.843  12.063  0.2853 -0.1869 -0.1201
 3104SOL    HW120948   3.278   0.880  12.140  1.5415 -0.0661  0.5240
 3104SOL    HW220949   3.383   0.787  12.109  1.0097 -1.1966 -2.3114
 3105SOL     OW20950   2.382   2.427   4.602  0.2811 -0.0325 -0.0109
 3105SOL    HW120951   2.310   2.364   4.599 -2.3140  2.9237 -0.7015
 3105SOL    HW220952   2.431   2.391   4.676 -0.1508  2.3293  1.4392
 3106SOL     OW20953   1.636   0.285  13.241 -0.6222  0.2293  0.4219
 3106SOL    HW120954   1.632   0.374  13.276  3.8836  0.3898  0.5173
 3106SOL    HW220955   1.649   0.231  13.319 -1.3286  0.8780  0.9999
 3107SOL     OW20956   3.639   2.186  10.645  0.1065 -0.5150 -0.1624
 3107SOL    HW120957   3.691   2.246  10.697 -0.2976  1.5249 -2.1179
 3107SOL    HW220958   3.635   2.110  10.704 -1.3531  0.7615  1.4000
 3108SOL     OW20959   4.510   2.637   0.147 -0.2076 -0.2192  0.1717
 3108SOL    HW120960   4.569   2.667   0.216 -1.2813 -0.2002  1.0898
 3108SOL    HW220961   4.538   2.546   0.143  0.0029 -0.1061 -0.8048
 3109SOL     OW20962   0.889   4.507   3.999 -0.5486  0.0463  0.2449
 3109SOL    HW120963   0.965   4.449   3.993 -0.3081  0.2527  1.3483
 3109SOL    HW220964   0.836   4.465   4.067  1.1314 -3.2756 -0.5092
 3110SOL     OW20965   1.535   1.151   9.336 -0.2363 -0.5307  0.3801
 3110SOL    HW120966   1.478   1.108   9.399  1.2236 -1.2437  1.2181
 3110SOL    HW220967   1.479   1.130   9.261 -2.4285  0.3222  1.7867
 3111SOL     OW20968   0.285   0.264   0.390  0.0643  0.2105  0.2399
 3111SOL    HW120969   0.196   0.261   0.354 -0.3652 -0.5529  1.3613
 3111SOL    HW220970   0.302   0.357   0.405  1.6454 -0.1539  0.6732
 3112SOL     OW20971   3.366   1.068   3.483 -0.3222  0.6167  0.0231
 3112SOL    HW120972   3.274   1.079   3.510 -0.4743  1.7266 -0.9314
 3112SOL    HW220973   3.376   0.973   3.486 -0.0474  0.6521  0.1680
 3113SOL     OW20974   2.344   4.687   6.616  0.0778 -0.2607  0.1579
 3113SOL    HW120975   2.313   4.682   6.525 -1.5020  1.1611  0.6175
 3113SOL    HW220976   2.372   0.042   6.618  2.8728 -1.1101  0.0175
 3114SOL     OW20977   1.450   3.790   0.001  0.1941  0.4387  0.1721
 3114SOL    HW120978   1.426   3.867  17.693 -0.6574 -0.0679 -0.1839
 3114SOL    HW220979   1.533   3.819   0.039  0.2383 -1.1464  1.2502
 3115SOL     OW20980   4.353   3.110   2.037  0.1708 -0.3324 -0.1648
 3115SOL    HW120981   4.268   3.146   2.015  0.8921  1.7079  0.4084
 3115SOL    HW220982   4.383   3.097   1.947 -1.0123 -0.1319 -0.5866
 3116SOL     OW20983   2.189   4.060   9.992 -0.2074  0.0922  0.2745
 3116SOL    HW120984   2.270   4.009   9.997 -0.1922  0.1426  0.5836
 3116SOL    HW220985   2.189   4.101   9.906  0.5822 -1.3876 -0.4339
 3117SOL     OW20986   4.097   2.145   7.018 -0.7232  0.3724 -0.2841
 3117SOL    HW120987   4.025   2.208   7.010 -1.1975  0.0449  1.2822
 3117SOL    HW220988   4.099   2.138   7.114 -1.4502  3.7078 -0.0241
 3118SOL     OW20989   4.232   2.185  13.169  0.5423 -0.0324  0.2515
 3118SOL    HW120990   4.188   2.208  13.087 -1.1157 -1.5357  0.7189
 3118SOL    HW220991   4.234   2.270  13.214  0.5538  1.0687 -1.8157
 3119SOL     OW20992   3.371   1.897   2.955  0.2944 -0.2971 -0.0255
 3119SOL    HW120993   3.464   1.890   2.976 -0.5476 -1.8882  3.2924
 3119SOL    HW220994   3.335   1.835   3.018  0.1604 -0.2467 -0.0534
 3120SOL     OW20995   4.704   1.152  14.349  0.8101  0.0786 -0.3230
 3120SOL    HW120996   0.048   1.110  14.316 -0.0388 -1.4700 -0.3810
 3120SOL    HW220997   4.643   1.111  14.288 -2.8016 -0.4492  3.6413
 3121SOL     OW20998   2.423   2.134  14.772  0.2972  1.1335  0.2911
 3121SOL    HW120999   2.518   2.146  14.761  0.3709  0.8403  0.5792
 3121SOL    HW221000   2.388   2.213  14.732 -1.6755  0.1394  0.0598
 3122SOL     OW21001   0.173   0.817   6.477 -0.2133  0.2490 -0.4862
 3122SOL    HW121002   0.117   0.743   6.500  0.0888 -0.2431 -1.3209
 3122SOL    HW221003   0.263   0.784   6.480  0.0793  1.2553  1.4322
 3123SOL     OW21004   0.113   2.108  11.313  0.1327  0.0206 -0.3458
 3123SOL    HW121005   0.052   2.044  11.277 -0.8625  0.4603  0.5761
 3123SOL    HW221006   0.047   2.173  11.339 -0.5635  1.0556 -4.5812
 3124SOL     OW21007   2.613   4.224   8.011 -0.1245 -0.1018  0.7170
 3124SOL    HW121008   2.699   4.188   8.031  0.1770 -0.5443 -1.4865
 3124SOL    HW221009   2.564   4.145   8.036  0.3356 -0.5459  0.2175
 3125SOL     OW21010   0.728   1.597  15.596 -0.2429 -0.3759  0.1883
 3125SOL    HW121011   0.699   1.614  15.506 -0.6474  1.3512  0.6529
 3125SOL    HW221012   0.809   1.646  15.608 -0.5123 -0.2909  1.6743
 3126SOL     OW21013   1.329   3.564   3.400  0.6306  0.1806  0.3650
 3126SOL    HW121014   1.381   3.571   3.480  0.0389  3.8540  0.4036
 3126SOL    HW221015   1.380   3.496   3.355  0.7848 -0.0164  0.8430
 3127SOL     OW21016   3.580   2.325   8.457 -0.4364  0.1618  0.0438
 3127SOL    HW121017   3.659   2.379   8.453  0.1202 -0.8335 -2.7737
 3127SOL    HW221018   3.534   2.398   8.417 -0.8378  0.8097  1.7250
 3128SOL     OW21019   0.365   1.925  15.838 -0.2830  0.2408 -0.3285
 3128SOL    HW121020   0.378   1.876  15.757  0.0543 -0.4428  0.1385
 3128SOL    HW221021   0.332   2.009  15.807 -1.9634  0.6360  2.4687
 3129SOL     OW21022   2.253   4.236   1.736 -0.3708  0.1252  0.1939
 3129SOL    HW121023   2.235   4.150   1.698 -2.7836  1.2816 -1.3409
 3129SOL    HW221024   2.166   4.257   1.769 -0.2218  0.3079  0.4672
 3130SOL     OW21025   2.465   4.719  13.629  0.0000  0.1836 -0.0674
 3130SOL    HW121026   2.379   4.725  13.670 -0.5446  1.6912 -1.4504
 3130SOL    HW221027   2.443   4.641  13.578  0.3406  0.2688 -0.3438
 3131SOL     OW21028   1.170   4.280   7.459  0.5922  0.0500  0.3197
 3131SOL    HW121029   1.258   4.242   7.450 -0.1661 -0.8981 -3.0012
 3131SOL    HW221030   1.175   4.360   7.407 -1.8091 -0.9184 -1.4016
 3132SOL     OW21031   2.427   1.852   5.380  0.2100  0.2362  0.2752
 3132SOL    HW121032   2.518   1.865   5.406  1.0300  0.2538 -2.5272
 3132SOL    HW221033   2.379   1.829   5.460 -0.9276 -0.4847 -0.6053
 3133SOL     OW21034   0.741   1.329   1.070 -0.5759  0.0631 -0.1954
 3133SOL    HW121035   0.740   1.249   1.018  1.2216 -0.9716  1.3815
 3133SOL    HW221036   0.728   1.387   0.994  1.4908 -1.2433 -1.5467
 3134SOL     OW21037   3.111   1.357   4.825 -0.2883 -0.1284 -0.5129
 3134SOL    HW121038   3.035   1.368   4.768 -0.1693  3.0145 -0.0598
 3134SOL    HW221039   3.159   1.435   4.796 -1.0531 -0.0689 -1.6302
 3135SOL     OW21040   4.662   0.300   4.577  0.9127 -0.1923 -0.5926
 3135SOL    HW121041   4.709   0.217   4.570  1.1654 -0.0414 -0.6553
 3135SOL    HW221042   4.569   0.276   4.575  0.6944  0.6659 -0.5994
 3136SOL     OW21043   2.907   4.725   3.505 -0.0337 -0.3659 -0.2173
 3136SOL    HW121044   2.902   4.656   3.438 -0.6833 -1.6315  1.1236
 3136SOL    HW221045   2.909   4.674   3.586 -2.9817  3.7790  2.4706
 3137SOL     OW21046   1.423   2.432   1.294 -0.1036  0.5903 -0.4380
 3137SOL    HW121047   1.389   2.417   1.382 -0.2365 -0.2476 -0.6285
 3137SOL    HW221048   1.458   2.521   1.298 -1.2300  1.1391 -2.8296
 3138SOL     OW21049   4.275   2.306  12.304 -0.2963  0.0029  0.0703
 3138SOL    HW121050   4.306   2.324  12.393 -0.7342 -0.6609  0.3592
 3138SOL    HW221051   4.257   2.398  12.282  0.2534 -0.1610 -1.0660
 3139SOL     OW21052   1.719   1.959   1.696 -0.2825 -0.0248  0.5719
 3139SOL    HW121053   1.744   1.888   1.756  0.5810 -1.6731 -1.7176
 3139SOL    HW221054   1.790   2.021   1.711 -1.6239  1.9702 -1.3239
 3140SOL     OW21055   0.720   3.813  17.705 -0.3155 -0.1931 -0.1571
 3140SOL    HW121056   0.727   3.718  17.701  0.0777 -0.2131  1.0184
 3140SOL    HW221057   0.813   3.835  17.714 -0.6524  0.1935  2.1757
 3141SOL     OW21058   3.879   1.820  14.345 -0.1109 -0.1391 -0.7247
 3141SOL    HW121059   3.858   1.733  14.378  1.3532 -0.5180 -0.7665
 3141SOL    HW221060   3.815   1.827  14.274 -1.4761  1.0245  0.6161
 3142SOL     OW21061   2.946   3.817   3.855 -0.1866  0.1094 -0.0253
 3142SOL    HW121062   3.013   3.805   3.787  1.1808  1.9842  0.9738
 3142SOL    HW221063   2.975   3.747   3.913 -0.6770 -1.1171 -1.2550
 3143SOL     OW21064   1.993   4.319  11.338 -0.8844 -0.0196 -0.0461
 3143SOL    HW121065   1.959   4.408  11.350  2.0307  1.0475  0.1612
 3143SOL    HW221066   1.935   4.268  11.395 -0.1106  0.2097  0.9360
 3144SOL     OW21067   3.365   1.135  15.436 -0.4231 -0.6504 -0.0966
 3144SOL    HW121068   3.375   1.099  15.524 -1.1610  1.1519  0.7235
 3144SOL    HW221069   3.423   1.081  15.383  1.3498  2.1635 -0.9815
 3145SOL     OW21070   0.201   0.243   7.354  0.0547  0.6455  0.0129
 3145SOL    HW121071   0.176   0.328   7.390  1.0102  0.2479  1.6263
 3145SOL    HW221072   0.174   0.257   7.263 -2.3879  1.6420  0.8860
 3146SOL     OW21073   1.464   0.300  13.593  0.1995 -0.4103 -0.3576
 3146SOL    HW121074   1.451   0.338  13.507  1.1458  1.7302  0.4479
 3146SOL    HW221075   1.419   0.365  13.646 -1.7202 -0.3988 -2.0001
 3147SOL     OW21076   2.355   2.906   3.411 -0.1237 -0.3125 -0.2181
 3147SOL    HW121077   2.319   2.973   3.469  1.6710 -0.3075  0.8812
 3147SOL    HW221078   2.439   2.948   3.395  0.5180 -2.1806 -1.8244
 3148SOL     OW21079   0.430   0.114   7.408 -0.3007 -0.1814 -0.1484
 3148SOL    HW121080   0.399   0.071   7.487  0.9778 -2.0777 -0.6437
 3148SOL    HW221081   0.350   0.164   7.391 -0.6548 -0.0826  1.8728
 3149SOL     OW21082   3.146   0.771  11.283 -0.1338 -0.0433  0.3609
 3149SOL    HW121083   3.228   0.741  11.244  0.3302 -0.1172  1.4007
 3149SOL    HW221084   3.082   0.724  11.230  1.0480  1.7926 -2.6879
 3150SOL     OW21085   0.060   0.850  11.862  0.2668  0.2089 -0.2268
 3150SOL    HW121086   4.728   0.915  11.877  1.5247  1.3482  0.5931
 3150SOL    HW221087   0.134   0.909  11.845  1.6467 -1.2287  0.7148
 3151SOL     OW21088   2.220   1.597  13.534 -0.1710 -0.6327  0.9134
 3151SOL    HW121089   2.254   1.521  13.488  1.9825  0.1143  1.2565
 3151SOL    HW221090   2.300   1.645  13.555  0.6181 -2.2365  1.4967
 3152SOL     OW21091   3.192   1.532   4.058  0.6803  0.1324 -0.1844
 3152SOL    HW121092   3.230   1.472   4.122  1.3829  0.8345  0.0510
 3152SOL    HW221093   3.178   1.472   3.985  0.7187 -0.5795  0.3921
 3153SOL     OW21094   4.695   4.651   7.250 -0.1223 -0.3476 -0.1917
 3153SOL    HW121095   4.669   4.672   7.340  0.7773 -2.0890  0.4803
 3153SOL    HW221096   4.615   4.641   7.197  0.1007 -1.3295 -0.3396
 3154SOL     OW21097   1.363   0.567   1.263  0.6728 -0.5258 -0.2620
 3154SOL    HW121098   1.285   0.579   1.317 -0.0342 -1.1579 -1.1380
 3154SOL    HW221099   1.384   0.651   1.221  0.2397  0.0125  0.6191
 3155SOL     OW21100   1.804   3.641   6.114 -0.1823  0.0553  0.3566
 3155SOL    HW121101   1.780   3.716   6.168 -1.7641 -0.1148 -0.1096
 3155SOL    HW221102   1.752   3.571   6.153 -2.6727  1.9205  0.3832
 3156SOL     OW21103   2.297   1.800   2.807 -0.0230  0.0093 -0.4184
 3156SOL    HW121104   2.340   1.724   2.767 -0.8462  0.6665 -2.5432
 3156SOL    HW221105   2.351   1.873   2.777 -0.7095  1.7039  2.5211
 3157SOL     OW21106   2.728   3.155  16.527 -0.0616 -0.2505 -0.0958
 3157SOL    HW121107   2.777   3.074  16.510 -0.3997 -0.6234  0.7148
 3157SOL    HW221108   2.643   3.129  16.491  0.9726 -2.7959 -0.6951
 3158SOL     OW21109   0.615   1.906   9.152  0.4648 -0.2832 -0.0731
 3158SOL    HW121110   0.688   1.897   9.090 -1.1471 -0.9919 -1.8894
 3158SOL    HW221111   0.540   1.876   9.101 -1.1298 -0.0442  2.1641
 3159SOL     OW21112   2.818   3.372   1.708 -0.0157 -0.0198  0.3530
 3159SOL    HW121113   2.834   3.442   1.644  0.2315  1.5592  2.1388
 3159SOL    HW221114   2.726   3.353   1.689  0.2333  0.0606 -0.9204
 3160SOL     OW21115   4.518   2.728   7.401  0.1811  0.1667 -0.5339
 3160SOL    HW121116   4.441   2.785   7.396  1.3633  1.6045 -2.4303
 3160SOL    HW221117   4.492   2.692   7.486  0.7411  0.4364 -0.2513
 3161SOL     OW21118   4.466   2.014   9.454 -0.2998 -0.3440 -0.4233
 3161SOL    HW121119   4.558   1.998   9.430  0.3311  0.6155  1.4089
 3161SOL    HW221120   4.421   1.936   9.422 -1.7627  0.1576  0.4378
 3162SOL     OW21121   3.835   4.653   6.926 -0.2913 -0.0907  0.0002
 3162SOL    HW121122   3.789   4.694   7.000 -1.1722  0.8389 -1.0583
 3162SOL    HW221123   3.779   4.576   6.912  1.1289 -1.2810  0.8789
 3163SOL     OW21124   2.332   4.014   3.202 -0.4742 -0.0206  0.2682
 3163SOL    HW121125   2.375   4.056   3.277  2.3542 -0.1667 -1.2810
 3163SOL    HW221126   2.404   3.971   3.156 -1.3819 -1.0140 -0.2294
 3164SOL     OW21127   4.452   4.544   8.829  0.2988  0.0146  0.1354
 3164SOL    HW121128   4.378   4.605   8.827  1.1041  0.9517 -1.4923
 3164SOL    HW221129   4.427   4.475   8.767 -0.4848 -0.0451  0.5088
 3165SOL     OW21130   2.187   4.068   2.126  0.4378  0.3735 -0.2143
 3165SOL    HW121131   2.127   4.086   2.053  1.8550 -0.5946 -1.6391
 3165SOL    HW221132   2.129   4.045   2.198  1.9384 -0.5645  0.6854
 3166SOL     OW21133   1.144   2.307   7.811  0.5703 -1.1197 -0.4561
 3166SOL    HW121134   1.113   2.395   7.834 -2.5096 -1.9082 -1.5936
 3166SOL    HW221135   1.163   2.261   7.892 -1.0851 -0.1757  0.4660
 3167SOL     OW21136   4.600   3.359   7.722  0.6494 -0.7316  0.2339
 3167SOL    HW121137   4.640   3.418   7.659 -1.0368  0.5493  0.3681
 3167SOL    HW221138   4.622   3.271   7.690 -2.6435 -1.1460 -0.8973
 3168SOL     OW21139   0.273   1.199   2.351  0.1055 -0.0841 -0.7198
 3168SOL    HW121140   0.345   1.161   2.300 -0.1424 -0.6540 -0.6477
 3168SOL    HW221141   0.275   1.292   2.329  1.5153 -0.0742 -0.6042
 3169SOL     OW21142   3.056   2.620   2.828 -0.2271  0.4166  0.3493
 3169SOL    HW121143   3.036   2.692   2.887 -1.3875 -1.4186  2.1920
 3169SOL    HW221144   3.036   2.546   2.885 -2.3230  1.7036  1.2930
 3170SOL     OW21145   0.100   1.284  10.654 -0.4704 -0.4272  0.4518
 3170SOL    HW121146   0.142   1.223  10.593  0.9037  1.0865 -0.1237
 3170SOL    HW221147   0.039   1.324  10.593 -0.8301 -0.1178  1.0139
 3171SOL     OW21148   4.176   0.350   5.385 -0.0024 -0.3769 -0.0507
 3171SOL    HW121149   4.108   0.308   5.334 -0.2788 -0.4395  0.3691
 3171SOL    HW221150   4.239   0.364   5.314 -0.7161  0.0423 -0.5966
 3172SOL     OW21151   0.033   3.643   5.307 -0.0419 -0.3196  0.6421
 3172SOL    HW121152   0.032   3.586   5.230  0.6668  1.2826 -0.5398
 3172SOL    HW221153   0.053   3.578   5.374 -1.8178 -1.5628 -0.0283
 3173SOL     OW21154   3.407   3.523   5.119  0.5585 -0.2565 -0.3815
 3173SOL    HW121155   3.460   3.500   5.196 -0.5294 -2.1196 -0.1872
 3173SOL    HW221156   3.335   3.460   5.120  0.9916 -0.7627 -0.9817
 3174SOL     OW21157   1.718   2.850   3.237 -0.2517 -0.2004 -0.2540
 3174SOL    HW121158   1.638   2.875   3.191  0.1829 -0.8471 -1.3466
 3174SOL    HW221159   1.790   2.891   3.189  0.1870  1.7131  2.0490
 3175SOL     OW21160   0.641   2.196  14.226  0.3224 -0.3080 -0.4166
 3175SOL    HW121161   0.675   2.285  14.226  0.5790 -0.4029  0.7031
 3175SOL    HW221162   0.721   2.151  14.254  1.0416  2.4767  1.9514
 3176SOL     OW21163   4.401   1.555  12.897 -0.3843  0.1418 -0.8525
 3176SOL    HW121164   4.457   1.487  12.936 -1.1409 -0.4481 -0.7939
 3176SOL    HW221165   4.314   1.520  12.915  0.8287 -1.8403  1.1226
 3177SOL     OW21166   1.863   1.734   3.747 -0.3091 -0.5118 -0.5635
 3177SOL    HW121167   1.774   1.701   3.749 -0.0243 -1.2010  0.7553
 3177SOL    HW221168   1.911   1.653   3.766 -0.4802 -0.4561  0.0887
 3178SOL     OW21169   2.027   4.368   9.921  0.0625  0.2645  0.5460
 3178SOL    HW121170   2.007   4.458   9.895  1.4630  0.4005 -0.1028
 3178SOL    HW221171   2.004   4.371  10.013  0.2007  1.3133  0.5530
 3179SOL     OW21172   0.440   4.380   0.412  0.1065 -0.5013 -0.1291
 3179SOL    HW121173   0.387   4.448   0.454 -0.0504 -1.4591  1.2358
 3179SOL    HW221174   0.371   4.314   0.410 -1.7488  1.4443 -0.2988
 3180SOL     OW21175   4.107   0.989   1.896  1.0661  0.1373 -0.2765
 3180SOL    HW121176   4.086   0.984   1.803 -0.9412 -2.0690  0.2727
 3180SOL    HW221177   4.135   1.078   1.914 -2.5401  0.8596  1.8454
 3181SOL     OW21178   3.535   1.672   1.812  0.4060 -0.5394 -1.1723
 3181SOL    HW121179   3.539   1.759   1.773  1.8015  0.6103  1.6034
 3181SOL    HW221180   3.448   1.671   1.853 -0.0497 -0.7095 -2.1324
 3182SOL     OW21181   3.671   4.218  17.361  0.1196 -0.2348  0.0890
 3182SOL    HW121182   3.581   4.228  17.330  0.3442  1.3718 -0.0778
 3182SOL    HW221183   3.713   4.250  17.281  0.1958 -1.4547 -0.3609
 3183SOL     OW21184   1.640   3.761   7.823 -0.2205  0.0301  0.2470
 3183SOL    HW121185   1.700   3.774   7.896 -1.6681 -0.8866  1.5965
 3183SOL    HW221186   1.631   3.851   7.793 -0.9403 -0.6309 -1.5093
 3184SOL     OW21187   3.358   2.846   4.072 -0.0692  0.0633  0.4840
 3184SOL    HW121188   3.407   2.794   4.008 -2.7342  0.4338 -1.8529
 3184SOL    HW221189   3.269   2.831   4.039  1.3545 -1.4862 -2.7242
 3185SOL     OW21190   1.876   3.872   2.952  0.2572  0.0918 -0.0996
 3185SOL    HW121191   1.863   3.966   2.959  3.1303  0.5189 -0.2623
 3185SOL    HW221192   1.836   3.841   3.033  1.6523 -1.1521  0.1094
 3186SOL     OW21193   0.422   1.990   6.328  0.2417 -0.3628 -0.1640
 3186SOL    HW121194   0.420   1.945   6.412  2.1181  3.7867  2.1190
 3186SOL    HW221195   0.516   2.010   6.333  0.0703  0.0481  1.2692
 3187SOL     OW21196   2.793   1.936   0.386 -0.4184 -0.1064  0.5089
 3187SOL    HW121197   2.884   1.910   0.396  0.7751  2.0798 -4.2198
 3187SOL    HW221198   2.743   1.855   0.392  0.9866 -0.9702  0.5664
 3188SOL     OW21199   1.614   1.482   7.524  0.2676 -0.1091  0.3899
 3188SOL    HW121200   1.542   1.454   7.467 -1.0310  2.3627  0.7885
 3188SOL    HW221201   1.680   1.483   7.455 -0.4775 -3.5203 -0.3478
 3189SOL     OW21202   1.333   1.909   2.935  0.5916  0.4927 -0.4593
 3189SOL    HW121203   1.273   1.984   2.938 -0.8749 -0.6337 -1.9062
 3189SOL    HW221204   1.329   1.880   3.025  0.0231 -0.7396 -0.8917
 3190SOL     OW21205   2.613   2.406   7.087 -0.1483  0.2236 -0.0667
 3190SOL    HW121206   2.570   2.472   7.032  2.3218  3.8829  2.4326
 3190SOL    HW221207   2.625   2.341   7.018 -0.6849 -1.7677  1.7357
 3191SOL     OW21208   3.827   3.629   2.936 -0.4370 -0.6199 -0.1374
 3191SOL    HW121209   3.752   3.573   2.914 -1.3875  0.1283  1.2177
 3191SOL    HW221210   3.841   3.656   2.845 -0.4715  0.2516  0.1143
 3192SOL     OW21211   2.508   0.498  15.513 -0.1690  0.0273 -0.7477
 3192SOL    HW121212   2.486   0.584  15.547  1.5426 -0.4872  1.6191
 3192SOL    HW221213   2.522   0.445  15.591 -1.0927  0.0499 -0.5676
 3193SOL     OW21214   2.880   0.786   1.398 -1.0556  0.1173 -0.1925
 3193SOL    HW121215   2.956   0.837   1.429 -1.7232  0.3867  0.9810
 3193SOL    HW221216   2.924   0.743   1.325 -1.3176  1.0070 -0.8791
 3194SOL     OW21217   0.676   1.923   6.644  0.0959 -0.5480  0.0606
 3194SOL    HW121218   0.704   1.947   6.732  1.2216 -0.0375 -0.4277
 3194SOL    HW221219   0.660   2.015   6.622  1.8119  0.0272  1.1501
 3195SOL     OW21220   4.354   2.457  14.861 -0.5894 -0.0262  0.1443
 3195SOL    HW121221   4.423   2.435  14.798  0.0644  1.0887  0.4540
 3195SOL    HW221222   4.282   2.412  14.819 -1.9971  0.7071  1.7655
 3196SOL     OW21223   2.658   0.014   1.705  0.1483  0.3826 -0.1118
 3196SOL    HW121224   2.701   4.716   1.627 -1.0170 -0.0775 -0.5477
 3196SOL    HW221225   2.650   4.663   1.746 -1.7927 -0.1892 -1.6875
 3197SOL     OW21226   0.889   3.177   3.046  0.1000 -0.3948 -0.7039
 3197SOL    HW121227   0.862   3.089   3.018 -0.1215 -0.4234 -0.3995
 3197SOL    HW221228   0.929   3.165   3.132 -1.4734  1.1595  0.2433
 3198SOL     OW21229   1.280   3.979   8.376 -0.3423  0.1434 -0.2414
 3198SOL    HW121230   1.206   3.994   8.435 -1.0093 -0.3894 -0.9380
 3198SOL    HW221231   1.343   4.010   8.441 -1.3595  1.4462  0.1122
 3199SOL     OW21232   3.088   1.872   4.350 -0.0636 -0.2827  0.5149
 3199SOL    HW121233   3.059   1.963   4.361  0.0446 -0.3783  1.5868
 3199SOL    HW221234   3.072   1.872   4.256  0.4575 -2.6244  0.4234
 3200SOL     OW21235   1.083   3.939   8.792  0.1727  0.4845 -0.2662
 3200SOL    HW121236   0.994   3.912   8.768 -0.0189  1.0542 -0.1964
 3200SOL    HW221237   1.093   4.016   8.736  0.7518 -1.3214 -2.6756
 3201SOL     OW21238   1.558   3.227   1.657  0.0633 -0.3992 -0.4802
 3201SOL    HW121239   1.623   3.181   1.604 -0.0551 -2.5720  1.2450
 3201SOL    HW221240   1.491   3.158   1.659 -1.4272  1.1070  1.2818
 3202SOL     OW21241   2.234   1.573  12.439 -0.1868  0.4064  0.5157
 3202SOL    HW121242   2.313   1.524  12.462 -0.4268 -1.2000 -2.1589
 3202SOL    HW221243   2.260   1.658  12.475  1.8831 -0.0190  0.0305
 3203SOL     OW21244   1.164   2.798   7.715 -0.5075 -0.0639  0.1312
 3203SOL    HW121245   1.087   2.746   7.692 -1.1716  1.5401 -1.2613
 3203SOL    HW221246   1.216   2.784   7.635  1.2878 -0.6343  1.3910
 3204SOL     OW21247   0.659   3.692   1.831 -0.2069  0.2624 -0.0284
 3204SOL    HW121248   0.681   3.705   1.923 -2.6754 -4.8804  1.2806
 3204SOL    HW221249   0.738   3.728   1.792  0.3586 -0.6509  0.2733
 3205SOL     OW21250   0.263   3.038   5.717 -0.2519  0.2817  0.5028
 3205SOL    HW121251   0.330   2.980   5.681  0.1401 -0.1049  1.8712
 3205SOL    HW221252   0.265   3.026   5.811  2.2465  1.0375  0.5464
 3206SOL     OW21253   0.061   4.456   6.226  0.0125  0.6172  0.1157
 3206SOL    HW121254   0.044   4.505   6.146 -3.4603  0.5084  0.7716
 3206SOL    HW221255   0.062   4.527   6.290  0.2034  2.1818 -1.6176
 3207SOL     OW21256   1.904   1.177   7.006 -0.6408  0.5823 -0.1330
 3207SOL    HW121257   1.824   1.125   7.000  0.2377 -0.8336  0.4392
 3207SOL    HW221258   1.971   1.109   7.014  0.3311  1.7418  1.4409
 3208SOL     OW21259   4.482   4.653   4.028  0.6041 -0.0347  0.1113
 3208SOL    HW121260   4.513   4.666   4.118 -1.2514 -3.4668  1.2615
 3208SOL    HW221261   4.387   4.657   4.042  0.1949 -2.1705 -2.0941
 3209SOL     OW21262   2.088   0.969   6.135  0.9129 -0.2491  0.3707
 3209SOL    HW121263   2.036   0.981   6.056  0.6297  1.4908  0.8335
 3209SOL    HW221264   2.018   0.947   6.197  0.1425  0.3187 -0.3110
 3210SOL     OW21265   3.636   3.627   1.608 -0.0126 -0.0818 -0.2114
 3210SOL    HW121266   3.556   3.585   1.640  0.8555 -0.5644  1.3219
 3210SOL    HW221267   3.639   3.608   1.514 -3.3737  2.6296 -0.8664
 3211SOL     OW21268   4.181   1.936   8.649  0.0187  0.1285 -0.3210
 3211SOL    HW121269   4.251   1.932   8.585 -0.5112  1.9443 -1.0210
 3211SOL    HW221270   4.120   1.989   8.597  1.8143  1.0647 -1.4610
 3212SOL     OW21271   1.369   1.780   3.604 -0.6704 -0.1034  0.0950
 3212SOL    HW121272   1.424   1.845   3.560  0.5739 -1.2184  0.0006
 3212SOL    HW221273   1.402   1.710   3.547 -1.2838 -0.1291 -0.2317
 3213SOL     OW21274   1.531   1.542  13.295  0.5172 -0.2672  0.0591
 3213SOL    HW121275   1.554   1.509  13.382  0.7502 -1.0398 -0.2949
 3213SOL    HW221276   1.587   1.620  13.297  1.4478 -0.9539  1.4111
 3214SOL     OW21277   3.789   3.476   2.136  0.2235  0.1450  0.0948
 3214SOL    HW121278   3.724   3.531   2.092  0.6315  0.9861  0.5381
 3214SOL    HW221279   3.861   3.536   2.155  0.1436 -0.0627  1.0195
 3215SOL     OW21280   3.762   2.165   4.771 -0.0441 -0.2186  0.3381
 3215SOL    HW121281   3.820   2.223   4.723 -0.8837 -0.8887 -1.4647
 3215SOL    HW221282   3.753   2.222   4.847 -0.8100 -1.4940  1.2127
 3216SOL     OW21283   0.198   3.763   8.120 -0.3408 -0.7233 -0.5672
 3216SOL    HW121284   0.202   3.738   8.212  3.2406  3.4492  0.4197
 3216SOL    HW221285   0.158   3.849   8.135  0.4044 -0.6769  1.1439
 3217SOL     OW21286   1.203   3.079   7.876  0.6107  0.1964 -0.4633
 3217SOL    HW121287   1.109   3.089   7.891  0.6984 -1.1019  0.8996
 3217SOL    HW221288   1.232   3.028   7.951 -0.6695  0.4553  0.2243
 3218SOL     OW21289   1.298   1.554   3.309 -0.2827  0.6454 -0.1789
 3218SOL    HW121290   1.222   1.510   3.346  0.4961 -1.6594 -1.3326
 3218SOL    HW221291   1.353   1.578   3.383  0.9139 -0.2037 -0.7914
 3219SOL     OW21292   0.029   1.016   9.312  0.6264 -0.2112  0.3543
 3219SOL    HW121293   0.080   0.992   9.236  0.5182  1.1741 -0.1575
 3219SOL    HW221294   0.099   0.998   9.374  0.2413  0.6108  1.0305
 3220SOL     OW21295   3.378   2.997   3.673 -0.3379 -0.5591  0.2202
 3220SOL    HW121296   3.403   3.045   3.595  0.1682 -0.4010  0.4775
 3220SOL    HW221297   3.424   2.913   3.668  0.4985 -0.1920  1.6813
 3221SOL     OW21298   1.021   1.677  13.028  0.5925  0.7579  0.0460
 3221SOL    HW121299   1.063   1.750  13.072  0.6553  2.1301 -2.2700
 3221SOL    HW221300   0.929   1.702  13.040  1.0699  2.1427  0.8002
 3222SOL     OW21301   2.077   2.011   6.448  0.0138  0.1611 -0.3476
 3222SOL    HW121302   1.985   2.014   6.476  0.3746  1.6850  0.6565
 3222SOL    HW221303   2.058   2.046   6.361 -0.3664  1.4691  0.2602
 3223SOL     OW21304   4.623   0.664   3.896 -0.0904 -0.2148 -0.4787
 3223SOL    HW121305   4.660   0.620   3.972 -0.5391  0.2817  0.0300
 3223SOL    HW221306   4.627   0.603   3.822  1.0738  0.8492 -1.3005
 3224SOL     OW21307   1.264   2.075   2.660  0.4848  0.3114  0.0233
 3224SOL    HW121308   1.252   1.981   2.646 -0.7437  0.5160 -0.3219
 3224SOL    HW221309   1.337   2.068   2.722 -1.2135  0.7929  2.0977
 3225SOL     OW21310   0.197   1.899   2.032  0.1106  0.3858  0.2780
 3225SOL    HW121311   0.105   1.873   2.024  0.2231  0.0706  0.0103
 3225SOL    HW221312   0.198   1.932   2.122 -1.3212 -1.7539  1.0874
 3226SOL     OW21313   4.023   4.298   7.362 -0.7322 -0.5857 -0.3041
 3226SOL    HW121314   3.975   4.238   7.419 -1.3434 -1.4267 -1.7033
 3226SOL    HW221315   4.003   4.241   7.288 -1.3968 -1.0289  0.2192
 3227SOL     OW21316   2.425   0.187   3.070  0.2370 -0.3626 -0.0751
 3227SOL    HW121317   2.404   0.191   2.976 -1.2796  1.8929  0.3626
 3227SOL    HW221318   2.509   0.141   3.071  0.1845 -0.4904 -0.9609
 3228SOL     OW21319   1.030   1.279   4.799  0.0668  0.1392 -0.0074
 3228SOL    HW121320   1.093   1.208   4.809  1.0283  1.0023  0.0975
 3228SOL    HW221321   1.010   1.263   4.707 -0.0887  2.2430 -0.3573
 3229SOL     OW21322   2.407   1.422   0.632 -0.5348  0.3210  0.3030
 3229SOL    HW121323   2.473   1.467   0.686 -0.4383 -1.0172  1.2781
 3229SOL    HW221324   2.329   1.467   0.665 -0.3020  1.1408 -0.2399
 3230SOL     OW21325   4.318   3.119  11.223  0.4307  0.1717  0.5737
 3230SOL    HW121326   4.323   3.214  11.216 -2.0880  0.3888  1.4522
 3230SOL    HW221327   4.222   3.116  11.232  0.3201 -1.4478 -1.1123
 3231SOL     OW21328   1.392   3.000  15.264  0.5388  0.3513 -0.2200
 3231SOL    HW121329   1.380   3.093  15.246 -0.5195 -0.0840 -1.8002
 3231SOL    HW221330   1.301   2.971  15.275  0.9991 -1.0637 -0.1201
 3232SOL     OW21331   2.400   1.836  17.604 -0.3754  0.2004 -0.2216
 3232SOL    HW121332   2.425   1.896  17.533 -2.9997  1.9953  0.3670
 3232SOL    HW221333   2.394   1.901  17.674  2.1094  0.5082 -0.3003
 3233SOL     OW21334   0.019   0.915   3.067 -0.2482  0.2148 -0.0488
 3233SOL    HW121335   0.062   0.956   3.142 -0.2970  0.2141 -0.0210
 3233SOL    HW221336   0.064   0.830   3.065 -0.5319  0.0710 -0.3440
 3234SOL     OW21337   0.432   4.670   6.815  0.5107 -0.3334 -0.0527
 3234SOL    HW121338   0.418   4.641   6.725  2.2314 -0.1152 -0.3945
 3234SOL    HW221339   0.349   4.643   6.854 -0.5109  0.6863 -1.5164
 3235SOL     OW21340   4.449   3.556  15.641  0.6589 -0.0321 -0.0532
 3235SOL    HW121341   4.433   3.488  15.576 -0.6683 -0.7678  1.0161
 3235SOL    HW221342   4.462   3.630  15.582 -2.3469  1.1545  0.7809
 3236SOL     OW21343   3.847   4.592   0.526  0.1528 -0.1708 -0.7214
 3236SOL    HW121344   3.824   4.685   0.521  1.3752  0.2643  1.6480
 3236SOL    HW221345   3.896   4.590   0.444  0.3692  0.7838 -0.6129
 3237SOL     OW21346   1.436   2.567   5.064 -0.1635 -0.1731  0.8434
 3237SOL    HW121347   1.379   2.636   5.029 -0.0263  0.4844  1.9044
 3237SOL    HW221348   1.463   2.538   4.977  2.4412  0.9863  1.2601
 3238SOL     OW21349   4.643   4.130  10.418 -0.3082  0.2067  0.1452
 3238SOL    HW121350   4.590   4.140  10.497  1.4205  2.1724  1.0557
 3238SOL    HW221351   4.646   4.035  10.412  3.5010  0.3809 -1.1800
 3239SOL     OW21352   1.735   3.168   4.028  0.6466  0.2244  0.2790
 3239SOL    HW121353   1.644   3.190   4.010  0.4930 -1.3821 -0.9316
 3239SOL    HW221354   1.783   3.244   4.062  0.3341  0.1069  0.9639
 3240SOL     OW21355   1.167   1.660   9.568 -0.2767  0.3376  0.7573
 3240SOL    HW121356   1.119   1.686   9.646 -1.2688 -0.1340  0.2962
 3240SOL    HW221357   1.223   1.595   9.611  0.7791  1.0516  0.4810
 3241SOL     OW21358   0.322   1.303   7.183 -0.2500  0.2419  0.1564
 3241SOL    HW121359   0.266   1.381   7.182 -1.5344 -0.6913 -1.5633
 3241SOL    HW221360   0.406   1.337   7.152  0.7035 -0.6839  1.7238
 3242SOL     OW21361   1.199   4.549   4.293  0.1349 -0.1339  0.2075
 3242SOL    HW121362   1.142   4.537   4.217 -0.2953 -0.9343  0.6581
 3242SOL    HW221363   1.216   4.458   4.317  2.4957 -0.2090 -1.7683
 3243SOL     OW21364   2.996   2.423  12.821  0.1869  0.0840  0.3582
 3243SOL    HW121365   3.041   2.365  12.882  0.2348  0.6304  0.8413
 3243SOL    HW221366   2.954   2.492  12.873 -1.5460  0.7291 -1.8664
 3244SOL     OW21367   0.929   0.168   5.795 -0.4775  0.3861  0.0596
 3244SOL    HW121368   0.865   0.122   5.849  0.1961  0.4495  0.9152
 3244SOL    HW221369   1.002   0.121   5.836  1.4735  1.6364 -1.9612
 3245SOL     OW21370   1.303   4.222  13.848 -0.2422  0.1230  0.0946
 3245SOL    HW121371   1.291   4.153  13.782  1.0011 -0.1105  0.1203
 3245SOL    HW221372   1.213   4.240  13.875 -0.3524  1.7674 -1.3188
 3246SOL     OW21373   1.148   1.286  11.633  0.6081 -0.1174  0.2391
 3246SOL    HW121374   1.164   1.343  11.558  1.0935  1.7270  1.7507
 3246SOL    HW221375   1.161   1.201  11.592 -0.4054 -0.0841 -0.1463
 3247SOL     OW21376   0.024   4.374   4.834  0.0092 -0.3423 -0.0276
 3247SOL    HW121377   4.683   4.318   4.844  0.2412 -0.6427  0.0801
 3247SOL    HW221378   4.718   4.452   4.797  0.7569  0.2386  0.3448
 3248SOL     OW21379   1.598   0.050   4.578 -0.1291 -0.4375 -0.0799
 3248SOL    HW121380   1.587   4.702   4.533  1.6602 -1.4096  1.2763
 3248SOL    HW221381   1.562   0.032   4.665 -0.9308  2.5558  0.1952
 3249SOL     OW21382   0.981   4.571   6.856  0.3443  0.4946  0.0491
 3249SOL    HW121383   1.010   4.558   6.765  1.7183  2.6405  0.1879
 3249SOL    HW221384   1.064   4.604   6.890 -0.6299  2.9529  0.0348
 3250SOL     OW21385   0.596   4.008   8.972  0.1029 -0.0137 -1.0108
 3250SOL    HW121386   0.519   3.981   8.923 -0.2953 -0.3593 -0.1928
 3250SOL    HW221387   0.563   4.009   9.062  0.2877  1.2587 -0.9570
 3251SOL     OW21388   3.575   4.171   3.874  0.3449 -0.5429 -0.0871
 3251SOL    HW121389   3.541   4.209   3.955  0.3468 -1.8560  0.5243
 3251SOL    HW221390   3.638   4.105   3.902  1.8871 -0.5139 -3.4112
 3252SOL     OW21391   4.252   3.241   7.395 -0.0768 -0.1142 -0.0699
 3252SOL    HW121392   4.315   3.286   7.451  0.9198  0.3925 -1.5885
 3252SOL    HW221393   4.176   3.256   7.451 -0.1034 -0.1075 -0.1073
 3253SOL     OW21394   0.193   2.731   1.338  0.2757 -0.0347  0.0191
 3253SOL    HW121395   0.282   2.765   1.336 -0.7227  2.7388  1.8867
 3253SOL    HW221396   0.196   2.645   1.381  1.8865 -0.7711 -1.5964
 3254SOL     OW21397   0.731   2.084   8.190 -0.3301  0.3379  0.5785
 3254SOL    HW121398   0.769   2.014   8.244  1.2972 -1.3529 -2.7919
 3254SOL    HW221399   0.788   2.159   8.207  0.6434  0.0040 -1.2042
 3255SOL     OW21400   3.327   0.215   3.850 -0.4687 -0.3398 -0.2590
 3255SOL    HW121401   3.408   0.210   3.901 -0.5501  0.5337 -0.0528
 3255SOL    HW221402   3.265   0.159   3.898 -0.6223  0.1704  0.1390
 3256SOL     OW21403   1.037   1.172   1.574 -0.7665 -0.1028  0.3282
 3256SOL    HW121404   1.038   1.134   1.662 -1.7106 -0.9427 -0.0252
 3256SOL    HW221405   0.992   1.099   1.532  1.4104 -0.2985 -1.6389
 3257SOL     OW21406   4.273   0.632   7.585 -0.3983  0.2226 -0.5450
 3257SOL    HW121407   4.294   0.539   7.575  2.7180  0.8421  0.1395
 3257SOL    HW221408   4.226   0.653   7.504  2.3571  0.2682 -2.1498
 3258SOL     OW21409   3.988   0.118   3.988  0.1868 -0.4331  0.1955
 3258SOL    HW121410   3.896   0.104   3.966 -0.2262 -0.2838  1.8087
 3258SOL    HW221411   4.014   0.073   3.908 -0.8034  0.2395 -0.5027
 3259SOL     OW21412   0.890   0.535  10.759 -0.1018 -0.1169 -0.6782
 3259SOL    HW121413   0.874   0.457  10.706  0.5403  0.1890 -1.3288
 3259SOL    HW221414   0.921   0.497  10.841 -1.1761 -0.1117 -0.2647
 3260SOL     OW21415   3.776   3.573   8.138  0.3164  0.0110 -0.4402
 3260SOL    HW121416   3.868   3.576   8.112  1.0655  0.4767  2.2600
 3260SOL    HW221417   3.771   3.493   8.190  3.5441  0.6054  0.8064
 3261SOL     OW21418   0.241   1.141   1.395  0.1716  0.0510  0.0904
 3261SOL    HW121419   0.313   1.176   1.342  0.9578 -1.4827  0.1459
 3261SOL    HW221420   0.209   1.215   1.446 -0.4726 -1.1938  1.4956
 3262SOL     OW21421   3.584   0.724  17.556  0.2299 -0.4935  0.3078
 3262SOL    HW121422   3.658   0.674  17.591  0.0098  0.0895  1.6341
 3262SOL    HW221423   3.563   0.691  17.469  0.3783  0.2801 -0.0167
 3263SOL     OW21424   3.838   1.838   0.248 -0.8041  0.0181  0.1176
 3263SOL    HW121425   3.916   1.786   0.269 -0.8022 -0.7436 -1.8346
 3263SOL    HW221426   3.878   1.901   0.188  4.9666 -2.6321  1.0924
 3264SOL     OW21427   0.214   3.505  16.144  0.3482  0.1057 -0.6399
 3264SOL    HW121428   0.139   3.538  16.094 -0.2146  0.9701  0.7624
 3264SOL    HW221429   0.169   3.449  16.208 -1.2118 -0.6794 -2.4327
 3265SOL     OW21430   4.067   1.461   7.320 -0.3809 -0.5313 -0.0066
 3265SOL    HW121431   4.018   1.442   7.240 -1.0565 -2.4672  0.8483
 3265SOL    HW221432   4.081   1.555   7.319 -2.0368 -0.3271 -2.4880
 3266SOL     OW21433   2.803   1.260   5.626  0.0196 -0.0828  0.8661
 3266SOL    HW121434   2.843   1.285   5.710  2.2080  1.1984 -0.5547
 3266SOL    HW221435   2.881   1.236   5.575  0.4110  0.0958  1.3797
 3267SOL     OW21436   2.535   1.135   6.075  0.0255  0.1861  0.0256
 3267SOL    HW121437   2.614   1.184   6.095 -0.6409  1.3113 -0.1129
 3267SOL    HW221438   2.546   1.132   5.980  0.3960  1.1404  0.0435
 3268SOL     OW21439   1.215   1.536  10.237  0.6585 -0.6321  0.9377
 3268SOL    HW121440   1.255   1.595  10.301  0.0545 -0.4479  1.1491
 3268SOL    HW221441   1.222   1.584  10.155  1.9759 -2.0376  0.2360
 3269SOL     OW21442   3.062   1.501   3.648 -0.0516  0.5201  0.5408
 3269SOL    HW121443   2.990   1.496   3.585  0.8887  3.0648 -0.7446
 3269SOL    HW221444   3.039   1.541   3.732 -1.5709  0.8400 -0.0271
 3270SOL     OW21445   4.320   0.311   1.283 -0.8133 -0.0749  0.1026
 3270SOL    HW121446   4.233   0.351   1.284 -0.5712  0.3947  2.7402
 3270SOL    HW221447   4.352   0.360   1.208  0.7198  1.3208  1.6673
 3271SOL     OW21448   3.797   1.252   1.133 -0.0379 -0.1420  0.7002
 3271SOL    HW121449   3.863   1.198   1.091 -1.0844  1.2269 -2.6769
 3271SOL    HW221450   3.816   1.336   1.092 -2.2125 -1.0660 -2.1739
 3272SOL     OW21451   3.496   4.378   3.517 -0.1548  0.3710 -0.6225
 3272SOL    HW121452   3.549   4.365   3.439  0.7604  0.6725 -0.0516
 3272SOL    HW221453   3.561   4.409   3.580  0.8749  1.1725 -2.0778
 3273SOL     OW21454   4.231   1.903   9.183 -0.4200 -0.1472  0.0440
 3273SOL    HW121455   4.317   1.861   9.188 -0.9183 -1.3708 -1.8617
 3273SOL    HW221456   4.172   1.828   9.190  0.6797 -0.8888  1.4083
 3274SOL     OW21457   4.032   3.403  12.288 -0.5840 -0.2322 -0.0761
 3274SOL    HW121458   3.950   3.424  12.333 -0.6496  2.2697 -1.3960
 3274SOL    HW221459   4.091   3.387  12.361 -0.5973  0.4129  0.0739
 3275SOL     OW21460   4.259   0.686   4.059  0.3466 -0.6412  0.1443
 3275SOL    HW121461   4.208   0.703   4.138  0.6060  2.1081 -0.2881
 3275SOL    HW221462   4.318   0.761   4.067  1.9577 -1.9228  0.0707
 3276SOL     OW21463   4.363   2.240   6.986 -0.6248  0.0026  0.3142
 3276SOL    HW121464   4.340   2.235   6.893  2.2427  2.7745 -0.5683
 3276SOL    HW221465   4.276   2.240   7.026 -0.7904 -4.1282 -0.0315
 3277SOL     OW21466   1.481   3.528   3.629 -0.2445 -0.1397  0.2808
 3277SOL    HW121467   1.474   3.553   3.721  0.8786 -2.3138  0.9561
 3277SOL    HW221468   1.555   3.584   3.606 -0.7810  0.6059  0.3901
 3278SOL     OW21469   0.775   0.034   6.743 -0.4420  0.2601 -0.1292
 3278SOL    HW121470   0.729   0.007   6.664  0.7134  1.4485 -1.2099
 3278SOL    HW221471   0.815   4.686   6.768  0.6822  0.2337 -1.9702
 3279SOL     OW21472   3.362   2.889   2.817  0.0373  0.1662 -0.0308
 3279SOL    HW121473   3.387   2.849   2.733 -1.8368  1.1078 -1.0171
 3279SOL    HW221474   3.404   2.824   2.875  1.0861  1.5143  0.7219
 3280SOL     OW21475   0.604   2.441   7.450  0.3841 -0.1493  1.2793
 3280SOL    HW121476   0.568   2.482   7.530 -2.1208 -0.5138  0.3437
 3280SOL    HW221477   0.559   2.357   7.458  1.7712 -1.0257 -0.3720
 3281SOL     OW21478   0.521   0.358   9.988  0.7158  0.0401 -0.2400
 3281SOL    HW121479   0.608   0.383  10.019  0.3475  0.3788  0.5221
 3281SOL    HW221480   0.460   0.385  10.057  2.0769 -0.2793  1.0971
 3282SOL     OW21481   4.322   3.020   3.408 -0.3750 -0.1695  0.6235
 3282SOL    HW121482   4.384   3.055   3.472  0.1052 -3.6575  2.0145
 3282SOL    HW221483   4.346   3.043   3.318  0.6446  1.6171  1.3389
 3283SOL     OW21484   2.985   1.042   2.693  0.4365 -0.0101 -0.8806
 3283SOL    HW121485   3.017   1.129   2.719  0.4244  0.4274 -2.2991
 3283SOL    HW221486   2.942   1.007   2.771  1.5007  0.8246  0.0780
 3284SOL     OW21487   2.407   2.229   7.762  0.6517 -0.1048 -0.2105
 3284SOL    HW121488   2.474   2.281   7.807  0.7841 -1.2954  1.0015
 3284SOL    HW221489   2.335   2.286   7.787  1.2307  1.5386 -2.3054
 3285SOL     OW21490   3.544   2.068  10.318  0.4928 -0.6893 -0.0119
 3285SOL    HW121491   3.536   2.070  10.414 -2.7066  0.0824 -0.3039
 3285SOL    HW221492   3.632   2.101  10.305  0.8994 -0.9810  1.8925
 3286SOL     OW21493   1.043   4.018   5.012  0.5352  0.7298 -0.2147
 3286SOL    HW121494   0.976   3.999   5.078  0.6648  0.0732 -0.2755
 3286SOL    HW221495   1.117   4.044   5.066  0.0867  0.2103  0.6621
 3287SOL     OW21496   4.466   1.126   1.705  0.1296  0.6749  0.1843
 3287SOL    HW121497   4.411   1.182   1.650 -0.8333 -0.3771  0.0694
 3287SOL    HW221498   4.457   1.041   1.661 -0.1871  0.5886  0.4158
 3288SOL     OW21499   2.776   3.897   2.207 -0.2744 -0.3301 -0.1332
 3288SOL    HW121500   2.805   3.978   2.248  0.1912 -0.0769 -0.9598
 3288SOL    HW221501   2.835   3.833   2.247 -0.5930 -2.0602 -2.3789
 3289SOL     OW21502   3.306   2.291  11.987 -0.0433 -0.1883 -0.7022
 3289SOL    HW121503   3.219   2.329  11.995 -0.1623 -0.4669 -0.6873
 3289SOL    HW221504   3.313   2.256  12.076 -1.3252 -2.6185 -1.5672
 3290SOL     OW21505   1.531   2.587   3.777 -0.3923 -0.4077  0.4346
 3290SOL    HW121506   1.582   2.517   3.737 -0.3023 -0.3814  0.5034
 3290SOL    HW221507   1.523   2.564   3.869  2.3370 -2.1582  0.2042
 3291SOL     OW21508   0.593   1.277   6.130 -0.3906  0.0026  0.1706
 3291SOL    HW121509   0.581   1.195   6.083  1.2122 -0.6565  0.9267
 3291SOL    HW221510   0.504   1.309   6.147 -0.5729 -0.4421  0.0429
 3292SOL     OW21511   4.666   1.880   3.555  0.0226  0.2329 -0.2000
 3292SOL    HW121512   4.652   1.954   3.496 -2.9947  0.4462  0.7773
 3292SOL    HW221513   4.576   1.859   3.577 -0.1179 -0.5515 -1.5623
 3293SOL     OW21514   3.527   1.722  15.751  0.3526 -0.6670 -0.0418
 3293SOL    HW121515   3.594   1.791  15.760  0.9606 -1.4908  1.7322
 3293SOL    HW221516   3.504   1.737  15.660  1.1483  0.8788 -0.0039
 3294SOL     OW21517   2.586   4.310   3.249  0.5616 -0.0020 -0.2741
 3294SOL    HW121518   2.497   4.344   3.235  0.9344  0.5783 -1.2494
 3294SOL    HW221519   2.606   4.300   3.156  0.1134 -2.9465 -0.0622
 3295SOL     OW21520   1.453   0.883   7.298 -0.2020  0.2704 -0.1724
 3295SOL    HW121521   1.411   0.893   7.212  1.4007  2.3251 -0.7241
 3295SOL    HW221522   1.383   0.926   7.349  1.1615 -1.3036  3.0443
 3296SOL     OW21523   3.833   3.744   1.939  0.0909  0.1819  0.1427
 3296SOL    HW121524   3.748   3.702   1.956 -0.5446  0.3136 -2.8024
 3296SOL    HW221525   3.844   3.794   2.020 -0.4848 -1.6129  1.3398
 3297SOL     OW21526   2.944   3.411   7.115 -0.0420  0.3386  0.5809
 3297SOL    HW121527   2.931   3.503   7.139 -2.7497  1.8797 -6.6311
 3297SOL    HW221528   3.039   3.409   7.105 -0.1176 -3.4405  0.7960
 3298SOL     OW21529   1.218   2.448   8.235  0.4856  0.3930 -0.3730
 3298SOL    HW121530   1.291   2.388   8.220 -1.0421 -1.4201 -0.5436
 3298SOL    HW221531   1.202   2.471   8.143 -1.2518 -0.6540 -0.3207
 3299SOL     OW21532   3.119   3.792  16.230 -0.0920 -0.0072 -0.5406
 3299SOL    HW121533   3.074   3.788  16.145 -1.6565  0.6468  0.2606
 3299SOL    HW221534   3.140   3.885  16.232  2.3879 -0.6017  0.7087
 3300SOL     OW21535   2.546   0.179   7.309  0.2220 -0.3527 -0.6727
 3300SOL    HW121536   2.515   0.090   7.327 -0.0428  0.0001  0.5952
 3300SOL    HW221537   2.528   0.227   7.390  2.3952  0.3627 -0.5989
 3301SOL     OW21538   0.184   1.352   5.204 -0.2962 -0.6448  0.1012
 3301SOL    HW121539   0.188   1.281   5.269 -3.0801 -0.7221  0.1654
 3301SOL    HW221540   0.176   1.291   5.131  0.3828 -0.0926 -0.4274
 3302SOL     OW21541   3.030   1.515   5.058  0.3895 -0.3164  0.2425
 3302SOL    HW121542   3.111   1.563   5.077 -0.3840  0.2641  2.1072
 3302SOL    HW221543   3.054   1.455   4.987 -0.7478 -1.6116  0.9391
 3303SOL     OW21544   3.958   4.311   6.889 -0.0106 -0.6569  0.1072
 3303SOL    HW121545   3.977   4.228   6.845  0.3506 -0.3857 -0.2437
 3303SOL    HW221546   3.913   4.354   6.817  3.1577 -2.9865 -3.2603
 3304SOL     OW21547   0.573   0.760   5.908 -0.0237  0.5079 -0.1499
 3304SOL    HW121548   0.584   0.677   5.953 -1.8215  0.7681  0.7391
 3304SOL    HW221549   0.479   0.767   5.921  0.1465  1.0490  0.7775
 3305SOL     OW21550   3.926   1.342  14.133 -0.0212 -0.6021 -0.2695
 3305SOL    HW121551   3.984   1.265  14.138 -0.0701 -0.8866 -4.1559
 3305SOL    HW221552   3.969   1.382  14.058 -1.8585 -2.5354 -2.3563
 3306SOL     OW21553   2.862   2.948   3.245  0.1082  0.1667  0.1063
 3306SOL    HW121554   2.872   2.904   3.330  1.4924 -0.3161 -0.3099
 3306SOL    HW221555   2.824   3.031   3.273 -0.1865  0.4809 -1.2733
 3307SOL     OW21556   1.427   2.762   1.977 -0.2830 -0.1873  0.6511
 3307SOL    HW121557   1.396   2.779   2.065  0.3317 -0.2657  0.8851
 3307SOL    HW221558   1.512   2.807   1.979  1.0493 -2.7815  2.6074
 3308SOL     OW21559   2.463   1.137  15.818  0.0568 -0.0537 -0.0713
 3308SOL    HW121560   2.558   1.129  15.821 -0.1302 -1.6618  1.5307
 3308SOL    HW221561   2.442   1.167  15.907  0.5050 -1.7692  0.6206
 3309SOL     OW21562   3.539   1.730  14.357 -0.4966  0.0542  0.1729
 3309SOL    HW121563   3.454   1.688  14.342 -1.4898  1.3535  2.2401
 3309SOL    HW221564   3.596   1.658  14.328  0.6260  1.0630 -0.1151
 3310SOL     OW21565   2.765   3.112   6.304 -0.0022  0.5278  0.6985
 3310SOL    HW121566   2.806   3.175   6.363  0.8424 -0.2469  0.9538
 3310SOL    HW221567   2.698   3.170   6.269  0.3967 -0.5896 -1.9055
 3311SOL     OW21568   1.553   2.680   8.011  0.5614 -0.6089  0.1250
 3311SOL    HW121569   1.575   2.772   8.024  1.0830 -0.6943 -0.1452
 3311SOL    HW221570   1.563   2.667   7.917  0.9732 -1.2210  0.2514
 3312SOL     OW21571   4.127   3.822   2.730 -0.1500  0.5309  0.2550
 3312SOL    HW121572   4.049   3.768   2.717  0.2430  0.1388 -0.5026
 3312SOL    HW221573   4.106   3.844   2.821 -3.2305  0.1856 -0.3749
 3313SOL     OW21574   4.320   0.452   2.427 -0.1196 -0.3019 -0.9845
 3313SOL    HW121575   4.297   0.425   2.338 -0.5048 -1.9006 -0.3914
 3313SOL    HW221576   4.392   0.513   2.411 -0.5582  1.2370  2.8361
 3314SOL     OW21577   2.945   2.621   7.567 -0.5830 -0.2187 -0.4612
 3314SOL    HW121578   2.867   2.567   7.553  0.0741 -1.4042  0.4863
 3314SOL    HW221579   2.999   2.576   7.632 -1.2553 -1.6460 -0.8896
 3315SOL     OW21580   0.166   1.219  16.576  0.7756  0.4047  0.3575
 3315SOL    HW121581   0.142   1.204  16.485  2.6628  0.6015 -0.1657
 3315SOL    HW221582   0.158   1.132  16.614  2.0414  0.2007  0.1494
 3316SOL     OW21583   0.153   1.752   3.466  0.4883 -0.0835  0.2083
 3316SOL    HW121584   0.139   1.666   3.505  0.9344  0.1144  0.8069
 3316SOL    HW221585   0.082   1.804   3.505  0.0972 -1.0909  0.8487
 3317SOL     OW21586   0.039   2.289   3.824  0.0571  0.0405  0.2137
 3317SOL    HW121587   0.034   2.265   3.732  1.9016  0.7658 -0.0971
 3317SOL    HW221588   0.073   2.208   3.861  2.3778  1.4969  1.2990
 3318SOL     OW21589   2.750   1.934   4.141 -0.1277 -0.0721 -0.4139
 3318SOL    HW121590   2.730   1.879   4.065 -0.6636 -1.2823  0.6002
 3318SOL    HW221591   2.720   1.868   4.204  2.7506 -0.6596  0.3236
 3319SOL     OW21592   1.262   3.515   2.955  0.6553  0.1447 -0.1061
 3319SOL    HW121593   1.292   3.460   3.027  2.5829 -0.0510 -1.0659
 3319SOL    HW221594   1.225   3.452   2.893 -1.6345  2.5616 -1.2460
 3320SOL     OW21595   2.493   4.517  10.228  0.0928 -0.0859  0.1962
 3320SOL    HW121596   2.555   4.528  10.156 -0.6259 -0.6564 -0.5008
 3320SOL    HW221597   2.422   4.465  10.191 -0.4738 -0.0530  1.2380
 3321SOL     OW21598   4.094   0.263   9.680  0.2902 -0.3605  0.4335
 3321SOL    HW121599   4.068   0.353   9.662  0.0019 -0.4660  0.3150
 3321SOL    HW221600   4.165   0.266   9.743  1.2484 -1.4225 -0.5832
 3322SOL     OW21601   4.281   0.580   3.482 -0.8300 -0.0307  0.4567
 3322SOL    HW121602   4.233   0.633   3.545 -0.7153  1.0444 -0.3652
 3322SOL    HW221603   4.319   0.526   3.551 -2.3479 -1.5440  0.1215
 3323SOL     OW21604   0.970   2.210  17.280 -0.5592  0.1900  0.6259
 3323SOL    HW121605   0.968   2.305  17.297  0.2602 -0.0251  1.9632
 3323SOL    HW221606   1.041   2.186  17.340 -0.9455 -1.1359  0.5503
 3324SOL     OW21607   4.174   2.095  14.917  0.0697  0.4210 -0.4570
 3324SOL    HW121608   4.129   2.179  14.923  1.1087  0.8890  0.8565
 3324SOL    HW221609   4.150   2.063  14.830 -2.7073  1.9577 -0.2344
 3325SOL     OW21610   1.782   2.126   3.072  0.2196  0.3223  0.6722
 3325SOL    HW121611   1.836   2.143   2.994 -0.8434  2.7144  0.4617
 3325SOL    HW221612   1.842   2.070   3.122  1.3281  0.2718 -0.7018
 3326SOL     OW21613   0.725   4.618   4.282 -0.2535  0.0530 -0.5394
 3326SOL    HW121614   0.673   4.627   4.202 -0.4747 -0.7885 -0.4941
 3326SOL    HW221615   0.759   4.706   4.299  3.7687 -1.4970 -0.3566
 3327SOL     OW21616   3.587   3.995   8.909 -0.5269 -0.0815 -0.1515
 3327SOL    HW121617   3.676   4.027   8.926 -0.4071 -0.8864  0.7351
 3327SOL    HW221618   3.581   4.013   8.815 -1.1001  3.1633  0.5185
 3328SOL     OW21619   1.686   2.540   2.458 -0.5277 -0.8743  0.0988
 3328SOL    HW121620   1.597   2.512   2.435 -1.5498  1.8955  0.6750
 3328SOL    HW221621   1.687   2.549   2.553 -0.3445 -0.9707  0.1034
 3329SOL     OW21622   1.842   1.883   4.145 -0.1041 -0.2604 -0.0518
 3329SOL    HW121623   1.861   1.951   4.210 -2.6594  2.4879 -2.1468
 3329SOL    HW221624   1.900   1.915   4.075 -0.2372 -3.1245 -1.4511
 3330SOL     OW21625   3.710   1.997   3.547  0.1530 -0.2451 -1.1723
 3330SOL    HW121626   3.776   1.999   3.478  1.1422  0.9644 -0.1903
 3330SOL    HW221627   3.754   1.940   3.610  0.2142  0.4967 -0.5412
 3331SOL     OW21628   0.852   4.389   4.341  0.1060  0.4925 -0.4398
 3331SOL    HW121629   0.796   4.368   4.416 -0.0733  1.1844 -0.3848
 3331SOL    HW221630   0.809   4.465   4.301 -0.3401  0.3368 -0.2506
 3332SOL     OW21631   3.595   0.585   5.659 -0.2549  0.2172  0.4254
 3332SOL    HW121632   3.657   0.618   5.594 -1.6360 -1.1767 -1.5705
 3332SOL    HW221633   3.630   0.627   5.738  1.0418 -1.0265  0.5184
 3333SOL     OW21634   2.952   0.939   4.396  0.3429 -0.0301 -0.0999
 3333SOL    HW121635   2.953   1.035   4.398 -1.7199 -0.0237  0.7236
 3333SOL    HW221636   2.928   0.931   4.303  1.9780 -3.9837 -0.1995
 3334SOL     OW21637   2.334   3.169   6.786  0.5171 -0.0682 -0.2355
 3334SOL    HW121638   2.373   3.248   6.824  0.9670 -0.9900  1.2083
 3334SOL    HW221639   2.386   3.159   6.707  0.5238 -1.6191 -0.0229
 3335SOL     OW21640   2.357   3.621   4.032 -0.7422  0.3674  1.3663
 3335SOL    HW121641   2.434   3.571   4.058 -0.5869 -0.8972 -1.4991
 3335SOL    HW221642   2.400   3.706   4.035  1.2471 -0.5804  0.1289
 3336SOL     OW21643   0.251   1.380   0.783 -0.3092 -0.2390  0.3031
 3336SOL    HW121644   0.220   1.314   0.845 -0.8344 -0.0769  0.2147
 3336SOL    HW221645   0.342   1.360   0.761 -0.8490 -1.0465 -1.2282
 3337SOL     OW21646   4.050   2.875   5.532 -0.3499 -0.4992  0.0356
 3337SOL    HW121647   4.035   2.847   5.622  1.1128 -0.9265  0.1537
 3337SOL    HW221648   3.960   2.863   5.503 -0.6353 -0.5682  0.9527
 3338SOL     OW21649   3.879   3.896  11.132  0.1721  0.6545 -0.0066
 3338SOL    HW121650   3.968   3.872  11.109  0.4524  0.6211  1.0902
 3338SOL    HW221651   3.827   3.830  11.085  0.9066 -0.3993  0.6728
 3339SOL     OW21652   3.728   1.272   7.553  0.1800  0.2202 -0.3469
 3339SOL    HW121653   3.687   1.339   7.498  0.6895 -0.1441 -1.1820
 3339SOL    HW221654   3.812   1.256   7.509 -0.3343 -0.6261 -1.0281
 3340SOL     OW21655   3.058   1.531  10.963  0.1055 -0.0305 -0.7983
 3340SOL    HW121656   3.050   1.534  11.058  0.5151 -1.4234 -0.7084
 3340SOL    HW221657   3.029   1.620  10.945 -0.3937 -0.1637 -0.6486
 3341SOL     OW21658   1.665   1.177   6.613 -0.0099 -0.1335 -0.4799
 3341SOL    HW121659   1.738   1.238   6.623  0.5567 -0.3898 -2.8884
 3341SOL    HW221660   1.638   1.147   6.699  1.1726  0.9918  0.2742
 3342SOL     OW21661   2.815   1.764   4.355  0.0326  0.0437  0.0046
 3342SOL    HW121662   2.910   1.776   4.361 -0.4727  2.9876  2.2914
 3342SOL    HW221663   2.807   1.672   4.329  1.0497  0.6680 -2.4949
 3343SOL     OW21664   1.049   4.347   8.619  0.4866  0.1617 -0.2138
 3343SOL    HW121665   1.079   4.432   8.586 -0.2771  0.2825 -0.6020
 3343SOL    HW221666   0.954   4.364   8.620  1.0781  3.2489  2.1417
 3344SOL     OW21667   2.236   0.787   8.377 -0.2407  0.7026 -0.5972
 3344SOL    HW121668   2.238   0.879   8.403 -0.6375 -0.0945  2.1851
 3344SOL    HW221669   2.141   0.776   8.388 -0.3065  1.2731 -0.6134
 3345SOL     OW21670   1.554   0.101   6.121  0.4701  0.4867 -0.4236
 3345SOL    HW121671   1.499   0.025   6.102 -0.2688  0.9848 -0.2707
 3345SOL    HW221672   1.534   0.142   6.037  1.2754  2.8435  0.5556
 3346SOL     OW21673   0.794   1.966   4.447  0.1854  0.3495  0.2303
 3346SOL    HW121674   0.800   2.044   4.392 -0.8612 -1.2785 -2.1929
 3346SOL    HW221675   0.858   1.913   4.401 -1.5969 -2.3858  0.8781
 3347SOL     OW21676   3.886   4.597   7.658 -0.6318 -0.3069  0.2258
 3347SOL    HW121677   3.891   4.551   7.575  1.1300 -0.2155  0.2911
 3347SOL    HW221678   3.792   4.617   7.666 -0.3300  1.0794  0.3516
 3348SOL     OW21679   4.542   0.997   8.223  0.0329 -0.1344  0.2798
 3348SOL    HW121680   4.493   0.969   8.300  1.1777 -1.0166  0.6811
 3348SOL    HW221681   4.548   0.921   8.165  0.7270 -0.6927  1.0836
 3349SOL     OW21682   1.374   3.437   6.625 -0.6125  0.2020  0.2788
 3349SOL    HW121683   1.404   3.526   6.610  0.2166 -0.0410  0.5132
 3349SOL    HW221684   1.333   3.441   6.712  2.5842 -0.1709  1.8040
 3350SOL     OW21685   4.705   4.479   9.567  0.0209  0.3491  0.0418
 3350SOL    HW121686   0.059   4.449   9.573  0.5743  2.0060  0.1323
 3350SOL    HW221687   4.666   4.454   9.651 -1.1381  0.4813 -0.4464
 3351SOL     OW21688   3.248   4.561  14.524 -0.0363  0.7763 -0.2914
 3351SOL    HW121689   3.330   4.560  14.476 -0.3522 -2.3256 -0.7494
 3351SOL    HW221690   3.235   4.479  14.571  0.8122  0.4686 -0.5945
 3352SOL     OW21691   1.134   0.821   2.964 -0.8444 -0.8048 -0.0030
 3352SOL    HW121692   1.184   0.781   3.035 -1.1284  0.5399  0.9643
 3352SOL    HW221693   1.109   0.746   2.910  3.0490 -0.9766 -1.5223
 3353SOL     OW21694   3.186   3.288   6.450 -0.4450 -0.2285 -0.0183
 3353SOL    HW121695   3.106   3.238   6.467  1.2761 -2.5780  1.1021
 3353SOL    HW221696   3.157   3.344   6.378  0.2702 -1.8563 -1.5695
 3354SOL     OW21697   1.991   2.619  10.958 -0.2770 -0.1256 -0.1506
 3354SOL    HW121698   2.055   2.651  11.022 -1.3551 -0.5517  1.1262
 3354SOL    HW221699   1.960   2.536  10.993  0.1505 -0.3232 -0.2376
 3355SOL     OW21700   3.118   1.886   6.728  0.0539 -0.0181 -0.2239
 3355SOL    HW121701   3.081   1.921   6.809 -2.0327 -2.9526  0.1105
 3355SOL    HW221702   3.209   1.887   6.758  0.8660 -1.1716 -2.7201
 3356SOL     OW21703   4.335   2.074   3.431  0.4668 -0.3463 -0.3422
 3356SOL    HW121704   4.264   2.136   3.449  1.4793  1.0062 -1.0018
 3356SOL    HW221705   4.295   1.989   3.413 -2.5830  0.5165  2.3004
 3357SOL     OW21706   3.601   4.082   6.007 -0.1088 -0.5845 -0.1422
 3357SOL    HW121707   3.516   4.116   6.035  0.0610  1.7659 -2.4613
 3357SOL    HW221708   3.591   4.000   6.056  0.1821 -0.2817  0.4297
 3358SOL     OW21709   3.561   2.874   2.164 -0.1357 -0.0963  0.0117
 3358SOL    HW121710   3.620   2.802   2.184 -1.7051 -1.7019 -1.1703
 3358SOL    HW221711   3.533   2.845   2.077 -1.8244  0.3237  0.4027
 3359SOL     OW21712   1.652   3.267   8.900  0.3959  0.1292  0.4787
 3359SOL    HW121713   1.610   3.218   8.829  1.5592  0.2319 -0.2623
 3359SOL    HW221714   1.688   3.342   8.854 -0.4194  0.7481  0.8396
 3360SOL     OW21715   2.455   0.736   9.374  0.4561 -0.2311 -0.1323
 3360SOL    HW121716   2.450   0.813   9.430  0.5992 -0.8659  0.7537
 3360SOL    HW221717   2.506   0.679   9.431  0.7369 -1.5243 -1.6683
 3361SOL     OW21718   2.414   4.647   5.512  0.7430  0.4848 -0.3209
 3361SOL    HW121719   2.473   4.632   5.438  2.2522 -0.1016  0.9834
 3361SOL    HW221720   2.473   4.632   5.586  1.0025  0.2448 -0.5759
 3362SOL     OW21721   0.650   1.589  15.328 -0.4749  0.1058  0.1488
 3362SOL    HW121722   0.630   1.682  15.340  1.0732  0.6180 -1.2001
 3362SOL    HW221723   0.644   1.581  15.233 -0.4759 -0.1362  0.1689
 3363SOL     OW21724   1.904   1.017   8.152 -0.3538 -0.1778 -0.2363
 3363SOL    HW121725   1.971   1.049   8.092  1.6188  0.0682  2.1394
 3363SOL    HW221726   1.880   0.938   8.104  1.9593 -0.3708 -1.0362
 3364SOL     OW21727   2.927   0.471   0.421  0.4994  0.0461  0.3029
 3364SOL    HW121728   2.887   0.557   0.405  2.2056  0.6279 -0.9387
 3364SOL    HW221729   2.923   0.460   0.516  0.8339  0.8532  0.4102
 3365SOL     OW21730   3.066   4.327   0.221  1.1818 -1.0635  0.1220
 3365SOL    HW121731   3.062   4.357   0.131  1.7240  0.4783  0.6216
 3365SOL    HW221732   3.043   4.401   0.277 -0.6935 -1.6093  0.0991
 3366SOL     OW21733   3.680   1.588  10.060  0.8551 -0.2069 -0.0712
 3366SOL    HW121734   3.723   1.645   9.996  0.6538 -2.3696 -2.1423
 3366SOL    HW221735   3.593   1.573  10.023  0.4522  0.4046  0.6234
 3367SOL     OW21736   2.063   3.962   0.853 -0.6401 -0.0310  0.2762
 3367SOL    HW121737   1.994   4.014   0.813  0.0388  1.3683  0.9323
 3367SOL    HW221738   2.138   3.988   0.799  0.6866 -2.2142  1.0499
 3368SOL     OW21739   4.733   4.060   1.750 -0.0354 -0.2430 -0.8624
 3368SOL    HW121740   0.087   4.068   1.720 -0.0612 -1.3218 -1.2460
 3368SOL    HW221741   4.730   3.977   1.798 -2.1466 -1.3027 -2.8007
 3369SOL     OW21742   4.537   1.203  17.412 -0.3924  0.3819 -0.0946
 3369SOL    HW121743   4.481   1.128  17.390  1.2339 -0.9420  0.3235
 3369SOL    HW221744   4.535   1.247  17.327 -0.1678 -3.8293 -2.3077
 3370SOL     OW21745   1.974   1.382   5.343 -0.3391 -0.3459  0.7350
 3370SOL    HW121746   1.892   1.431   5.330  0.5181  0.1449 -2.8529
 3370SOL    HW221747   1.937   1.305   5.386  0.9660 -1.6961 -0.5770
 3371SOL     OW21748   2.483   2.980   5.614  0.1030  0.4155 -0.0121
 3371SOL    HW121749   2.414   3.021   5.561 -2.4029 -1.4351  1.7786
 3371SOL    HW221750   2.451   2.892   5.632 -2.6426  1.4432  0.1423
 3372SOL     OW21751   3.382   0.007   6.428 -0.2556 -0.1754 -0.1311
 3372SOL    HW121752   3.420   4.716   6.344 -1.1384  0.1154 -0.6229
 3372SOL    HW221753   3.298   4.697   6.418 -0.3668 -0.2896  1.3598
 3373SOL     OW21754   0.487   4.316  15.936 -0.3628  0.0856  0.3992
 3373SOL    HW121755   0.482   4.409  15.914  0.7580  0.1720  0.5277
 3373SOL    HW221756   0.576   4.310  15.971 -0.4572 -0.8014  0.4908
 3374SOL     OW21757   2.381   2.734   6.483  0.2700  0.0775  0.3552
 3374SOL    HW121758   2.457   2.677   6.468 -0.9828 -2.0937  2.3449
 3374SOL    HW221759   2.314   2.711   6.419  0.4881 -3.6163  1.4815
 3375SOL     OW21760   2.784   3.183   6.021 -0.0595  0.3489 -0.0365
 3375SOL    HW121761   2.850   3.237   6.064 -0.5610  1.5165 -0.7411
 3375SOL    HW221762   2.803   3.097   6.059  0.0782  0.1568 -0.5421
 3376SOL     OW21763   0.918   4.605   8.831 -0.1461  0.0190 -0.2493
 3376SOL    HW121764   0.882   4.664   8.764 -0.5416  0.6598  0.5159
 3376SOL    HW221765   0.846   4.542   8.837  0.4390 -0.5984  0.1616
 3377SOL     OW21766   3.820   3.973  10.225 -0.5172  0.9763 -0.4797
 3377SOL    HW121767   3.799   4.025  10.303 -1.5718  1.4364 -1.0674
 3377SOL    HW221768   3.788   3.884  10.239 -1.5567  1.2676 -1.0553
 3378SOL     OW21769   3.274   1.070   9.130 -0.0676  0.3793  0.4928
 3378SOL    HW121770   3.316   1.108   9.053  0.7437 -0.3586  0.5784
 3378SOL    HW221771   3.183   1.094   9.112 -0.5402 -1.6445  0.1353
 3379SOL     OW21772   2.000   2.090   5.912 -0.1751  0.1566 -0.5562
 3379SOL    HW121773   2.053   2.112   5.836  1.9598 -0.7094  0.6716
 3379SOL    HW221774   1.954   2.174   5.909 -0.9253 -0.3017 -1.6480
 3380SOL     OW21775   2.310   0.285   5.991 -0.4558 -0.0625 -0.4459
 3380SOL    HW121776   2.278   0.338   5.918 -3.8372  0.1212  1.2079
 3380SOL    HW221777   2.233   0.228   5.996 -0.0961 -0.1684  3.2708
 3381SOL     OW21778   2.633   3.855   6.337  0.0544 -0.3132 -0.1104
 3381SOL    HW121779   2.718   3.867   6.296 -0.4574  1.2628 -0.7349
 3381SOL    HW221780   2.648   3.916   6.409  2.1856  0.7625 -1.4810
 3382SOL     OW21781   0.323   2.555   3.765  0.5242 -0.5969 -0.4653
 3382SOL    HW121782   0.237   2.558   3.807  0.0214 -0.2267 -1.5243
 3382SOL    HW221783   0.307   2.561   3.671  0.5577 -0.9258 -0.4891
 3383SOL     OW21784   4.353   1.685   5.000 -0.0023 -0.3260 -0.0908
 3383SOL    HW121785   4.273   1.635   4.987 -0.7295  0.7400  0.2769
 3383SOL    HW221786   4.360   1.738   4.921 -0.6430  0.4396  0.3746
 3384SOL     OW21787   3.880   2.106   7.527  0.1018  0.4507 -0.4539
 3384SOL    HW121788   3.831   2.125   7.447  0.3458  1.8715 -0.2626
 3384SOL    HW221789   3.832   2.025   7.546  0.1894  0.5856  0.3411
 3385SOL     OW21790   3.936   3.033   1.582 -0.6830 -0.3143 -0.0229
 3385SOL    HW121791   4.031   3.032   1.588 -0.8649 -4.0304  2.2983
 3385SOL    HW221792   3.909   2.973   1.652 -1.1813 -0.4592 -0.3433
 3386SOL     OW21793   1.918   3.459   6.489 -0.3610  0.3242  0.2593
 3386SOL    HW121794   1.871   3.438   6.569 -0.8465 -0.2129 -0.1620
 3386SOL    HW221795   1.958   3.374   6.469  1.6773  0.7136  2.6566
 3387SOL     OW21796   2.471   3.983   5.464 -0.2117 -0.1593  0.5733
 3387SOL    HW121797   2.427   4.066   5.484 -0.4061  0.3616 -2.0989
 3387SOL    HW221798   2.490   3.988   5.371 -0.0358  2.1477  0.7115
 3388SOL     OW21799   1.491   4.355   1.930 -0.2871  0.2020 -0.6131
 3388SOL    HW121800   1.570   4.335   1.980 -1.2071  1.9843  1.6024
 3388SOL    HW221801   1.501   4.445   1.899 -0.9343  0.9391  1.3060
 3389SOL     OW21802   1.478   0.334   1.208 -0.4083  0.3302  0.0567
 3389SOL    HW121803   1.420   0.273   1.255 -2.2760  1.0709 -1.2604
 3389SOL    HW221804   1.441   0.420   1.228  1.5623  1.0271  0.6433
 3390SOL     OW21805   1.956   4.001   3.979  0.0672  0.0806 -0.0289
 3390SOL    HW121806   1.954   3.906   3.988 -0.3950  0.1578  0.6473
 3390SOL    HW221807   1.865   4.022   3.958 -0.0397 -1.0027 -0.6627
 3391SOL     OW21808   3.046   1.206   6.288 -0.2899 -0.2673  0.0275
 3391SOL    HW121809   3.040   1.283   6.232 -2.2622 -0.1871  0.3502
 3391SOL    HW221810   3.072   1.139   6.226 -1.1461  0.6943 -1.3608
 3392SOL     OW21811   2.310   2.811   5.240 -0.5594 -0.2781  0.1297
 3392SOL    HW121812   2.258   2.838   5.316 -0.5333 -0.6950  0.2951
 3392SOL    HW221813   2.242   2.788   5.177  0.6125 -0.1097 -1.1855
 3393SOL     OW21814   4.117   0.572   7.350 -0.1677 -1.0461  0.0483
 3393SOL    HW121815   4.089   0.663   7.351  0.0754 -0.9731  0.2345
 3393SOL    HW221816   4.047   0.521   7.310 -2.5628  0.8668  1.7928
 3394SOL     OW21817   0.495   4.374   2.393  0.6766 -0.4855  0.1742
 3394SOL    HW121818   0.461   4.408   2.476 -1.6683 -0.1926 -0.9176
 3394SOL    HW221819   0.474   4.450   2.339 -0.6865  0.4823  2.0727
 3395SOL     OW21820   3.799   0.580   0.438  0.1134  0.1019  0.2571
 3395SOL    HW121821   3.732   0.580   0.370 -1.1522  0.9128  1.5122
 3395SOL    HW221822   3.747   0.601   0.516 -1.4520  0.0286 -0.7691
 3396SOL     OW21823   3.604   4.487  12.561  0.3387 -0.4494 -0.5404
 3396SOL    HW121824   3.554   4.564  12.588  1.5043  0.2625 -0.4108
 3396SOL    HW221825   3.670   4.527  12.505  0.1348  1.3424  0.4999
 3397SOL     OW21826   2.915   3.145  17.625 -0.0385 -0.1687 -0.2287
 3397SOL    HW121827   2.839   3.172  17.677 -0.8797  1.3040 -2.2354
 3397SOL    HW221828   2.972   3.134  17.701 -0.7145  1.0767  0.4657
 3398SOL     OW21829   1.554   1.618   8.333 -0.1458 -0.0761  0.5535
 3398SOL    HW121830   1.517   1.596   8.247 -0.3780  2.0387  0.1058
 3398SOL    HW221831   1.475   1.642   8.381  0.7663 -1.9586  2.9937
 3399SOL     OW21832   1.802   1.437   7.257 -0.0504 -0.1777 -0.5327
 3399SOL    HW121833   1.879   1.441   7.200 -1.3080 -1.0542 -2.2821
 3399SOL    HW221834   1.826   1.362   7.312  0.8911  0.8471  0.4438
 3400SOL     OW21835   1.850   0.536   2.042 -0.4484  0.2750 -0.2785
 3400SOL    HW121836   1.849   0.454   2.091  3.7682  0.2015 -0.3910
 3400SOL    HW221837   1.931   0.523   1.993 -0.2886  0.7814 -0.1515
 3401SOL     OW21838   3.628   4.235   6.756 -0.4622 -0.3143 -0.0610
 3401SOL    HW121839   3.671   4.292   6.820 -1.7214  0.1202  0.4130
 3401SOL    HW221840   3.674   4.152   6.761  0.9975  0.5665  1.0387
 3402SOL     OW21841   1.414   4.648   5.999  0.7609  0.3231  0.1074
 3402SOL    HW121842   1.482   4.622   5.937  0.8560 -1.5259  0.9805
 3402SOL    HW221843   1.415   4.562   6.043  1.1839 -0.3853 -1.3036
 3403SOL     OW21844   3.278   0.769   8.634  0.1705 -0.6428  0.2578
 3403SOL    HW121845   3.358   0.805   8.673  0.4884 -0.2688 -0.7442
 3403SOL    HW221846   3.315   0.744   8.550 -2.1667  0.6533 -1.1743
 3404SOL     OW21847   0.008   2.392   2.942 -0.3943 -0.1454 -0.7582
 3404SOL    HW121848   0.015   2.301   2.969 -1.1227  0.5416  1.8159
 3404SOL    HW221849   0.094   2.434   2.941 -0.3611 -0.2073 -0.4279
 3405SOL     OW21850   1.799   3.794  16.503 -0.1696 -0.6376 -0.1188
 3405SOL    HW121851   1.840   3.748  16.576 -1.9164 -0.9058  0.6735
 3405SOL    HW221852   1.780   3.729  16.434 -0.5425 -0.7801  0.1188
 3406SOL     OW21853   4.158   0.130  16.945  0.0641 -0.0606 -0.2948
 3406SOL    HW121854   4.070   0.148  16.979  0.0666 -2.5931  0.9758
 3406SOL    HW221855   4.210   0.139  17.024 -1.1300 -0.2377  0.5040
 3407SOL     OW21856   4.125   0.979   9.508 -0.0198 -0.0669 -0.3457
 3407SOL    HW121857   4.108   0.929   9.588 -1.8740  2.2200  0.6818
 3407SOL    HW221858   4.188   1.048   9.531 -1.1261  0.9669 -0.4440
 3408SOL     OW21859   1.087   1.381   6.635 -0.0894  0.2937 -0.1050
 3408SOL    HW121860   1.027   1.450   6.662  0.2373 -0.6144  2.9016
 3408SOL    HW221861   1.165   1.428   6.604  1.1620 -1.1092  0.8913
 3409SOL     OW21862   0.075   3.299   7.253  0.2053 -0.1393 -0.2092
 3409SOL    HW121863   0.120   3.215   7.256  0.4003 -0.0461 -0.5260
 3409SOL    HW221864   4.724   3.270   7.227  0.0581  2.3527 -2.5176
 3410SOL     OW21865   0.450   3.247   6.923  0.1586 -0.2568 -0.2836
 3410SOL    HW121866   0.500   3.306   6.867 -0.4766  1.3774  0.8880
 3410SOL    HW221867   0.395   3.306   6.975  0.3950 -2.0634  1.9987
 3411SOL     OW21868   4.573   3.064   3.541  0.2490  0.3330  0.4452
 3411SOL    HW121869   4.531   3.147   3.566 -1.6122 -0.5271  0.1129
 3411SOL    HW221870   4.660   3.070   3.581  1.1475 -1.1498 -1.2819
 3412SOL     OW21871   2.941   1.922  17.540 -0.0227  0.5499 -0.2030
 3412SOL    HW121872   2.920   1.873  17.620 -1.4653 -1.3056 -1.7235
 3412SOL    HW221873   3.036   1.910  17.540  0.2475  2.7125 -2.0534
 3413SOL     OW21874   2.382   3.242  15.860 -0.0417 -0.0168 -0.3776
 3413SOL    HW121875   2.349   3.178  15.797 -1.6104  0.8959 -0.4796
 3413SOL    HW221876   2.435   3.197  15.926 -1.4267 -0.8624  0.1637
 3414SOL     OW21877   1.601   3.358   2.844  0.7180 -0.1593 -0.3989
 3414SOL    HW121878   1.535   3.321   2.903  2.5687 -0.5428  1.4258
 3414SOL    HW221879   1.553   3.432   2.809  1.0789  0.8928  1.3518
 3415SOL     OW21880   0.177   3.916   9.739  0.1335 -0.1990  0.6414
 3415SOL    HW121881   0.165   3.821   9.736 -0.5643 -0.1981  3.2008
 3415SOL    HW221882   0.250   3.929   9.678 -0.4790 -1.8128 -0.4472
 3416SOL     OW21883   0.059   2.438  12.390  0.2651 -0.1320  0.2202
 3416SOL    HW121884   0.015   2.509  12.344 -1.6173 -0.9678  0.7335
 3416SOL    HW221885   0.117   2.404  12.322  0.6313 -1.8137  1.3727
 3417SOL     OW21886   4.689   3.855  16.127  0.0653 -0.0613 -0.0451
 3417SOL    HW121887   0.034   3.868  16.077  1.5489  1.8722  2.8783
 3417SOL    HW221888   4.628   3.848  16.054  3.4628 -2.9272 -2.6016
 3418SOL     OW21889   0.178   0.188   5.195  0.0901  0.2152  0.3984
 3418SOL    HW121890   0.263   0.162   5.231  0.0914  0.8250  0.8478
 3418SOL    HW221891   0.159   0.263   5.252  3.1091  0.4397  1.1193
 3419SOL     OW21892   1.381   0.854   6.474 -0.2555 -0.2763  0.1250
 3419SOL    HW121893   1.404   0.872   6.565 -2.9468  2.5447  0.2749
 3419SOL    HW221894   1.352   0.764   6.487 -2.5233 -0.0483 -3.2832
 3420SOL     OW21895   1.725   1.330   8.764  0.2152  0.0943 -0.1437
 3420SOL    HW121896   1.672   1.396   8.720 -1.6596 -0.0327  1.9735
 3420SOL    HW221897   1.813   1.354   8.733  1.4237 -3.3613  0.5371
 3421SOL     OW21898   0.408   3.414  10.977  0.0612  0.7128  0.4626
 3421SOL    HW121899   0.481   3.430  10.916  0.1011 -1.3111 -0.0263
 3421SOL    HW221900   0.452   3.414  11.062  0.5445  0.4736  0.2166
 3422SOL     OW21901   2.619   3.577   4.995  0.1547 -0.5884  0.7781
 3422SOL    HW121902   2.549   3.536   4.944  0.9701 -0.2514 -0.6116
 3422SOL    HW221903   2.653   3.641   4.933 -1.8122 -0.9338 -0.6527
 3423SOL     OW21904   4.325   1.190   7.762 -0.3599  0.0799 -0.5108
 3423SOL    HW121905   4.248   1.138   7.738 -0.6606  0.3537 -0.1427
 3423SOL    HW221906   4.333   1.255   7.692 -0.6310  0.5839 -0.0738
 3424SOL     OW21907   1.964   0.774   2.497 -0.1485 -0.0247  0.7860
 3424SOL    HW121908   1.892   0.817   2.543 -0.0175  2.0889 -1.0007
 3424SOL    HW221909   1.933   0.687   2.522 -0.3699 -0.4360 -0.9359
 3425SOL     OW21910   0.670   3.705   5.188  0.9568  0.4467  0.1115
 3425SOL    HW121911   0.627   3.662   5.114 -0.9609  0.5508  1.1759
 3425SOL    HW221912   0.763   3.692   5.166  1.3725 -0.2299  2.2558
 3426SOL     OW21913   3.061   1.992   3.125 -0.1668 -0.1149  0.1896
 3426SOL    HW121914   3.119   1.942   3.181 -0.7407 -1.7100 -0.6496
 3426SOL    HW221915   3.126   2.040   3.074  0.9006 -1.2803  0.4640
 3427SOL     OW21916   1.911   1.625   0.727 -0.0070 -0.1317 -0.2138
 3427SOL    HW121917   1.826   1.585   0.712 -0.3345 -0.1999  1.8313
 3427SOL    HW221918   1.886   1.717   0.732  1.4251  0.2272  0.3178
 3428SOL     OW21919   3.558   3.344   7.389  0.2966 -0.2338 -0.2542
 3428SOL    HW121920   3.525   3.433   7.407  0.4207 -0.1684 -0.3572
 3428SOL    HW221921   3.510   3.289   7.451  0.9251 -0.6993 -0.1827
 3429SOL     OW21922   1.704   1.005  15.125  0.0654 -0.7355  0.1869
 3429SOL    HW121923   1.714   0.936  15.059  2.0713 -0.1938 -0.1009
 3429SOL    HW221924   1.639   0.964  15.180 -2.2072 -0.2164 -2.1022
 3430SOL     OW21925   3.395   1.522   6.843  0.1773 -0.3205 -0.5556
 3430SOL    HW121926   3.339   1.562   6.909 -0.7807 -0.4598 -1.2890
 3430SOL    HW221927   3.329   1.468   6.800  3.7492 -3.4799 -2.1359
 3431SOL     OW21928   3.634   1.953   3.078 -0.4382 -0.1841 -0.4372
 3431SOL    HW121929   3.586   1.891   3.131 -1.6376  2.0033  1.0476
 3431SOL    HW221930   3.602   2.037   3.111  1.4727 -0.2561  1.5938
 3432SOL     OW21931   3.290   2.556  15.966 -0.4410  0.8321  0.1099
 3432SOL    HW121932   3.197   2.572  15.982 -0.4783 -1.2974  1.9312
 3432SOL    HW221933   3.322   2.608  16.039  0.6811 -0.4367  0.5046
 3433SOL     OW21934   0.017   1.164  10.402  0.3818  0.0581 -0.1876
 3433SOL    HW121935   0.076   1.211  10.342 -0.8723  1.3872 -0.3761
 3433SOL    HW221936   4.662   1.174  10.377  0.7634  0.0880 -1.5587
 3434SOL     OW21937   1.674   2.335   4.536  0.1738 -0.1683  0.2236
 3434SOL    HW121938   1.721   2.413   4.566  0.2586  0.5827 -1.9186
 3434SOL    HW221939   1.656   2.364   4.447 -0.7816 -1.5294 -0.0354
 3435SOL     OW21940   4.440   3.428   2.485  0.3892  0.2935  0.1650
 3435SOL    HW121941   4.406   3.341   2.462  0.9143 -0.1473  1.0623
 3435SOL    HW221942   4.509   3.420   2.419  0.4445  0.3074  0.2209
 3436SOL     OW21943   4.475   0.594  15.677  0.3337 -0.0531  0.2365
 3436SOL    HW121944   4.397   0.543  15.701 -0.6232  0.9119 -0.7508
 3436SOL    HW221945   4.551   0.553  15.717  0.9169  0.1807 -0.6295
 3437SOL     OW21946   0.323   3.868   3.112  0.1753  1.0061 -0.1296
 3437SOL    HW121947   0.260   3.931   3.078 -0.8144  0.7981  1.3056
 3437SOL    HW221948   0.379   3.860   3.035 -0.8184 -0.7395 -0.6757
 3438SOL     OW21949   2.874   2.910   8.886 -0.2248 -0.9485  0.3192
 3438SOL    HW121950   2.946   2.872   8.836 -0.0236 -2.9366  2.1033
 3438SOL    HW221951   2.819   2.833   8.906 -2.4507  0.0289 -2.0675
 3439SOL     OW21952   2.154   3.414  13.714  0.0061 -0.2197  0.3177
 3439SOL    HW121953   2.082   3.463  13.755  0.0521 -0.4109  0.6297
 3439SOL    HW221954   2.198   3.390  13.796  1.0543  0.2346 -0.1157
 3440SOL     OW21955   1.385   1.256   2.396  0.2553  0.0117 -0.5556
 3440SOL    HW121956   1.476   1.268   2.366  1.4406 -1.1032  2.6147
 3440SOL    HW221957   1.394   1.237   2.489 -1.1981  0.8573 -0.2425
 3441SOL     OW21958   1.711   3.496   6.313  0.9616  0.1100  0.7487
 3441SOL    HW121959   1.677   3.408   6.297  0.8294 -0.1105  2.1892
 3441SOL    HW221960   1.777   3.490   6.383 -0.8784  0.1669  2.4997
 3442SOL     OW21961   2.402   3.277  13.298 -0.2410  0.0400  0.1379
 3442SOL    HW121962   2.378   3.331  13.374  0.8574 -0.0124  0.5143
 3442SOL    HW221963   2.485   3.238  13.324 -1.3973 -0.4289  3.1644
 3443SOL     OW21964   2.086   3.398   2.796 -0.2482 -0.2702 -0.1332
 3443SOL    HW121965   2.132   3.450   2.729 -1.6057  2.1026  0.7494
 3443SOL    HW221966   1.995   3.425   2.781  0.7057  1.0311 -3.6446
 3444SOL     OW21967   4.345   2.684   8.463  0.5520  0.0086  0.3747
 3444SOL    HW121968   4.372   2.774   8.444 -1.1124  0.7149  1.3539
 3444SOL    HW221969   4.399   2.651   8.535  0.5077  0.6030  0.6825
 3445SOL     OW21970   2.456   4.017   8.080  0.1190  0.5196  0.2053
 3445SOL    HW121971   2.377   4.026   8.027  0.9357 -1.7952 -1.4343
 3445SOL    HW221972   2.477   3.925   8.064  0.9179  0.1905  3.1471
 3446SOL     OW21973   0.652   1.507   8.807  0.5170 -0.5961 -0.8456
 3446SOL    HW121974   0.710   1.529   8.880  0.5884  1.3022 -1.4971
 3446SOL    HW221975   0.708   1.531   8.734  0.5526  0.1985 -0.5525
 3447SOL     OW21976   1.716   4.350   4.312  0.2038  0.2174  0.1544
 3447SOL    HW121977   1.779   4.306   4.255  0.5468  0.8284  0.0684
 3447SOL    HW221978   1.660   4.273   4.320 -2.6564  2.4149  1.1649
 3448SOL     OW21979   3.512   3.999   5.686 -0.2243  0.2417  0.2362
 3448SOL    HW121980   3.561   4.014   5.767  0.4816  1.9878 -0.5247
 3448SOL    HW221981   3.479   3.909   5.692  0.5273  0.0230  1.0579
 3449SOL     OW21982   3.154   2.464   1.435  0.0184  0.2619  0.2212
 3449SOL    HW121983   3.240   2.426   1.416 -0.3485  0.8085 -2.5216
 3449SOL    HW221984   3.126   2.497   1.350 -1.0516 -0.7820  0.1680
 3450SOL     OW21985   0.347   4.585   2.097  0.0019  0.5078 -0.8734
 3450SOL    HW121986   0.261   4.544   2.101  0.4445 -0.3391 -0.2596
 3450SOL    HW221987   0.361   4.600   2.191 -0.8823 -2.5833 -0.2716
 3451SOL     OW21988   1.181   3.312   2.784 -0.0260 -0.1559  0.1508
 3451SOL    HW121989   1.246   3.254   2.746  0.9538  0.9993  0.0672
 3451SOL    HW221990   1.176   3.377   2.713 -0.5658 -0.4712 -0.1046
 3452SOL     OW21991   3.300   1.648   9.323  0.0110 -0.2538 -0.6491
 3452SOL    HW121992   3.266   1.723   9.372  0.4765  0.7102 -1.7828
 3452SOL    HW221993   3.391   1.677   9.308 -0.0196  0.7078  1.0570
 3453SOL     OW21994   1.787   1.457   4.320 -0.4842  0.5172  0.3268
 3453SOL    HW121995   1.757   1.502   4.241 -1.1505 -2.5622 -1.1710
 3453SOL    HW221996   1.827   1.379   4.282  0.0531  0.1464  1.6865
 3454SOL     OW21997   1.598   1.338   3.560 -0.7004  0.0361 -0.0546
 3454SOL    HW121998   1.677   1.379   3.597 -0.6970  0.2616 -0.3088
 3454SOL    HW221999   1.619   1.247   3.580  0.8797  1.5064  5.0049
 3455SOL     OW22000   0.302   0.462  10.670 -0.3256  0.0666 -0.1213
 3455SOL    HW122001   0.309   0.548  10.711 -0.7465 -1.0927  2.3550
 3455SOL    HW222002   0.260   0.415  10.742  1.4753  1.9248  2.1207
 3456SOL     OW22003   0.862   3.963   0.329  0.1540 -0.4369  0.1802
 3456SOL    HW122004   0.788   4.017   0.357  0.0291 -0.8045  0.5566
 3456SOL    HW222005   0.819   3.878   0.313  2.1624 -1.5433  0.7051
 3457SOL     OW22006   1.632   0.562  11.502  0.1489 -0.1820  0.0346
 3457SOL    HW122007   1.658   0.473  11.523  0.5207  0.8111  3.7470
 3457SOL    HW222008   1.605   0.540  11.413  3.0903  0.3718 -0.9796
 3458SOL     OW22009   2.039   4.358   3.242  0.1108  0.2236  0.2515
 3458SOL    HW122010   2.015   4.321   3.327 -1.3564 -0.0171 -0.2691
 3458SOL    HW222011   2.006   4.446   3.258  1.0347  0.9569 -1.8609
 3459SOL     OW22012   0.462   1.072   3.075  0.0493 -0.4146 -0.7913
 3459SOL    HW122013   0.438   1.143   3.015 -3.5866  0.6530  1.9535
 3459SOL    HW222014   0.427   1.000   3.023 -0.7021 -0.6081 -0.0092
 3460SOL     OW22015   3.032   3.919   6.684 -0.2765 -0.6596  0.3383
 3460SOL    HW122016   3.123   3.939   6.666 -0.7629  0.6883 -0.5861
 3460SOL    HW222017   2.984   3.992   6.646  0.2110 -0.4029  0.2217
 3461SOL     OW22018   3.118   4.447   2.012 -0.0550 -0.4927  0.3631
 3461SOL    HW122019   3.057   4.389   2.057  1.7552 -3.2362 -0.7019
 3461SOL    HW222020   3.080   4.451   1.924 -0.6625  0.1570  0.6586
 3462SOL     OW22021   4.602   1.348   0.610  0.4160  0.0342  0.1373
 3462SOL    HW122022   4.532   1.401   0.647 -0.1872 -1.4848  1.1376
 3462SOL    HW222023   4.546   1.280   0.573  0.7620  1.1601 -2.4645
 3463SOL     OW22024   2.047   4.084   6.948 -0.2264 -0.3243  0.2220
 3463SOL    HW122025   2.107   4.010   6.958 -0.8443 -0.9656 -0.7267
 3463SOL    HW222026   2.100   4.153   6.987 -0.6145 -1.3758  2.6386
 3464SOL     OW22027   2.662   2.253  17.262  0.0981  0.0732  0.0044
 3464SOL    HW122028   2.732   2.244  17.197  1.4333  3.1976  1.0148
 3464SOL    HW222029   2.674   2.177  17.318 -1.0830  1.0336  1.5570
 3465SOL     OW22030   1.965   0.684   7.738  0.1397 -0.0590 -0.5711
 3465SOL    HW122031   2.061   0.688   7.736  0.0750  0.5434 -2.3689
 3465SOL    HW222032   1.936   0.600   7.703 -0.8513  0.1654 -0.2911
 3466SOL     OW22033   0.625   2.120  16.442  0.2235 -0.1046  0.0931
 3466SOL    HW122034   0.684   2.088  16.374 -1.7610 -1.6665 -0.9001
 3466SOL    HW222035   0.663   2.089  16.524  3.2068 -1.0104 -1.6307
 3467SOL     OW22036   2.172   1.552   7.315 -0.5077  0.1673  0.3053
 3467SOL    HW122037   2.124   1.521   7.238 -1.1890  0.6988  0.5166
 3467SOL    HW222038   2.219   1.469   7.318  0.5114  0.6836 -1.0068
 3468SOL     OW22039   1.005   1.589   8.118 -0.2817  0.1375  0.4955
 3468SOL    HW122040   0.953   1.532   8.061  0.0320  1.3884 -1.0262
 3468SOL    HW222041   1.051   1.646   8.057 -0.4830  1.9836  2.0537
 3469SOL     OW22042   2.261   2.656   4.704  0.0464 -0.3176 -0.6474
 3469SOL    HW122043   2.323   2.604   4.653 -0.5571 -0.6617 -1.0315
 3469SOL    HW222044   2.263   2.603   4.784  2.0383  0.2755 -0.3167
 3470SOL     OW22045   2.033   1.393   8.788  0.2526 -0.2595 -0.9961
 3470SOL    HW122046   2.033   1.351   8.874 -0.5893  1.2216 -0.2863
 3470SOL    HW222047   2.074   1.326   8.732  0.4379 -1.0359  0.0738
 3471SOL     OW22048   0.550   3.892   2.196 -0.4686  0.5684 -0.1335
 3471SOL    HW122049   0.462   3.856   2.190 -0.5356  0.3347  2.1143
 3471SOL    HW222050   0.561   3.914   2.288  1.4096 -0.9708  0.0136
 3472SOL     OW22051   3.289   1.482   2.820  0.9918  0.0707 -0.8221
 3472SOL    HW122052   3.239   1.563   2.807 -0.0947 -0.2662  1.2866
 3472SOL    HW222053   3.216   1.420   2.814  0.5915  0.4537  0.0213
 3473SOL     OW22054   1.190   1.957   6.346 -0.5132  0.1236 -0.3472
 3473SOL    HW122055   1.273   1.961   6.298 -0.5175  1.2121 -0.2741
 3473SOL    HW222056   1.218   1.991   6.431 -1.3220 -0.2376  0.0630
 3474SOL     OW22057   4.446   3.615   1.997  0.1020  0.2634  0.4923
 3474SOL    HW122058   4.353   3.631   2.009 -0.1913 -1.5972  0.7763
 3474SOL    HW222059   4.464   3.695   1.947 -1.3375  0.7492  0.7734
 3475SOL     OW22060   0.186   3.037   2.035  0.4563 -0.1457  0.3118
 3475SOL    HW122061   0.207   3.127   2.011 -1.4963  0.2093 -0.0903
 3475SOL    HW222062   0.215   2.991   1.957 -1.0571  1.5169 -1.2318
 3476SOL     OW22063   4.418   2.648   4.998  0.5368 -0.2283  0.0878
 3476SOL    HW122064   4.399   2.562   5.034  3.1488 -0.4695  0.8732
 3476SOL    HW222065   4.361   2.648   4.922 -0.1118  1.0217  0.5751
 3477SOL     OW22066   1.305   3.221   0.718  0.6610  0.2269  0.0997
 3477SOL    HW122067   1.318   3.148   0.657 -1.7944 -0.1321 -0.0065
 3477SOL    HW222068   1.299   3.292   0.655  0.9162  0.2242  0.0737
 3478SOL     OW22069   0.033   4.283   9.158 -0.9302  0.5925 -0.0982
 3478SOL    HW122070   0.117   4.237   9.146 -1.7399 -1.0849  0.5969
 3478SOL    HW222071   0.062   4.374   9.161  0.7450  0.1816 -3.6199
 3479SOL     OW22072   1.433   2.868   3.206 -0.1863 -0.0906  0.2910
 3479SOL    HW122073   1.419   2.813   3.129  1.8516 -0.9057  0.4998
 3479SOL    HW222074   1.371   2.834   3.270 -1.9290 -0.8959 -1.8314
 3480SOL     OW22075   1.813   1.401  11.042 -0.1352 -0.8774  0.5323
 3480SOL    HW122076   1.840   1.428  11.130 -2.8381  1.4358  0.6738
 3480SOL    HW222077   1.747   1.468  11.023 -1.3611 -1.8067  1.5129
 3481SOL     OW22078   0.165   4.437   9.761 -0.6001 -0.4749 -0.1730
 3481SOL    HW122079   0.221   4.366   9.794 -0.7107 -0.2123  0.5866
 3481SOL    HW222080   0.083   4.419   9.807 -0.8467 -0.2748 -0.5395
 3482SOL     OW22081   2.166   0.111   8.655  0.3985 -0.3338  0.3740
 3482SOL    HW122082   2.096   0.167   8.690 -1.2792 -0.5133 -2.6921
 3482SOL    HW222083   2.123   0.072   8.579  1.4294  0.2090 -0.4872
 3483SOL     OW22084   4.419   3.557   8.868 -0.0761  0.5988 -0.1890
 3483SOL    HW122085   4.376   3.472   8.879 -0.9411  1.2810  1.7396
 3483SOL    HW222086   4.435   3.546   8.775 -1.7737  0.9435 -0.5142
 3484SOL     OW22087   0.367   0.709   2.731  0.0904 -0.1355  0.7145
 3484SOL    HW122088   0.341   0.620   2.708 -0.9064  0.4215 -0.2847
 3484SOL    HW222089   0.441   0.726   2.673  1.2003  0.1108  2.1857
 3485SOL     OW22090   3.549   4.412   5.011 -0.5242 -0.7242 -0.6225
 3485SOL    HW122091   3.483   4.400   4.944 -1.8640 -0.7225  0.6972
 3485SOL    HW222092   3.520   4.348   5.076 -0.0818 -0.5782 -0.2767
 3486SOL     OW22093   0.572   0.620  15.232 -0.3353 -0.2497 -0.6244
 3486SOL    HW122094   0.608   0.703  15.264  0.5446 -0.7057 -0.4639
 3486SOL    HW222095   0.519   0.650  15.158  1.7009  2.0467 -1.1527
 3487SOL     OW22096   0.069   1.931   3.154 -0.4879  0.1313 -0.0358
 3487SOL    HW122097   0.022   2.011   3.129  0.9106  0.9493 -0.0457
 3487SOL    HW222098   0.130   1.964   3.220 -1.4886 -0.3673  1.1418
 3488SOL     OW22099   0.857   2.474  17.268  0.4573 -0.2156 -0.2709
 3488SOL    HW122100   0.774   2.482  17.315 -0.5522 -3.9680 -1.4036
 3488SOL    HW222101   0.816   2.431  17.193  0.5123 -1.7822  0.5931
 3489SOL     OW22102   2.957   1.140   9.877 -0.0594 -0.0458  0.0358
 3489SOL    HW122103   2.954   1.186   9.793 -0.7457 -0.7493 -0.3302
 3489SOL    HW222104   3.043   1.158   9.915  0.2563  0.6928 -1.0403
 3490SOL     OW22105   2.812   1.825   2.222  0.8833 -0.4260 -0.4373
 3490SOL    HW122106   2.753   1.761   2.262 -0.9840  0.8346 -1.1617
 3490SOL    HW222107   2.768   1.836   2.138 -1.0069 -0.4567  0.5517
 3491SOL     OW22108   4.083   0.495  16.691  0.2172  0.3328  0.4533
 3491SOL    HW122109   4.049   0.416  16.647  0.2042  0.7570 -0.3081
 3491SOL    HW222110   4.068   0.565  16.627  1.1859  0.9970  0.9637
 3492SOL     OW22111   2.970   0.788   7.057 -0.2081  0.1217 -0.8821
 3492SOL    HW122112   2.967   0.704   7.102  1.3407  0.2627 -0.5130
 3492SOL    HW222113   2.925   0.848   7.117  0.3934 -0.6882  0.3703
 3493SOL     OW22114   2.049   2.847  17.676 -0.2021  0.1800 -0.5812
 3493SOL    HW122115   2.127   2.810  17.635 -1.3782 -2.1150 -0.7264
 3493SOL    HW222116   2.085   2.879   0.015  0.8435  0.6804 -1.2430
 3494SOL     OW22117   0.161   0.033   3.509 -0.4187 -0.1162 -0.1431
 3494SOL    HW122118   0.232   4.736   3.564  1.3326 -0.6612 -2.7140
 3494SOL    HW222119   0.090   4.724   3.555  0.2442  0.5922  1.5639
 3495SOL     OW22120   1.537   4.460   0.825  0.1459 -0.2691 -0.1880
 3495SOL    HW122121   1.598   4.511   0.878 -1.0054  1.1282 -0.2025
 3495SOL    HW222122   1.475   4.527   0.798 -0.5429 -1.3947 -1.3811
 3496SOL     OW22123   0.580   0.497   2.835 -0.1329  0.1317  0.1568
 3496SOL    HW122124   0.584   0.550   2.755  1.3412  0.2533  0.3252
 3496SOL    HW222125   0.524   0.428   2.799  0.8497 -1.3230  1.4749
 3497SOL     OW22126   2.575   4.504   3.777 -0.2800 -0.4994  0.1835
 3497SOL    HW122127   2.535   4.438   3.832  0.1779 -1.6703 -0.8898
 3497SOL    HW222128   2.604   4.439   3.712 -0.6659 -0.1160 -0.3712
 3498SOL     OW22129   3.534   3.740   8.473  0.2699  0.0887 -0.7661
 3498SOL    HW122130   3.521   3.805   8.404 -0.6083 -0.2531 -0.9241
 3498SOL    HW222131   3.464   3.774   8.529 -0.6287 -0.5537 -1.4963
 3499SOL     OW22132   1.484   1.910   8.733 -0.0533 -0.1541 -0.3975
 3499SOL    HW122133   1.472   1.825   8.777 -0.6410  0.3256  0.3789
 3499SOL    HW222134   1.502   1.967   8.808 -0.8956 -0.2626 -0.1050
 3500SOL     OW22135   3.342   4.161   6.090  0.2455 -0.0359 -0.1952
 3500SOL    HW122136   3.272   4.109   6.052 -0.8545  1.8370 -0.7220
 3500SOL    HW222137   3.302   4.199   6.168  0.4823 -0.2167  0.0166
 3501SOL     OW22138   2.060   4.668   7.784  0.6761 -0.5984 -0.0081
 3501SOL    HW122139   2.080   4.695   7.873 -1.9130  0.0756  0.3666
 3501SOL    HW222140   1.993   4.729   7.753  1.3617  0.4000  0.4779
 3502SOL     OW22141   3.075   4.459  10.333  0.0532  0.9614 -0.1955
 3502SOL    HW122142   3.062   4.477  10.426  0.4346  1.0719 -0.1624
 3502SOL    HW222143   3.013   4.514  10.285 -0.5669 -0.1427 -0.6515
 3503SOL     OW22144   4.626   2.091   5.794  0.4333 -0.3879  0.1721
 3503SOL    HW122145   4.589   2.080   5.882  0.5743 -2.1410 -0.0051
 3503SOL    HW222146   4.712   2.051   5.806  0.7296  0.2639  0.2176
 3504SOL     OW22147   4.635   3.655  14.199  0.3113  0.3389 -0.6261
 3504SOL    HW122148   4.541   3.668  14.207  0.4620  1.0762  0.0108
 3504SOL    HW222149   4.665   3.740  14.230  0.6880  0.1638 -0.5126
 3505SOL     OW22150   0.673   3.285   9.321  0.0647 -0.4604 -0.2749
 3505SOL    HW122151   0.712   3.353   9.376  1.2649  0.4310 -2.2498
 3505SOL    HW222152   0.749   3.226   9.327  0.7186  0.4219  0.1693
 3506SOL     OW22153   4.047   0.584  14.627 -0.3599  0.0923 -0.2200
 3506SOL    HW122154   4.071   0.553  14.714  0.6155 -1.6776 -1.1118
 3506SOL    HW222155   3.952   0.581  14.621 -0.1931 -1.1172 -2.3384
 3507SOL     OW22156   3.964   1.077  14.993 -0.0469 -0.0215 -0.4467
 3507SOL    HW122157   3.908   1.062  14.916 -0.5945 -1.7938  0.2787
 3507SOL    HW222158   3.908   1.029  15.055 -0.3330 -0.1798 -0.8274
 3508SOL     OW22159   2.168   4.456   6.320 -0.8130  0.0119 -0.4304
 3508SOL    HW122160   2.257   4.429   6.297 -1.4564 -0.7637 -2.0662
 3508SOL    HW222161   2.122   4.391   6.267  1.4129 -0.3200 -1.9449
 3509SOL     OW22162   2.971   3.186   8.097 -0.0793  0.6937 -0.0599
 3509SOL    HW122163   3.061   3.172   8.125 -0.7626  1.8146  2.6720
 3509SOL    HW222164   2.972   3.137   8.014  1.2743 -0.6910  0.7797
 3510SOL     OW22165   1.884   4.206   9.359 -0.0682  0.2128 -0.1382
 3510SOL    HW122166   1.816   4.139   9.363  0.5925 -0.3929  0.7736
 3510SOL    HW222167   1.952   4.167   9.414  0.3260  0.0064 -0.7683
 3511SOL     OW22168   1.224   4.249   7.102 -0.0158  0.0117  0.2499
 3511SOL    HW122169   1.193   4.159   7.109 -1.6714  0.5714  0.1044
 3511SOL    HW222170   1.174   4.290   7.172  1.7850 -1.4070  2.3584
 3512SOL     OW22171   3.294   4.227   1.389  0.1924  0.4067 -0.3181
 3512SOL    HW122172   3.363   4.221   1.455  0.3146 -2.0516 -0.6694
 3512SOL    HW222173   3.342   4.216   1.307 -0.2244 -2.1632 -0.1911
 3513SOL     OW22174   2.291   4.481  11.565 -0.3088 -0.0189 -0.3295
 3513SOL    HW122175   2.226   4.541  11.529 -1.5192 -0.3807  1.2517
 3513SOL    HW222176   2.312   4.436  11.484 -1.5976 -2.8914  0.9510
 3514SOL     OW22177   3.287   0.207  15.397 -0.4322  0.0622  0.3802
 3514SOL    HW122178   3.365   0.231  15.347 -0.2084 -0.5705  0.4294
 3514SOL    HW222179   3.241   0.152  15.334  2.3417 -1.6838 -0.1146
 3515SOL     OW22180   2.285   3.372   1.230 -0.2891 -0.1433  0.1761
 3515SOL    HW122181   2.229   3.403   1.159 -1.3861 -0.4894  0.8883
 3515SOL    HW222182   2.228   3.378   1.307 -0.7134 -1.5354 -0.0470
 3516SOL     OW22183   2.286   0.854   2.093  0.2814  0.1387 -0.0652
 3516SOL    HW122184   2.203   0.885   2.056 -0.3688 -1.1526  0.2979
 3516SOL    HW222185   2.264   0.843   2.185  1.0372  1.6600  0.2977
 3517SOL     OW22186   1.327   4.193   3.959  0.0522 -0.5463  0.5164
 3517SOL    HW122187   1.394   4.248   3.999 -1.1716  0.9397  0.4818
 3517SOL    HW222188   1.375   4.159   3.883 -0.7777 -0.6883  0.0526
 3518SOL     OW22189   2.690   2.301   6.647  0.0983 -0.2431  0.6473
 3518SOL    HW122190   2.645   2.368   6.595  1.4366 -1.1482 -1.6533
 3518SOL    HW222191   2.614   2.254   6.681  1.5259 -2.4561  0.7256
 3519SOL     OW22192   4.356   1.393   4.552  0.1249 -0.1656 -0.0483
 3519SOL    HW122193   4.330   1.307   4.520 -0.8684  0.4932 -1.0504
 3519SOL    HW222194   4.272   1.435   4.571 -0.2799 -1.1657  0.3672
 3520SOL     OW22195   0.332   2.148   6.606 -0.1586 -0.1290 -0.0342
 3520SOL    HW122196   0.426   2.159   6.590  0.0419  0.9292  1.8654
 3520SOL    HW222197   0.301   2.221   6.552  0.9325 -0.1747 -0.7281
 3521SOL     OW22198   1.302   2.343  17.711 -0.0214  0.5441 -0.6226
 3521SOL    HW122199   1.356   2.331  17.633 -0.8477 -1.7231 -0.8529
 3521SOL    HW222200   1.362   2.369   0.037  1.3519 -0.8225 -1.3128
 3522SOL     OW22201   1.323   3.446   7.120 -0.0109 -0.0718 -0.5463
 3522SOL    HW122202   1.240   3.477   7.157  0.5245  1.1537 -0.3676
 3522SOL    HW222203   1.309   3.445   7.026  1.0791  2.0279 -0.7370
 3523SOL     OW22204   4.035   0.996   7.928  0.5278  0.2148  0.0076
 3523SOL    HW122205   4.079   0.974   7.846 -1.0277 -1.5080 -0.3566
 3523SOL    HW222206   4.039   1.092   7.923 -0.3323  0.2111 -0.5865
 3524SOL     OW22207   0.226   0.285  10.886  0.2703  0.7485  0.3550
 3524SOL    HW122208   0.266   0.222  10.827 -1.4342  0.5657 -0.6112
 3524SOL    HW222209   0.143   0.242  10.909  1.0384 -0.5792  0.5965
 3525SOL     OW22210   4.644   1.585   4.332  0.3807  0.1846 -0.0280
 3525SOL    HW122211   4.648   1.541   4.417  0.4284  1.0246  0.4049
 3525SOL    HW222212   0.000   1.566   4.319  0.2000 -1.2789  0.9016
 3526SOL     OW22213   1.148   0.024   4.481 -0.2851 -0.2202  0.4202
 3526SOL    HW122214   1.171   4.716   4.400 -0.0707  1.7293 -0.5670
 3526SOL    HW222215   1.221   0.084   4.495 -0.6264  0.3100 -0.0961
 3527SOL     OW22216   2.909   4.525   2.916  0.7592 -0.0744  0.3052
 3527SOL    HW122217   2.857   4.556   2.990 -0.1963  1.1699 -0.8871
 3527SOL    HW222218   2.914   4.431   2.931  0.5240 -0.1285  0.0265
 3528SOL     OW22219   0.192   3.719   8.803  0.0503  0.6044 -0.4030
 3528SOL    HW122220   0.269   3.663   8.809 -0.4303 -0.0091  0.0948
 3528SOL    HW222221   0.133   3.676   8.865  0.9015  0.0151  0.0037
 3529SOL     OW22222   0.262   2.520  16.032  0.5454  0.0388 -0.0684
 3529SOL    HW122223   0.301   2.599  15.996  2.2227 -0.1295  1.3929
 3529SOL    HW222224   0.294   2.522  16.122 -0.0389  2.7197  0.0817
 3530SOL     OW22225   0.883   3.061   5.381  0.0953 -0.0380  0.8093
 3530SOL    HW122226   0.924   3.147   5.392 -0.6964  0.0023  3.4243
 3530SOL    HW222227   0.816   3.068   5.449 -0.4037 -0.8937  0.4099
 3531SOL     OW22228   3.481   4.690   9.362 -0.6233 -0.3559 -0.7127
 3531SOL    HW122229   3.568   4.662   9.334 -0.3683 -1.2586  1.0196
 3531SOL    HW222230   3.505   0.017   9.429  0.2797  0.6111 -1.9562
 3532SOL     OW22231   0.421   2.549   3.251 -0.2361 -0.0578 -0.2449
 3532SOL    HW122232   0.435   2.602   3.172 -2.1655 -0.4312 -0.8573
 3532SOL    HW222233   0.483   2.478   3.232 -1.0567 -0.8670  0.0949
 3533SOL     OW22234   2.135   2.367   6.963 -0.1269  0.4825  0.1359
 3533SOL    HW122235   2.147   2.272   6.962 -2.4766  0.1528  2.1851
 3533SOL    HW222236   2.039   2.374   6.962 -0.2533 -1.6631 -1.7335
 3534SOL     OW22237   1.363   0.139   6.691 -0.3331  0.0033 -0.1328
 3534SOL    HW122238   1.345   0.058   6.644 -1.1211 -1.2614  2.3256
 3534SOL    HW222239   1.387   0.202   6.623  1.5624  0.6967  1.1406
 3535SOL     OW22240   2.355   3.432  12.123 -0.1212  0.3008  0.6157
 3535SOL    HW122241   2.347   3.480  12.041  1.5893  2.0404  1.4702
 3535SOL    HW222242   2.272   3.468  12.156 -0.6169 -0.0850 -0.2146
 3536SOL     OW22243   4.079   1.126  14.214 -0.0005 -0.4051 -0.0055
 3536SOL    HW122244   4.078   1.187  14.287  1.6039 -0.0771 -0.2654
 3536SOL    HW222245   4.017   1.066  14.257  1.0206 -2.9240 -2.0391
 3537SOL     OW22246   1.272   1.029   7.454  0.0166 -0.5300 -0.4217
 3537SOL    HW122247   1.278   1.002   7.545  1.1459  0.3866 -0.2162
 3537SOL    HW222248   1.287   1.121   7.474  1.3690 -0.5163 -1.4291
 3538SOL     OW22249   4.396   0.954   0.487  0.2577 -0.0887  0.2518
 3538SOL    HW122250   4.370   0.908   0.407  0.8954 -1.0106  0.5761
 3538SOL    HW222251   4.370   0.898   0.560 -0.4580  0.2391  0.2392
 3539SOL     OW22252   4.237   0.141   9.471 -0.0565  0.4313 -0.4152
 3539SOL    HW122253   4.203   0.170   9.555 -0.0167 -3.6620  1.0235
 3539SOL    HW222254   4.330   0.123   9.484  0.0486  0.9135 -0.5066
 3540SOL     OW22255   0.370   3.044   1.098 -0.0743  0.0158 -0.7920
 3540SOL    HW122256   0.444   3.091   1.137 -1.0998 -0.0025  1.1667
 3540SOL    HW222257   0.409   3.001   1.022  0.2893  0.9903 -1.1568
 3541SOL     OW22258   3.164   1.566   5.954  0.2802 -0.0620 -0.1883
 3541SOL    HW122259   3.254   1.548   5.982 -0.8053  0.6943  3.7252
 3541SOL    HW222260   3.178   1.655   5.920 -0.2467  0.8960  2.1514
 3542SOL     OW22261   1.979   2.663   6.732  0.1798  0.2642 -0.3959
 3542SOL    HW122262   2.029   2.692   6.655  0.4427 -2.8705 -1.3925
 3542SOL    HW222263   1.997   2.736   6.791 -0.5679  0.3915 -0.3362
 3543SOL     OW22264   2.524   1.654   7.222  0.3126  0.7245  0.4095
 3543SOL    HW122265   2.591   1.634   7.288  1.5386 -2.4612 -1.7951
 3543SOL    HW222266   2.521   1.749   7.232 -1.9639  0.4419  2.2249
 3544SOL     OW22267   1.067   2.833   0.779 -0.5025  0.0532 -0.3546
 3544SOL    HW122268   1.109   2.880   0.852  1.5853  0.1288 -1.5958
 3544SOL    HW222269   1.027   2.756   0.818  1.1606 -0.6357 -0.0195
 3545SOL     OW22270   0.006   2.165   6.608  0.0574  0.4953 -0.0408
 3545SOL    HW122271   4.684   2.136   6.678  0.3828  1.2653  0.5444
 3545SOL    HW222272   4.697   2.242   6.574  1.4822  0.9999 -0.7687
 3546SOL     OW22273   3.359   0.478   5.927  0.0189 -0.0180 -0.5645
 3546SOL    HW122274   3.328   0.516   6.009  1.8104  2.5596 -1.0686
 3546SOL    HW222275   3.392   0.393   5.955  0.2734  0.2036 -0.1879
 3547SOL     OW22276   0.013   1.753   2.282 -0.7845  0.4660 -0.2136
 3547SOL    HW122277   4.701   1.812   2.223  0.1803 -0.8643 -2.3247
 3547SOL    HW222278   0.010   1.676   2.225  0.6541  0.2549 -0.0022
 3548SOL     OW22279   0.854   2.110  14.344  0.1150 -0.5541 -0.3843
 3548SOL    HW122280   0.877   2.036  14.400 -2.1131 -0.0973  1.1411
 3548SOL    HW222281   0.931   2.110  14.288  0.5391  0.2137  0.2137
 3549SOL     OW22282   2.177   1.837   8.466  0.0033 -0.2064  0.2439
 3549SOL    HW122283   2.139   1.777   8.530 -2.4103  0.2444 -0.7712
 3549SOL    HW222284   2.262   1.796   8.451 -0.2973 -0.2214 -1.4295
 3550SOL     OW22285   2.727   2.724   6.472  0.3655  0.1593  0.4195
 3550SOL    HW122286   2.817   2.720   6.442  0.3468  1.0633  0.2699
 3550SOL    HW222287   2.745   2.686   6.558 -0.9762  1.1307  1.1443
 3551SOL     OW22288   4.506   0.309   7.916  0.2892  0.2543  0.0423
 3551SOL    HW122289   4.507   0.385   7.859  0.9442  0.4437  0.2982
 3551SOL    HW222290   4.554   0.350   7.989  0.9652 -1.1258  0.3768
 3552SOL     OW22291   1.609   2.545  16.561  0.2266 -0.7223  0.1905
 3552SOL    HW122292   1.692   2.560  16.515  1.4512 -0.1422  2.5757
 3552SOL    HW222293   1.608   2.456  16.596 -0.6614  0.1211  2.3099
 3553SOL     OW22294   2.879   3.131   5.433  0.5804 -0.1135 -0.5096
 3553SOL    HW122295   2.933   3.164   5.361  0.2166  1.9963  0.1873
 3553SOL    HW222296   2.809   3.195   5.446 -0.5425 -1.0267 -2.1756
 3554SOL     OW22297   3.748   3.233   2.803  0.1352 -0.0680 -0.3761
 3554SOL    HW122298   3.841   3.259   2.805 -0.5238  2.0536  4.7013
 3554SOL    HW222299   3.712   3.274   2.882  1.1467  0.6023 -0.2517
 3555SOL     OW22300   0.777   1.830   7.934 -0.4367  0.1579  0.0382
 3555SOL    HW122301   0.740   1.816   8.021  0.9350 -1.6730  0.3216
 3555SOL    HW222302   0.858   1.879   7.952 -0.7857  0.0800  1.8246
 3556SOL     OW22303   4.378   3.208   8.063  0.4407  0.3083 -0.9895
 3556SOL    HW122304   4.338   3.182   7.980 -0.7875  0.5333 -0.4580
 3556SOL    HW222305   4.448   3.145   8.082 -1.4943 -1.3281  0.5442
 3557SOL     OW22306   2.598   3.555   4.102 -0.3192  0.1110  0.5803
 3557SOL    HW122307   2.679   3.594   4.135  0.6503 -0.5744 -1.0123
 3557SOL    HW222308   2.631   3.467   4.086  1.2583  0.5619  1.2487
 3558SOL     OW22309   3.753   1.028   2.240 -0.1481  0.1679  0.4545
 3558SOL    HW122310   3.726   0.937   2.255  1.4503 -0.7900 -2.4450
 3558SOL    HW222311   3.689   1.065   2.301 -0.3253 -0.7642  0.8391
 3559SOL     OW22312   0.959   4.730   5.065  0.0378 -0.5872 -0.2561
 3559SOL    HW122313   0.926   0.038   5.143  2.8942 -0.3813  0.8230
 3559SOL    HW222314   0.978   4.641   5.091  2.3593 -0.5505 -1.8672
 3560SOL     OW22315   4.419   2.255   5.430 -0.6272 -0.2151  0.8473
 3560SOL    HW122316   4.498   2.254   5.376 -2.1855 -2.3143 -1.4366
 3560SOL    HW222317   4.413   2.348   5.452  1.4527 -0.5350  2.6676
 3561SOL     OW22318   3.449   3.353   6.519 -0.1179  0.3582 -0.3320
 3561SOL    HW122319   3.429   3.434   6.566 -1.5752 -0.1795 -0.0047
 3561SOL    HW222320   3.359   3.330   6.497 -1.0074  2.7190  0.8190
 3562SOL     OW22321   2.251   3.410  14.357  0.0938  0.1997 -0.1991
 3562SOL    HW122322   2.185   3.368  14.302 -0.7254  0.8071  0.3015
 3562SOL    HW222323   2.205   3.416  14.441 -2.0531  1.7209 -1.4909
 3563SOL     OW22324   4.248   0.845   2.095 -0.3004 -0.1835  0.2834
 3563SOL    HW122325   4.207   0.900   2.028 -2.7387 -0.7327  1.3014
 3563SOL    HW222326   4.326   0.822   2.045  1.9983  0.9619  3.3190
 3564SOL     OW22327   0.511   2.933   8.348 -0.3378  0.2189  0.3590
 3564SOL    HW122328   0.507   2.914   8.254 -0.9731 -0.4704  0.5280
 3564SOL    HW222329   0.582   2.879   8.383  1.0993  0.7217 -1.7814
 3565SOL     OW22330   2.853   3.051   2.486 -0.0834  0.3224  0.0929
 3565SOL    HW122331   2.863   2.998   2.407  0.9908  2.4118 -1.1866
 3565SOL    HW222332   2.913   3.121   2.459  0.2926  0.0981  0.3556
 3566SOL     OW22333   1.276   2.720   7.952  0.3405  0.6800  0.1102
 3566SOL    HW122334   1.265   2.752   7.862  1.0610  1.3800  0.2724
 3566SOL    HW222335   1.370   2.722   7.969  0.4588  1.5631 -0.6555
 3567SOL     OW22336   0.460   0.310   6.043  0.2496  1.0281  0.0035
 3567SOL    HW122337   0.547   0.270   6.030 -1.3692 -2.9274  1.2016
 3567SOL    HW222338   0.484   0.334   6.132  1.8862 -3.4181  0.7664
 3568SOL     OW22339   2.698   1.098   8.680  0.1832  0.3277 -0.0719
 3568SOL    HW122340   2.672   1.163   8.744 -0.9238 -0.4055  0.2266
 3568SOL    HW222341   2.765   1.047   8.726  0.6003 -0.5648 -1.6469
 3569SOL     OW22342   4.655   0.504   4.090 -0.0945  0.1099 -0.3569
 3569SOL    HW122343   4.631   0.416   4.120 -2.5849  0.2791 -1.8668
 3569SOL    HW222344   4.703   0.530   4.169  0.7819 -2.1557 -0.1453
 3570SOL     OW22345   2.031   3.452   2.079  0.0712  0.6538 -0.2838
 3570SOL    HW122346   1.947   3.461   2.125  1.0060  1.3339  1.2773
 3570SOL    HW222347   2.007   3.422   1.992  1.4030 -0.4309 -0.2746
 3571SOL     OW22348   3.891   4.004   7.849 -0.5076  0.8343 -0.5330
 3571SOL    HW122349   3.954   4.076   7.854  0.4781  0.0150 -1.2856
 3571SOL    HW222350   3.810   4.048   7.825 -0.4934  0.5507 -1.1039
 3572SOL     OW22351   3.282   0.639   6.742 -0.2375  0.3188  0.1266
 3572SOL    HW122352   3.296   0.678   6.828 -3.6870  0.6359  0.5198
 3572SOL    HW222353   3.197   0.599   6.758  0.3094 -0.5362  0.9486
 3573SOL     OW22354   3.628   0.323   7.018 -0.2348  0.5111 -0.4435
 3573SOL    HW122355   3.595   0.282   7.098 -0.1611  0.6239 -0.3542
 3573SOL    HW222356   3.554   0.307   6.959  0.3301  2.2268 -1.6211
 3574SOL     OW22357   4.565   3.531  11.948 -0.0206  0.6679  0.1956
 3574SOL    HW122358   4.530   3.603  12.002 -1.7792  1.7568 -2.3652
 3574SOL    HW222359   4.502   3.459  11.952 -0.2528  0.7798 -1.3847
 3575SOL     OW22360   0.134   3.469   2.240  0.1037  0.3123 -0.5241
 3575SOL    HW122361   0.085   3.543   2.276 -1.3865  0.0899 -2.0957
 3575SOL    HW222362   0.221   3.484   2.276 -0.2830  3.1917 -0.7989
 3576SOL     OW22363   4.006   0.606   3.042 -0.2781  0.0113 -0.2495
 3576SOL    HW122364   3.962   0.646   2.967 -0.2253  0.9619  0.2287
 3576SOL    HW222365   4.077   0.668   3.057 -0.0038 -0.5062  0.5889
 3577SOL     OW22366   3.032   4.252   6.400  1.0197  0.3286  0.4271
 3577SOL    HW122367   2.997   4.310   6.333 -1.3609 -0.2243  1.1806
 3577SOL    HW222368   3.013   4.174   6.348  2.0022  0.3094  0.1131
 3578SOL     OW22369   1.028   2.762   8.041 -0.5621  0.1202  0.6295
 3578SOL    HW122370   1.090   2.764   7.968 -0.1396  1.0819  1.0171
 3578SOL    HW222371   1.066   2.814   8.112  0.2948 -0.7907  0.8271
 3579SOL     OW22372   1.947   4.298   6.796  0.2834  0.0209  0.0439
 3579SOL    HW122373   1.981   4.209   6.806 -0.3960 -0.4703 -2.1073
 3579SOL    HW222374   1.988   4.317   6.712  0.0671 -0.9632 -0.2874
 3580SOL     OW22375   4.036   1.380   8.934 -0.1179 -0.4591 -0.0591
 3580SOL    HW122376   4.123   1.340   8.931 -0.9890 -2.4024  0.1752
 3580SOL    HW222377   4.033   1.401   8.841  0.4131  0.1888  0.0778
 3581SOL     OW22378   0.281   1.691   9.360  0.3308  0.0336 -0.5091
 3581SOL    HW122379   0.309   1.615   9.309 -0.5463 -1.4860  1.2995
 3581SOL    HW222380   0.355   1.734   9.403  0.2663 -1.1542  0.7917
 3582SOL     OW22381   0.980   2.141  16.127  0.1976 -0.2592 -0.2340
 3582SOL    HW122382   0.974   2.093  16.045 -1.7296 -0.7719  0.1907
 3582SOL    HW222383   1.059   2.098  16.161  1.2195 -0.1395 -2.4506
 3583SOL     OW22384   3.956   1.366   0.051 -0.3089 -0.1261 -0.2231
 3583SOL    HW122385   3.957   1.429  17.723 -1.3151  1.8689  1.5438
 3583SOL    HW222386   3.931   1.410   0.132 -0.2474  0.0937 -0.3235
 3584SOL     OW22387   0.267   1.702   2.432 -0.0735  1.0800  0.0533
 3584SOL    HW122388   0.187   1.732   2.389 -0.9981 -0.4685  0.7148
 3584SOL    HW222389   0.233   1.619   2.464  2.0841 -0.0819 -0.6715
 3585SOL     OW22390   3.268   1.924   3.308 -0.0504 -0.2887 -0.3193
 3585SOL    HW122391   3.225   1.864   3.369  2.0406 -1.3195  0.1371
 3585SOL    HW222392   3.346   1.876   3.280  0.9853  0.3860  1.4133
 3586SOL     OW22393   2.000   0.504   3.980  0.2206 -0.2178  0.3271
 3586SOL    HW122394   2.082   0.465   4.009 -0.8601 -1.9852  1.0042
 3586SOL    HW222395   2.023   0.578   3.924 -0.1192 -0.2922  0.0876
 3587SOL     OW22396   3.243   2.046   8.394 -0.3302 -0.1232  0.1813
 3587SOL    HW122397   3.338   2.056   8.392 -0.4955  1.0409 -2.0840
 3587SOL    HW222398   3.225   2.014   8.306  0.9989  1.4189 -0.6348
 3588SOL     OW22399   3.570   1.962   9.065  0.5510 -0.4114 -0.6172
 3588SOL    HW122400   3.582   1.983   8.973  3.3353 -0.8430 -0.3559
 3588SOL    HW222401   3.622   2.032   9.105 -1.1923  0.0302  0.8696
 3589SOL     OW22402   3.565   1.071   7.916  0.4307  0.3599  0.4386
 3589SOL    HW122403   3.624   1.082   7.990 -1.4075  1.4365  1.7222
 3589SOL    HW222404   3.535   0.982   7.936 -2.0920  0.8811 -0.9990
 3590SOL     OW22405   3.770   4.657   0.146 -0.0019  0.1942 -0.2223
 3590SOL    HW122406   3.813   4.628   0.066  0.9406  2.2610 -0.4706
 3590SOL    HW222407   3.685   4.627   0.116 -0.6014 -0.1083  1.8078
 3591SOL     OW22408   4.414   2.050   1.924  0.3727 -0.2353 -0.2204
 3591SOL    HW122409   4.457   2.059   1.840  2.5920 -0.3017  0.9112
 3591SOL    HW222410   4.332   2.010   1.896  0.7695 -1.2345  0.0456
 3592SOL     OW22411   0.669   0.514   6.008 -0.2116  0.2879 -0.0826
 3592SOL    HW122412   0.721   0.437   5.986 -0.4216  0.7133 -2.0131
 3592SOL    HW222413   0.648   0.502   6.101  0.8740 -0.4188  0.0672
 3593SOL     OW22414   2.717   1.241   0.482  0.0475 -0.4511  0.2964
 3593SOL    HW122415   2.735   1.237   0.388 -1.0045 -0.4893  0.1032
 3593SOL    HW222416   2.627   1.209   0.481  0.3599 -1.2965 -0.7748
 3594SOL     OW22417   0.178   3.364  10.865  0.0096 -0.3389 -0.3241
 3594SOL    HW122418   0.266   3.382  10.900  0.6510  2.0983 -3.2194
 3594SOL    HW222419   0.157   3.300  10.934  0.2020 -0.9495 -0.8355
 3595SOL     OW22420   1.482   4.296   7.024  0.1564  0.8128  0.0611
 3595SOL    HW122421   1.490   4.220   6.965 -0.4754  0.1326  0.8521
 3595SOL    HW222422   1.387   4.291   7.033  0.3471  2.3703  2.6263
 3596SOL     OW22423   3.407   2.039   3.659 -0.1567  0.6490  0.1601
 3596SOL    HW122424   3.441   2.110   3.605 -0.8490 -0.4458 -1.7526
 3596SOL    HW222425   3.467   2.040   3.733  0.6497 -3.4520 -0.4260
 3597SOL     OW22426   0.714   3.059  10.279 -0.3690 -0.2352 -0.5082
 3597SOL    HW122427   0.672   2.973  10.287  1.3798 -1.2143 -1.7200
 3597SOL    HW222428   0.645   3.114  10.242 -0.1778 -0.6798 -1.5363
 3598SOL     OW22429   2.266   2.339   8.681 -0.2914 -0.0799  0.1613
 3598SOL    HW122430   2.261   2.246   8.657  0.0281 -0.0090 -0.1786
 3598SOL    HW222431   2.307   2.364   8.598 -0.1900  0.7917  0.4822
 3599SOL     OW22432   2.896   2.451  10.749  0.5904 -0.4343 -0.4982
 3599SOL    HW122433   2.833   2.489  10.810  2.4695 -1.4447  2.0659
 3599SOL    HW222434   2.940   2.533  10.725  0.8887 -0.3591  0.3149
 3600SOL     OW22435   3.355   3.842   8.666  0.1038  0.4181  0.4917
 3600SOL    HW122436   3.296   3.862   8.594  1.0324  1.5000  0.0418
 3600SOL    HW222437   3.381   3.926   8.703  4.0942 -1.3952  1.8095
 3601SOL     OW22438   3.433   0.453   8.866  0.0379  0.1800 -0.2069
 3601SOL    HW122439   3.344   0.480   8.845 -0.0130 -1.0204 -1.5232
 3601SOL    HW222440   3.430   0.400   8.946 -0.5884 -1.5478 -1.3732
 3602SOL     OW22441   2.518   3.341   6.085  0.3855 -0.3319 -0.1758
 3602SOL    HW122442   2.534   3.432   6.063  2.2935 -0.2040  1.7724
 3602SOL    HW222443   2.577   3.291   6.028 -0.3313 -0.0343 -1.1834
 3603SOL     OW22444   0.205   2.602   7.986  0.2443 -0.1245 -0.0731
 3603SOL    HW122445   0.249   2.623   7.903 -0.1088 -0.1610 -0.2721
 3603SOL    HW222446   0.176   2.685   8.023  1.4693 -0.5451  1.8179
 3604SOL     OW22447   2.116   0.108   7.497  0.1304  0.2891  0.3441
 3604SOL    HW122448   2.161   0.027   7.522 -0.6667 -0.4869 -0.7029
 3604SOL    HW222449   2.035   0.117   7.548  0.0303  1.2476  0.0085
 3605SOL     OW22450   3.112   3.007   7.181  0.1691 -0.3372 -0.2728
 3605SOL    HW122451   3.134   3.089   7.227 -0.0430 -0.1755 -0.4628
 3605SOL    HW222452   3.200   2.969   7.180  0.4260  0.1721  2.5205
 3606SOL     OW22453   0.708   4.377   7.441  0.5708 -0.0409 -0.3952
 3606SOL    HW122454   0.772   4.438   7.404 -1.2435  0.6137 -2.4783
 3606SOL    HW222455   0.752   4.296   7.414  0.3230 -0.0661 -0.7209
 3607SOL     OW22456   3.603   2.527  15.929 -0.1477 -0.8326  0.7344
 3607SOL    HW122457   3.542   2.558  15.862  0.6660 -3.2446 -1.1070
 3607SOL    HW222458   3.542   2.495  15.995  0.1723 -0.3698  1.2569
 3608SOL     OW22459   0.731   2.395  16.270 -0.1313  0.4878  0.2705
 3608SOL    HW122460   0.684   2.373  16.351 -0.8307 -1.2838 -0.6273
 3608SOL    HW222461   0.818   2.409  16.307  0.3912 -0.5214 -0.5699
 3609SOL     OW22462   0.502   0.546   9.794  0.1456 -0.2760 -0.8542
 3609SOL    HW122463   0.492   0.479   9.862  0.8259  0.9221  0.4494
 3609SOL    HW222464   0.576   0.600   9.822  2.9533 -3.6783 -1.7356
 3610SOL     OW22465   1.127   3.567   0.127  0.0299  0.6124 -0.7392
 3610SOL    HW122466   1.076   3.486   0.116  0.4973  0.1485  0.5321
 3610SOL    HW222467   1.093   3.620   0.055 -0.0797 -0.1390 -1.2511
 3611SOL     OW22468   2.005   2.795   6.082  0.2842 -0.1816 -0.5089
 3611SOL    HW122469   2.097   2.794   6.107 -0.4066 -0.8776  2.0012
 3611SOL    HW222470   2.001   2.716   6.029 -1.1685  0.3477 -1.1957
 3612SOL     OW22471   0.812   4.585   2.970 -0.0003 -0.0517  0.1967
 3612SOL    HW122472   0.860   4.571   3.052 -0.3781 -1.6318  0.1612
 3612SOL    HW222473   0.888   4.598   2.913 -0.9855  2.0432 -0.6411
 3613SOL     OW22474   3.719   2.515   4.591 -0.4631 -0.3693 -0.4567
 3613SOL    HW122475   3.631   2.542   4.619 -1.5766 -1.0783 -3.2567
 3613SOL    HW222476   3.744   2.566   4.514  1.1094 -2.2345 -1.1866
 3614SOL     OW22477   3.102   4.706   2.838  0.2927  0.0162  0.5083
 3614SOL    HW122478   3.178   4.702   2.896 -0.2983  1.8782  1.4154
 3614SOL    HW222479   3.040   4.641   2.871 -1.1178  2.3237  2.4421
 3615SOL     OW22480   1.186   4.523   1.965  0.1311 -0.0196  0.4174
 3615SOL    HW122481   1.155   4.565   2.045 -0.0681 -1.2677  1.0046
 3615SOL    HW222482   1.271   4.557   1.937 -0.3283  0.1102 -0.8453
 3616SOL     OW22483   0.630   3.900   8.476  0.4869 -0.2788 -0.3971
 3616SOL    HW122484   0.714   3.854   8.482  0.4091 -0.3165  0.3951
 3616SOL    HW222485   0.572   3.841   8.523 -0.5803  1.1549  0.0851
 3617SOL     OW22486   1.166   2.954   2.134 -0.1515  0.3062  0.2649
 3617SOL    HW122487   1.187   2.967   2.042 -2.1754  3.9774  0.3242
 3617SOL    HW222488   1.179   2.859   2.138 -0.2727  0.3446  1.5688
 3618SOL     OW22489   3.856   0.657   5.532 -0.1737  0.2342  0.1378
 3618SOL    HW122490   3.868   0.741   5.488 -0.6822  0.0454 -0.3498
 3618SOL    HW222491   3.927   0.636   5.592  1.1246 -0.8551 -1.7769
 3619SOL     OW22492   4.076   2.150   7.296  0.3765  0.2074 -0.0510
 3619SOL    HW122493   4.065   2.230   7.348 -3.1298 -0.8816  0.8475
 3619SOL    HW222494   4.008   2.090   7.326  2.4730 -1.4227  1.4213
 3620SOL     OW22495   2.846   3.681   4.315  0.0072  0.6210  0.0231
 3620SOL    HW122496   2.889   3.599   4.341  1.8451  0.9250 -2.0636
 3620SOL    HW222497   2.915   3.744   4.336  1.7435 -0.9347 -1.0048
 3621SOL     OW22498   1.853   2.443   9.051  0.3458 -0.2106  0.4456
 3621SOL    HW122499   1.900   2.417   8.972 -1.4583 -0.6649 -0.4804
 3621SOL    HW222500   1.844   2.536   9.032 -1.2673 -0.4484  0.0741
 3622SOL     OW22501   3.040   4.678   6.627 -0.2727  0.4712 -0.6436
 3622SOL    HW122502   2.995   4.604   6.585  2.4829 -1.8649  0.5470
 3622SOL    HW222503   2.999   0.018   6.586  1.0260  2.1953  1.3119
 3623SOL     OW22504   4.114   3.653   5.311 -0.0653  0.0555 -0.2655
 3623SOL    HW122505   4.092   3.742   5.339 -0.1464  0.4416 -1.5528
 3623SOL    HW222506   4.207   3.674   5.303 -0.3915  0.6996 -2.3402
 3624SOL     OW22507   1.319   4.089   2.453  0.0956  0.3333  0.3095
 3624SOL    HW122508   1.408   4.098   2.486 -0.3439  1.4027  1.1750
 3624SOL    HW222509   1.332   4.041   2.370 -0.0692  1.8620 -0.6039
 3625SOL     OW22510   1.081   0.801   5.324 -0.5517 -0.0330  0.1071
 3625SOL    HW122511   1.163   0.753   5.335 -0.4896 -0.0718 -0.5098
 3625SOL    HW222512   1.110   0.889   5.345  1.1647 -0.0139 -2.2818
 3626SOL     OW22513   4.043   0.060   3.391  0.0166  0.4606 -0.2596
 3626SOL    HW122514   3.956   0.044   3.355 -0.8274  0.0058  2.0207
 3626SOL    HW222515   4.081   0.117   3.324 -1.1882 -0.4625 -1.7206
 3627SOL     OW22516   3.919   1.357  11.938  0.5814 -0.2065  0.4018
 3627SOL    HW122517   3.902   1.405  12.019 -0.2613 -0.6874  0.5076
 3627SOL    HW222518   3.859   1.283  11.947  2.5597 -2.2039 -2.7071
 3628SOL     OW22519   3.993   4.374   3.617  0.1532 -0.1844 -0.0155
 3628SOL    HW122520   4.054   4.358   3.689 -1.7407 -2.6012  1.0329
 3628SOL    HW222521   3.981   4.469   3.615 -1.6476 -0.4460 -1.5605
 3629SOL     OW22522   3.543   2.801   4.303  0.2391  0.0882 -0.2243
 3629SOL    HW122523   3.482   2.802   4.229  2.1706 -0.2632 -1.8112
 3629SOL    HW222524   3.516   2.721   4.349  0.4709 -0.0499 -0.3257
 3630SOL     OW22525   4.190   3.181   9.372  0.0139  0.9879 -0.9725
 3630SOL    HW122526   4.123   3.175   9.441  0.4809  0.6747 -0.5453
 3630SOL    HW222527   4.229   3.266   9.394  0.1922  0.2575  1.5318
 3631SOL     OW22528   1.368   1.465   9.640  0.2207 -0.6193  0.0966
 3631SOL    HW122529   1.299   1.432   9.698 -1.5058  2.3163 -0.3162
 3631SOL    HW222530   1.427   1.391   9.656  2.4298  0.8262 -1.4121
 3632SOL     OW22531   0.737   4.362   9.409 -0.0586 -0.4352  0.3104
 3632SOL    HW122532   0.668   4.298   9.393 -0.8022 -0.1303  2.2476
 3632SOL    HW222533   0.783   4.325   9.485 -2.9952 -3.8014  0.4406
 3633SOL     OW22534   1.920   4.566  14.361  0.3320 -0.6425 -0.7871
 3633SOL    HW122535   1.885   4.487  14.401 -1.9614 -0.9514 -3.3736
 3633SOL    HW222536   1.986   4.595  14.423 -0.6237  0.2288 -0.1893
 3634SOL     OW22537   3.995   3.322   2.869 -0.2432  0.5905 -0.0498
 3634SOL    HW122538   3.986   3.269   2.948  2.9348  2.2337  1.4235
 3634SOL    HW222539   4.083   3.359   2.881 -0.7350  1.4833  0.7706
 3635SOL     OW22540   2.579   2.207   5.684  0.2803 -0.5652  0.0021
 3635SOL    HW122541   2.566   2.140   5.751 -0.7934  2.1521  2.4804
 3635SOL    HW222542   2.497   2.217   5.636 -0.2489  1.7054  1.4011
 3636SOL     OW22543   3.089   2.881   0.580  0.4388 -0.1368  0.2719
 3636SOL    HW122544   3.148   2.955   0.593  0.4464 -0.0868 -0.0415
 3636SOL    HW222545   3.145   2.806   0.601  1.3612  0.2975 -0.6151
 3637SOL     OW22546   4.227   2.609   4.354  0.3273  0.1811 -0.0017
 3637SOL    HW122547   4.192   2.699   4.354  2.7644  1.1269 -0.3088
 3637SOL    HW222548   4.206   2.587   4.445 -1.6943 -1.0441 -0.7520
 3638SOL     OW22549   3.626   3.599   2.397 -0.4155 -0.4857 -0.0214
 3638SOL    HW122550   3.598   3.551   2.318 -0.1027 -1.0046  0.1817
 3638SOL    HW222551   3.721   3.596   2.391 -0.4043 -0.6954  0.2572
 3639SOL     OW22552   3.207   1.165   9.378  0.2004  0.0106 -0.1993
 3639SOL    HW122553   3.235   1.256   9.383 -0.0831  0.1338 -0.8052
 3639SOL    HW222554   3.245   1.140   9.293  0.7371  0.4809 -0.0969
 3640SOL     OW22555   1.346   1.813   4.654 -0.2623  0.2928  0.5458
 3640SOL    HW122556   1.383   1.730   4.685  0.0633  0.6001  0.9785
 3640SOL    HW222557   1.430   1.859   4.653 -1.1661  1.9069 -1.0845
 3641SOL     OW22558   0.419   1.315   1.517 -0.2638  0.2155  0.3068
 3641SOL    HW122559   0.508   1.330   1.485 -0.3023 -2.5149 -1.1116
 3641SOL    HW222560   0.419   1.362   1.600  1.7425  1.3929 -0.3519
 3642SOL     OW22561   2.789   0.476   1.161  0.4319 -0.0325 -0.3857
 3642SOL    HW122562   2.827   0.449   1.245  1.8348  0.4410 -0.8694
 3642SOL    HW222563   2.731   0.544   1.194  0.8962  0.2296 -0.1094
 3643SOL     OW22564   4.640   1.378   3.095 -0.3296 -0.0812  0.2601
 3643SOL    HW122565   4.702   1.400   3.025  1.2242 -2.3538  0.9127
 3643SOL    HW222566   4.673   1.442   3.159 -1.1219 -0.9379  1.5293
 3644SOL     OW22567   0.699   0.084   7.406 -0.1170 -0.6135 -0.3515
 3644SOL    HW122568   0.713   0.174   7.376 -0.8795  0.8698  3.7449
 3644SOL    HW222569   0.605   0.084   7.390 -0.4604  1.4350  1.6719
 3645SOL     OW22570   1.677   3.744   0.648  0.3115  0.0335  0.0174
 3645SOL    HW122571   1.670   3.787   0.733 -0.9776 -3.2226  1.5369
 3645SOL    HW222572   1.739   3.672   0.663  1.4940  0.7659 -1.2725
 3646SOL     OW22573   1.589   4.352   7.458  0.2507 -0.0764 -0.3872
 3646SOL    HW122574   1.655   4.386   7.518 -0.1815  1.8008 -0.9657
 3646SOL    HW222575   1.557   4.431   7.415  0.2379 -0.9272 -1.9705
 3647SOL     OW22576   3.351   4.101  15.128 -0.1741  1.0002  0.2275
 3647SOL    HW122577   3.298   4.113  15.049  1.7649 -1.0430 -1.3455
 3647SOL    HW222578   3.434   4.138  15.100  0.0704  0.2347 -0.0353
 3648SOL     OW22579   2.340   2.923   4.833 -0.3188 -0.1498  0.7879
 3648SOL    HW122580   2.317   2.855   4.770 -1.5221  1.7773 -0.8334
 3648SOL    HW222581   2.266   2.910   4.893 -0.5562  2.9955  1.1581
 3649SOL     OW22582   4.224   3.942   4.503 -0.5108  0.1922  0.2257
 3649SOL    HW122583   4.163   4.013   4.482  2.3720  1.6443 -3.2753
 3649SOL    HW222584   4.172   3.878   4.552  0.3059 -0.5796  0.1031
 3650SOL     OW22585   1.206   4.695   2.535  0.5672 -0.1977  0.4336
 3650SOL    HW122586   1.130   4.638   2.521  0.9954 -1.0406  1.5048
 3650SOL    HW222587   1.280   4.636   2.550  0.1545 -1.7440 -3.6473
 3651SOL     OW22588   3.696   1.608   8.162  0.5310  0.1610 -0.1504
 3651SOL    HW122589   3.664   1.698   8.155  0.0155  0.0373  0.5152
 3651SOL    HW222590   3.667   1.596   8.253 -0.5139  0.3249 -0.4639
 3652SOL     OW22591   1.401   2.219   0.268  0.1581  0.1269  0.5114
 3652SOL    HW122592   1.389   2.314   0.257  1.0548  0.5540  3.1869
 3652SOL    HW222593   1.313   2.182   0.259  0.9376 -1.4697 -0.5683
 3653SOL     OW22594   3.925   2.685   6.893  0.3700 -0.7738  0.2708
 3653SOL    HW122595   3.972   2.673   6.976 -1.5334  0.5556  1.5505
 3653SOL    HW222596   3.943   2.602   6.850 -0.6292 -0.5733 -0.5282
 3654SOL     OW22597   2.010   3.209   6.427 -0.1105  0.1919 -0.1159
 3654SOL    HW122598   1.975   3.228   6.340  0.4222 -0.6712 -0.5238
 3654SOL    HW222599   2.102   3.185   6.415  0.0975  1.2013 -0.5675
 3655SOL     OW22600   2.369   2.156  14.186  0.4112 -0.4667  0.2928
 3655SOL    HW122601   2.436   2.215  14.221 -1.0114  0.6665  1.1081
 3655SOL    HW222602   2.417   2.100  14.125 -0.4073  0.7159 -1.4487
 3656SOL     OW22603   3.868   2.970   1.300 -0.9625 -0.2679  0.1173
 3656SOL    HW122604   3.855   3.003   1.389 -0.3408 -0.1100  0.1461
 3656SOL    HW222605   3.961   2.992   1.290 -0.8988  0.3082  1.9535
 3657SOL     OW22606   3.072   3.511   8.337  0.3081 -0.1850 -0.0174
 3657SOL    HW122607   2.979   3.523   8.315  0.1178 -0.0954  0.8408
 3657SOL    HW222608   3.106   3.567   8.267 -0.5861  0.8883  0.4005
 3658SOL     OW22609   3.171   0.395   8.113 -0.1397 -0.0198  0.0822
 3658SOL    HW122610   3.246   0.340   8.135  1.6404  2.4372  0.2389
 3658SOL    HW222611   3.151   0.433   8.199  0.4763  0.6912 -0.0796
 3659SOL     OW22612   3.239   2.734   9.261 -0.1014  0.0858  0.5378
 3659SOL    HW122613   3.147   2.708   9.255  0.3360 -1.2224 -0.6845
 3659SOL    HW222614   3.279   2.672   9.199  0.5017  0.9398  0.0741
 3660SOL     OW22615   1.991   3.069   4.890 -0.4709 -0.4569  0.3434
 3660SOL    HW122616   2.020   2.997   4.946  1.3052 -0.1716 -0.2320
 3660SOL    HW222617   2.020   3.037   4.805 -1.5441  1.9842 -0.9327
 3661SOL     OW22618   4.408   2.206   2.682 -0.0216 -0.2332 -0.0637
 3661SOL    HW122619   4.418   2.136   2.746 -0.6818  0.0891  0.3877
 3661SOL    HW222620   4.474   2.181   2.617 -0.3704 -0.8977 -0.1510
 3662SOL     OW22621   3.356   3.511  17.690 -0.5121  0.0877 -0.0996
 3662SOL    HW122622   3.447   3.504  17.664 -0.4686 -0.5022  0.2098
 3662SOL    HW222623   3.332   3.420  17.704  0.7615 -0.1712  0.4380
 3663SOL     OW22624   0.323   1.500  16.502  0.7517  0.3081  0.2730
 3663SOL    HW122625   0.245   1.486  16.448  0.0818  0.3577  1.2291
 3663SOL    HW222626   0.333   1.411  16.535 -1.1890 -0.0897 -0.2107
 3664SOL     OW22627   1.280   3.039   6.907 -0.9026  0.1474  0.3430
 3664SOL    HW122628   1.244   3.001   6.987  0.6538 -1.1405  0.4366
 3664SOL    HW222629   1.220   3.103   6.870 -1.5128 -1.5112 -1.5389
 3665SOL     OW22630   1.145   3.216   6.400 -0.6042  0.0739 -0.1638
 3665SOL    HW122631   1.236   3.216   6.432 -0.6261 -3.1868 -0.0396
 3665SOL    HW222632   1.099   3.146   6.446  0.2937  0.0784  0.7586
 3666SOL     OW22633   2.105   3.256   8.078 -0.2923  0.6159  0.4200
 3666SOL    HW122634   2.101   3.215   7.992 -2.0040  1.7430 -0.0226
 3666SOL    HW222635   2.200   3.265   8.085 -0.5254  2.0337  1.6569
 3667SOL     OW22636   2.046   3.041   1.369  0.3627  0.1733  0.3639
 3667SOL    HW122637   2.063   3.086   1.452 -2.4354 -1.2205  1.7050
 3667SOL    HW222638   2.136   3.045   1.338  0.6082 -2.2949  0.7413
 3668SOL     OW22639   3.743   0.208   7.433  0.1896 -0.2540 -0.4023
 3668SOL    HW122640   3.807   0.220   7.503  0.8395  0.7851 -1.1732
 3668SOL    HW222641   3.683   0.267   7.479 -0.2694 -0.5789 -0.5893
 3669SOL     OW22642   3.456   1.130  10.285  0.3834  0.1291 -0.2359
 3669SOL    HW122643   3.403   1.055  10.260 -0.9433  0.6181  1.1379
 3669SOL    HW222644   3.480   1.106  10.375  0.4031  0.8161 -0.0577
 3670SOL     OW22645   3.874   3.669   1.694  0.0115  0.3639 -0.1387
 3670SOL    HW122646   3.780   3.657   1.677 -0.2263 -0.5049  1.7759
 3670SOL    HW222647   3.877   3.701   1.784 -0.0139 -0.8644  0.3021
 3671SOL     OW22648   0.504   3.611   4.653 -0.5290 -0.0517  0.4765
 3671SOL    HW122649   0.570   3.674   4.624  0.5890 -1.2230  0.4784
 3671SOL    HW222650   0.428   3.645   4.606  0.3456  0.7546 -0.3632
 3672SOL     OW22651   3.423   0.160   7.190 -0.3619  0.5876  0.2036
 3672SOL    HW122652   3.332   0.170   7.162  0.0176  0.2120 -1.1535
 3672SOL    HW222653   3.428   0.224   7.261 -1.5496 -0.0005  0.8048
 3673SOL     OW22654   2.269   3.667  15.467 -0.5230 -0.1320 -0.1097
 3673SOL    HW122655   2.298   3.712  15.388  0.0888  0.1146  0.2564
 3673SOL    HW222656   2.342   3.611  15.492 -1.9734 -1.2247  1.7096
 3674SOL     OW22657   0.439   2.471   8.062 -0.2991 -0.6571  0.1963
 3674SOL    HW122658   0.343   2.472   8.058 -0.2163  0.9220 -1.1157
 3674SOL    HW222659   0.458   2.432   7.977  1.3786 -0.3173  0.4202
 3675SOL     OW22660   0.444   2.867   1.317  0.4112  0.3946 -0.3999
 3675SOL    HW122661   0.397   2.942   1.283 -1.0311  0.3139  1.3998
 3675SOL    HW222662   0.520   2.877   1.260  0.8486  0.6800  0.2287
 3676SOL     OW22663   0.670   0.564  15.566  0.6582  0.2360  0.3012
 3676SOL    HW122664   0.657   0.659  15.566 -1.9053 -0.1209  0.4217
 3676SOL    HW222665   0.615   0.536  15.493  2.7495 -1.0002 -0.8000
 3677SOL     OW22666   2.207   4.000   7.931  0.1783  0.1503  0.5219
 3677SOL    HW122667   2.198   4.017   7.838  0.1843  1.2116  0.7137
 3677SOL    HW222668   2.120   4.020   7.966 -0.1724  2.0672 -1.4717
 3678SOL     OW22669   1.033   0.199   3.841  0.7811  0.0026  0.9821
 3678SOL    HW122670   1.078   0.233   3.918 -1.4790  2.3801  1.2294
 3678SOL    HW222671   1.016   0.275   3.786 -0.3561 -0.5416  0.5893
 3679SOL     OW22672   1.703   1.268  13.119 -0.1904  0.0601 -0.0576
 3679SOL    HW122673   1.682   1.225  13.036  1.7771 -2.7977  0.8878
 3679SOL    HW222674   1.792   1.232  13.123 -0.4767 -0.5040  1.2327
 3680SOL     OW22675   2.997   2.334  16.723  0.2381  0.4904  0.2194
 3680SOL    HW122676   2.981   2.292  16.638  1.5598  1.8555 -0.7086
 3680SOL    HW222677   3.042   2.411  16.687  0.4256  0.4581  0.3886
 3681SOL     OW22678   4.462   3.383  16.561  0.0168 -0.0327 -0.6059
 3681SOL    HW122679   4.505   3.468  16.569  1.8749 -0.8486 -2.0491
 3681SOL    HW222680   4.538   3.325  16.567 -1.6719 -2.1720 -0.1401
 3682SOL     OW22681   2.637   0.263   8.043  0.3524 -0.1197 -0.3310
 3682SOL    HW122682   2.620   0.197   8.111  4.6497 -2.1392 -1.2556
 3682SOL    HW222683   2.567   0.326   8.062  0.5896 -0.7140  2.6076
 3683SOL     OW22684   1.748   0.013  15.127  0.3861  0.0397 -0.4251
 3683SOL    HW122685   1.680   0.023  15.193 -0.4193 -2.3788 -0.9000
 3683SOL    HW222686   1.820   0.012  15.190  0.8467  0.5757 -0.9391
 3684SOL     OW22687   1.911   0.822   5.179  0.0557 -0.3422  0.4731
 3684SOL    HW122688   1.901   0.809   5.085 -0.7122  0.3572  0.4518
 3684SOL    HW222689   1.819   0.839   5.202 -1.4884 -2.2167 -4.2847
 3685SOL     OW22690   0.549   1.757   5.528  0.0358 -0.5425  0.0696
 3685SOL    HW122691   0.614   1.783   5.593  0.0038 -2.0338  0.7077
 3685SOL    HW222692   0.520   1.675   5.569 -0.2645 -0.3521  0.2373
 3686SOL     OW22693   1.580   2.250   2.315  0.4939 -0.5766 -0.4704
 3686SOL    HW122694   1.503   2.200   2.290 -0.1025 -0.0043  0.1969
 3686SOL    HW222695   1.597   2.224   2.406 -0.8354 -1.4367 -0.4714
 3687SOL     OW22696   0.425   1.892   0.176 -0.6807  0.1853 -0.3502
 3687SOL    HW122697   0.335   1.877   0.147 -0.6854  0.6600 -0.5784
 3687SOL    HW222698   0.478   1.850   0.108 -0.1071  1.0717 -0.4470
 3688SOL     OW22699   3.006   1.812   1.624 -0.3557  0.3429  0.3737
 3688SOL    HW122700   2.951   1.752   1.575 -0.1373  0.5876 -0.1698
 3688SOL    HW222701   2.959   1.889   1.655  0.8430  1.2893 -0.1497
 3689SOL     OW22702   2.466   1.951  17.327  0.5100  0.2451  0.3634
 3689SOL    HW122703   2.510   1.873  17.291 -0.8544  0.1172 -1.0010
 3689SOL    HW222704   2.543   1.990  17.369  0.3058 -0.7149  1.6395
 3690SOL     OW22705   4.719   0.415   8.992  0.4186  0.1206  0.4467
 3690SOL    HW122706   0.069   0.421   8.950  0.5881  0.1522  0.7982
 3690SOL    HW222707   4.664   0.412   8.914  1.2133  0.3537 -0.1232
 3691SOL     OW22708   3.160   2.070   2.864  0.2785 -0.3976  0.2082
 3691SOL    HW122709   3.241   2.018   2.868  1.4719  1.1988 -2.6462
 3691SOL    HW222710   3.182   2.109   2.779 -0.7821 -1.6131 -0.6444
 3692SOL     OW22711   4.513   4.062   9.518  0.1739 -0.2141 -0.1723
 3692SOL    HW122712   4.533   4.139   9.465 -0.7545  1.1699  1.5081
 3692SOL    HW222713   4.513   4.096   9.608 -0.3209 -1.0436  0.1373
 3693SOL     OW22714   1.992   2.020   2.809 -0.0767 -0.0322  0.1668
 3693SOL    HW122715   2.018   1.968   2.733  0.9756 -0.4968  0.8456
 3693SOL    HW222716   1.918   2.069   2.774 -1.6192  0.0294  3.5232
 3694SOL     OW22717   4.592   2.974   0.518 -0.3113 -0.5274 -0.1404
 3694SOL    HW122718   4.498   2.968   0.533 -0.4303 -0.7911 -1.0439
 3694SOL    HW222719   4.601   3.062   0.482 -2.2574 -0.4346 -0.4059
 3695SOL     OW22720   2.335   0.117   8.215  0.3876  0.0938 -0.9028
 3695SOL    HW122721   2.319   0.094   8.123  0.4087  1.2143 -1.1883
 3695SOL    HW222722   2.388   0.041   8.240 -2.4133 -1.3681  0.6290
 3696SOL     OW22723   4.441   4.490   4.409  0.0085  0.0419  0.3540
 3696SOL    HW122724   4.438   4.408   4.458  1.4596  0.6390  1.4227
 3696SOL    HW222725   4.348   4.494   4.383  0.7403  2.0107 -2.0042
 3697SOL     OW22726   3.765   0.983   8.491  0.1813 -0.4724  0.1736
 3697SOL    HW122727   3.816   1.029   8.559  0.5891  1.2344 -1.2824
 3697SOL    HW222728   3.838   0.966   8.432  1.2379  0.7050  1.1128
 3698SOL     OW22729   0.732   1.397   3.480  0.2558  0.4250  0.2510
 3698SOL    HW122730   0.733   1.443   3.396  1.6116 -1.0040 -0.5217
 3698SOL    HW222731   0.787   1.455   3.533  1.3290  0.0264 -0.4277
 3699SOL     OW22732   4.722   2.652   6.918 -0.3709  0.4627 -0.0464
 3699SOL    HW122733   0.054   2.592   6.888 -0.3321  0.5580 -0.1483
 3699SOL    HW222734   0.033   2.721   6.964 -0.6974  0.0033  0.9731
 3700SOL     OW22735   3.675   4.015   1.808  0.1981 -0.2230  0.1648
 3700SOL    HW122736   3.638   4.100   1.832  1.4349  1.1214 -2.6525
 3700SOL    HW222737   3.739   3.999   1.878  1.1855 -1.0136 -0.9127
 3701SOL     OW22738   0.654   2.969   2.611 -0.1984  0.1747 -0.0911
 3701SOL    HW122739   0.587   2.916   2.568 -0.4595 -0.3606  0.9874
 3701SOL    HW222740   0.626   3.059   2.590 -1.6065 -0.1018  0.6230
 3702SOL     OW22741   0.091   3.978   6.975 -0.1092 -0.5077 -0.1583
 3702SOL    HW122742   0.080   3.888   7.006 -1.2834  0.4270  2.1546
 3702SOL    HW222743   0.022   4.025   7.022 -1.8185 -0.6527 -2.5313
 3703SOL     OW22744   3.402   3.026   1.568 -0.3131  0.4460 -0.7026
 3703SOL    HW122745   3.474   2.984   1.520 -1.4073 -1.2494 -0.8519
 3703SOL    HW222746   3.356   2.959   1.619  1.6988  1.8764  2.9527
 3704SOL     OW22747   3.248   3.714   1.288  0.7826 -0.2737 -0.3727
 3704SOL    HW122748   3.265   3.793   1.340 -0.5870 -1.9800  2.6634
 3704SOL    HW222749   3.158   3.727   1.258  1.0325  1.4739 -0.3458
 3705SOL     OW22750   3.659   3.883   2.665  0.6280 -0.1662 -0.2430
 3705SOL    HW122751   3.622   3.882   2.753  0.3809  0.7060 -0.3392
 3705SOL    HW222752   3.587   3.851   2.609  0.5689 -1.0444  0.3382
 3706SOL     OW22753   3.104   0.909   2.042 -0.0195 -0.2376 -0.3237
 3706SOL    HW122754   3.094   0.816   2.022 -0.2782 -0.8974  2.8648
 3706SOL    HW222755   3.026   0.930   2.093  2.0751  1.3535  2.2003
 3707SOL     OW22756   3.707   0.775   6.173  0.4798 -0.5343 -0.1343
 3707SOL    HW122757   3.750   0.849   6.216  0.5083  0.1820 -1.4141
 3707SOL    HW222758   3.644   0.751   6.242  0.9062  0.4369  0.5916
 3708SOL     OW22759   0.390   1.250   3.878 -0.0099 -0.2364  0.5574
 3708SOL    HW122760   0.356   1.187   3.941 -1.2374 -0.8130 -0.6639
 3708SOL    HW222761   0.434   1.203   3.807  0.5460  0.7399  0.2514
 3709SOL     OW22762   4.607   2.847   3.847  0.3733 -0.3867  0.0555
 3709SOL    HW122763   4.592   2.785   3.776  0.5480 -0.2238 -0.1250
 3709SOL    HW222764   4.603   2.790   3.924 -2.1679 -0.8131 -0.3950
 3710SOL     OW22765   2.210   4.522   4.588 -0.4879 -0.1149  0.2937
 3710SOL    HW122766   2.203   4.610   4.552 -1.9192 -0.1342  0.5018
 3710SOL    HW222767   2.159   4.471   4.525  0.8683 -0.9163 -0.1527
 3711SOL     OW22768   0.454   2.488   1.917  0.2686  0.1398  0.4769
 3711SOL    HW122769   0.411   2.482   2.002  1.0957 -1.3417  0.7729
 3711SOL    HW222770   0.429   2.579   1.897 -5.2234 -1.3613  0.4464
 3712SOL     OW22771   3.845   2.325   7.772  0.4132 -0.4434 -0.3233
 3712SOL    HW122772   3.827   2.418   7.777 -0.7297 -0.7493  1.1935
 3712SOL    HW222773   3.815   2.310   7.862 -1.1450 -2.1535 -1.1327
 3713SOL     OW22774   0.721   2.232   1.485  0.3475  0.1760  0.5697
 3713SOL    HW122775   0.694   2.309   1.535  1.0872  1.0142 -0.3245
 3713SOL    HW222776   0.816   2.242   1.480  0.2062  0.7268 -1.0359
 3714SOL     OW22777   3.592   0.843   0.083 -0.1802  0.3142 -0.1055
 3714SOL    HW122778   3.663   0.893   0.042  0.2769  1.6923  2.3325
 3714SOL    HW222779   3.595   0.760   0.036  1.9410 -1.4202  3.0571
 3715SOL     OW22780   1.626   1.343   2.275  0.1955 -0.7429 -0.7432
 3715SOL    HW122781   1.613   1.388   2.191  0.0359 -0.0272 -0.3351
 3715SOL    HW222782   1.720   1.358   2.287  0.6322 -1.9230 -2.5657
 3716SOL     OW22783   0.311   0.757   8.502 -0.7079  0.0165  0.1836
 3716SOL    HW122784   0.352   0.825   8.447 -2.9019  1.3392  0.1658
 3716SOL    HW222785   0.312   0.695   8.429  1.8463  0.2115  0.0773
 3717SOL     OW22786   0.871   1.824   1.976 -0.5629  0.3277  0.5271
 3717SOL    HW122787   0.966   1.814   1.987 -0.6664 -2.3393 -0.9621
 3717SOL    HW222788   0.837   1.762   2.040 -2.0352  0.2061 -0.3688
 3718SOL     OW22789   4.185   4.110   6.715  0.1807  0.2549 -0.5143
 3718SOL    HW122790   4.222   4.197   6.730  1.8177 -0.5999  0.2858
 3718SOL    HW222791   4.218   4.058   6.788  0.2296  0.8466 -0.1154
 3719SOL     OW22792   0.055   3.483   8.492  0.6716 -0.6427 -0.3527
 3719SOL    HW122793   0.093   3.449   8.573  2.3080 -0.1262 -0.8987
 3719SOL    HW222794   4.705   3.517   8.516  1.8804  0.2551  2.6100
 3720SOL     OW22795   1.891   2.761   8.379  0.1841 -0.0027 -0.1966
 3720SOL    HW122796   1.945   2.689   8.409  2.4479  1.9419  0.4367
 3720SOL    HW222797   1.860   2.790   8.465  1.1225 -0.4953  0.3098
 3721SOL     OW22798   2.042   3.506   9.317  0.4808 -0.0869 -0.1515
 3721SOL    HW122799   2.007   3.417   9.312 -0.7780  0.3814  0.1665
 3721SOL    HW222800   2.134   3.493   9.294  0.3523 -0.8866 -0.1946
 3722SOL     OW22801   3.100   2.060   7.267  0.3327 -0.3853 -0.2168
 3722SOL    HW122802   3.024   2.005   7.288  0.4550 -0.6371 -0.4367
 3722SOL    HW222803   3.060   2.147   7.276  1.0433 -0.0019 -0.8303
 3723SOL     OW22804   3.382   1.607   5.691  0.2939 -0.0110 -0.5815
 3723SOL    HW122805   3.333   1.689   5.701  0.2371 -0.3076  1.6411
 3723SOL    HW222806   3.461   1.638   5.646 -0.5776 -1.8528 -3.3788
 3724SOL     OW22807   2.864   4.403  14.418 -0.4111 -0.0455  0.4910
 3724SOL    HW122808   2.899   4.317  14.442 -1.6531 -0.4882  0.6951
 3724SOL    HW222809   2.937   4.457  14.450 -0.8189  0.8150 -0.0341
 3725SOL     OW22810   2.471   3.850   6.937  0.0347  0.3853  0.4381
 3725SOL    HW122811   2.434   3.921   6.884 -1.6953 -2.0041 -1.5681
 3725SOL    HW222812   2.554   3.839   6.891 -1.0086  1.1381 -1.6394
 3726SOL     OW22813   0.725   0.752  12.809  0.1244  0.6792 -0.0853
 3726SOL    HW122814   0.689   0.819  12.750  0.5770  1.5627  0.6372
 3726SOL    HW222815   0.818   0.754  12.787  0.2107 -0.1194  0.1983
 3727SOL     OW22816   2.331   1.240   8.608 -0.2003  0.4309 -0.0347
 3727SOL    HW122817   2.343   1.245   8.703  1.7387 -2.1706 -0.1311
 3727SOL    HW222818   2.384   1.315   8.581  3.4007 -1.9986  0.1733
 3728SOL     OW22819   3.836   1.524  11.723  0.0200  0.0881  0.0942
 3728SOL    HW122820   3.894   1.467  11.773 -0.5207 -0.8584 -0.3547
 3728SOL    HW222821   3.887   1.603  11.705 -0.0423  0.2510  0.6242
 3729SOL     OW22822   2.345   0.661   0.767  0.2189 -0.2287 -0.0457
 3729SOL    HW122823   2.290   0.737   0.749 -3.3335 -1.9847  3.3550
 3729SOL    HW222824   2.430   0.706   0.770  0.2775 -0.2844 -1.1825
 3730SOL     OW22825   3.814   0.262  10.470  0.1268  0.0046  0.0705
 3730SOL    HW122826   3.813   0.258  10.565 -1.2758 -0.1570  0.0458
 3730SOL    HW222827   3.805   0.169  10.452  4.0371 -0.5505  1.0404
 3731SOL     OW22828   4.043   2.941   6.736 -0.3530  0.6427  0.2592
 3731SOL    HW122829   4.035   2.947   6.641  0.6519 -1.7924  0.0310
 3731SOL    HW222830   4.095   2.861   6.744 -1.6858 -0.5533 -3.0832
 3732SOL     OW22831   0.850   1.253   8.146 -0.1448 -0.2337  0.5170
 3732SOL    HW122832   0.938   1.220   8.158 -0.1405  0.4753  2.3389
 3732SOL    HW222833   0.811   1.184   8.093 -2.3434 -0.5606  2.5621
 3733SOL     OW22834   0.321   3.558   4.868 -0.3907  0.6248 -0.2000
 3733SOL    HW122835   0.254   3.503   4.827 -1.7666  0.9128  1.6735
 3733SOL    HW222836   0.349   3.610   4.792  0.0063 -3.1062 -2.5882
 3734SOL     OW22837   2.841   3.439   4.076  0.4580  0.2010 -0.4017
 3734SOL    HW122838   2.909   3.504   4.096  0.1447  0.1740  0.7635
 3734SOL    HW222839   2.876   3.403   3.994  1.4463 -0.4581  0.3141
 3735SOL     OW22840   3.257   4.325  16.357  0.0184  0.3317 -0.0207
 3735SOL    HW122841   3.245   4.412  16.317  0.2602  0.0233 -0.7672
 3735SOL    HW222842   3.331   4.289  16.308  1.2477  2.7887  0.0456
 3736SOL     OW22843   0.302   0.835  12.090 -0.2816 -0.0803 -0.0734
 3736SOL    HW122844   0.226   0.874  12.047  0.8718  1.7877 -0.4042
 3736SOL    HW222845   0.289   0.853  12.183 -0.0420 -2.7440  0.4786
 3737SOL     OW22846   3.094   2.741  13.530  0.4056  0.0057 -0.2955
 3737SOL    HW122847   3.162   2.693  13.578 -1.3013 -1.2898  0.7997
 3737SOL    HW222848   3.115   2.710  13.441  0.9146 -1.3578  0.3013
 3738SOL     OW22849   2.157   1.006   1.719  0.0877  0.2567  0.1699
 3738SOL    HW122850   2.202   0.925   1.741 -0.8770 -0.3862 -0.1985
 3738SOL    HW222851   2.073   0.965   1.696  1.3625 -2.2331  0.0227
 3739SOL     OW22852   1.522   0.592   5.320  0.2320 -0.9969  0.1830
 3739SOL    HW122853   1.576   0.579   5.398 -0.9027  0.9148  1.2967
 3739SOL    HW222854   1.439   0.551   5.344  0.1718 -0.1153  1.5290
 3740SOL     OW22855   0.631   2.825   6.317 -0.7117 -0.1465  0.0752
 3740SOL    HW122856   0.611   2.852   6.227  0.4237 -2.3903 -0.8508
 3740SOL    HW222857   0.714   2.872   6.319 -1.9197  1.9616  0.8485
 3741SOL     OW22858   4.666   2.593  16.553 -0.2656 -0.0177 -0.2650
 3741SOL    HW122859   4.734   2.658  16.537 -1.1638  0.6686 -1.3766
 3741SOL    HW222860   4.643   2.576  16.461  1.2981 -2.0757 -0.2709
 3742SOL     OW22861   3.199   1.634  17.241  0.4589 -0.4004 -0.1493
 3742SOL    HW122862   3.211   1.544  17.213  1.6049 -0.2963  0.0346
 3742SOL    HW222863   3.143   1.667  17.170 -1.1675 -0.6999  0.9805
 3743SOL     OW22864   1.855   1.280   3.746  0.1706  0.2335  0.2292
 3743SOL    HW122865   1.889   1.343   3.809 -0.3921 -1.9069  2.6364
 3743SOL    HW222866   1.768   1.258   3.779  0.4810 -1.7011 -0.2422
 3744SOL     OW22867   1.334   2.484   6.726  0.3757  0.3242  0.3865
 3744SOL    HW122868   1.307   2.459   6.815 -1.4948  1.3833  0.1191
 3744SOL    HW222869   1.289   2.567   6.709  0.9727  0.1266 -2.1330
 3745SOL     OW22870   0.535   0.379   3.950 -0.6045 -0.1440  0.2650
 3745SOL    HW122871   0.523   0.440   4.023 -0.2477 -0.2709  0.4310
 3745SOL    HW222872   0.448   0.375   3.912  0.6077 -0.4384 -2.4911
 3746SOL     OW22873   0.151   0.309   2.122  0.1357  0.6784 -0.1100
 3746SOL    HW122874   0.234   0.304   2.169 -0.2295  0.4779  0.5063
 3746SOL    HW222875   0.103   0.365   2.182  0.4268  0.8157 -0.0056
 3747SOL     OW22876   4.162   3.489   4.720 -0.6018 -0.2899 -0.3627
 3747SOL    HW122877   4.191   3.419   4.661 -0.9996 -1.7232  1.1270
 3747SOL    HW222878   4.178   3.446   4.805 -0.3501  0.3822 -0.0655
 3748SOL     OW22879   3.138   2.233  14.737 -0.0156  0.3517 -0.1005
 3748SOL    HW122880   3.182   2.148  14.748  0.1463  0.3838 -0.5026
 3748SOL    HW222881   3.102   2.251  14.823 -0.7760  1.3503 -0.6248
 3749SOL     OW22882   4.050   2.562   2.922  1.0157  0.0405  0.0834
 3749SOL    HW122883   4.132   2.570   2.971  0.0324  0.4090  1.6813
 3749SOL    HW222884   4.074   2.521   2.839 -1.5519  0.6030 -0.9429
 3750SOL     OW22885   4.244   2.129  16.033 -0.5540  0.4227  0.1736
 3750SOL    HW122886   4.336   2.105  16.047 -0.2382  2.0606  0.9289
 3750SOL    HW222887   4.216   2.067  15.966 -0.3278 -0.9353  1.3269
 3751SOL     OW22888   0.053   1.176  11.945  0.1846  0.1733  0.5721
 3751SOL    HW122889   0.030   1.174  11.852  0.0172 -0.8747  0.6334
 3751SOL    HW222890   0.045   1.266  11.976 -0.6051 -0.1378  1.2571
 3752SOL     OW22891   3.209   4.417   3.982 -0.4680 -0.5152  0.0814
 3752SOL    HW122892   3.226   4.457   4.067  4.1692  0.8672 -1.5061
 3752SOL    HW222893   3.286   4.452   3.935 -0.4781  0.3370  0.6950
 3753SOL     OW22894   0.186   1.131   5.900  0.9690  0.0303 -0.2447
 3753SOL    HW122895   0.208   1.071   5.971  1.5272 -0.7869 -1.1231
 3753SOL    HW222896   0.093   1.147   5.920  0.6867 -0.7934 -0.9063
 3754SOL     OW22897   4.078   0.960   0.564  0.1541  0.2671  0.1592
 3754SOL    HW122898   4.117   1.015   0.496  0.6862  1.7246  1.6201
 3754SOL    HW222899   4.147   0.894   0.572  0.1444  0.1943 -0.4219
 3755SOL     OW22900   4.538   1.794   6.562 -0.5521  0.0073 -0.1727
 3755SOL    HW122901   4.576   1.716   6.603 -0.2886  1.2460  1.9508
 3755SOL    HW222902   4.506   1.769   6.475  3.4734  1.0228 -1.9515
 3756SOL     OW22903   0.816   2.514  17.634  1.1041 -0.3899 -0.8840
 3756SOL    HW122904   0.912   2.511  17.625  1.3550  0.0463  1.5925
 3756SOL    HW222905   0.823   2.587  17.695 -0.0482  1.1438 -2.5891
 3757SOL     OW22906   0.970   0.146   2.247  0.4833 -0.0741  0.2542
 3757SOL    HW122907   0.903   0.211   2.224 -0.7932 -2.1262 -1.7581
 3757SOL    HW222908   1.042   0.200   2.281  0.0153  0.2650  0.7111
 3758SOL     OW22909   2.792   2.648   6.042  0.0981 -0.0676 -0.0478
 3758SOL    HW122910   2.869   2.636   6.097  1.3491  2.7600 -1.1570
 3758SOL    HW222911   2.812   2.738   6.018 -1.0721  0.0149 -0.7458
 3759SOL     OW22912   1.824   1.865  13.582 -0.0657  0.2397  0.2087
 3759SOL    HW122913   1.857   1.782  13.548 -0.6704 -1.2862  3.3378
 3759SOL    HW222914   1.799   1.841  13.671  0.7479 -1.1338  0.0574
 3760SOL     OW22915   2.717   3.038   7.955 -0.0397 -0.3371  0.2240
 3760SOL    HW122916   2.711   3.096   8.031  0.4777 -1.1080  0.8496
 3760SOL    HW222917   2.738   2.955   7.997  1.6401  0.6460  1.3169
 3761SOL     OW22918   0.949   2.660  12.316  0.4611  0.3756 -0.5456
 3761SOL    HW122919   0.944   2.672  12.221 -3.1235 -0.2190 -0.4292
 3761SOL    HW222920   0.972   2.744  12.357  0.7884  0.6270 -1.2433
 3762SOL     OW22921   0.360   2.374   8.602 -0.2041 -0.3732  0.6756
 3762SOL    HW122922   0.423   2.389   8.532 -0.6788 -0.1868  0.2865
 3762SOL    HW222923   0.338   2.465   8.625  0.6096  0.3640 -1.5046
 3763SOL     OW22924   4.103   0.045  13.292  0.1663  0.0935  0.4927
 3763SOL    HW122925   4.162   0.093  13.350  1.4603 -0.8371 -0.0512
 3763SOL    HW222926   4.161   0.038  13.216  1.6004 -0.1035  1.5840
 3764SOL     OW22927   4.061   3.943   9.954  0.0033  0.0482 -0.0739
 3764SOL    HW122928   4.075   3.947  10.048  3.5242  1.1552 -0.6571
 3764SOL    HW222929   3.984   3.887   9.946 -0.8237  1.2287 -0.4346
 3765SOL     OW22930   0.181   3.651   6.775  0.5975  0.3677 -0.2304
 3765SOL    HW122931   0.212   3.687   6.858  0.8244 -0.2643 -0.0405
 3765SOL    HW222932   0.138   3.727   6.735  1.5555  1.1280  0.1968
 3766SOL     OW22933   0.220   4.252   3.142  0.5441 -0.2902 -0.1862
 3766SOL    HW122934   0.125   4.241   3.145  0.4799  0.3263 -0.0197
 3766SOL    HW222935   0.222   4.345   3.164 -0.4238  0.1981 -2.2040
 3767SOL     OW22936   1.369   1.694  10.411  0.1062  0.3737 -0.4131
 3767SOL    HW122937   1.456   1.676  10.376  0.9104  1.6213  0.9448
 3767SOL    HW222938   1.378   1.781  10.450 -2.5243 -1.1672  3.6184
 3768SOL     OW22939   4.517   4.338   5.231 -0.3057  0.5228 -0.1672
 3768SOL    HW122940   4.432   4.382   5.230 -0.1715  0.7842 -0.3100
 3768SOL    HW222941   4.503   4.260   5.284 -0.2215  1.1241  0.7356
 3769SOL     OW22942   4.046   0.757   9.771  0.4265 -0.0312  0.6658
 3769SOL    HW122943   3.992   0.736   9.695  0.7224  1.4334  0.0319
 3769SOL    HW222944   4.053   0.681   9.828  1.7335  0.2065  0.8326
 3770SOL     OW22945   2.421   0.476  12.377  0.3050  0.0171  0.1189
 3770SOL    HW122946   2.467   0.484  12.460 -2.1519  2.1696  1.2680
 3770SOL    HW222947   2.344   0.425  12.402  1.8940 -2.6929 -0.5137
 3771SOL     OW22948   4.181   1.091  12.502  0.3468  0.0522  0.0520
 3771SOL    HW122949   4.256   1.147  12.484  0.1740  0.3198  0.1522
 3771SOL    HW222950   4.210   1.001  12.513 -1.6994 -0.6385 -0.1050
 3772SOL     OW22951   3.441   2.977   6.337 -0.5275 -0.5375  0.5062
 3772SOL    HW122952   3.369   3.035   6.311  0.2912 -0.7549 -2.2149
 3772SOL    HW222953   3.481   2.947   6.256 -1.4131 -1.8933  0.5675
 3773SOL     OW22954   2.185   1.012  11.030 -0.3020 -0.4250 -0.2132
 3773SOL    HW122955   2.146   0.925  11.020 -2.1814  0.2044  1.5701
 3773SOL    HW222956   2.155   1.035  11.118 -0.8880 -0.3227 -0.4388
 3774SOL     OW22957   1.119   3.907   6.280  0.5450  0.5887  0.3872
 3774SOL    HW122958   1.112   3.975   6.214 -0.4360 -1.7922 -1.9719
 3774SOL    HW222959   1.032   3.867   6.270  0.8156 -0.9652  4.3959
 3775SOL     OW22960   2.826   2.249   4.867 -0.6515  0.0336  0.1507
 3775SOL    HW122961   2.766   2.174   4.856  0.4020 -0.9925  1.5446
 3775SOL    HW222962   2.754   2.312   4.867 -0.9723 -0.3359  0.3397
 3776SOL     OW22963   1.583   3.596  13.609  0.2189  0.3896 -0.0397
 3776SOL    HW122964   1.645   3.527  13.635 -0.6814 -0.5024 -0.2614
 3776SOL    HW222965   1.644   3.655  13.566  3.4220 -0.5154  3.1976
 3777SOL     OW22966   0.798   2.649   7.745 -0.2838 -0.0462  0.1188
 3777SOL    HW122967   0.766   2.647   7.836 -0.1053 -0.2283  0.1780
 3777SOL    HW222968   0.762   2.564   7.720  0.5168  0.8424 -4.0005
 3778SOL     OW22969   0.810   3.170   7.470 -0.2451  0.7500 -0.1860
 3778SOL    HW122970   0.809   3.214   7.385  0.8474  2.5914  0.7243
 3778SOL    HW222971   0.901   3.138   7.466 -0.4363 -0.0958  2.4721
 3779SOL     OW22972   4.031   0.982  11.481  0.3156  0.3429  0.0983
 3779SOL    HW122973   3.997   0.997  11.568  1.9430 -0.5034  0.8879
 3779SOL    HW222974   4.114   0.939  11.501  0.8191  1.1210 -0.2929
 3780SOL     OW22975   0.450   3.405   3.120  0.0565  0.0978 -0.3731
 3780SOL    HW122976   0.532   3.444   3.149  2.5842 -5.3497 -0.2067
 3780SOL    HW222977   0.390   3.463   3.167  0.1722 -1.1372  1.2998
 3781SOL     OW22978   3.315   3.632   3.957 -0.6972 -0.3197 -0.7242
 3781SOL    HW122979   3.359   3.715   3.976 -0.7981 -0.4426  0.0829
 3781SOL    HW222980   3.344   3.577   4.030  0.5896  2.2290  0.7115
 3782SOL     OW22981   3.974   0.369   3.537 -0.4448 -0.0211 -0.2400
 3782SOL    HW122982   3.961   0.451   3.586  4.7253  0.1358  0.8572
 3782SOL    HW222983   3.891   0.324   3.554 -0.7226 -0.2709 -2.2579
 3783SOL     OW22984   3.162   0.428   5.134 -0.6251 -0.1746 -0.6802
 3783SOL    HW122985   3.116   0.512   5.129  1.4770  1.0489  0.4622
 3783SOL    HW222986   3.188   0.414   5.043  1.4769  1.1673 -0.2912
 3784SOL     OW22987   0.909   0.470   1.429 -0.5166 -0.2527 -0.1439
 3784SOL    HW122988   0.830   0.520   1.407 -0.9315 -1.0677 -0.5247
 3784SOL    HW222989   0.880   0.389   1.472 -0.3426 -0.6629 -0.8000
 3785SOL     OW22990   2.114   1.953  13.664 -0.1738  0.3146  0.5896
 3785SOL    HW122991   2.027   1.932  13.697 -1.1945 -1.4457 -3.1568
 3785SOL    HW222992   2.159   1.927  13.744 -0.9085 -0.8870  0.6127
 3786SOL     OW22993   0.974   3.861   7.382 -0.1643 -0.3922 -0.2990
 3786SOL    HW122994   1.067   3.840   7.389 -0.4573 -1.7405 -0.4500
 3786SOL    HW222995   0.970   3.945   7.427  4.2926 -1.3997  2.0340
 3787SOL     OW22996   1.373   2.081   9.124  0.0217  0.4548 -0.3888
 3787SOL    HW122997   1.327   1.997   9.121  0.9930 -0.1683  1.6639
 3787SOL    HW222998   1.398   2.075   9.216 -1.6680 -2.1776 -0.1150
 3788SOL     OW22999   0.944   2.957   4.212 -0.8937  0.5508  0.1701
 3788SOL    HW123000   0.924   3.034   4.158 -0.3120 -0.1061 -0.9861
 3788SOL    HW223001   0.884   2.906   4.158  2.2163 -2.1692 -0.7478
 3789SOL     OW23002   2.170   1.910  13.398 -0.3885  0.1706  0.4154
 3789SOL    HW123003   2.080   1.920  13.367 -0.7307 -0.4020  1.2291
 3789SOL    HW223004   2.161   1.904  13.493 -2.2544  0.3527  0.2395
 3790SOL     OW23005   2.138   4.686   3.425 -0.3303 -0.3477 -0.0798
 3790SOL    HW123006   2.161   0.011   3.355  1.0114  0.2178  0.8715
 3790SOL    HW223007   2.044   4.687   3.403  0.0855 -0.1877 -1.8987
 3791SOL     OW23008   3.819   0.270   7.739  0.8833 -0.1170  0.2004
 3791SOL    HW123009   3.880   0.334   7.703  0.1338 -1.0945 -2.8437
 3791SOL    HW223010   3.860   0.242   7.820  1.1206  0.4203  0.2696
 3792SOL     OW23011   2.320   4.282   8.875  0.0696  0.1164  0.1067
 3792SOL    HW123012   2.345   4.230   8.798 -0.0380  1.0904 -0.5793
 3792SOL    HW223013   2.322   4.372   8.845  1.3874 -0.7203 -2.2890
 3793SOL     OW23014   3.007   2.305  12.569 -0.7363  0.4132 -1.4314
 3793SOL    HW123015   2.956   2.224  12.558 -1.0560  0.4007  0.1671
 3793SOL    HW223016   2.997   2.323  12.662  1.2362  0.6812 -1.2865
 3794SOL     OW23017   1.618   1.094   7.295  0.1102  0.1829 -0.6681
 3794SOL    HW123018   1.557   1.020   7.298 -1.5816  1.6040 -0.4835
 3794SOL    HW223019   1.557   1.167   7.287 -0.5031  0.0313  2.2851
 3795SOL     OW23020   3.973   2.410   8.080  0.1244 -0.2551  0.2571
 3795SOL    HW123021   4.052   2.401   8.026  0.8397  2.8747  0.7709
 3795SOL    HW223022   3.992   2.490   8.129  1.7596 -0.1220 -0.6088
 3796SOL     OW23023   4.592   1.270  14.592  0.5556 -0.7880  0.1807
 3796SOL    HW123024   4.543   1.352  14.594  1.4028 -0.2512 -1.4048
 3796SOL    HW223025   4.650   1.281  14.517 -0.7889 -3.3598 -1.2503
 3797SOL     OW23026   4.396   3.821   9.171 -0.7454  0.1322  0.1506
 3797SOL    HW123027   4.333   3.887   9.202 -0.0355  0.6176  0.5536
 3797SOL    HW223028   4.461   3.884   9.140 -2.5934  2.7620  1.5319
 3798SOL     OW23029   0.306   2.531   4.487  0.5343 -0.7125 -0.2125
 3798SOL    HW123030   0.292   2.623   4.507 -1.3446 -0.8075 -1.0786
 3798SOL    HW223031   0.258   2.520   4.404 -0.1939  0.1296  0.0991
 3799SOL     OW23032   2.075   2.184   3.302 -0.2502  0.7963  0.2785
 3799SOL    HW123033   2.096   2.204   3.394 -1.9774  0.8717  0.6646
 3799SOL    HW223034   2.031   2.101   3.324  0.4527  0.6509  1.1299
 3800SOL     OW23035   0.832   2.324  11.289  0.1803 -0.7295 -0.5052
 3800SOL    HW123036   0.917   2.310  11.331  0.5980  1.9708 -0.4056
 3800SOL    HW223037   0.771   2.265  11.333 -0.2140  2.3062  3.0141
 3801SOL     OW23038   0.248   0.283   6.786  0.5747 -0.3598 -0.4576
 3801SOL    HW123039   0.338   0.254   6.795  0.2466 -0.8302  1.1667
 3801SOL    HW223040   0.218   0.310   6.873  2.5157  0.5922 -0.0814
 3802SOL     OW23041   1.347   2.679   3.608  0.5864  0.7416 -0.1027
 3802SOL    HW123042   1.412   2.631   3.661 -0.5154  0.6462  1.1649
 3802SOL    HW223043   1.377   2.767   3.632  0.5377  0.5472  0.6625
 3803SOL     OW23044   0.833   2.058   5.010 -0.3530 -0.2037  0.1122
 3803SOL    HW123045   0.898   1.989   5.011  0.6449  0.7219 -0.7966
 3803SOL    HW223046   0.787   2.037   4.928 -1.8383  2.1637  0.3174
 3804SOL     OW23047   3.732   0.816   8.939  0.7307 -0.8287  0.2942
 3804SOL    HW123048   3.647   0.807   8.982  0.5693 -0.0138  0.1480
 3804SOL    HW223049   3.703   0.826   8.848  1.5311  0.2923  0.1561
 3805SOL     OW23050   1.556   0.941  16.498  0.1969  0.4994 -0.0570
 3805SOL    HW123051   1.594   1.028  16.483  1.1113 -0.0349 -0.7914
 3805SOL    HW223052   1.563   0.903  16.411  0.3363 -2.0764  1.0913
 3806SOL     OW23053   1.031   0.070  15.409  0.0308  0.0800  0.9582
 3806SOL    HW123054   1.013   0.016  15.486 -1.9877 -2.5107 -1.3118
 3806SOL    HW223055   0.975   0.146  15.423  0.1669  0.3927 -0.2181
 3807SOL     OW23056   2.260   3.128   6.405 -0.4019 -0.1466  0.0304
 3807SOL    HW123057   2.325   3.119   6.474 -0.4764  0.6128  0.2091
 3807SOL    HW223058   2.316   3.107   6.331  0.7027 -0.6997  1.0375
 3808SOL     OW23059   4.515   2.373   3.924  0.4262 -0.1525 -0.4877
 3808SOL    HW123060   4.490   2.281   3.915 -2.9181  0.5913  0.9561
 3808SOL    HW223061   4.607   2.357   3.906  1.2190  0.1250  3.2991
 3809SOL     OW23062   2.128   4.507   2.683  0.0807 -0.6868  0.2979
 3809SOL    HW123063   2.112   4.600   2.669  0.7466 -0.9224 -2.0167
 3809SOL    HW223064   2.143   4.511   2.778 -0.7112  0.0407  0.3989
 3810SOL     OW23065   1.053   1.554  12.407 -0.2760 -0.1448  0.3358
 3810SOL    HW123066   1.032   1.478  12.352 -2.9127  0.3686  0.6786
 3810SOL    HW223067   1.135   1.582  12.366 -0.9089  1.3219  0.1010
 3811SOL     OW23068   2.619   2.648   5.462  0.4297  0.1359 -0.6141
 3811SOL    HW123069   2.633   2.736   5.429 -0.0881 -0.2841 -1.9656
 3811SOL    HW223070   2.544   2.668   5.518  1.7803  1.3206  0.7621
 3812SOL     OW23071   2.492   0.731   2.493  0.6446 -0.3444 -0.1555
 3812SOL    HW123072   2.414   0.691   2.455 -1.1452  2.1354  0.9762
 3812SOL    HW223073   2.480   0.731   2.587  2.5522  2.0563  0.0965
 3813SOL     OW23074   1.070   0.359   2.638  0.2939 -0.2121 -0.0722
 3813SOL    HW123075   1.081   0.453   2.654 -1.6483  0.0327 -0.1502
 3813SOL    HW223076   0.978   0.350   2.663 -0.0486  1.7587 -0.6199
 3814SOL     OW23077   1.639   3.892   5.022 -0.3507 -0.0017 -0.6414
 3814SOL    HW123078   1.672   3.873   4.934  1.1951 -1.3606  0.2485
 3814SOL    HW223079   1.638   3.800   5.049 -0.3324 -0.0519 -0.8082
 3815SOL     OW23080   4.652   2.510   8.068 -0.1073  0.5261 -0.0825
 3815SOL    HW123081   4.706   2.438   8.101 -0.7983 -0.4185 -1.0363
 3815SOL    HW223082   4.715   2.538   8.001  0.7230  0.2744  0.5933
 3816SOL     OW23083   0.671   3.387   4.272 -0.0239 -0.6573 -0.9620
 3816SOL    HW123084   0.678   3.470   4.318 -0.7856 -0.8648 -0.4616
 3816SOL    HW223085   0.590   3.353   4.310  0.1755  0.4013  0.4227
 3817SOL     OW23086   0.273   2.425   9.687  0.1610  0.1049  0.1962
 3817SOL    HW123087   0.230   2.436   9.603  0.8107 -0.2165 -0.1799
 3817SOL    HW223088   0.201   2.437   9.749  1.0381 -1.7864  1.5746
 3818SOL     OW23089   0.793   4.253   5.665  0.0682  0.1139  0.2824
 3818SOL    HW123090   0.787   4.303   5.584 -1.7084  0.0115  0.3541
 3818SOL    HW223091   0.885   4.226   5.659  0.2377  0.6821  0.2761
 3819SOL     OW23092   0.375   1.622   5.748 -0.4992 -0.2302  0.2291
 3819SOL    HW123093   0.354   1.544   5.798  0.1215  0.7586  2.0048
 3819SOL    HW223094   0.292   1.654   5.713  0.0162  0.0679 -0.7349
 3820SOL     OW23095   1.977   1.674  13.463  0.4865 -0.0747 -0.2398
 3820SOL    HW123096   1.983   1.583  13.435  1.7254 -0.2599  0.5870
 3820SOL    HW223097   2.069   1.684  13.487  0.7399  2.3996 -2.2520
 3821SOL     OW23098   2.071   2.828  16.845 -0.1890 -0.0338 -0.2305
 3821SOL    HW123099   1.984   2.803  16.878 -0.8719 -0.0636 -2.1000
 3821SOL    HW223100   2.051   2.825  16.752 -0.5351  3.3287 -0.2604
 3822SOL     OW23101   1.561   1.556   8.682 -0.4947 -0.4007 -0.2326
 3822SOL    HW123102   1.516   1.589   8.760 -0.9657 -0.7694 -0.3464
 3822SOL    HW223103   1.578   1.638   8.634 -3.4181  0.3430 -0.0128
 3823SOL     OW23104   1.170   1.127   6.732 -0.4795 -0.7662 -0.6891
 3823SOL    HW123105   1.124   1.198   6.688 -0.8549 -0.3739  0.3353
 3823SOL    HW223106   1.261   1.152   6.714 -0.3297 -1.8577 -1.4521
 3824SOL     OW23107   3.477   0.218   5.999 -0.0251 -0.5145  0.3983
 3824SOL    HW123108   3.557   0.206   5.948  0.9252  1.5379  1.3922
 3824SOL    HW223109   3.422   0.148   5.964  1.1275 -0.7472 -0.9384
 3825SOL     OW23110   4.154   3.028   1.255 -0.1558  0.0738  0.2919
 3825SOL    HW123111   4.166   3.045   1.162  0.2488  2.2254  0.7241
 3825SOL    HW223112   4.228   3.081   1.284  0.7017 -0.1130 -1.5578
 3826SOL     OW23113   2.562   4.474   8.719 -0.0627 -0.3103  0.2292
 3826SOL    HW123114   2.576   4.389   8.676 -2.1036  0.0515 -1.1669
 3826SOL    HW223115   2.466   4.481   8.719 -0.1421 -1.2318 -1.7373
 3827SOL     OW23116   4.562   4.034  16.538  0.5175 -0.7407 -0.3439
 3827SOL    HW123117   4.597   4.024  16.626 -0.5584  1.3923  0.3164
 3827SOL    HW223118   4.597   3.960  16.489  1.1798 -0.3694 -0.4268
 3828SOL     OW23119   2.859   0.333   7.129  0.2463 -0.1676  0.2422
 3828SOL    HW123120   2.885   0.404   7.069  0.1121 -1.1037 -0.9241
 3828SOL    HW223121   2.779   0.309   7.083  0.9966  0.5554 -1.4713
 3829SOL     OW23122   1.123   1.181   2.011  0.3590  0.3044 -0.0624
 3829SOL    HW123123   1.029   1.183   2.029  0.7410  1.2573  1.8370
 3829SOL    HW223124   1.132   1.094   1.971 -0.9996 -0.5638  1.5129
 3830SOL     OW23125   2.203   4.226  15.843 -0.5966  0.1978 -0.5847
 3830SOL    HW123126   2.134   4.290  15.860 -1.5075 -0.6887 -0.9288
 3830SOL    HW223127   2.178   4.185  15.760 -1.9789 -1.5771  0.7347
 3831SOL     OW23128   3.358   3.370  13.449  0.4129  0.4582 -0.1238
 3831SOL    HW123129   3.343   3.422  13.528  2.3556 -0.0393  0.5748
 3831SOL    HW223130   3.340   3.444  13.391 -0.6840  1.6179  1.6908
 3832SOL     OW23131   2.446   1.171   0.725 -0.0207 -0.7116  0.2290
 3832SOL    HW123132   2.366   1.125   0.697  0.9465 -1.0162 -1.9903
 3832SOL    HW223133   2.440   1.251   0.673 -0.5090 -2.1148 -1.8603
 3833SOL     OW23134   1.761   0.564   1.674 -0.3407  0.0882 -0.0078
 3833SOL    HW123135   1.809   0.638   1.711 -0.3804  1.4251 -2.6301
 3833SOL    HW223136   1.671   0.594   1.679  0.0749  1.4640 -0.5299
 3834SOL     OW23137   3.728   2.274   0.732 -0.0790 -0.2555 -0.0684
 3834SOL    HW123138   3.682   2.316   0.659 -1.5305 -1.0891  0.3574
 3834SOL    HW223139   3.728   2.338   0.803 -1.2774 -1.0007  0.6058
 3835SOL     OW23140   3.320   1.055   7.117 -0.3053  0.3470  0.3664
 3835SOL    HW123141   3.255   1.045   7.187 -0.2839  2.1048  0.6331
 3835SOL    HW223142   3.313   1.150   7.110  0.2088  0.3994  0.5917
 3836SOL     OW23143   0.079   1.494   2.469  0.1159 -0.0641 -0.1173
 3836SOL    HW123144   0.047   1.408   2.496  0.7361 -0.4878 -0.7552
 3836SOL    HW223145   0.064   1.496   2.375 -0.1441 -1.2931 -0.1035
 3837SOL     OW23146   3.193   3.662   5.841  0.0669  0.2944  0.4958
 3837SOL    HW123147   3.232   3.672   5.754  1.1383  0.2228  0.9795
 3837SOL    HW223148   3.265   3.629   5.894 -2.4271 -2.3398  2.2181
 3838SOL     OW23149   1.254   3.537   8.566  0.2715 -0.4870 -0.3312
 3838SOL    HW123150   1.290   3.460   8.611  1.1529  0.1565  0.0720
 3838SOL    HW223151   1.337   3.585   8.566  0.1922 -0.3547  0.0575
 3839SOL     OW23152   0.373   2.128  16.805  0.3124  0.4818 -0.3872
 3839SOL    HW123153   0.457   2.101  16.843 -0.6363 -0.1088  1.3354
 3839SOL    HW223154   0.313   2.078  16.862  1.2600 -2.2416 -1.7823
 3840SOL     OW23155   0.109   1.993   6.967 -0.0443  0.0447  0.1956
 3840SOL    HW123156   0.155   1.997   6.884  2.2220  0.4908  1.4875
 3840SOL    HW223157   0.136   2.077   7.004  0.4639  0.5485 -1.3324
 3841SOL     OW23158   3.667   0.924   0.586  0.4744  0.3507  0.1987
 3841SOL    HW123159   3.576   0.951   0.595  0.4024  0.0146  0.4739
 3841SOL    HW223160   3.697   0.948   0.673 -1.6205  1.0356  0.7231
 3842SOL     OW23161   0.631   4.667  13.449  0.5672 -0.0479  0.7475
 3842SOL    HW123162   0.609   0.023  13.439  0.0285 -0.3184 -0.5776
 3842SOL    HW223163   0.619   4.653  13.543 -0.0611 -0.1463  0.6498
 3843SOL     OW23164   1.759   4.707   0.766  0.4739  0.4733 -0.1140
 3843SOL    HW123165   1.689   4.727   0.703  2.9623  0.9206 -2.7346
 3843SOL    HW223166   1.813   0.050   0.759  0.4592  0.3457 -1.7110
 3844SOL     OW23167   3.898   0.218   2.651 -0.3785 -0.1345  0.2984
 3844SOL    HW123168   3.877   0.127   2.629  1.4233 -0.5994  0.5364
 3844SOL    HW223169   3.968   0.242   2.590  1.1641  1.0669  2.5359
 3845SOL     OW23170   2.118   3.005   4.618 -0.2879 -0.0057  0.7670
 3845SOL    HW123171   2.029   3.028   4.589  1.2134  1.9521 -2.2810
 3845SOL    HW223172   2.169   3.001   4.538 -0.6117  0.8027  0.5171
 3846SOL     OW23173   3.402   0.031   7.531 -0.1495 -0.0573  0.3164
 3846SOL    HW123174   3.420   0.043   7.624 -1.2469 -1.0075  0.6594
 3846SOL    HW223175   3.321   4.716   7.528  0.5801 -1.1977 -0.0911
 3847SOL     OW23176   1.833   2.632  13.824  0.0346 -0.0587 -0.5835
 3847SOL    HW123177   1.892   2.691  13.870  0.2294 -0.9719  0.3579
 3847SOL    HW223178   1.825   2.670  13.736  1.1671  1.7534  0.1141
 3848SOL     OW23179   0.470   4.429   4.958 -0.2306  0.0923  0.4078
 3848SOL    HW123180   0.393   4.373   4.966 -1.4640  1.5416 -1.3804
 3848SOL    HW223181   0.443   4.506   5.008 -0.9151  0.0545  0.0980
 3849SOL     OW23182   0.228   0.631   9.855 -0.0089  0.5388 -0.1544
 3849SOL    HW123183   0.235   0.725   9.840  2.3217  0.5877  1.3579
 3849SOL    HW223184   0.319   0.603   9.855  0.1015  0.9050  0.3860
 3850SOL     OW23185   0.410   2.678   6.380  0.0587  0.1514  1.1914
 3850SOL    HW123186   0.493   2.711   6.345 -0.1937 -2.3135 -1.7948
 3850SOL    HW223187   0.419   2.591   6.419  1.5717  0.5707  1.7633
 3851SOL     OW23188   2.651   3.666  16.973 -0.1443  0.2067 -0.4070
 3851SOL    HW123189   2.599   3.597  16.932 -1.1744  1.0884 -0.5807
 3851SOL    HW223190   2.735   3.645  16.933 -0.4938  0.2516 -1.1659
 3852SOL     OW23191   0.039   4.099   5.383  0.6569 -0.1968 -0.3153
 3852SOL    HW123192   0.007   4.131   5.467 -0.1119 -0.3750 -0.5351
 3852SOL    HW223193   0.082   4.015   5.400 -0.3789 -1.1430 -2.3103
 3853SOL     OW23194   3.019   3.746   9.875  0.1502 -0.0081 -0.4764
 3853SOL    HW123195   3.111   3.770   9.878 -0.3274  1.5534  2.0144
 3853SOL    HW223196   2.973   3.825   9.847 -2.0291 -1.2567 -0.4309
 3854SOL     OW23197   0.209   4.700   7.174  0.1840  0.1789  0.5712
 3854SOL    HW123198   0.118   4.692   7.201  1.0610 -1.2934  3.1405
 3854SOL    HW223199   0.238   0.042   7.220  0.0110 -0.5045  1.8570
 3855SOL     OW23200   2.995   3.547   5.968  0.0033  0.5897  0.2367
 3855SOL    HW123201   2.934   3.524   5.899  0.3853 -0.5276  0.2667
 3855SOL    HW223202   3.068   3.589   5.923  1.5142 -0.4545  1.6872
 3856SOL     OW23203   1.406   0.901   2.690  0.2154 -0.0637  0.1436
 3856SOL    HW123204   1.335   0.875   2.632  1.2600  0.5870 -1.4092
 3856SOL    HW223205   1.442   0.813   2.706 -0.2663 -0.5013 -1.1791
 3857SOL     OW23206   3.138   2.673  10.506 -0.5191  0.3905  0.0686
 3857SOL    HW123207   3.192   2.654  10.583  1.4607  0.0622 -1.4111
 3857SOL    HW223208   3.159   2.766  10.493 -1.5454  0.8022  1.2676
 3858SOL     OW23209   1.597   1.798   2.908 -0.4323  0.3611 -0.3219
 3858SOL    HW123210   1.501   1.800   2.904 -0.5081 -2.1111  0.3738
 3858SOL    HW223211   1.639   1.820   2.825  0.7770 -1.2871 -0.1455
 3859SOL     OW23212   2.698   0.008   0.498  0.1771 -0.0572  0.3209
 3859SOL    HW123213   2.763   0.017   0.568  1.5062 -1.2589 -0.7543
 3859SOL    HW223214   2.702   0.098   0.469 -0.3946 -0.5905 -1.4198
 3860SOL     OW23215   2.213   0.477   8.774 -0.0694 -0.1580  0.0333
 3860SOL    HW123216   2.135   0.530   8.761  1.4449  1.9074 -0.7149
 3860SOL    HW223217   2.222   0.455   8.681 -0.2485 -2.8296  0.6620
 3861SOL     OW23218   4.614   4.312   7.824  0.7854  0.4201 -0.1524
 3861SOL    HW123219   4.575   4.388   7.867  0.7799 -0.6839  1.7724
 3861SOL    HW223220   4.617   4.245   7.892 -2.0552  0.0844 -0.3851
 3862SOL     OW23221   1.835   4.396   5.104  0.2868  0.0898  0.0838
 3862SOL    HW123222   1.776   4.468   5.084  1.2940  1.3429  1.5679
 3862SOL    HW223223   1.781   4.321   5.079  0.9053 -0.8897  1.6624
 3863SOL     OW23224   0.106   0.672   2.830  0.0386 -0.1827  0.0458
 3863SOL    HW123225   0.046   0.716   2.769  1.3218 -0.4191 -1.3954
 3863SOL    HW223226   0.193   0.702   2.804  0.7201 -0.8432  1.5386
 3864SOL     OW23227   0.797   0.829  14.608 -0.2850 -0.0423  0.1568
 3864SOL    HW123228   0.808   0.924  14.611 -1.6563  0.0989  0.8664
 3864SOL    HW223229   0.768   0.800  14.695 -0.0198 -0.4155  0.1248
 3865SOL     OW23230   2.109   1.727   7.019  0.2652  0.7051  0.6592
 3865SOL    HW123231   2.137   1.814   6.990 -1.3006  1.0143  0.0570
 3865SOL    HW223232   2.034   1.749   7.074 -0.3432  0.5062 -0.0903
 3866SOL     OW23233   2.803   4.593   3.151 -0.2488 -0.2386 -0.3439
 3866SOL    HW123234   2.756   4.511   3.170 -0.3345 -0.8656 -3.3006
 3866SOL    HW223235   2.882   4.568   3.198  0.9504 -1.4611 -2.9782
 3867SOL     OW23236   0.984   0.995   4.244  0.3312 -0.6689 -0.0902
 3867SOL    HW123237   0.994   0.903   4.222 -0.7321 -0.8269  0.0831
 3867SOL    HW223238   0.891   1.007   4.261 -0.2730 -2.8862 -1.8758
 3868SOL     OW23239   2.481   3.074   0.373 -0.8875 -0.2249 -0.1968
 3868SOL    HW123240   2.535   3.073   0.452 -0.9526 -2.4190 -0.1868
 3868SOL    HW223241   2.418   3.005   0.391  0.7278 -1.1318  1.9771
 3869SOL     OW23242   3.814   3.975   5.798  0.2743  0.1814  0.3926
 3869SOL    HW123243   3.749   3.976   5.869  0.0626  2.2904  0.1523
 3869SOL    HW223244   3.870   3.900   5.820 -0.2720 -1.4887 -3.8192
 3870SOL     OW23245   3.473   3.117   2.179 -0.6585  0.9046  0.4031
 3870SOL    HW123246   3.504   3.027   2.176 -0.3527  1.0146  0.3127
 3870SOL    HW223247   3.544   3.150   2.125  0.1172 -0.2695  0.7065
 3871SOL     OW23248   2.273   2.856  13.182 -0.1595  0.0563 -0.2969
 3871SOL    HW123249   2.302   2.771  13.215 -1.2963 -0.0102  0.5544
 3871SOL    HW223250   2.258   2.836  13.090 -0.6008 -1.0736  0.0148
 3872SOL     OW23251   4.624   3.124   7.622  0.0861 -0.0381  0.0269
 3872SOL    HW123252   4.643   3.103   7.530 -0.0417  1.2472 -0.2993
 3872SOL    HW223253   4.532   3.102   7.634 -0.4990  3.0474  1.0281
 3873SOL     OW23254   4.593   2.641   6.026 -0.1793  0.1482  0.1196
 3873SOL    HW123255   4.669   2.685   6.063  1.6484 -3.1920  0.3314
 3873SOL    HW223256   4.560   2.704   5.962  0.8313 -0.3463 -0.8794
 3874SOL     OW23257   2.568   0.240   4.622  0.1051 -0.3432 -0.5209
 3874SOL    HW123258   2.622   0.161   4.631 -1.8347 -1.4702  1.1743
 3874SOL    HW223259   2.557   0.253   4.717  2.0004  1.6891 -0.5838
 3875SOL     OW23260   2.772   2.478   9.236 -0.4343  0.4246  0.0069
 3875SOL    HW123261   2.784   2.447   9.147 -0.4760 -1.3123  0.6098
 3875SOL    HW223262   2.679   2.454   9.233 -0.3588  0.2179 -0.6042
 3876SOL     OW23263   1.335   3.890   2.002  0.1691  0.2458  0.3540
 3876SOL    HW123264   1.301   3.851   1.922 -0.3272 -1.7101  1.5058
 3876SOL    HW223265   1.302   3.979   1.995  0.2248  0.1929 -0.5947
 3877SOL     OW23266   4.177   1.247   2.950 -0.5187  0.1962 -0.4556
 3877SOL    HW123267   4.211   1.313   3.011  1.1635  0.5625 -1.7958
 3877SOL    HW223268   4.088   1.239   2.983  0.0607 -1.6526  0.6752
 3878SOL     OW23269   3.306   0.114  17.583  0.3121  0.1692  0.4482
 3878SOL    HW123270   3.386   0.160  17.610  1.2467 -2.0868  1.6101
 3878SOL    HW223271   3.276   0.172  17.514  1.0295  1.3135  1.0959
 3879SOL     OW23272   0.520   4.431   3.270 -0.4035 -0.2510 -0.0036
 3879SOL    HW123273   0.549   4.388   3.190  1.4911  2.5332 -0.8295
 3879SOL    HW223274   0.430   4.446   3.241 -0.6210  0.4426  1.0518
 3880SOL     OW23275   0.849   0.649  14.851 -0.2628 -0.3449  0.1292
 3880SOL    HW123276   0.914   0.585  14.882  1.2474  2.3805  2.5955
 3880SOL    HW223277   0.777   0.587  14.835  0.1218 -0.8448  0.3332
 3881SOL     OW23278   2.567   2.996  12.449  0.9334 -0.0723 -0.5079
 3881SOL    HW123279   2.587   3.007  12.356  0.4569 -2.1268 -0.8558
 3881SOL    HW223280   2.655   2.983  12.484  0.3662  3.5893  2.3561
 3882SOL     OW23281   4.156   1.276  12.254  0.3131 -0.1689  0.2017
 3882SOL    HW123282   4.184   1.359  12.291  0.9042 -0.4605  0.4210
 3882SOL    HW223283   4.133   1.221  12.330  0.5157  1.1237  1.1908
 3883SOL     OW23284   1.561   1.214  14.875 -0.3737  0.2496 -0.4827
 3883SOL    HW123285   1.649   1.188  14.902 -0.9297 -2.4497 -1.2527
 3883SOL    HW223286   1.582   1.266  14.798 -2.8279  0.4765 -0.9804
 3884SOL     OW23287   4.662   0.339  16.357 -0.3059 -0.3330 -0.5065
 3884SOL    HW123288   4.635   0.249  16.339 -0.2426 -0.3599 -0.4672
 3884SOL    HW223289   4.718   0.364  16.284  0.9662  1.3400  1.0364
 3885SOL     OW23290   2.855   1.596   8.819  0.4909 -0.4053 -0.3434
 3885SOL    HW123291   2.771   1.611   8.863  0.3823  2.5290 -1.5156
 3885SOL    HW223292   2.909   1.669   8.850  0.0006 -0.5944  0.9629
 3886SOL     OW23293   3.080   4.672   5.567  0.3117  0.3815  0.7538
 3886SOL    HW123294   3.170   4.677   5.597  0.2977 -1.1598  1.0566
 3886SOL    HW223295   3.058   4.583   5.596  1.8213 -0.3430 -0.3512
 3887SOL     OW23296   0.388   3.791   7.653  0.5559 -0.0438 -0.4553
 3887SOL    HW123297   0.329   3.861   7.681  2.9422  0.7896  2.5255
 3887SOL    HW223298   0.341   3.720   7.696  1.5122 -0.2322  0.2855
 3888SOL     OW23299   3.665   1.927   6.519 -0.5600  0.3168  0.8012
 3888SOL    HW123300   3.649   2.013   6.559 -0.3894  2.4109 -3.6653
 3888SOL    HW223301   3.577   1.890   6.512 -0.3661 -0.3403  1.9105
 3889SOL     OW23302   4.353   0.335  15.773 -0.0329  0.2676 -0.2419
 3889SOL    HW123303   4.436   0.315  15.816 -0.5613  0.8963  1.0624
 3889SOL    HW223304   4.341   0.254  15.724 -3.5579  0.5205  0.2018
 3890SOL     OW23305   2.489   0.999   9.165 -0.1184  0.1233  0.4939
 3890SOL    HW123306   2.462   1.088   9.188 -1.2920  0.6913 -3.0855
 3890SOL    HW223307   2.409   0.950   9.183  0.6590 -1.6954 -0.9734
 3891SOL     OW23308   4.262   1.961  11.929  0.3071  0.1982 -0.0068
 3891SOL    HW123309   4.309   1.989  11.851  0.3379 -1.0877 -0.4488
 3891SOL    HW223310   4.243   2.050  11.957  1.1364  0.3544  0.0511
 3892SOL     OW23311   2.163   0.712   3.874 -0.0952  0.2298  0.5518
 3892SOL    HW123312   2.239   0.659   3.847 -1.7360 -1.0531 -1.5927
 3892SOL    HW223313   2.200   0.758   3.949 -0.9033  0.5536  0.7480
 3893SOL     OW23314   2.741   0.430   9.381 -0.4350  0.4134 -0.2813
 3893SOL    HW123315   2.707   0.341   9.386 -1.6486  0.8128 -1.6059
 3893SOL    HW223316   2.774   0.429   9.291  2.6946  0.6036  0.8661
 3894SOL     OW23317   1.148   3.514   2.591 -0.1459  0.0719 -0.6333
 3894SOL    HW123318   1.177   3.477   2.507 -0.5449 -0.3898 -0.5667
 3894SOL    HW223319   1.134   3.604   2.562  2.6638  0.9674  0.6859
 3895SOL     OW23320   0.549   0.676  17.515  0.1666  0.2118  0.1680
 3895SOL    HW123321   0.512   0.607  17.461 -0.7469 -0.0879  1.1736
 3895SOL    HW223322   0.603   0.720  17.450 -0.7362  1.3997  0.2269
 3896SOL     OW23323   0.399   2.069   4.457  0.8037 -0.3765 -0.3840
 3896SOL    HW123324   0.346   2.013   4.400  0.4595  0.3130 -0.7407
 3896SOL    HW223325   0.394   2.146   4.400  1.8010 -0.8074 -1.0687
 3897SOL     OW23326   2.547   0.923   8.540 -0.5017  0.2841 -0.0685
 3897SOL    HW123327   2.597   0.861   8.593  0.0838 -0.2761 -1.2773
 3897SOL    HW223328   2.575   1.007   8.575  0.1239  0.3941 -0.8410
 3898SOL     OW23329   0.309   2.999   8.542  0.1686 -0.4244 -0.8463
 3898SOL    HW123330   0.368   2.985   8.469 -0.6069 -1.9466 -1.1704
 3898SOL    HW223331   0.271   3.080   8.507  0.9473 -0.7279 -2.3508
 3899SOL     OW23332   2.590   3.293   4.900  0.2134  0.0944  0.1115
 3899SOL    HW123333   2.611   3.350   4.826  1.8844 -2.3499 -1.3028
 3899SOL    HW223334   2.518   3.257   4.849  0.2217  0.5737 -0.2439
 3900SOL     OW23335   3.926   2.952   2.172 -0.2742  0.1099 -0.5987
 3900SOL    HW123336   3.931   3.027   2.231 -1.2481 -0.3288  0.0444
 3900SOL    HW223337   3.964   2.984   2.090 -0.7082 -0.0551 -0.8687
 3901SOL     OW23338   3.259   2.431   6.335  0.0083 -0.2879  0.3961
 3901SOL    HW123339   3.243   2.433   6.429  1.9393  0.6298  0.7180
 3901SOL    HW223340   3.322   2.504   6.333 -1.0386  0.6150  0.5626
 3902SOL     OW23341   3.464   0.936   9.613 -0.5413 -0.0773  0.0161
 3902SOL    HW123342   3.525   0.996   9.570  0.7578 -0.8632  0.7453
 3902SOL    HW223343   3.381   0.981   9.628 -1.1928 -1.4827  0.6940
 3903SOL     OW23344   0.125   0.150   8.834  0.1072 -0.3624  0.2743
 3903SOL    HW123345   0.197   0.196   8.878 -0.1635  0.4297 -0.1071
 3903SOL    HW223346   0.116   0.072   8.889  0.8861 -1.9672 -1.8923
 3904SOL     OW23347   3.466   0.392   9.402 -0.4083 -0.4639 -0.2425
 3904SOL    HW123348   3.552   0.415   9.365 -0.0612 -0.0678  0.8155
 3904SOL    HW223349   3.483   0.310   9.447 -2.3227 -0.6790  0.0824
 3905SOL     OW23350   0.843   2.488   3.826 -0.1844 -0.1293 -0.4356
 3905SOL    HW123351   0.876   2.449   3.746  2.0779  0.3486  0.2634
 3905SOL    HW223352   0.920   2.522   3.871 -1.4719  2.3192 -0.0842
 3906SOL     OW23353   1.175   3.428   9.165 -0.4678  0.2927 -0.2015
 3906SOL    HW123354   1.232   3.379   9.106  0.9844 -0.7228  2.0359
 3906SOL    HW223355   1.094   3.421   9.115 -0.2632 -1.4676 -0.2796
 3907SOL     OW23356   2.588   4.199   4.723 -0.6618  0.0982 -0.2381
 3907SOL    HW123357   2.665   4.215   4.777 -0.1516  1.1601 -1.2877
 3907SOL    HW223358   2.528   4.266   4.756 -0.0729  1.2010 -1.4184
 3908SOL     OW23359   0.959   0.449   2.192 -0.1989  0.2402 -0.2571
 3908SOL    HW123360   0.999   0.388   2.129  1.8381 -0.2059  1.4633
 3908SOL    HW223361   1.005   0.524   2.156  1.2949 -0.4569  0.1665
 3909SOL     OW23362   2.834   2.329   3.876  0.0869  0.5509 -0.1304
 3909SOL    HW123363   2.868   2.416   3.897  0.5633 -0.0355  1.5333
 3909SOL    HW223364   2.784   2.305   3.954  1.0935  2.3015  1.0680
 3910SOL     OW23365   3.425   1.041   5.600  0.7400  0.0171 -1.0901
 3910SOL    HW123366   3.494   1.105   5.614 -0.0389  0.9080 -1.3676
 3910SOL    HW223367   3.382   1.043   5.685  1.1257 -0.5766 -0.8831
 3911SOL     OW23368   1.033   0.482  14.934  0.2140 -0.1113  0.0144
 3911SOL    HW123369   1.083   0.426  14.993  0.3873 -0.5228 -0.5191
 3911SOL    HW223370   1.034   0.422  14.859  1.5496 -0.7423  0.5462
 3912SOL     OW23371   1.424   0.485  14.987  0.1712  0.3818 -0.3336
 3912SOL    HW123372   1.498   0.439  15.024  0.1942  0.4126 -0.3413
 3912SOL    HW223373   1.399   0.542  15.059 -0.3233 -1.0763  0.6310
 3913SOL     OW23374   0.475   3.344   4.574 -0.2685 -0.1534 -0.4282
 3913SOL    HW123375   0.490   3.434   4.602  1.0290 -0.7523  0.7741
 3913SOL    HW223376   0.530   3.296   4.636 -0.5615  1.2823  0.9299
 3914SOL     OW23377   3.364   1.380   2.192 -0.3696 -0.8462  0.4464
 3914SOL    HW123378   3.359   1.287   2.215 -0.9541 -0.8949  0.1027
 3914SOL    HW223379   3.296   1.380   2.125 -1.1451 -0.1258  1.2421
 3915SOL     OW23380   2.317   2.330   2.033  0.0379  0.3389 -0.2747
 3915SOL    HW123381   2.310   2.355   2.125 -1.7235  0.0762 -0.3501
 3915SOL    HW223382   2.398   2.377   2.011  0.0674  0.0731 -0.7308
 3916SOL     OW23383   2.283   2.683   7.595 -0.3121  0.1927  0.5406
 3916SOL    HW123384   2.361   2.737   7.587 -1.4167  1.5839 -0.7011
 3916SOL    HW223385   2.223   2.743   7.640  1.2233  1.0852  1.3827
 3917SOL     OW23386   1.957   4.291   1.711 -0.2029 -0.3642  0.4010
 3917SOL    HW123387   1.975   4.358   1.645  1.5280 -2.4226 -1.2302
 3917SOL    HW223388   1.868   4.271   1.681  0.1676 -0.7293 -0.4656
 3918SOL     OW23389   4.519   3.787   5.396 -0.2594  0.0414  0.4488
 3918SOL    HW123390   4.598   3.733   5.390 -1.0357 -0.9622 -0.9278
 3918SOL    HW223391   4.487   3.761   5.482 -3.4297  0.3661 -0.6347
 3919SOL     OW23392   1.202   3.823   3.808 -0.2549  0.0021  0.1957
 3919SOL    HW123393   1.128   3.797   3.753 -0.1607  1.2782 -0.5507
 3919SOL    HW223394   1.165   3.883   3.873  1.0621  1.4839 -0.4011
 3920SOL     OW23395   1.839   1.253   4.140  0.1588 -0.2123  0.1314
 3920SOL    HW123396   1.896   1.195   4.090 -1.8200 -1.4004 -0.7575
 3920SOL    HW223397   1.760   1.199   4.147  1.8992 -2.2709  3.9082
 3921SOL     OW23398   4.499   1.619   0.832  0.3493  0.7676  0.4527
 3921SOL    HW123399   4.516   1.660   0.748 -0.7862  0.6841  0.1804
 3921SOL    HW223400   4.441   1.552   0.795  0.5713 -0.1303  1.6986
 3922SOL     OW23401   1.565   2.652   9.924  0.2832 -0.0414 -0.1956
 3922SOL    HW123402   1.601   2.615  10.004  1.7222  0.7233 -0.4852
 3922SOL    HW223403   1.598   2.579   9.872  0.7134 -1.0093  1.4401
 3923SOL     OW23404   0.357   2.241   7.560  0.3871 -0.3310  0.2415
 3923SOL    HW123405   0.422   2.175   7.536  0.4058 -0.3746  0.4132
 3923SOL    HW223406   0.321   2.261   7.473 -1.3171  2.6184  1.6136
 3924SOL     OW23407   3.790   3.155  11.911  0.2866 -0.2725 -0.2502
 3924SOL    HW123408   3.868   3.137  11.859 -0.5958 -1.0159 -1.3341
 3924SOL    HW223409   3.830   3.189  11.991  0.6055  1.5402 -1.1757
 3925SOL     OW23410   2.160   2.674   4.339  0.0467  0.3099 -0.0958
 3925SOL    HW123411   2.143   2.751   4.284  1.0273  0.7642  0.2392
 3925SOL    HW223412   2.098   2.682   4.411 -1.1113 -1.6036 -0.8550
 3926SOL     OW23413   0.440   4.651   3.568 -0.0954 -0.1207  0.3061
 3926SOL    HW123414   0.466   4.560   3.550 -3.0193 -1.0625  0.8971
 3926SOL    HW223415   0.413   4.636   3.659  0.8482 -2.0513  0.2728
 3927SOL     OW23416   3.128   0.488   4.657  0.4892 -0.3514  0.0935
 3927SOL    HW123417   3.095   0.399   4.642  2.8130 -1.4881  1.7812
 3927SOL    HW223418   3.062   0.554   4.637  0.6384 -0.2715 -0.1366
 3928SOL     OW23419   0.099   0.115  16.749  0.3809  0.0009  0.2745
 3928SOL    HW123420   0.136   0.040  16.795 -2.5513 -1.4591  0.2888
 3928SOL    HW223421   0.015   0.075  16.726 -0.9232  3.4289 -1.0201
 3929SOL     OW23422   4.619   0.384   6.563 -0.1135 -0.1960 -0.3420
 3929SOL    HW123423   4.554   0.403   6.495 -0.9232  0.3605  0.5945
 3929SOL    HW223424   4.593   0.296   6.592 -0.3379  0.0024  0.0469
 3930SOL     OW23425   1.556   4.291   5.661  0.5495 -0.3821  0.2405
 3930SOL    HW123426   1.517   4.204   5.656 -1.5774  0.6086 -0.2132
 3930SOL    HW223427   1.604   4.299   5.579  0.4490 -2.0171  0.0165
 3931SOL     OW23428   0.526   1.645   3.497  0.0181  0.3425  0.1687
 3931SOL    HW123429   0.619   1.643   3.517 -0.1234  0.1805  0.8221
 3931SOL    HW223430   0.492   1.603   3.576  1.5653 -1.6345 -0.2078
 3932SOL     OW23431   1.898   1.561   2.458  0.9656 -0.1485  0.0870
 3932SOL    HW123432   1.986   1.596   2.449  1.5598 -1.1745  1.9213
 3932SOL    HW223433   1.884   1.533   2.367 -0.2724 -0.5726  0.4055
 3933SOL     OW23434   0.468   4.170   4.190  0.4228 -0.1434  0.0884
 3933SOL    HW123435   0.419   4.232   4.244  1.3730  0.1015  0.6743
 3933SOL    HW223436   0.415   4.165   4.110  1.1870  0.0364 -0.4400
 3934SOL     OW23437   1.308   4.623  16.975  0.1978 -0.2849 -0.0518
 3934SOL    HW123438   1.230   4.589  17.018 -0.1739  2.5484  1.5082
 3934SOL    HW223439   1.272   4.606  16.888 -1.6116 -1.8364  1.0060
 3935SOL     OW23440   3.385   1.927   5.531  0.2388 -0.4935 -0.1501
 3935SOL    HW123441   3.367   1.865   5.459 -2.8809  0.4819 -0.2351
 3935SOL    HW223442   3.301   1.922   5.578 -1.0865  4.5680 -2.0399
 3936SOL     OW23443   1.129   4.027   3.986  0.2363  0.0767 -0.4879
 3936SOL    HW123444   1.206   4.081   3.967 -1.2213  2.3444  0.0927
 3936SOL    HW223445   1.055   4.069   3.942 -1.4686 -1.6374  0.7538
 3937SOL     OW23446   4.699   1.436  12.661  0.2204  0.4793  0.4623
 3937SOL    HW123447   4.701   1.500  12.732 -0.8863 -1.6911  2.4633
 3937SOL    HW223448   4.698   1.357  12.716 -2.5514  0.0878 -0.1679
 3938SOL     OW23449   4.341   1.806   4.754 -0.5340  0.6144  0.4452
 3938SOL    HW123450   4.255   1.832   4.720 -0.1780  0.0003 -0.9436
 3938SOL    HW223451   4.369   1.772   4.669  1.1037  1.5855  0.6135
 3939SOL     OW23452   2.226   4.341   2.489 -0.2503 -0.5818 -0.1655
 3939SOL    HW123453   2.153   4.285   2.464 -1.0398 -0.0098  0.8908
 3939SOL    HW223454   2.191   4.392   2.561 -1.2195  0.6133 -1.4858
 3940SOL     OW23455   0.367   2.819   2.140 -0.0225  0.0802  0.5954
 3940SOL    HW123456   0.361   2.911   2.115  1.5932 -0.0623 -0.2905
 3940SOL    HW223457   0.361   2.774   2.056  0.7735  0.5865  0.2688
 3941SOL     OW23458   2.214   1.810   4.979  0.3768  0.3944 -0.3333
 3941SOL    HW123459   2.294   1.757   4.976  0.8116  1.0124  0.2626
 3941SOL    HW223460   2.241   1.866   5.052  0.0242 -0.5280  0.5062
 3942SOL     OW23461   1.214   0.222  13.394 -0.3788 -0.0110  0.3355
 3942SOL    HW123462   1.191   0.180  13.477 -1.6408  0.6590  0.3243
 3942SOL    HW223463   1.184   0.312  13.407  1.4478  0.5843  0.3930
 3943SOL     OW23464   3.827   1.022   6.282  0.0557  0.5354  0.0192
 3943SOL    HW123465   3.802   1.114   6.282  0.3805  0.6220 -1.1279
 3943SOL    HW223466   3.898   1.030   6.346  0.0971  0.5652 -0.0308
 3944SOL     OW23467   2.626   2.521   2.812  0.1239 -0.1546  0.0003
 3944SOL    HW123468   2.552   2.579   2.827  0.3706  0.1929 -0.1192
 3944SOL    HW223469   2.639   2.485   2.900  0.6443  0.5005  0.1885
 3945SOL     OW23470   2.781   1.495   4.314 -0.0479 -0.4005 -0.3010
 3945SOL    HW123471   2.821   1.415   4.279  0.9729 -0.0137 -0.0032
 3945SOL    HW223472   2.696   1.466   4.347 -0.7927  1.0111 -1.0136
 3946SOL     OW23473   2.913   3.954   5.012  0.3402  0.8550 -0.2061
 3946SOL    HW123474   3.001   3.985   5.031  0.1050 -0.4117  2.9508
 3946SOL    HW223475   2.909   3.871   5.060  0.7665  0.4935 -0.8061
 3947SOL     OW23476   1.380   0.434   4.704  0.0397  0.2597 -0.0962
 3947SOL    HW123477   1.468   0.401   4.718 -0.6004 -0.9495  1.0839
 3947SOL    HW223478   1.369   0.500   4.772 -0.8993 -0.2486  0.2491
 3948SOL     OW23479   4.157   0.595   4.724 -0.0457 -0.1281  0.3817
 3948SOL    HW123480   4.224   0.653   4.760  0.7754 -0.6645 -0.2702
 3948SOL    HW223481   4.075   0.630   4.759  0.3873 -0.2013  1.4729
 3949SOL     OW23482   3.607   2.830   8.856 -0.3906 -0.2409 -0.3328
 3949SOL    HW123483   3.663   2.898   8.893 -1.8501  0.9865 -0.3639
 3949SOL    HW223484   3.651   2.753   8.892  0.6424  0.2323 -0.5774
 3950SOL     OW23485   0.775   2.754   4.896 -0.0583 -0.7042 -0.1796
 3950SOL    HW123486   0.763   2.685   4.831  0.2572 -1.2937  0.3849
 3950SOL    HW223487   0.848   2.723   4.949  0.5595 -2.1802 -1.9219
 3951SOL     OW23488   2.598   3.356   6.340  0.7771  0.0757 -0.4413
 3951SOL    HW123489   2.571   3.365   6.249  1.9282 -0.0241 -0.7937
 3951SOL    HW223490   2.550   3.431   6.375  0.8014  0.5280 -1.3931
 3952SOL     OW23491   0.331   2.722   1.874 -0.3111  0.2721 -0.1381
 3952SOL    HW123492   0.311   2.688   1.787 -0.3604 -0.1389  0.0328
 3952SOL    HW223493   0.342   2.812   1.843 -1.9193  1.3932  2.5490
 3953SOL     OW23494   3.771   2.686   4.377  0.1185 -0.2317  0.1560
 3953SOL    HW123495   3.821   2.683   4.296 -1.1443 -2.3643 -0.5414
 3953SOL    HW223496   3.684   2.689   4.337 -0.0340  0.8150  0.5688
 3954SOL     OW23497   0.786   1.114   5.634 -0.1626  0.1572  0.0087
 3954SOL    HW123498   0.706   1.166   5.629 -1.4125 -1.9785 -1.6134
 3954SOL    HW223499   0.771   1.060   5.557  1.9706 -0.4843  0.0417
 3955SOL     OW23500   0.573   1.925  16.901  0.1231  0.3352  0.0438
 3955SOL    HW123501   0.575   1.912  16.996 -0.4033 -2.6039 -0.3434
 3955SOL    HW223502   0.604   1.838  16.874 -0.3087  0.2107 -0.0471
 3956SOL     OW23503   2.640   0.344   0.540  0.0335  0.3685 -0.3568
 3956SOL    HW123504   2.568   0.337   0.602  0.6443 -1.4043  0.1429
 3956SOL    HW223505   2.703   0.400   0.585 -0.0668 -0.9931  1.4673
 3957SOL     OW23506   3.577   3.508   2.863 -0.1346  0.2214  0.0899
 3957SOL    HW123507   3.496   3.474   2.825 -0.1462  2.2984 -1.7025
 3957SOL    HW223508   3.553   3.601   2.867 -2.3941 -0.4581  2.6413
 3958SOL     OW23509   3.363   0.528   8.363 -0.0538  0.0943  0.2958
 3958SOL    HW123510   3.415   0.525   8.443 -1.8992  0.1300  1.4835
 3958SOL    HW223511   3.422   0.559   8.294 -1.1839 -1.6166 -1.4539
 3959SOL     OW23512   3.774   3.936  10.689  0.2693  0.4558 -0.1839
 3959SOL    HW123513   3.820   4.011  10.726  0.9723  0.0637 -0.2689
 3959SOL    HW223514   3.747   3.894  10.771 -0.1177  0.5038 -0.2846
 3960SOL     OW23515   0.622   1.571  15.053  0.4785 -0.6165  0.0898
 3960SOL    HW123516   0.550   1.528  15.007 -0.5227  0.7363  0.3990
 3960SOL    HW223517   0.692   1.585  14.988  1.9730 -1.4330  1.5140
 3961SOL     OW23518   1.317   3.968  15.986  0.1846 -0.2432 -0.6327
 3961SOL    HW123519   1.250   3.962  15.918 -0.4647 -1.0448  0.0909
 3961SOL    HW223520   1.358   4.052  15.965  0.0431  0.4567  1.8807
 3962SOL     OW23521   4.106   4.224   8.606  0.7508  0.2788 -0.4015
 3962SOL    HW123522   4.130   4.176   8.527 -0.9636  0.7026 -1.1688
 3962SOL    HW223523   4.038   4.281   8.570 -1.4438 -2.6717 -0.8568
 3963SOL     OW23524   1.280   3.446  12.293 -0.0503  0.0902 -0.5929
 3963SOL    HW123525   1.256   3.438  12.201  0.2437  0.8970 -0.7446
 3963SOL    HW223526   1.292   3.353  12.314 -0.4466  0.2260  0.2478
 3964SOL     OW23527   0.060   3.946   2.989 -0.1036 -0.2537 -0.4836
 3964SOL    HW123528   0.047   4.038   2.967 -0.8770  0.3687  2.5262
 3964SOL    HW223529   0.017   3.939   3.074  0.9554 -0.7661  0.0085
 3965SOL     OW23530   3.513   0.026   9.772 -0.0298 -0.0890 -0.0817
 3965SOL    HW123531   3.485   0.018   9.863  0.5679  1.5413  0.2394
 3965SOL    HW223532   3.548   4.673   9.766  0.7780  0.1612  1.0799
 3966SOL     OW23533   1.459   1.387   6.804  0.3967 -0.3548 -0.3674
 3966SOL    HW123534   1.449   1.481   6.791  0.2085 -0.3380 -0.0738
 3966SOL    HW223535   1.447   1.356   6.714 -1.3885 -1.1179  0.1430
 3967SOL     OW23536   0.065   2.768   6.158  0.4280  0.6198  0.1872
 3967SOL    HW123537   0.117   2.774   6.078 -2.3680 -2.4140 -1.8889
 3967SOL    HW223538   0.117   2.797   6.233  0.9064 -0.5970  0.3245
 3968SOL     OW23539   4.091   2.967  11.481 -0.0115  0.1234 -0.1252
 3968SOL    HW123540   4.010   2.927  11.449 -0.7893  0.6585  1.1510
 3968SOL    HW223541   4.152   2.898  11.456 -1.1748 -0.5642 -1.0544
 3969SOL     OW23542   2.718   1.996   6.644 -0.0610 -0.2368 -0.2266
 3969SOL    HW123543   2.790   1.981   6.705  1.0582  3.5885 -0.6192
 3969SOL    HW223544   2.712   2.091   6.640  0.8564 -0.2947 -2.5845
 3970SOL     OW23545   3.515   2.045  11.655 -0.1816  0.1694 -0.4858
 3970SOL    HW123546   3.432   1.999  11.640  0.4617 -2.1226  2.7804
 3970SOL    HW223547   3.574   1.969  11.653  1.6055  1.5528  0.0303
 3971SOL     OW23548   4.185   2.405  10.223  0.3477  0.1423 -0.4582
 3971SOL    HW123549   4.093   2.404  10.249 -0.0293  1.0410 -1.7732
 3971SOL    HW223550   4.208   2.314  10.239  0.7599  0.4461  0.6466
 3972SOL     OW23551   4.450   3.789   9.583  0.2035  0.6137 -0.6597
 3972SOL    HW123552   4.523   3.739   9.545  0.9418  1.1090  0.0811
 3972SOL    HW223553   4.468   3.880   9.560 -1.8353  1.1492 -0.1395
 3973SOL     OW23554   4.125   0.233  10.702 -0.2568 -0.1222  0.0735
 3973SOL    HW123555   4.165   0.167  10.759 -0.3354 -1.5085 -1.4629
 3973SOL    HW223556   4.155   0.206  10.615  0.0684  4.0467 -1.0881
 3974SOL     OW23557   2.527   3.664  16.665  0.5969 -0.1248  0.2891
 3974SOL    HW123558   2.621   3.678  16.655  0.4477  2.9845  3.2869
 3974SOL    HW223559   2.514   3.574  16.633  0.1822  0.0997 -0.1785
 3975SOL     OW23560   3.951   3.832  16.964 -0.2379  0.1661 -0.2582
 3975SOL    HW123561   3.938   3.875  17.048 -2.7070 -1.2496  0.0744
 3975SOL    HW223562   3.929   3.740  16.980 -1.5741  0.4008 -0.7208
 3976SOL     OW23563   0.653   1.431  15.827  0.2203 -0.2393  0.1207
 3976SOL    HW123564   0.580   1.493  15.824 -0.7856 -1.5398 -1.7717
 3976SOL    HW223565   0.704   1.453  15.749  0.2896 -4.6680 -1.0538
 3977SOL     OW23566   0.838   4.337   3.491  0.1891  0.0126 -0.3265
 3977SOL    HW123567   0.828   4.247   3.520  2.3018  0.0049  0.3809
 3977SOL    HW223568   0.919   4.367   3.533  0.5793 -0.2436 -0.8900
 3978SOL     OW23569   0.429   2.851   5.569 -0.0163  0.1413 -0.2882
 3978SOL    HW123570   0.524   2.845   5.560  0.1541 -0.5295  1.8551
 3978SOL    HW223571   0.405   2.821   5.481  0.9055  1.1884 -0.8971
 3979SOL     OW23572   0.984   0.109   6.125  0.1092 -0.2869  0.0738
 3979SOL    HW123573   1.022   0.167   6.191  1.2511 -3.0596  1.8460
 3979SOL    HW223574   1.058   0.101   6.064 -1.8884 -1.2911 -2.2541
 3980SOL     OW23575   2.476   0.528   8.870 -0.0235  0.0388 -0.4880
 3980SOL    HW123576   2.505   0.442   8.839  0.3714 -0.2831  0.7720
 3980SOL    HW223577   2.387   0.547   8.840 -0.6524 -1.0165  0.7085
 3981SOL     OW23578   4.730   1.742  13.111 -0.1749  0.2698 -0.3080
 3981SOL    HW123579   4.721   1.652  13.078  0.7775  0.0247  0.1124
 3981SOL    HW223580   0.087   1.729  13.127 -0.1320  0.8319 -0.1073
 3982SOL     OW23581   2.893   1.318   5.205 -0.6435  0.1157  0.2617
 3982SOL    HW123582   2.937   1.367   5.134 -0.8247  1.3235  0.9813
 3982SOL    HW223583   2.810   1.285   5.171  0.8414 -1.6918 -1.6197
 3983SOL     OW23584   1.530   4.080   1.067  0.3697  0.2131 -0.2787
 3983SOL    HW123585   1.463   4.082   1.135  1.3024 -1.2269  0.6896
 3983SOL    HW223586   1.578   4.156   1.101  2.4137 -0.4164 -1.7419
 3984SOL     OW23587   4.591   3.146   5.080 -0.3860 -0.1825 -0.2121
 3984SOL    HW123588   4.586   3.071   5.022 -0.3925 -1.1606  1.0620
 3984SOL    HW223589   4.528   3.124   5.149  0.0161 -2.2236 -0.4992
 3985SOL     OW23590   2.910   4.432  11.733  0.2015 -0.0212  0.6213
 3985SOL    HW123591   2.903   4.442  11.828  4.2233  1.5165  0.7608
 3985SOL    HW223592   2.848   4.360  11.723  0.2871 -0.0645  0.3979
 3986SOL     OW23593   3.838   3.131   8.234  0.6793 -0.4413  0.5658
 3986SOL    HW123594   3.888   3.136   8.152  1.4316  0.7802  1.0986
 3986SOL    HW223595   3.898   3.101   8.302  2.7723  0.4664 -0.8709
 3987SOL     OW23596   0.561   1.007   4.816  0.7911 -0.4258  0.5916
 3987SOL    HW123597   0.537   1.099   4.823 -1.2807 -1.0322  1.4879
 3987SOL    HW223598   0.628   0.997   4.748  1.4307  0.1820  1.1291
 3988SOL     OW23599   3.997   4.517   7.078  0.2773  0.1478  0.5170
 3988SOL    HW123600   4.012   4.429   7.044  0.3755  0.8039 -1.1053
 3988SOL    HW223601   3.927   4.560   7.030 -1.1616  0.1046  2.5670
 3989SOL     OW23602   1.633   0.773   9.155  0.1113 -0.1191  0.8109
 3989SOL    HW123603   1.581   0.796   9.232 -1.8766  1.7856 -1.0945
 3989SOL    HW223604   1.561   0.747   9.097  1.1751  0.7517 -0.9026
 3990SOL     OW23605   0.418   1.783   6.156  0.3766  0.0154 -0.4822
 3990SOL    HW123606   0.449   1.854   6.100  1.3676 -2.0485 -2.5057
 3990SOL    HW223607   0.394   1.833   6.235 -3.1237 -4.8408  1.6110
 3991SOL     OW23608   4.572   1.093   2.965  0.6263  0.5504 -0.1610
 3991SOL    HW123609   4.648   1.063   3.014  0.4651  0.4575  0.0317
 3991SOL    HW223610   4.533   1.013   2.931  1.4561 -0.7411  1.9513
 3992SOL     OW23611   2.746   3.646   8.112 -0.1091 -0.4638 -0.2026
 3992SOL    HW123612   2.741   3.738   8.087 -2.7368 -0.2830  0.9345
 3992SOL    HW223613   2.820   3.618   8.059  0.3881 -2.1952  1.3978
 3993SOL     OW23614   3.170   0.439  13.640  0.1188 -0.0703  0.1622
 3993SOL    HW123615   3.131   0.473  13.720 -1.1828 -2.0242  0.3483
 3993SOL    HW223616   3.198   0.351  13.666 -2.2003 -0.3651  1.6661
 3994SOL     OW23617   1.144   2.753   2.386  0.2755  0.2597 -0.3987
 3994SOL    HW123618   1.067   2.809   2.376  1.5868  2.6359  2.7743
 3994SOL    HW223619   1.109   2.690   2.449  1.4071 -2.1408 -2.1688
 3995SOL     OW23620   4.692   0.761  12.999 -0.5820  0.7880 -0.2706
 3995SOL    HW123621   4.605   0.799  12.988 -0.4312  1.2074 -0.0021
 3995SOL    HW223622   4.709   0.806  13.081  2.5183 -0.8752 -0.0195
 3996SOL     OW23623   0.703   4.094   3.224  0.0760 -0.0450 -0.1880
 3996SOL    HW123624   0.715   4.095   3.318  1.3370 -0.6109 -0.3552
 3996SOL    HW223625   0.607   4.087   3.220  0.0138  0.1366  1.0062
 3997SOL     OW23626   2.287   2.972   2.869 -0.1684 -0.3294 -0.4398
 3997SOL    HW123627   2.322   2.914   2.801 -0.8977  0.5879 -1.6244
 3997SOL    HW223628   2.271   3.047   2.811  0.1874 -0.3431 -0.5540
 3998SOL     OW23629   3.774   4.174   3.504  0.0733 -0.3159 -0.4714
 3998SOL    HW123630   3.768   4.240   3.573 -0.4760  0.0026 -0.8253
 3998SOL    HW223631   3.813   4.226   3.434 -3.1328  1.3310 -1.0404
 3999SOL     OW23632   2.290   1.095   5.592 -0.0813  0.0322  0.5959
 3999SOL    HW123633   2.247   1.106   5.507  1.6032  0.1338 -0.2448
 3999SOL    HW223634   2.378   1.128   5.571 -0.9939  0.7944 -2.0647
 4000SOL     OW23635   1.004   1.866   2.240  0.0097 -0.1178  0.1722
 4000SOL    HW123636   0.989   1.946   2.290 -0.0858 -0.0972  0.1109
 4000SOL    HW223637   0.913   1.839   2.226 -0.1490  1.1157 -1.1757
 4001SOL     OW23638   1.801   2.582   4.608  0.0494  1.0272  0.1243
 4001SOL    HW123639   1.867   2.651   4.614  1.8268 -0.7957  1.4574
 4001SOL    HW223640   1.725   2.640   4.608 -1.6085 -1.1616  1.7859
 4002SOL     OW23641   2.168   0.287   8.952  0.3315 -0.4951 -0.5199
 4002SOL    HW123642   2.208   0.364   8.912 -0.2094 -0.3595 -0.7939
 4002SOL    HW223643   2.082   0.300   8.912 -0.1545  2.3017  1.3994
 4003SOL     OW23644   0.084   0.152   7.852 -0.5237 -0.5578  0.5596
 4003SOL    HW123645   0.102   0.165   7.759 -0.7988 -0.5131  0.5119
 4003SOL    HW223646   0.055   0.235   7.892 -0.2418 -0.2477  0.1190
 4004SOL     OW23647   3.167   3.048   1.002  0.6376  0.0519 -0.1187
 4004SOL    HW123648   3.258   3.020   0.994  1.4235  2.2989  1.0185
 4004SOL    HW223649   3.132   2.991   1.070 -0.5830  2.6319  1.4161
 4005SOL     OW23650   3.197   2.923  10.313 -0.5608 -0.0609 -0.3130
 4005SOL    HW123651   3.287   2.913  10.343  0.3277  2.3713 -2.1737
 4005SOL    HW223652   3.173   3.011  10.342 -0.8053 -0.2327  0.0028
 4006SOL     OW23653   2.615   2.906   4.886  0.0147 -0.2191 -0.1504
 4006SOL    HW123654   2.520   2.921   4.893  0.3385  1.4235  0.6714
 4006SOL    HW223655   2.650   2.945   4.966 -0.7585  0.4266 -0.1145
 4007SOL     OW23656   3.206   4.609  17.463  0.5883 -0.2161  0.3204
 4007SOL    HW123657   3.120   4.640  17.493  1.5920  2.6109  0.3039
 4007SOL    HW223658   3.257   4.686  17.488 -0.1422  0.7431 -1.1423
 4008SOL     OW23659   2.529   3.866   3.084 -0.4772  0.2052 -0.0325
 4008SOL    HW123660   2.535   3.796   3.020  0.0861  0.3986 -0.1831
 4008SOL    HW223661   2.506   3.825   3.168  0.3645 -1.7013 -0.7566
 4009SOL     OW23662   1.400   3.232   6.456  0.0501 -0.0386  0.0798
 4009SOL    HW123663   1.474   3.181   6.491 -1.9663 -2.7174  0.4603
 4009SOL    HW223664   1.389   3.299   6.524 -1.8894 -0.7937  0.5023
 4010SOL     OW23665   0.430   2.189  15.716 -0.2662 -0.5821  0.2705
 4010SOL    HW123666   0.509   2.190  15.662 -0.7156 -0.6070 -0.3997
 4010SOL    HW223667   0.444   2.263  15.775  1.3356 -1.1957  0.6619
 4011SOL     OW23668   3.456   1.633   7.570  0.2513  0.4394  0.0239
 4011SOL    HW123669   3.513   1.563   7.538 -0.4692 -0.5099  0.8002
 4011SOL    HW223670   3.467   1.694   7.498  1.4618  2.6981  2.1208
 4012SOL     OW23671   4.482   0.599   2.978  0.0527 -0.2190 -0.3020
 4012SOL    HW123672   4.447   0.622   3.064  1.4943  1.7553 -0.2360
 4012SOL    HW223673   4.461   0.676   2.924 -3.0905 -1.8002 -1.3475
 4013SOL     OW23674   0.593   0.631  12.539 -0.1543  0.3114  0.3086
 4013SOL    HW123675   0.630   0.715  12.566 -0.0453  0.5768 -0.6510
 4013SOL    HW223676   0.502   0.661  12.536 -0.2422 -0.0447 -0.6706
 4014SOL     OW23677   1.981   3.642   4.819  0.4727 -0.0542 -0.2795
 4014SOL    HW123678   2.040   3.700   4.866  1.3147 -1.1113 -0.0347
 4014SOL    HW223679   2.018   3.558   4.844  1.4717  1.1391  2.1749
 4015SOL     OW23680   0.830   2.014   4.703  0.4694 -0.0092 -0.0751
 4015SOL    HW123681   0.904   1.958   4.727  1.3441  1.7195  1.2626
 4015SOL    HW223682   0.842   1.996   4.610 -1.9748 -2.1838  0.0202
 4016SOL     OW23683   0.437   0.118   8.069  0.6460  0.2204  0.0257
 4016SOL    HW123684   0.466   0.061   7.998 -0.2190 -3.6114  2.7312
 4016SOL    HW223685   0.428   0.056   8.141  0.1031 -0.3474 -0.5409
 4017SOL     OW23686   2.959   4.289   3.440 -0.2271 -0.2280  0.5422
 4017SOL    HW123687   2.921   4.237   3.369 -0.8425  1.3407 -0.2659
 4017SOL    HW223688   2.996   4.222   3.498 -1.7184 -0.2463  1.4494
 4018SOL     OW23689   0.556   0.407   8.887  0.7722 -0.1440 -0.2312
 4018SOL    HW123690   0.638   0.386   8.844  0.6062 -4.1338  1.3792
 4018SOL    HW223691   0.560   0.503   8.887  1.7333 -0.1845  1.2109
 4019SOL     OW23692   2.196   0.870   2.381  0.0017 -0.3071 -0.1253
 4019SOL    HW123693   2.242   0.915   2.452 -0.8755 -1.2673  1.0535
 4019SOL    HW223694   2.103   0.858   2.401  0.4753 -0.2418  2.1324
 4020SOL     OW23695   0.648   1.854   5.292 -0.1712 -0.2886 -0.2076
 4020SOL    HW123696   0.556   1.880   5.280 -0.0399  0.6795  0.8992
 4020SOL    HW223697   0.645   1.798   5.369 -0.9928 -1.4438 -1.0822
 4021SOL     OW23698   1.382   1.891   0.318  0.6332  0.0983  0.1243
 4021SOL    HW123699   1.291   1.883   0.290  0.8139 -1.8584  0.1251
 4021SOL    HW223700   1.425   1.854   0.241 -2.0168 -1.6726 -0.4928
 4022SOL     OW23701   2.512   3.706   0.993  0.5562  0.3374 -0.4225
 4022SOL    HW123702   2.501   3.771   0.923  0.9088  1.0746  0.2176
 4022SOL    HW223703   2.454   3.740   1.061  1.9762  1.8333  0.0376
 4023SOL     OW23704   4.041   0.936  13.012 -0.1485 -0.4815 -0.2175
 4023SOL    HW123705   4.057   0.953  13.105  2.4176 -1.2378 -0.5327
 4023SOL    HW223706   3.971   0.870  13.009 -0.4568 -0.0342 -3.2870
 4024SOL     OW23707   4.257   1.543   8.204 -0.0362 -0.2814 -0.5300
 4024SOL    HW123708   4.298   1.493   8.134 -0.6151 -0.8381 -0.4741
 4024SOL    HW223709   4.170   1.553   8.166  0.4509  0.5608 -1.4057
 4025SOL     OW23710   0.553   4.370   6.019 -0.3868 -0.4166  0.0389
 4025SOL    HW123711   0.607   4.347   6.095  1.8258  0.6465 -1.1850
 4025SOL    HW223712   0.554   4.296   5.958 -0.9652 -0.0185 -0.4513
 4026SOL     OW23713   2.944   1.635  12.832  0.4348 -0.5337 -0.0254
 4026SOL    HW123714   2.983   1.604  12.914 -2.9632  0.4823  1.9359
 4026SOL    HW223715   3.004   1.707  12.813 -0.2608  0.2412  0.7514
 4027SOL     OW23716   3.822   0.573  10.161 -0.0043 -0.1047  0.4261
 4027SOL    HW123717   3.883   0.561  10.234 -0.0741 -3.5765 -0.0633
 4027SOL    HW223718   3.816   0.667  10.148  0.2406 -0.3829 -1.7649
 4028SOL     OW23719   3.983   4.173   5.724  0.1672  0.2689 -0.1217
 4028SOL    HW123720   3.938   4.091   5.743  0.7587  0.1710  0.8743
 4028SOL    HW223721   4.011   4.196   5.813  1.2637  1.0882 -0.6883
 4029SOL     OW23722   4.242   0.789   0.296  0.4274 -0.4691 -0.0650
 4029SOL    HW123723   4.213   0.826   0.213  1.3147 -0.7894 -0.5129
 4029SOL    HW223724   4.161   0.747   0.325 -0.5909  0.6134 -1.3713
 4030SOL     OW23725   1.499   1.625   6.466  0.0823  0.0319  0.2557
 4030SOL    HW123726   1.470   1.662   6.550  2.8513  1.9492  0.3554
 4030SOL    HW223727   1.418   1.580   6.441  1.1144 -1.3001 -0.5913
 4031SOL     OW23728   0.810   4.235   1.694 -0.0867 -0.0350 -0.1170
 4031SOL    HW123729   0.775   4.314   1.653 -0.8820  1.3398  3.1852
 4031SOL    HW223730   0.777   4.171   1.632  2.8259 -1.6924  0.0729
 4032SOL     OW23731   3.875   0.395  10.723 -0.3032  0.2189  0.0727
 4032SOL    HW123732   3.962   0.355  10.732 -0.6900 -1.1219 -2.1366
 4032SOL    HW223733   3.859   0.414  10.816  0.4640 -1.5045  0.5554
 4033SOL     OW23734   0.561   0.715  16.570  0.1710 -0.2175 -0.0811
 4033SOL    HW123735   0.596   0.683  16.653  1.8209  0.7626 -0.3957
 4033SOL    HW223736   0.473   0.738  16.599  0.7420  0.9524  0.7068
 4034SOL     OW23737   1.112   0.610   2.731 -0.4053  0.2988 -0.2832
 4034SOL    HW123738   1.104   0.556   2.810 -1.6473  0.4854 -0.2834
 4034SOL    HW223739   1.206   0.621   2.747 -0.0659 -3.0053 -0.0554
 4035SOL     OW23740   4.349   1.788   7.279 -0.0471  0.0691 -0.6248
 4035SOL    HW123741   4.399   1.747   7.350 -1.0445 -0.4039 -0.1949
 4035SOL    HW223742   4.331   1.870   7.326  0.3947 -0.1464 -0.0732
 4036SOL     OW23743   2.789   3.937   5.312  0.4346  0.6115  0.0696
 4036SOL    HW123744   2.786   3.856   5.262  2.5641  1.3226 -1.1775
 4036SOL    HW223745   2.782   3.894   5.398  0.7836  1.4807  0.5274
 4037SOL     OW23746   4.601   4.435  15.932 -0.0716  0.8338  0.0936
 4037SOL    HW123747   4.659   4.495  15.978  2.3752 -3.1685  2.2386
 4037SOL    HW223748   4.527   4.435  15.993  1.4778 -0.9807  1.9562
 4038SOL     OW23749   3.052   1.632  13.089 -0.1805 -0.2146  0.4812
 4038SOL    HW123750   3.093   1.616  13.174 -0.1608 -2.0310  0.1209
 4038SOL    HW223751   2.973   1.677  13.119 -0.5293 -0.2392 -0.4226
 4039SOL     OW23752   2.017   0.169   4.680  0.1344  0.4911 -0.0507
 4039SOL    HW123753   1.986   0.252   4.716 -1.5246  0.3053 -1.0244
 4039SOL    HW223754   2.111   0.180   4.666  0.5961 -0.7638  2.0968
 4040SOL     OW23755   3.504   1.002  17.258 -0.5535  0.2425  0.0733
 4040SOL    HW123756   3.517   0.907  17.246 -0.5166 -0.0188  2.2046
 4040SOL    HW223757   3.585   1.022  17.305 -0.0354  0.5937 -0.9682
 4041SOL     OW23758   0.361   1.273   2.905 -0.6443  0.9451 -0.1470
 4041SOL    HW123759   0.298   1.262   2.833 -2.3579 -0.4740  1.5632
 4041SOL    HW223760   0.442   1.303   2.864 -0.0726 -0.4479 -0.0355
 4042SOL     OW23761   2.560   2.473   8.710  0.2115  0.7250  0.5106
 4042SOL    HW123762   2.479   2.474   8.762 -1.5721 -2.8841 -2.1380
 4042SOL    HW223763   2.533   2.407   8.645  1.1120  1.1760 -0.3239
 4043SOL     OW23764   2.005   1.862   6.037  0.0439 -0.2181  0.0393
 4043SOL    HW123765   2.006   1.945   5.989  2.0828 -0.1005  0.2819
 4043SOL    HW223766   2.066   1.875   6.109  0.1404  1.0464 -0.2680
 4044SOL     OW23767   1.716   0.424   8.856  0.0450 -0.1892  0.1191
 4044SOL    HW123768   1.661   0.397   8.930 -0.5420 -0.4572 -0.4139
 4044SOL    HW223769   1.742   0.503   8.902  0.3759 -0.5815  0.6089
 4045SOL     OW23770   2.511   3.676   1.703 -0.0843  0.4980 -0.4399
 4045SOL    HW123771   2.520   3.621   1.782 -0.3145  0.6744 -0.2891
 4045SOL    HW223772   2.470   3.614   1.643 -0.2845 -0.8303  1.0482
 4046SOL     OW23773   1.302   4.406   3.268  0.1602  0.8978  0.0959
 4046SOL    HW123774   1.274   4.471   3.332  0.0122 -0.8479  1.8074
 4046SOL    HW223775   1.374   4.459   3.233  0.3864 -1.1380 -2.4741
 4047SOL     OW23776   2.590   4.647  13.841  0.6434  0.1426  0.3028
 4047SOL    HW123777   2.545   4.659  13.758  0.2925  1.4754  0.6935
 4047SOL    HW223778   2.609   4.553  13.834  0.5530  0.1160  0.4191
 4048SOL     OW23779   2.857   1.243  17.536 -0.1390 -0.7254  0.4142
 4048SOL    HW123780   2.899   1.249  17.622  1.3566 -0.8174 -0.3179
 4048SOL    HW223781   2.787   1.309  17.546  0.9996  0.2621  1.9423
 4049SOL     OW23782   4.678   1.338   1.231 -0.0153 -0.3184  0.5532
 4049SOL    HW123783   4.645   1.406   1.173  0.2189 -1.4131 -0.8830
 4049SOL    HW223784   0.006   1.394   1.273 -0.8938  0.4271  0.8819
 4050SOL     OW23785   1.442   3.873   8.155 -0.0447 -0.0167 -0.3650
 4050SOL    HW123786   1.378   3.895   8.223  1.5584  0.6053  0.9633
 4050SOL    HW223787   1.458   3.957   8.112  3.1152  0.4324  1.6987
 4051SOL     OW23788   4.120   2.346   7.823  0.0053  0.1340 -0.6619
 4051SOL    HW123789   4.123   2.252   7.840  1.2503 -0.0936 -2.0974
 4051SOL    HW223790   4.048   2.349   7.761 -0.5181 -0.0149 -0.0567
 4052SOL     OW23791   2.326   1.906  13.826  0.3840  0.4655  0.2392
 4052SOL    HW123792   2.413   1.894  13.788  0.9787 -1.1410  2.0891
 4052SOL    HW223793   2.341   1.962  13.903 -0.6571 -1.6756  2.0205
 4053SOL     OW23794   3.951   0.358   0.411  0.2307 -0.2321 -0.1665
 4053SOL    HW123795   3.900   0.294   0.360 -0.0268 -1.5848  1.7676
 4053SOL    HW223796   3.906   0.440   0.392 -1.5015 -0.7666  1.5492
 4054SOL     OW23797   4.368   0.383   5.189  0.2165 -1.0034  0.0984
 4054SOL    HW123798   4.441   0.443   5.203 -0.1504 -1.0095  2.1128
 4054SOL    HW223799   4.416   0.317   5.141  0.0597 -0.3024 -1.0176
 4055SOL     OW23800   4.004   0.986  17.485  0.0140 -0.5375  0.2201
 4055SOL    HW123801   3.942   0.961  17.554  1.6208  2.4564  2.7765
 4055SOL    HW223802   4.083   0.931  17.487 -0.2093 -0.7968  2.9059
 4056SOL     OW23803   1.428   3.347  13.672 -0.0841 -0.4129  0.3869
 4056SOL    HW123804   1.474   3.316  13.594  1.1590 -0.4431  1.1276
 4056SOL    HW223805   1.454   3.437  13.692  1.2643 -0.6825 -0.1751
 4057SOL     OW23806   1.278   4.341   2.964  0.1548 -0.3638 -0.3139
 4057SOL    HW123807   1.210   4.278   2.942 -1.1980  1.6146 -1.8591
 4057SOL    HW223808   1.322   4.300   3.038 -1.0356  0.7321  1.0130
 4058SOL     OW23809   4.338   4.094   3.868  0.1953  0.7489  0.2187
 4058SOL    HW123810   4.331   4.086   3.773 -0.5954 -0.1024  0.3412
 4058SOL    HW223811   4.410   4.032   3.875  0.5818  1.2889  1.0146
 4059SOL     OW23812   0.660   0.383   4.390  0.2959 -0.2167  0.0369
 4059SOL    HW123813   0.569   0.395   4.364  0.2507 -0.3699  0.1214
 4059SOL    HW223814   0.664   0.453   4.455  1.5764  0.9984 -1.3572
 4060SOL     OW23815   3.969   4.458   4.300 -0.0337  0.1485 -0.3367
 4060SOL    HW123816   3.882   4.425   4.320  0.4425 -1.0373 -0.2334
 4060SOL    HW223817   3.969   4.552   4.321  0.1370  0.1612 -0.3936
 4061SOL     OW23818   0.980   2.664  12.032  0.0713  0.3666  0.1136
 4061SOL    HW123819   1.001   2.603  11.961 -1.4431 -1.5645  1.3173
 4061SOL    HW223820   0.946   2.731  11.973 -0.7626 -1.0833 -1.0753
 4062SOL     OW23821   3.468   2.768   1.924 -0.0679  0.2297  0.0931
 4062SOL    HW123822   3.537   2.706   1.902  0.2613  0.5590  0.2069
 4062SOL    HW223823   3.406   2.754   1.852  1.1184 -0.1517 -0.8462
 4063SOL     OW23824   4.639   0.614   2.012 -0.2984 -0.7085 -0.6820
 4063SOL    HW123825   4.707   0.666   2.054 -0.7449  0.2879 -1.2134
 4063SOL    HW223826   4.574   0.679   1.985 -0.6171 -0.6641  0.2147
 4064SOL     OW23827   4.534   0.377   2.184  0.3722 -0.0647 -0.0498
 4064SOL    HW123828   4.552   0.435   2.109  0.4287  1.4695  1.1574
 4064SOL    HW223829   4.614   0.395   2.235  0.3223  1.9609 -0.6602
 4065SOL     OW23830   3.910   0.036   6.537  0.4570 -0.3767  0.3932
 4065SOL    HW123831   3.818   0.019   6.558 -0.0834 -0.1978 -1.7584
 4065SOL    HW223832   3.919   4.722   6.455 -0.6947 -1.1325  0.7294
 4066SOL     OW23833   1.238   3.804   0.893 -0.1229 -0.6685  0.7243
 4066SOL    HW123834   1.306   3.863   0.862 -1.3061 -0.5695 -1.7304
 4066SOL    HW223835   1.160   3.839   0.850  1.1305  0.9185 -0.2501
 4067SOL     OW23836   0.404   2.538   4.199  0.5933  0.9291 -0.0214
 4067SOL    HW123837   0.442   2.611   4.150 -0.2185  2.1007  1.0656
 4067SOL    HW223838   0.313   2.567   4.193 -0.7391 -3.0205  1.0289
 4068SOL     OW23839   3.026   0.137   3.133 -0.3029 -0.5230  0.1696
 4068SOL    HW123840   3.017   0.163   3.041  0.5424  2.5598  0.9578
 4068SOL    HW223841   3.066   0.050   3.129  0.6606 -0.1458  1.5891
 4069SOL     OW23842   0.720   2.866   2.143 -0.6350  0.2645 -0.2181
 4069SOL    HW123843   0.693   2.806   2.213 -1.4282  0.0346 -0.7225
 4069SOL    HW223844   0.801   2.905   2.175 -1.3011  0.8416  0.7665
 4070SOL     OW23845   4.439   0.087   6.173 -0.5371 -0.3407  0.2171
 4070SOL    HW123846   4.450   0.180   6.194 -0.3219 -0.2900 -0.1034
 4070SOL    HW223847   4.462   0.084   6.080 -0.7470  0.6196  0.1313
 4071SOL     OW23848   1.219   4.719   9.820 -0.0101  0.3147  0.0528
 4071SOL    HW123849   1.228   4.665   9.899  0.4971 -0.3244 -0.4352
 4071SOL    HW223850   1.307   0.021   9.818  0.5836 -1.0828 -1.6236
 4072SOL     OW23851   4.290   2.879   7.876  0.1793  0.1077  0.0217
 4072SOL    HW123852   4.341   2.804   7.907  0.6413  0.1176 -0.7204
 4072SOL    HW223853   4.242   2.900   7.956 -2.5525  3.2641 -2.4036
 4073SOL     OW23854   4.619   4.578  17.247  0.7536  0.3527 -0.0615
 4073SOL    HW123855   4.714   4.586  17.254  0.7285 -0.1552  0.8366
 4073SOL    HW223856   4.601   4.649  17.186 -0.5069  1.0722  1.1370
 4074SOL     OW23857   1.757   0.438   7.393 -0.5734 -0.1126 -0.0913
 4074SOL    HW123858   1.682   0.378   7.386  1.2004 -2.1426 -1.8021
 4074SOL    HW223859   1.818   0.391   7.337 -1.6983 -0.8900 -0.6677
 4075SOL     OW23860   3.970   1.751  12.145  0.2186 -0.1329  0.1119
 4075SOL    HW123861   4.062   1.760  12.121  0.0737  2.0838  0.4019
 4075SOL    HW223862   3.977   1.791  12.232 -0.6215 -3.4873  1.7320
 4076SOL     OW23863   4.414   1.741   4.483 -0.5432 -0.2052  0.4327
 4076SOL    HW123864   4.423   1.718   4.391  1.3205  0.9647  0.3340
 4076SOL    HW223865   4.506   1.743   4.510 -0.3684  1.8795 -0.3742
 4077SOL     OW23866   2.408   4.053   4.931  1.3491 -0.1899 -0.2790
 4077SOL    HW123867   2.486   4.002   4.954  1.7029 -0.9092 -3.0880
 4077SOL    HW223868   2.444   4.085   4.848  0.4688  2.0426  0.2172
 4078SOL     OW23869   0.302   2.052   9.919  0.3394  0.3576 -0.0543
 4078SOL    HW123870   0.313   2.147   9.927  1.8777  0.2557 -0.7996
 4078SOL    HW223871   0.317   2.024  10.009 -1.0064 -1.4789 -0.3924
 4079SOL     OW23872   2.912   0.710  14.402 -0.1217  0.0587  0.2122
 4079SOL    HW123873   2.938   0.655  14.328 -1.9846 -1.0399  0.3702
 4079SOL    HW223874   2.820   0.729  14.383  0.3759  1.8256 -0.3916
 4080SOL     OW23875   4.304   0.155   2.914  0.3646 -0.4248 -0.5749
 4080SOL    HW123876   4.254   0.225   2.956  1.8858  0.7964 -0.8086
 4080SOL    HW223877   4.334   0.205   2.838  1.5536  0.1293  0.2561
 4081SOL     OW23878   1.101   3.375  17.178  0.3424 -0.3304 -0.3148
 4081SOL    HW123879   1.160   3.412  17.244  0.1254  0.6631 -0.6770
 4081SOL    HW223880   1.093   3.286  17.212  1.8302  0.0197  0.9851
 4082SOL     OW23881   0.789   4.151  11.964 -0.5014  0.0133  0.1843
 4082SOL    HW123882   0.793   4.227  11.906  0.6211 -0.0291  0.1881
 4082SOL    HW223883   0.852   4.179  12.031 -1.4176 -0.7186  1.3247
 4083SOL     OW23884   3.976   2.598   4.903  0.5204 -0.5827 -0.0928
 4083SOL    HW123885   3.998   2.679   4.857  0.4492  1.1643  2.9930
 4083SOL    HW223886   4.054   2.548   4.879  0.9869  1.1948 -2.2694
 4084SOL     OW23887   2.015   0.312   7.334 -0.1369 -0.4353  0.9188
 4084SOL    HW123888   1.996   0.282   7.245 -0.1537  4.4872 -0.7488
 4084SOL    HW223889   2.063   0.235   7.365 -2.0974 -2.8586 -2.0600
 4085SOL     OW23890   4.164   1.703  11.590  0.1359 -0.3151  0.2667
 4085SOL    HW123891   4.070   1.722  11.590 -0.6495 -4.3309  4.0797
 4085SOL    HW223892   4.200   1.787  11.562 -3.0542  0.5681 -1.1511
 4086SOL     OW23893   3.753   2.421   8.686 -0.7218  0.4043  0.2512
 4086SOL    HW123894   3.749   2.509   8.649 -1.7130  0.5548  0.7038
 4086SOL    HW223895   3.759   2.437   8.780  0.9746  1.6236 -0.0767
 4087SOL     OW23896   2.474   2.399   2.501 -0.8546 -0.0664 -0.6273
 4087SOL    HW123897   2.546   2.369   2.557 -2.0668 -0.1614  0.8781
 4087SOL    HW223898   2.402   2.354   2.545 -0.8756  2.0388  1.5388
 4088SOL     OW23899   3.911   1.785  15.074 -0.0637 -0.6600  0.6337
 4088SOL    HW123900   3.981   1.727  15.045  0.6511  0.5500 -0.0873
 4088SOL    HW223901   3.847   1.786  15.003 -0.9573 -0.3082  1.4484
 4089SOL     OW23902   2.716   2.102  15.686  0.6950 -0.3299 -0.1591
 4089SOL    HW123903   2.678   2.162  15.622  1.5586  2.0846  1.6224
 4089SOL    HW223904   2.744   2.162  15.755  0.7299  0.8580 -1.2180
 4090SOL     OW23905   2.283   2.492   4.182 -0.1329 -0.8767  0.7464
 4090SOL    HW123906   2.212   2.533   4.232  0.3786  1.0852 -0.1388
 4090SOL    HW223907   2.359   2.529   4.227  0.3624 -0.7719 -0.2011
 4091SOL     OW23908   3.214   3.092   2.217 -0.5038  0.3511  0.0732
 4091SOL    HW123909   3.304   3.112   2.191 -0.4693  0.3086  0.1598
 4091SOL    HW223910   3.175   3.154   2.157 -0.4839 -0.5146 -0.8385
 4092SOL     OW23911   2.147   2.192   6.645  0.1060 -0.0821 -0.3672
 4092SOL    HW123912   2.142   2.122   6.580 -1.0989  0.8260 -1.2651
 4092SOL    HW223913   2.064   2.166   6.686 -0.2475  1.8327  0.1101
 4093SOL     OW23914   2.869   0.045   6.039  0.8046  0.1597 -0.3381
 4093SOL    HW123915   2.951   0.004   6.067  1.7232  2.1026 -0.1458
 4093SOL    HW223916   2.892   0.050   5.946 -0.6403  2.1600 -0.5901
 4094SOL     OW23917   0.353   3.450   6.728  0.3564  0.5085  0.0831
 4094SOL    HW123918   0.403   3.506   6.669  2.9576 -1.8102  0.1116
 4094SOL    HW223919   0.270   3.498   6.732  0.7671  1.4281 -2.2254
 4095SOL     OW23920   2.390   4.490   7.707  0.1167 -0.0070  0.7883
 4095SOL    HW123921   2.424   4.485   7.796 -0.9761  1.4679  1.3037
 4095SOL    HW223922   2.443   4.431   7.654  1.1502  2.5987 -1.0992
 4096SOL     OW23923   1.783   2.590   9.541 -0.4357 -0.2307 -0.0288
 4096SOL    HW123924   1.797   2.541   9.461  0.0253 -1.4194  0.7832
 4096SOL    HW223925   1.723   2.537   9.594 -0.4859 -0.3181 -0.1747
 4097SOL     OW23926   1.899   3.757   7.366  0.0488  0.6062 -0.7322
 4097SOL    HW123927   1.890   3.686   7.429 -0.8708  1.1913 -0.2151
 4097SOL    HW223928   1.892   3.700   7.289 -0.2311  0.8300 -0.8718
 4098SOL     OW23929   4.093   1.210  17.078 -0.3084 -0.0694  0.0433
 4098SOL    HW123930   4.162   1.192  17.014 -0.8775 -0.3886 -0.4881
 4098SOL    HW223931   4.122   1.170  17.160 -1.8887 -0.6165  0.3316
 4099SOL     OW23932   0.445   2.756   7.327 -0.2566  0.1796 -0.4030
 4099SOL    HW123933   0.455   2.758   7.422 -0.9968 -1.2905 -0.2923
 4099SOL    HW223934   0.377   2.690   7.310  0.8434 -1.2653  0.7585
 4100SOL     OW23935   2.419   0.764   6.476  0.3987 -0.0394  0.0507
 4100SOL    HW123936   2.398   0.821   6.402  3.1423  0.7310 -0.1276
 4100SOL    HW223937   2.504   0.800   6.502 -0.1355 -0.9043  2.9663
 4101SOL     OW23938   0.112   0.507   9.353  0.1415  0.0844 -0.1195
 4101SOL    HW123939   0.202   0.505   9.322  0.2120  2.2798 -0.0615
 4101SOL    HW223940   0.124   0.501   9.448  0.1916 -0.4589 -0.1620
 4102SOL     OW23941   0.951   1.790  16.601 -0.1185  0.4761  0.0620
 4102SOL    HW123942   0.856   1.785  16.607 -0.1096 -0.9377 -1.1534
 4102SOL    HW223943   0.966   1.829  16.515  0.0267 -1.1351 -0.6271
 4103SOL     OW23944   4.703   2.753   7.813 -0.0358  0.0037  0.4594
 4103SOL    HW123945   4.615   2.715   7.814 -0.9516  2.0813 -1.2708
 4103SOL    HW223946   4.689   2.846   7.830 -0.2556 -0.0887  0.8006
 4104SOL     OW23947   2.025   0.116  13.029 -0.3823 -0.0270  1.2458
 4104SOL    HW123948   2.044   0.196  13.077 -1.2106  0.3727  0.8939
 4104SOL    HW223949   2.032   0.049  13.097  2.7405  0.1156  1.0536
 4105SOL     OW23950   3.124   1.778  11.266 -0.8308  0.2323  0.0363
 4105SOL    HW123951   3.091   1.689  11.271 -3.0502  1.1356  1.7700
 4105SOL    HW223952   3.211   1.772  11.227 -0.3360  0.8176  1.0491
 4106SOL     OW23953   3.841   1.376  12.387  0.3411  0.5676 -0.0140
 4106SOL    HW123954   3.878   1.440  12.448 -1.4275  0.6173  0.9935
 4106SOL    HW223955   3.850   1.432  12.310  0.1614  1.7909  0.8477
 4107SOL     OW23956   1.112   2.262   7.106  0.0393  0.0405  0.9853
 4107SOL    HW123957   1.097   2.296   7.195 -0.1219  1.5363  0.3812
 4107SOL    HW223958   1.196   2.223   7.130  1.0826  0.5993 -1.8967
 4108SOL     OW23959   4.629   4.443  12.538  0.0692  0.2456 -0.1476
 4108SOL    HW123960   4.722   4.424  12.548 -0.0838 -2.2167 -3.1333
 4108SOL    HW223961   4.632   4.534  12.510 -1.3362  0.6337  0.9470
 4109SOL     OW23962   3.581   1.751   3.898 -0.3823  0.6347  0.1061
 4109SOL    HW123963   3.569   1.741   3.992 -2.9531  0.5412 -0.2341
 4109SOL    HW223964   3.525   1.676   3.879  0.8487 -0.2113 -0.1896
 4110SOL     OW23965   4.607   1.315   7.909  0.5415 -0.8006 -0.0639
 4110SOL    HW123966   4.661   1.253   7.958  2.0636  1.3229  0.9669
 4110SOL    HW223967   4.607   1.269   7.826 -1.6334 -1.8144  0.4864
 4111SOL     OW23968   4.012   1.563  14.948  0.2153  0.2187 -0.1717
 4111SOL    HW123969   4.044   1.627  14.884 -0.6280 -3.0544 -3.8688
 4111SOL    HW223970   4.081   1.499  14.931 -1.7084 -2.2724  1.4385
 4112SOL     OW23971   0.211   3.949  13.503  0.5781  0.4148  0.3183
 4112SOL    HW123972   0.306   3.936  13.498  0.5074 -0.4898  1.4601
 4112SOL    HW223973   0.205   4.041  13.476  0.7813  0.3921  0.1888
 4113SOL     OW23974   0.202   1.852   0.506  0.5673  0.2545  0.1591
 4113SOL    HW123975   0.127   1.833   0.562  0.1134 -2.8389 -1.5098
 4113SOL    HW223976   0.158   1.889   0.429 -0.8513 -0.8087  0.4582
 4114SOL     OW23977   1.236   1.430   9.347  0.0248 -0.7565  0.1466
 4114SOL    HW123978   1.328   1.430   9.321  0.0134  0.8974  0.1483
 4114SOL    HW223979   1.240   1.515   9.390  0.5280 -0.7584  0.1091
 4115SOL     OW23980   3.907   3.541   6.655 -0.2483 -0.5198  0.0294
 4115SOL    HW123981   3.848   3.466   6.648 -0.7981 -0.0002 -1.0233
 4115SOL    HW223982   3.928   3.556   6.562 -0.0945  0.4998  0.2298
 4116SOL     OW23983   0.467   1.842   7.275 -0.2086 -0.9112 -0.1273
 4116SOL    HW123984   0.541   1.903   7.273 -0.0173 -1.1391  0.0068
 4116SOL    HW223985   0.506   1.768   7.229 -1.0201 -0.5755 -1.3518
 4117SOL     OW23986   3.519   0.162   4.058 -0.7330  0.0753  0.3092
 4117SOL    HW123987   3.570   0.237   4.029 -0.4879 -1.2211 -2.6126
 4117SOL    HW223988   3.570   0.113   4.123 -1.2410  0.7594  1.2131
 4118SOL     OW23989   3.439   3.495   8.260 -0.2896 -0.2501 -0.8329
 4118SOL    HW123990   3.534   3.500   8.275 -0.6934 -2.1800  2.4806
 4118SOL    HW223991   3.419   3.412   8.302 -1.2891  1.4232  2.0229
 4119SOL     OW23992   0.448   2.628  17.334 -0.7026 -0.6823 -0.5445
 4119SOL    HW123993   0.426   2.658  17.422 -1.3576  0.8318 -1.2285
 4119SOL    HW223994   0.530   2.583  17.355 -0.2756 -0.2343 -1.2457
 4120SOL     OW23995   0.504   1.043   8.667  0.3902  0.3366 -0.7995
 4120SOL    HW123996   0.534   1.132   8.648 -1.2917  0.9028 -0.8424
 4120SOL    HW223997   0.576   1.010   8.720  1.2210  2.5201 -0.5527
 4121SOL     OW23998   4.465   3.472   8.605  0.1009  0.8209 -0.3105
 4121SOL    HW123999   4.404   3.433   8.542  1.3061  1.1263 -1.6812
 4121SOL    HW224000   4.464   3.561   8.569  1.5025  0.5968 -0.8992
 4122SOL     OW24001   4.497   2.796   7.045  0.4470  0.1955  0.0846
 4122SOL    HW124002   4.579   2.789   6.996  0.4399  2.4856 -0.2629
 4122SOL    HW224003   4.470   2.708   7.070 -0.6914  0.6436  0.4072
 4123SOL     OW24004   2.455   3.581  14.308 -0.2377 -0.0291  0.0690
 4123SOL    HW124005   2.392   3.515  14.338 -0.3337 -0.1927 -0.4879
 4123SOL    HW224006   2.405   3.660  14.325  1.9062  1.3186  0.1324
 4124SOL     OW24007   2.634   4.233  16.965 -0.3557 -0.6077 -0.5913
 4124SOL    HW124008   2.688   4.155  16.975  0.0931  0.1137  2.4710
 4124SOL    HW224009   2.707   4.293  16.947 -0.8983  0.4061  0.5426
 4125SOL     OW24010   0.033   1.668   2.808  0.1299  0.1806  0.1752
 4125SOL    HW124011   4.727   1.616   2.877  0.3773 -0.5986 -0.2545
 4125SOL    HW224012   4.697   1.700   2.753  1.3316  1.8259 -0.4114
 4126SOL     OW24013   0.137   2.473   8.338  0.3092  0.2950  0.1808
 4126SOL    HW124014   0.079   2.511   8.404 -1.8486  0.2124 -1.6622
 4126SOL    HW224015   0.184   2.555   8.322  2.0078 -0.6857  0.1186
 4127SOL     OW24016   2.636   2.151   3.257  0.5974  0.2312  0.3029
 4127SOL    HW124017   2.541   2.138   3.253  0.6957  0.0297 -1.2703
 4127SOL    HW224018   2.655   2.119   3.345  0.3948  1.8729  0.9395
 4128SOL     OW24019   3.057   4.256   2.961  0.3760  0.2028 -0.4400
 4128SOL    HW124020   2.970   4.239   2.996 -0.1788  2.1390 -0.8806
 4128SOL    HW224021   3.044   4.238   2.868 -0.1683 -2.3326  0.1377
 4129SOL     OW24022   0.859   0.772   2.645  0.0314 -0.3849 -0.0520
 4129SOL    HW124023   0.937   0.739   2.688 -0.3865 -1.4040 -0.0665
 4129SOL    HW224024   0.814   0.822   2.713  3.1646  0.0286  1.6938
 4130SOL     OW24025   1.885   4.237   4.142 -0.2633  0.0940  0.2665
 4130SOL    HW124026   1.896   4.296   4.067 -1.3655 -0.5817 -0.4380
 4130SOL    HW224027   1.941   4.162   4.121 -1.8542 -1.1288  0.3559
 4131SOL     OW24028   1.221   3.252   7.646 -0.6070  0.0859 -0.1157
 4131SOL    HW124029   1.160   3.195   7.601  0.2673 -0.9066 -0.0433
 4131SOL    HW224030   1.246   3.191   7.715 -3.0723  0.5027  1.1643
 4132SOL     OW24031   2.123   1.227   5.778  0.0042  0.0632  0.5804
 4132SOL    HW124032   2.151   1.305   5.824 -0.7944  0.8679 -0.2864
 4132SOL    HW224033   2.208   1.208   5.739 -0.6465 -0.9503 -0.3741
 4133SOL     OW24034   2.845   2.152   8.317  0.0304 -0.0774 -0.1522
 4133SOL    HW124035   2.829   2.093   8.243  1.0467 -3.1551  2.0653
 4133SOL    HW224036   2.919   2.109   8.360  1.2151  1.9639 -0.1602
 4134SOL     OW24037   3.822   1.037  13.262 -0.1530  0.5253 -0.3671
 4134SOL    HW124038   3.912   1.042  13.296  0.2476  1.7683 -1.6169
 4134SOL    HW224039   3.772   1.027  13.343 -0.0473 -0.0420 -0.3667
 4135SOL     OW24040   3.962   3.244  10.031  0.3231 -0.2097 -0.3464
 4135SOL    HW124041   4.009   3.228   9.949 -1.1180  1.3462 -1.4746
 4135SOL    HW224042   3.869   3.238  10.008  0.4383 -1.1187 -0.5760
 4136SOL     OW24043   0.038   0.249   9.598 -0.4648 -0.3312  0.3581
 4136SOL    HW124044   4.718   0.305   9.651 -3.2201 -1.9671 -0.8721
 4136SOL    HW224045   0.017   0.158   9.617  0.3280 -1.0989 -2.3359
 4137SOL     OW24046   2.018   1.739   7.947  0.6513  0.1773 -0.3794
 4137SOL    HW124047   1.937   1.699   7.915  2.2476 -3.3431  0.0024
 4137SOL    HW224048   1.986   1.781   8.027  3.3436 -1.5722  1.6011
 4138SOL     OW24049   2.992   2.465   4.985 -0.2313 -0.2848  0.4466
 4138SOL    HW124050   2.932   2.394   4.962  1.5903 -1.2948 -1.2209
 4138SOL    HW224051   2.953   2.540   4.939  1.4523 -0.3317 -1.0574
 4139SOL     OW24052   0.189   3.867   5.441 -0.2640  0.3660  0.3958
 4139SOL    HW124053   0.144   3.791   5.404 -1.6186  0.9467  0.8167
 4139SOL    HW224054   0.280   3.846   5.420 -0.2367 -1.3819  2.2291
 4140SOL     OW24055   2.706   3.578   2.587  0.0873 -0.0210  0.2878
 4140SOL    HW124056   2.800   3.570   2.604  0.3242  1.0411 -0.5306
 4140SOL    HW224057   2.679   3.492   2.617 -0.8046  1.1089  2.6722
 4141SOL     OW24058   3.269   2.389   4.192 -0.0377 -0.3525  0.1986
 4141SOL    HW124059   3.206   2.450   4.155 -0.7265 -0.8625  0.5335
 4141SOL    HW224060   3.245   2.387   4.284 -1.7120  0.0281 -0.2320
 4142SOL     OW24061   0.812   1.502   6.706 -0.8349 -0.3853 -0.8676
 4142SOL    HW124062   0.815   1.429   6.767 -0.3406  0.7066  0.4114
 4142SOL    HW224063   0.795   1.450   6.628  0.1479 -2.7618  0.4919
 4143SOL     OW24064   4.371   2.242   4.696 -0.0021  0.0732 -0.2993
 4143SOL    HW124065   4.402   2.182   4.629 -0.0687 -0.8498  0.4927
 4143SOL    HW224066   4.301   2.200   4.747  0.7443 -1.0284 -0.1870
 4144SOL     OW24067   3.485   4.527  16.479 -0.2202 -0.3043  0.1091
 4144SOL    HW124068   3.403   4.545  16.526 -1.1924 -1.3808 -1.1656
 4144SOL    HW224069   3.456   4.521  16.388 -0.1176  1.7019 -0.0381
 4145SOL     OW24070   3.335   0.825   2.181 -0.0582 -0.5111  0.5982
 4145SOL    HW124071   3.258   0.858   2.135 -0.0594 -0.0949  0.9088
 4145SOL    HW224072   3.401   0.846   2.115 -0.6086 -1.0754 -0.1394
 4146SOL     OW24073   1.650   1.474  13.536  0.2261  0.0812  0.2263
 4146SOL    HW124074   1.656   1.515  13.622 -2.5504  1.0949 -0.0565
 4146SOL    HW224075   1.694   1.391  13.556  1.3060  0.4526 -0.6084
 4147SOL     OW24076   4.420   3.342   4.077  0.4438 -0.1201 -0.2482
 4147SOL    HW124077   4.387   3.317   3.991  2.1250 -3.4283  0.0530
 4147SOL    HW224078   4.381   3.266   4.120 -1.5421  0.9587 -0.1582
 4148SOL     OW24079   2.586   3.357   0.629 -0.5569 -0.3431  0.0494
 4148SOL    HW124080   2.622   3.345   0.541 -2.1482  2.3854 -0.9713
 4148SOL    HW224081   2.516   3.422   0.624  1.7299  2.0309 -0.8182
 4149SOL     OW24082   3.033   1.560   0.767 -0.0123  0.5613 -0.1385
 4149SOL    HW124083   2.968   1.490   0.776  0.6480 -0.1775 -1.0116
 4149SOL    HW224084   3.082   1.550   0.849 -1.2478  0.7715  0.6336
 4150SOL     OW24085   0.533   2.447   5.423 -0.1906 -0.1536  0.7484
 4150SOL    HW124086   0.521   2.360   5.384  3.7505  0.1724 -1.2256
 4150SOL    HW224087   0.617   2.476   5.385 -0.6223 -2.4824 -2.0171
 4151SOL     OW24088   0.676   2.541  11.252  0.6541 -0.1493 -0.8589
 4151SOL    HW124089   0.587   2.510  11.235  0.2246  0.6743 -0.0680
 4151SOL    HW224090   0.720   2.457  11.241  0.2724 -0.3371 -0.9556
 4152SOL     OW24091   1.161   0.951  16.403 -0.3826  0.8906  0.4282
 4152SOL    HW124092   1.090   0.887  16.404 -2.2852  2.9896 -1.1836
 4152SOL    HW224093   1.193   0.955  16.313 -0.9879  1.3571  0.2303
 4153SOL     OW24094   4.718   4.071   4.783 -0.4136  0.2183 -0.1037
 4153SOL    HW124095   0.077   4.069   4.790 -0.4090 -0.4297 -0.3347
 4153SOL    HW224096   4.693   4.008   4.716 -2.5744  0.2795  0.6379
 4154SOL     OW24097   0.972   3.912   8.350  0.2345  0.0441  0.4979
 4154SOL    HW124098   0.926   3.988   8.317  0.6165 -0.8599 -2.1383
 4154SOL    HW224099   1.035   3.903   8.278  0.8319  0.6584  0.9564
 4155SOL     OW24100   2.046   2.606   7.474 -0.2106  0.2595 -0.0383
 4155SOL    HW124101   2.128   2.645   7.503  0.8378 -0.3960 -2.1430
 4155SOL    HW224102   1.982   2.635   7.539  0.8499 -1.6795  1.8767
 4156SOL     OW24103   1.236   2.930   3.455  0.0010  0.0979 -0.1959
 4156SOL    HW124104   1.305   2.934   3.520  0.2103 -0.3102 -0.3924
 4156SOL    HW224105   1.253   2.843   3.418  1.2527 -0.3483  1.4295
 4157SOL     OW24106   1.215   2.321   8.981  0.0117 -0.0386  0.4410
 4157SOL    HW124107   1.128   2.294   9.011  0.4595 -0.2785  1.5253
 4157SOL    HW224108   1.270   2.248   9.008 -0.0018  0.0863  0.8042
 4158SOL     OW24109   3.034   1.545  14.361  0.3783  0.2632  0.4178
 4158SOL    HW124110   3.043   1.515  14.452 -1.0152 -2.5137 -0.3822
 4158SOL    HW224111   2.970   1.481  14.331  0.3856 -0.7389  2.5255
 4159SOL     OW24112   2.173   3.064   7.398 -0.1181  0.1429  0.0576
 4159SOL    HW124113   2.123   3.055   7.318  0.5127  2.8678 -0.6585
 4159SOL    HW224114   2.261   3.050   7.364 -0.3349 -0.3151 -0.3138
 4160SOL     OW24115   1.170   2.388   5.563  0.3560 -0.6843  0.0337
 4160SOL    HW124116   1.146   2.296   5.551 -0.4375 -0.4343 -0.3304
 4160SOL    HW224117   1.192   2.413   5.474 -1.1795  1.0516  0.1353
 4161SOL     OW24118   2.026   2.716   4.600  0.2841 -0.4271  0.0549
 4161SOL    HW124119   2.025   2.798   4.648 -0.6763 -0.8918  0.8230
 4161SOL    HW224120   2.089   2.664   4.650 -0.2975 -1.0066  0.1930
 4162SOL     OW24121   0.626   2.209  16.065  0.4709  0.0583 -0.1697
 4162SOL    HW124122   0.644   2.258  16.145 -1.6757 -0.7882  0.8315
 4162SOL    HW224123   0.585   2.273  16.007  2.0662  0.9524 -0.3082
 4163SOL     OW24124   2.739   1.801   7.627 -0.2226  0.6083  0.0412
 4163SOL    HW124125   2.710   1.862   7.695 -1.3400 -0.5023  0.5834
 4163SOL    HW224126   2.823   1.769   7.660 -0.2773  0.0133 -0.4062
 4164SOL     OW24127   1.747   3.034  14.399  0.1563 -0.2522 -0.0029
 4164SOL    HW124128   1.805   2.969  14.359  1.1565  0.7827 -0.2097
 4164SOL    HW224129   1.805   3.108  14.413 -0.1449 -0.1843  0.9084
 4165SOL     OW24130   2.467   2.203   1.459  0.1316 -0.3303  0.0075
 4165SOL    HW124131   2.412   2.264   1.410 -0.0663 -0.4385  0.0946
 4165SOL    HW224132   2.406   2.137   1.492 -1.1343  1.0036  0.3212
 4166SOL     OW24133   0.205   1.407  11.549  0.4179  0.4481 -0.0169
 4166SOL    HW124134   0.195   1.319  11.584  1.1827  1.2377  2.1996
 4166SOL    HW224135   0.139   1.455  11.599 -1.3939 -1.5220 -0.5200
 4167SOL     OW24136   2.983   1.745   7.715 -0.2086 -0.6121 -0.0835
 4167SOL    HW124137   3.007   1.667   7.764 -1.9382 -0.7057  0.6215
 4167SOL    HW224138   3.047   1.737   7.644 -2.7782 -0.4075 -2.4561
 4168SOL     OW24139   3.079   3.046   1.793  0.8527 -0.2338 -0.0323
 4168SOL    HW124140   3.020   3.088   1.730  1.0483  0.7776  0.4579
 4168SOL    HW224141   3.110   3.117   1.849  1.5670 -0.0953 -0.6030
 4169SOL     OW24142   3.694   1.059   4.521 -0.1655  0.5518  0.4753
 4169SOL    HW124143   3.652   1.032   4.439  0.1828 -1.4526  0.9536
 4169SOL    HW224144   3.773   1.006   4.514 -1.4247 -1.1435 -1.0610
 4170SOL     OW24145   4.133   2.495   4.138  0.0660 -0.8762  0.1771
 4170SOL    HW124146   4.172   2.540   4.213 -0.3101 -0.2558  0.0042
 4170SOL    HW224147   4.057   2.552   4.123  0.9478  0.1585 -0.3846
 4171SOL     OW24148   0.707   4.507   5.241  0.4964 -0.1300 -0.1417
 4171SOL    HW124149   0.661   4.439   5.192 -1.2130  0.8356  0.1413
 4171SOL    HW224150   0.637   4.572   5.251  0.1160 -1.0451  3.2842
 4172SOL     OW24151   3.518   2.909   6.061  0.2377 -0.0677  0.2539
 4172SOL    HW124152   3.600   2.958   6.070 -1.4434  2.9412 -1.0841
 4172SOL    HW224153   3.550   2.819   6.049 -0.5651 -0.1160 -1.4031
 4173SOL     OW24154   2.058   3.363   3.213 -0.1125  0.1703  0.3851
 4173SOL    HW124155   2.135   3.310   3.235  0.3176  0.4840 -0.3726
 4173SOL    HW224156   2.065   3.447   3.259 -1.4345  0.2772  0.3810
 4174SOL     OW24157   1.770   0.497   9.861 -0.6395 -0.5003 -0.4526
 4174SOL    HW124158   1.806   0.521   9.946 -0.2828 -0.3209 -0.6548
 4174SOL    HW224159   1.707   0.569   9.854 -0.2171 -0.3780 -2.9669
 4175SOL     OW24160   3.460   1.332   9.639  0.1525  0.5439 -0.0270
 4175SOL    HW124161   3.429   1.327   9.548 -1.2991 -0.1402  0.5176
 4175SOL    HW224162   3.378   1.346   9.686  0.1955 -1.7562  0.7249
 4176SOL     OW24163   2.312   1.079   7.811  0.1914  0.0853 -0.0696
 4176SOL    HW124164   2.285   1.056   7.722 -0.7282 -1.2132  0.5493
 4176SOL    HW224165   2.320   0.989   7.845  1.4181  0.7680  1.4575
 4177SOL     OW24166   1.029   0.388  11.878 -0.5192 -0.4491  0.3811
 4177SOL    HW124167   1.032   0.399  11.783  3.3657  0.5185  0.6244
 4177SOL    HW224168   1.121   0.365  11.890  0.1769  0.8035 -2.5831
 4178SOL     OW24169   4.483   2.022   7.095  0.5359 -0.4450 -0.1758
 4178SOL    HW124170   4.449   2.098   7.049  2.9693  1.0981  0.5998
 4178SOL    HW224171   4.439   2.028   7.180 -0.6955  3.1106 -1.0757
 4179SOL     OW24172   3.717   0.171   5.523  0.6387  0.0945 -0.0851
 4179SOL    HW124173   3.695   0.213   5.440  0.0934 -1.7913 -0.8990
 4179SOL    HW224174   3.650   0.206   5.581  1.5041  0.5762  0.6190
 4180SOL     OW24175   2.350   1.472   3.067  0.0916 -0.3529  0.2190
 4180SOL    HW124176   2.397   1.555   3.058  1.6679 -1.3537 -0.6726
 4180SOL    HW224177   2.385   1.407   3.007 -0.6192 -0.5403  0.0073
 4181SOL     OW24178   0.298   2.351   4.694 -0.4451  0.2820 -0.1805
 4181SOL    HW124179   0.298   2.296   4.616  0.9429 -2.0947  1.4817
 4181SOL    HW224180   0.279   2.433   4.649  0.1422 -0.2754 -1.4487
 4182SOL     OW24181   1.342   2.497   1.952  0.3070  0.1926 -0.4102
 4182SOL    HW124182   1.411   2.561   1.969 -0.0463  0.3025  0.5703
 4182SOL    HW224183   1.265   2.553   1.962 -0.1114 -0.2474 -1.1530
 4183SOL     OW24184   0.165   2.983  10.185  0.1193 -0.1695 -0.5247
 4183SOL    HW124185   0.191   3.011  10.097 -0.8459  0.5872 -0.5696
 4183SOL    HW224186   0.071   2.980  10.167  0.2356  0.1261 -1.1951
 4184SOL     OW24187   2.412   4.468   0.226  0.4495 -0.4118  0.2837
 4184SOL    HW124188   2.451   4.512   0.150 -1.9854  1.7346  0.2967
 4184SOL    HW224189   2.466   4.388   0.227 -0.0858 -0.7921 -0.8650
 4185SOL     OW24190   3.775   4.257   2.430  0.4149 -0.3552 -0.3044
 4185SOL    HW124191   3.712   4.203   2.383 -0.2921  0.4387 -0.2695
 4185SOL    HW224192   3.789   4.204   2.508 -1.6319  0.3096  0.5064
 4186SOL     OW24193   4.002   2.517  13.100 -0.5022 -0.0445 -0.0977
 4186SOL    HW124194   3.912   2.546  13.084  0.1930  1.9110 -0.4337
 4186SOL    HW224195   4.049   2.496  13.019  2.7320 -1.4112  2.1294
 4187SOL     OW24196   1.213   4.052   5.254 -0.2660  0.4117  0.3106
 4187SOL    HW124197   1.193   3.960   5.273  0.0217  0.7989  2.5303
 4187SOL    HW224198   1.160   4.097   5.320  0.2674 -0.0879  1.0833
 4188SOL     OW24199   2.871   1.617   3.819  0.3887  0.5651  0.4346
 4188SOL    HW124200   2.833   1.687   3.766 -2.6457 -0.9152  0.6564
 4188SOL    HW224201   2.838   1.644   3.905 -1.8670 -0.2786 -0.1879
 4189SOL     OW24202   0.561   0.964  10.708 -0.2974 -0.2912  0.4716
 4189SOL    HW124203   0.654   0.959  10.728  0.0517  0.2921 -1.0118
 4189SOL    HW224204   0.537   1.051  10.741 -0.6069 -1.0717  2.2591
 4190SOL     OW24205   2.339   2.576   3.159  0.1018  0.3336 -0.0634
 4190SOL    HW124206   2.325   2.597   3.252 -0.6817  2.4558 -0.6559
 4190SOL    HW224207   2.288   2.646   3.117 -0.0651  1.4473  1.9729
 4191SOL     OW24208   1.917   0.261   9.104  0.3259  0.4255  0.1290
 4191SOL    HW124209   1.831   0.283   9.069  1.1670  1.2355 -1.4533
 4191SOL    HW224210   1.958   0.347   9.108 -0.1264  0.6473 -0.1088
 4192SOL     OW24211   3.121   2.303   9.078  0.7170  0.0962 -0.0139
 4192SOL    HW124212   3.171   2.318   9.159  0.0119 -0.9361  0.6019
 4192SOL    HW224213   3.190   2.264   9.023  1.3126  0.7876  0.2367
 4193SOL     OW24214   3.829   1.912   9.303 -0.3021  0.0367  0.0360
 4193SOL    HW124215   3.783   1.835   9.271 -1.1556  0.4527  0.2791
 4193SOL    HW224216   3.897   1.876   9.361 -0.3730 -1.2963 -0.7109
 4194SOL     OW24217   1.437   2.926   3.637  0.9576 -0.6737 -0.1654
 4194SOL    HW124218   1.524   2.931   3.598  1.6056 -1.6155  1.1687
 4194SOL    HW224219   1.428   3.015   3.669 -1.7620 -0.0460 -2.7232
 4195SOL     OW24220   0.846   3.573   5.761 -0.6466  0.0827 -0.6429
 4195SOL    HW124221   0.890   3.525   5.831 -1.0680 -0.8483 -1.0177
 4195SOL    HW224222   0.821   3.505   5.699 -0.0107  0.1589 -0.9843
 4196SOL     OW24223   3.652   3.086   4.032 -0.0055 -0.3966 -0.4578
 4196SOL    HW124224   3.569   3.082   3.984  1.2691 -0.0172 -2.7004
 4196SOL    HW224225   3.662   3.175   4.064  0.4910 -0.8681  0.7074
 4197SOL     OW24226   3.455   2.263   7.989  0.5001 -0.6543 -0.2985
 4197SOL    HW124227   3.530   2.234   8.040  0.6618 -2.9495 -1.8328
 4197SOL    HW224228   3.455   2.353   8.020  0.2825 -0.3047 -1.3137
 4198SOL     OW24229   2.245   2.763  17.484 -0.1281  0.6096  0.0265
 4198SOL    HW124230   2.269   2.854  17.465  0.5879  0.2967 -0.5689
 4198SOL    HW224231   2.316   2.710  17.447 -0.6200 -1.1859  1.6983
 4199SOL     OW24232   0.190   1.559   7.994  0.0042 -0.3104  0.0177
 4199SOL    HW124233   0.277   1.568   7.955  0.6943 -0.8098  1.4342
 4199SOL    HW224234   0.185   1.644   8.039 -0.2115 -0.1993 -0.2194
 4200SOL     OW24235   0.941   1.785   4.285  0.1012 -0.8672 -0.1610
 4200SOL    HW124236   1.031   1.784   4.253  0.3248 -1.7468  0.5023
 4200SOL    HW224237   0.924   1.701   4.329  0.3747 -0.6977  0.2715
 4201SOL     OW24238   0.727   1.250   6.852  0.0691 -0.4684 -0.1220
 4201SOL    HW124239   0.707   1.197   6.929  2.5956  0.9398  1.5104
 4201SOL    HW224240   0.675   1.215   6.779  0.4927 -0.8130 -0.2640
 4202SOL     OW24241   0.959   0.937   6.714 -0.0263  0.0324 -0.3830
 4202SOL    HW124242   1.032   0.997   6.729 -0.8483  0.6662  1.0970
 4202SOL    HW224243   0.928   0.984   6.637  1.6506  0.8125 -0.5817
 4203SOL     OW24244   1.548   3.487   8.065  0.0528 -0.7054  0.3299
 4203SOL    HW124245   1.634   3.447   8.073 -0.1981 -1.1553  0.7240
 4203SOL    HW224246   1.556   3.563   8.123  1.6679 -0.3334 -0.3593
 4204SOL     OW24247   1.670   4.175   5.049 -0.2697 -0.2119 -0.2552
 4204SOL    HW124248   1.684   4.103   5.110  0.2224  0.4931  0.4718
 4204SOL    HW224249   1.579   4.163   5.023  0.1154 -0.4461 -1.4901
 4205SOL     OW24250   3.433   3.771   7.696 -0.4501  0.7621  0.0636
 4205SOL    HW124251   3.452   3.815   7.779  0.1809  0.5990  0.0097
 4205SOL    HW224252   3.342   3.747   7.711 -1.3255  1.3776 -4.3551
 4206SOL     OW24253   1.253   4.072  14.941  0.1159  0.1697  0.1244
 4206SOL    HW124254   1.240   4.140  14.875 -0.1992  1.3135  1.3586
 4206SOL    HW224255   1.332   4.025  14.914 -0.5444 -0.6625 -0.3702
 4207SOL     OW24256   0.796   3.803   5.461  0.0183 -0.1004  0.3603
 4207SOL    HW124257   0.727   3.763   5.408  0.9575  0.1651 -1.0802
 4207SOL    HW224258   0.759   3.890   5.477 -0.1544 -0.5950  2.5313
 4208SOL     OW24259   4.430   2.914   4.945  0.1049 -0.1163  0.1611
 4208SOL    HW124260   4.456   2.822   4.954  1.8266  0.6341  2.9992
 4208SOL    HW224261   4.339   2.897   4.968 -0.5210  0.2719 -2.0235
 4209SOL     OW24262   3.099   1.073   8.867 -0.0555 -0.0355  0.2276
 4209SOL    HW124263   3.102   1.080   8.771 -2.1838  0.3077  0.1809
 4209SOL    HW224264   3.022   1.016   8.876  0.4012 -0.9580 -1.5553
 4210SOL     OW24265   0.598   0.075  16.792 -0.1286 -0.2189 -0.4689
 4210SOL    HW124266   0.644   0.076  16.708 -0.1165 -0.3422 -0.4635
 4210SOL    HW224267   0.622   0.162  16.826 -0.7168 -0.7199  1.2421
 4211SOL     OW24268   4.705   4.294  14.375 -0.0598 -0.3426 -0.1218
 4211SOL    HW124269   0.028   4.314  14.448 -0.7716 -2.5522  1.0640
 4211SOL    HW224270   0.023   4.280  14.297 -2.7871  0.7682 -2.2066
 4212SOL     OW24271   2.966   1.653  11.769 -0.0662  0.0032  0.0116
 4212SOL    HW124272   2.951   1.627  11.678  2.1305 -0.0513 -0.3293
 4212SOL    HW224273   3.038   1.715  11.760 -1.2799  1.5610  1.0689
 4213SOL     OW24274   2.791   3.879  16.375 -0.1067  0.0131  0.6392
 4213SOL    HW124275   2.843   3.957  16.354  0.0331  0.4579  2.6647
 4213SOL    HW224276   2.828   3.867  16.463  2.7750  1.7622 -0.3374
 4214SOL     OW24277   1.913   1.038   8.519  0.2799  0.6453 -0.2469
 4214SOL    HW124278   1.961   1.068   8.596  0.1709 -0.2490  0.1730
 4214SOL    HW224279   1.831   1.087   8.527 -0.7547 -1.2792  1.0716
 4215SOL     OW24280   1.110   2.884   1.513 -0.2100  0.6822  0.0242
 4215SOL    HW124281   1.078   2.960   1.563  1.5311  0.9376  0.7488
 4215SOL    HW224282   1.038   2.823   1.529 -0.1612  0.6202  0.0087
 4216SOL     OW24283   3.798   1.820  14.838  0.1635  0.5758  0.5548
 4216SOL    HW124284   3.749   1.794  14.760 -0.1098 -1.0984  1.2784
 4216SOL    HW224285   3.866   1.879  14.806  2.0266 -2.0283 -0.2334
 4217SOL     OW24286   1.025   4.653  17.019 -0.0576 -0.1212  0.5174
 4217SOL    HW124287   1.035   4.729  16.961  0.8898  0.1151  0.9808
 4217SOL    HW224288   0.976   4.683  17.095  0.3618  0.7046  0.4582
 4218SOL     OW24289   3.030   3.634  10.728 -0.0898  0.3515 -0.4676
 4218SOL    HW124290   2.969   3.697  10.767  0.1634  0.9032 -0.9618
 4218SOL    HW224291   2.985   3.550  10.726  2.9671 -1.2889  1.1121
 4219SOL     OW24292   4.380   2.870   2.174 -0.1060  0.0301  0.0288
 4219SOL    HW124293   4.365   2.814   2.098 -0.4313  2.0307 -1.3782
 4219SOL    HW224294   4.368   2.954   2.129  2.9273  0.7350  0.5200
 4220SOL     OW24295   4.525   4.076   3.294 -0.2655 -0.1278 -0.1157
 4220SOL    HW124296   4.443   4.098   3.337 -0.4937  0.7939 -1.0086
 4220SOL    HW224297   4.507   3.984   3.277  0.3147 -0.3975  0.7139
 4221SOL     OW24298   4.003   4.230   6.009 -0.6171  0.2956  0.2912
 4221SOL    HW124299   3.911   4.241   6.034 -0.6743  0.2623  0.0971
 4221SOL    HW224300   4.036   4.318   6.028  3.7786 -1.3245  0.1682
 4222SOL     OW24301   3.121   1.410   6.779  0.7776 -0.3081  0.4844
 4222SOL    HW124302   3.119   1.493   6.732 -2.3071 -0.0288  1.1012
 4222SOL    HW224303   3.034   1.373   6.768  0.5092  0.0484  1.4021
 4223SOL     OW24304   4.544   0.626   1.658 -0.5678  0.4280  0.3244
 4223SOL    HW124305   4.631   0.624   1.697 -1.4147  0.6953  2.1967
 4223SOL    HW224306   4.481   0.586   1.718  0.4506 -0.4387  0.8164
 4224SOL     OW24307   2.656   0.871   0.486 -0.4690  0.1129  0.2493
 4224SOL    HW124308   2.647   0.951   0.538 -0.4613  0.4213 -0.2175
 4224SOL    HW224309   2.611   0.910   0.411 -0.6749 -0.5638  0.0215
 4225SOL     OW24310   3.711   2.588   1.176 -0.2886 -0.0043  0.0547
 4225SOL    HW124311   3.719   2.497   1.146  1.0323 -0.4067  1.6421
 4225SOL    HW224312   3.751   2.636   1.103  0.0620 -0.6466 -0.1751
 4226SOL     OW24313   4.155   2.620   2.593 -0.0170 -0.3543 -0.0602
 4226SOL    HW124314   4.225   2.641   2.531 -0.8085  0.1761 -0.7705
 4226SOL    HW224315   4.197   2.547   2.639 -0.1756 -0.5094 -0.1602
 4227SOL     OW24316   2.775   1.477  15.745 -0.2837 -0.0397  0.1858
 4227SOL    HW124317   2.779   1.559  15.697  1.5467 -1.4847 -2.1856
 4227SOL    HW224318   2.739   1.500  15.831 -0.0133  0.0232  0.2809
 4228SOL     OW24319   0.289   3.691   4.519  0.7903 -0.1889 -0.4428
 4228SOL    HW124320   0.285   3.671   4.426 -1.1760 -0.4746 -0.2973
 4228SOL    HW224321   0.209   3.732   4.550  1.2487 -1.1150  1.9553
 4229SOL     OW24322   0.236   3.851   5.793 -0.9841 -0.3713  0.0948
 4229SOL    HW124323   0.235   3.871   5.700 -0.4311 -0.7756  0.0042
 4229SOL    HW224324   0.146   3.818   5.804 -1.1396  0.0219  0.0116
 4230SOL     OW24325   2.226   4.297   9.280  0.2185  0.1049  0.7607
 4230SOL    HW124326   2.141   4.341   9.283  0.7531  1.1375  0.5219
 4230SOL    HW224327   2.284   4.371   9.298 -0.7125  1.5493 -2.3002
 4231SOL     OW24328   4.174   3.939   2.119 -0.1012 -0.4546 -0.6050
 4231SOL    HW124329   4.228   3.902   2.049 -0.0934  2.1863 -1.9710
 4231SOL    HW224330   4.209   3.903   2.200 -0.1454  0.1716 -0.3129
 4232SOL     OW24331   2.288   4.478   1.372  0.4816  0.1189  0.3038
 4232SOL    HW124332   2.313   4.492   1.281 -0.5140 -0.1140 -0.0082
 4232SOL    HW224333   2.257   4.387   1.368 -0.9625  0.6551 -0.9624
 4233SOL     OW24334   1.378   4.073  10.026 -0.7521  0.0516  0.7374
 4233SOL    HW124335   1.412   4.149  10.075  1.2658 -0.4856  0.1887
 4233SOL    HW224336   1.437   4.005  10.059  1.1459  1.0641 -0.5832
 4234SOL     OW24337   3.646   0.068   7.773  0.0951  0.4490 -0.0246
 4234SOL    HW124338   3.594   0.127   7.829 -0.1270  0.2473 -0.0197
 4234SOL    HW224339   3.709   0.138   7.756 -0.0944  0.9605  1.3835
 4235SOL     OW24340   2.132   4.491   7.562 -0.3265 -0.3295  0.0208
 4235SOL    HW124341   2.220   4.468   7.590 -0.9721 -2.8135  0.0145
 4235SOL    HW224342   2.122   4.565   7.622  0.5906 -0.9711  0.9529
 4236SOL     OW24343   2.151   4.492   2.943  0.7809 -0.3040 -0.1623
 4236SOL    HW124344   2.161   4.539   3.026  1.1669  3.1881 -2.2053
 4236SOL    HW224345   2.127   4.407   2.980 -0.3997  0.3684  0.6201
 4237SOL     OW24346   2.464   2.810   8.027  0.4211 -0.0787 -0.3826
 4237SOL    HW124347   2.502   2.733   7.985 -0.6732  0.0335 -1.5630
 4237SOL    HW224348   2.502   2.807   8.115 -0.2793  1.6194 -0.0203
 4238SOL     OW24349   2.096   1.080   0.380 -0.8622  0.1479  0.1579
 4238SOL    HW124350   2.146   1.160   0.397 -1.5426  0.4978  0.4836
 4238SOL    HW224351   2.157   1.015   0.343  0.8105  1.8852 -0.1375
 4239SOL     OW24352   1.330   0.599   9.850  0.1670  0.4368  0.3175
 4239SOL    HW124353   1.355   0.538   9.919 -0.9183 -0.2582  0.0919
 4239SOL    HW224354   1.275   0.658   9.902  0.9865 -0.3720  2.1167
 4240SOL     OW24355   4.351   0.623  15.103  0.6351  0.0117  0.2121
 4240SOL    HW124356   4.285   0.668  15.050  0.6467  1.8030  1.6984
 4240SOL    HW224357   4.349   0.539  15.058 -0.0822 -1.8105  3.5806
 4241SOL     OW24358   1.026   1.538   4.669  0.4807  0.2680 -0.9333
 4241SOL    HW124359   0.988   1.612   4.716 -0.5310 -0.2551 -0.9191
 4241SOL    HW224360   1.033   1.475   4.740  0.4996  1.3601  0.0336
 4242SOL     OW24361   1.254   1.310   4.522  0.7139  0.4118  0.3472
 4242SOL    HW124362   1.207   1.387   4.489  0.8481  0.5008  0.3653
 4242SOL    HW224363   1.336   1.358   4.535  0.0896  2.2473 -2.4894
 4243SOL     OW24364   1.454   3.293   0.019  0.2493 -0.4741 -0.2538
 4243SOL    HW124365   1.417   3.379  17.741 -0.7377 -0.2455  2.4200
 4243SOL    HW224366   1.429   3.294   0.111 -0.3286  1.0604 -0.4394
 4244SOL     OW24367   1.747   2.991   7.253  0.0886 -0.4443  0.1862
 4244SOL    HW124368   1.710   2.966   7.337 -0.8113  0.2634  0.0005
 4244SOL    HW224369   1.743   3.087   7.258  0.0566 -0.3916 -0.8545
 4245SOL     OW24370   1.072   2.100  10.436 -0.2057 -0.6042 -0.7952
 4245SOL    HW124371   1.107   2.116  10.348  1.2967 -0.2080 -0.1336
 4245SOL    HW224372   1.151   2.089  10.488  1.1097 -2.5951 -3.2004
 4246SOL     OW24373   1.144   1.894   7.697 -0.3388 -0.6835 -0.2214
 4246SOL    HW124374   1.098   1.873   7.616 -0.1730  0.7210 -0.6754
 4246SOL    HW224375   1.072   1.934   7.745  1.5072  2.0101  0.3259
 4247SOL     OW24376   0.355   4.074   8.032  0.1639 -0.3383 -0.5238
 4247SOL    HW124377   0.336   4.059   8.124 -2.7265  0.7239 -0.9599
 4247SOL    HW224378   0.448   4.094   8.023  0.3300 -0.6384  0.4820
 4248SOL     OW24379   1.927   1.365   3.500  0.5544  0.1573  0.5682
 4248SOL    HW124380   1.914   1.339   3.591  1.2388  0.5947  0.7868
 4248SOL    HW224381   1.965   1.291   3.453  0.2271  0.5142 -0.2589
 4249SOL     OW24382   0.553   3.934   0.143  0.2379  0.0174  0.3184
 4249SOL    HW124383   0.610   3.910   0.071  1.3993  1.9896  0.6006
 4249SOL    HW224384   0.470   3.887   0.129 -0.6942  1.3237  1.4334
 4250SOL     OW24385   3.093   1.475   0.505  0.1076 -0.0683 -0.3305
 4250SOL    HW124386   3.060   1.503   0.590  1.4457  0.1616  0.1182
 4250SOL    HW224387   3.116   1.383   0.520  1.4749  0.3437  0.0857
 4251SOL     OW24388   1.811   4.359   9.026  0.0081  0.3976 -0.0889
 4251SOL    HW124389   1.798   4.281   8.973  0.1150  0.5776 -0.3841
 4251SOL    HW224390   1.906   4.372   9.017  0.3676 -0.1688  3.0404
 4252SOL     OW24391   1.397   0.872   8.183  0.3042 -0.2399  0.0901
 4252SOL    HW124392   1.469   0.861   8.245 -0.6865 -4.0159  0.6030
 4252SOL    HW224393   1.435   0.945   8.135  1.2830 -0.0935  1.0904
 4253SOL     OW24394   1.897   3.750   6.488 -0.0475 -0.1448  0.6009
 4253SOL    HW124395   1.900   3.655   6.497  2.0180 -0.0532  0.8624
 4253SOL    HW224396   1.975   3.778   6.537  1.7108 -0.1212 -2.2061
 4254SOL     OW24397   4.568   2.326   9.293  0.0881  0.3501 -0.6210
 4254SOL    HW124398   4.641   2.275   9.260 -1.4903 -2.0637 -0.3651
 4254SOL    HW224399   4.502   2.332   9.224  1.7862  2.1323 -2.0863
 4255SOL     OW24400   1.307   0.399   8.786 -0.3767  0.2181  0.0765
 4255SOL    HW124401   1.275   0.312   8.807 -0.0115  0.0685 -0.0034
 4255SOL    HW224402   1.261   0.448   8.855 -0.1158 -0.4387  0.7157
 4256SOL     OW24403   3.984   3.684   5.054  0.2295  0.0620 -0.2476
 4256SOL    HW124404   3.966   3.595   5.023 -0.7742  0.7112 -1.5056
 4256SOL    HW224405   4.050   3.669   5.122  0.0188  0.2480 -0.0019
 4257SOL     OW24406   1.752   1.652   0.427  0.2750 -0.0470 -0.2613
 4257SOL    HW124407   1.677   1.633   0.371  0.6928 -3.1022  0.2549
 4257SOL    HW224408   1.725   1.737   0.462  1.2132  0.4128 -0.6407
 4258SOL     OW24409   2.446   3.875   1.522  0.0103  0.8227  0.4890
 4258SOL    HW124410   2.534   3.911   1.530  0.4542 -0.6072  2.0707
 4258SOL    HW224411   2.450   3.804   1.586  1.6028 -0.9288 -1.5435
 4259SOL     OW24412   3.017   4.290   7.721 -0.1471 -0.0660 -0.7959
 4259SOL    HW124413   3.095   4.240   7.696 -1.0637 -1.1889 -1.4444
 4259SOL    HW224414   3.056   4.353   7.781  0.4127 -0.2059 -1.0103
 4260SOL     OW24415   2.956   1.225   7.953 -0.0677 -0.0350 -1.0346
 4260SOL    HW124416   2.958   1.251   8.045  0.8663 -0.4496 -0.9409
 4260SOL    HW224417   2.862   1.224   7.936 -0.5217 -1.2522  1.6043
 4261SOL     OW24418   1.636   1.262   9.099  0.1206 -0.4260  0.2038
 4261SOL    HW124419   1.617   1.252   9.193  0.5514  2.3248  0.5801
 4261SOL    HW224420   1.629   1.355   9.080 -1.3645 -0.3001  1.3023
 4262SOL     OW24421   1.670   2.800   7.020 -0.0343  0.2888 -0.2907
 4262SOL    HW124422   1.589   2.850   7.028 -0.2203 -0.1198  0.3687
 4262SOL    HW224423   1.719   2.841   7.091 -1.9476  0.3123  1.0351
 4263SOL     OW24424   2.453   3.394   4.443  0.5371 -0.4225  0.7896
 4263SOL    HW124425   2.369   3.428   4.472  0.2485 -0.1971 -0.2934
 4263SOL    HW224426   2.423   3.332   4.377  0.4885  0.2120  0.2178
 4264SOL     OW24427   2.692   4.728   6.238 -0.2208 -0.1452 -0.1282
 4264SOL    HW124428   2.621   0.029   6.186  0.2976 -0.6784 -1.2190
 4264SOL    HW224429   2.765   0.009   6.178 -0.7887 -2.4146 -1.4661
 4265SOL     OW24430   4.587   4.336   1.185 -0.3230  0.3942  0.1381
 4265SOL    HW124431   4.577   4.312   1.278  1.3856  1.0827  0.4967
 4265SOL    HW224432   4.528   4.409   1.168  0.9056  1.3653  0.0502
 4266SOL     OW24433   0.347   1.619   0.531 -0.4182 -0.4759  0.0019
 4266SOL    HW124434   0.293   1.696   0.510  1.5907  0.4117 -1.8998
 4266SOL    HW224435   0.361   1.628   0.625 -0.7364  0.1359 -0.0069
 4267SOL     OW24436   1.686   0.762  15.650  0.7515  0.5494 -0.2085
 4267SOL    HW124437   1.709   0.850  15.680 -1.1262  1.3251 -1.0967
 4267SOL    HW224438   1.595   0.773  15.623  0.3709  0.8074  1.1791
 4268SOL     OW24439   2.936   0.546   4.299 -0.3060  0.7221 -0.0264
 4268SOL    HW124440   2.845   0.525   4.281  0.3478  0.4289 -2.9641
 4268SOL    HW224441   2.974   0.499   4.225 -1.9058 -0.7580  0.1066
 4269SOL     OW24442   4.735   0.632   9.156 -0.1732  0.7857 -0.0542
 4269SOL    HW124443   0.045   0.606   9.236  0.6829 -0.1890 -0.8541
 4269SOL    HW224444   4.731   0.545   9.116 -2.5729  0.8236  0.1208
 4270SOL     OW24445   4.591   1.693   2.595  0.1058  0.6129 -0.3158
 4270SOL    HW124446   4.533   1.619   2.575 -1.6298  1.5779  1.1105
 4270SOL    HW224447   4.669   1.659   2.551 -0.5252 -0.0106 -0.9364
 4271SOL     OW24448   1.507   0.684   1.671  0.3247  0.3402 -0.0831
 4271SOL    HW124449   1.445   0.728   1.613 -1.5455 -2.3536 -0.1032
 4271SOL    HW224450   1.480   0.706   1.760  1.3439  0.6379  0.1509
 4272SOL     OW24451   0.386   0.570   1.841  0.0898 -0.7366  0.0275
 4272SOL    HW124452   0.399   0.497   1.781  0.4281 -1.0207  0.4407
 4272SOL    HW224453   0.291   0.576   1.852  0.0457 -2.7274  0.7728
 4273SOL     OW24454   4.126   2.247   5.604  0.3107  0.3344 -0.5722
 4273SOL    HW124455   4.207   2.214   5.565 -0.2917 -0.7814 -0.8584
 4273SOL    HW224456   4.107   2.309   5.534 -0.7101 -0.5432 -1.0713
 4274SOL     OW24457   0.530   0.123   4.261  0.3322  0.2279  0.1527
 4274SOL    HW124458   0.615   0.149   4.297  1.1217 -0.6999 -1.0530
 4274SOL    HW224459   0.494   0.210   4.243  0.3119  0.1621 -0.1202
 4275SOL     OW24460   0.565   4.653   4.030 -0.2329 -0.0236  0.7194
 4275SOL    HW124461   0.595   0.005   4.006  1.0014 -0.9549 -1.1514
 4275SOL    HW224462   0.474   4.672   4.054 -0.1933 -1.0763  1.7248
 4276SOL     OW24463   0.780   2.458   4.984 -0.1569  0.0123  0.5676
 4276SOL    HW124464   0.723   2.383   4.995 -1.5980  0.9468 -0.4273
 4276SOL    HW224465   0.769   2.485   4.893 -1.7606 -0.1416  0.7117
 4277SOL     OW24466   3.130   2.149   8.629 -0.0645 -0.3638  0.2615
 4277SOL    HW124467   3.153   2.103   8.549 -1.3321 -0.4102 -0.0852
 4277SOL    HW224468   3.093   2.075   8.677 -1.4253 -0.0474 -0.2989
 4278SOL     OW24469   0.577   0.464   2.156 -0.6561  0.1496 -0.3605
 4278SOL    HW124470   0.536   0.538   2.112 -2.0537 -1.5523 -1.9080
 4278SOL    HW224471   0.503   0.422   2.199 -1.6495  1.8996 -0.3639
 4279SOL     OW24472   4.224   3.416   0.657  0.1582 -0.0135  0.0502
 4279SOL    HW124473   4.162   3.455   0.719  0.0616  0.2383 -0.2099
 4279SOL    HW224474   4.172   3.361   0.598  2.4430 -0.4022 -1.5724
 4280SOL     OW24475   3.307   2.492   8.054 -0.2285 -0.2160  0.1618
 4280SOL    HW124476   3.269   2.533   8.131  0.5229  0.3435  0.2291
 4280SOL    HW224477   3.381   2.550   8.040  0.2688 -1.3041 -1.7800
 4281SOL     OW24478   2.074   0.276   4.330 -0.1280  0.3891 -0.4209
 4281SOL    HW124479   2.056   0.214   4.402  0.4135  1.0733  0.2983
 4281SOL    HW224480   1.996   0.331   4.328 -1.8044 -1.9025  1.6439
 4282SOL     OW24481   1.820   0.527   9.475 -0.1589  0.0277 -0.1946
 4282SOL    HW124482   1.827   0.569   9.389  0.4558  1.9160  0.7719
 4282SOL    HW224483   1.844   0.607   9.522 -0.8757 -0.8552  1.6829
 4283SOL     OW24484   3.476   0.459  12.926  0.5468 -0.0444  0.4439
 4283SOL    HW124485   3.555   0.508  12.950 -1.3123  2.0057  2.2513
 4283SOL    HW224486   3.409   0.524  12.946 -0.1505 -1.0360  1.2501
 4284SOL     OW24487   3.332   4.257   0.413 -0.6192 -0.0286  0.2191
 4284SOL    HW124488   3.364   4.170   0.437  0.7002 -0.0779 -1.7084
 4284SOL    HW224489   3.326   4.247   0.318 -1.8191 -0.4438  0.3387
 4285SOL     OW24490   2.514   2.848   3.998  0.1679 -0.1594  0.3202
 4285SOL    HW124491   2.477   2.834   4.085  1.1721 -2.7468  0.3223
 4285SOL    HW224492   2.504   2.943   3.991  1.1010 -0.0771  0.0969
 4286SOL     OW24493   4.462   4.558   7.125 -0.6174  0.5039  0.6082
 4286SOL    HW124494   4.412   4.483   7.090  0.1890  0.3569 -0.2274
 4286SOL    HW224495   4.415   4.570   7.207 -0.2025  2.3185  0.5683
 4287SOL     OW24496   4.045   3.927  13.286  0.6194 -0.4731  0.2360
 4287SOL    HW124497   4.102   3.859  13.250 -0.0946 -0.6125 -0.6270
 4287SOL    HW224498   4.049   3.980  13.207  2.7316  3.4917  2.9840
 4288SOL     OW24499   2.159   1.610   4.710 -0.1983 -0.1163 -0.1237
 4288SOL    HW124500   2.224   1.651   4.652  1.5685 -2.9289 -0.1377
 4288SOL    HW224501   2.162   1.516   4.692 -0.2715 -0.0236 -0.6387
 4289SOL     OW24502   0.246   2.045   8.278  0.0801 -0.1275 -0.5691
 4289SOL    HW124503   0.311   2.066   8.345  0.2404  0.6652 -0.9656
 4289SOL    HW224504   0.277   2.097   8.204 -0.8806  1.5749  0.2038
 4290SOL     OW24505   4.084   4.290   1.341  0.3290 -0.6751  1.1093
 4290SOL    HW124506   4.060   4.197   1.340  1.2580 -0.9082  0.0775
 4290SOL    HW224507   4.025   4.317   1.411 -0.8182  2.5243 -1.1192
 4291SOL     OW24508   4.628   2.103  16.541  0.6091  0.1274  0.0703
 4291SOL    HW124509   4.616   2.192  16.573  0.1566 -0.8345  2.6379
 4291SOL    HW224510   4.709   2.133  16.499  2.2286 -2.3862  1.3333
 4292SOL     OW24511   1.325   1.075   6.322  0.0490  0.1290  0.0409
 4292SOL    HW124512   1.414   1.110   6.322  0.8873 -2.0203  2.5216
 4292SOL    HW224513   1.336   1.006   6.387 -1.6641  0.5198  0.7560
 4293SOL     OW24514   0.852   0.813   8.676 -0.2894  0.2515  0.0569
 4293SOL    HW124515   0.864   0.761   8.597 -0.0087  0.8284 -0.2722
 4293SOL    HW224516   0.945   0.825   8.693  0.3402 -2.4611 -1.4978
 4294SOL     OW24517   1.429   1.623   7.662  0.0471 -0.7851 -0.0828
 4294SOL    HW124518   1.506   1.576   7.628 -1.1580 -2.3525 -0.6375
 4294SOL    HW224519   1.470   1.666   7.737  2.0789 -1.3304 -0.8520
 4295SOL     OW24520   2.127   3.408   1.446 -0.2179 -0.1675 -0.3592
 4295SOL    HW124521   2.040   3.371   1.429  0.1866 -0.1373 -2.5147
 4295SOL    HW224522   2.118   3.420   1.540 -1.2315 -0.3709 -0.4305
 4296SOL     OW24523   1.169   4.467   9.168 -0.0531  0.2294  0.4378
 4296SOL    HW124524   1.151   4.404   9.098  0.7521  0.4928 -0.0205
 4296SOL    HW224525   1.129   4.426   9.244  1.8078  0.5720  1.5959
 4297SOL     OW24526   1.078   2.945   7.068  0.1455 -0.3655 -0.2989
 4297SOL    HW124527   1.032   2.867   7.037 -3.2156  1.7268 -0.5981
 4297SOL    HW224528   1.083   2.923   7.161 -0.4774 -2.4267 -0.7436
 4298SOL     OW24529   2.112   1.671   6.444  0.6684  1.0601  0.1296
 4298SOL    HW124530   2.026   1.631   6.440  0.6195  1.1258  0.5234
 4298SOL    HW224531   2.083   1.759   6.420 -1.7327 -0.0205 -0.8335
 4299SOL     OW24532   1.660   4.650  13.414  0.0237  0.0059  0.5606
 4299SOL    HW124533   1.569   4.673  13.398 -0.1696 -1.0766  0.0630
 4299SOL    HW224534   1.696   4.626  13.329  0.2452 -0.6820  0.8496
 4300SOL     OW24535   1.073   0.128   7.980  0.3350  0.0822 -0.4188
 4300SOL    HW124536   1.153   0.178   7.995 -0.9348  2.1026 -0.4865
 4300SOL    HW224537   1.054   0.141   7.887  0.2700 -2.9267 -0.8508
 4301SOL     OW24538   0.023   2.081   4.650 -0.8331 -0.0412  0.1092
 4301SOL    HW124539   0.042   2.121   4.565  1.0913  1.0498  1.0564
 4301SOL    HW224540   0.107   2.109   4.689 -0.2683  0.9757 -1.8647
 4302SOL     OW24541   1.007   0.403   4.711 -0.1091  0.1938  0.5851
 4302SOL    HW124542   0.938   0.339   4.692  1.4440 -1.2357 -0.2076
 4302SOL    HW224543   1.028   0.431   4.622  0.1284 -1.9199 -0.0208
 4303SOL     OW24544   2.191   4.143   4.011 -0.0851 -0.3555 -0.2077
 4303SOL    HW124545   2.181   4.137   4.106  1.4293 -0.5739 -0.0649
 4303SOL    HW224546   2.115   4.088   3.993  0.3832 -1.3801  1.0095
 4304SOL     OW24547   0.381   3.524   2.357 -0.4889  0.7169  0.1833
 4304SOL    HW124548   0.469   3.555   2.335 -0.3752  1.2544  1.3435
 4304SOL    HW224549   0.369   3.566   2.443 -2.6532  1.7276 -0.6091
 4305SOL     OW24550   3.702   1.600   4.402  0.7144  0.1609 -0.1345
 4305SOL    HW124551   3.780   1.619   4.454  0.0041  0.5375  0.8091
 4305SOL    HW224552   3.703   1.504   4.402 -2.4724  0.1134  1.9968
 4306SOL     OW24553   1.997   4.436   9.262  0.0858 -0.5864 -0.1848
 4306SOL    HW124554   1.938   4.470   9.194  0.8066  0.9333 -0.0484
 4306SOL    HW224555   1.951   4.356   9.286  2.1481 -1.1737  1.8083
 4307SOL     OW24556   1.920   0.933  16.499  0.2828  0.2215 -0.3894
 4307SOL    HW124557   1.868   0.965  16.572 -1.3530 -4.0901  0.3042
 4307SOL    HW224558   2.002   0.906  16.541  0.6792  0.4181 -1.0357
 4308SOL     OW24559   1.025   1.421   6.088 -0.0573  0.5237  0.2352
 4308SOL    HW124560   0.972   1.377   6.153 -0.3911 -2.8503 -2.3267
 4308SOL    HW224561   0.978   1.416   6.005 -1.0810 -2.1841  0.9856
 4309SOL     OW24562   4.401   0.261   2.667  0.1606 -0.3969  0.1500
 4309SOL    HW124563   4.472   0.310   2.710 -2.0973  1.6761  1.4986
 4309SOL    HW224564   4.377   0.318   2.594  2.4983  0.9318  0.4208
 4310SOL     OW24565   4.704   3.544  15.481  0.1936 -0.0883 -0.2850
 4310SOL    HW124566   4.689   3.566  15.573 -0.0648 -0.9257 -0.1287
 4310SOL    HW224567   4.651   3.466  15.464  0.0735 -0.4286  1.6818
 4311SOL     OW24568   1.874   2.123  10.687 -0.3840 -0.0677 -0.5049
 4311SOL    HW124569   1.810   2.092  10.751 -2.5319 -0.1231 -2.6884
 4311SOL    HW224570   1.832   2.197  10.643 -1.8500  0.0891  1.1662
 4312SOL     OW24571   3.476   1.491   2.416  0.0273  0.0605 -0.0738
 4312SOL    HW124572   3.418   1.472   2.343  1.2315 -0.8581 -0.7987
 4312SOL    HW224573   3.552   1.512   2.362  1.6008  1.1635  2.5278
 4313SOL     OW24574   1.053   3.258   4.804  0.1605 -0.0673 -0.5257
 4313SOL    HW124575   1.042   3.316   4.880  3.4878  1.3726 -1.1779
 4313SOL    HW224576   1.025   3.314   4.732  0.3320 -0.2658 -0.7427
 4314SOL     OW24577   3.134   2.521   3.314 -0.6004  0.9754 -0.0955
 4314SOL    HW124578   3.077   2.479   3.378 -0.8921 -0.3339 -1.2208
 4314SOL    HW224579   3.078   2.584   3.267 -0.6890  1.5603  0.8027
 4315SOL     OW24580   0.905   0.425  12.363 -0.2642  0.4318 -0.1531
 4315SOL    HW124581   0.895   0.423  12.458 -0.8352 -1.7976 -0.2566
 4315SOL    HW224582   0.985   0.373  12.355  0.9019  2.0997  0.7250
 4316SOL     OW24583   0.768   1.692   2.181 -0.0082  0.6958  0.0359
 4316SOL    HW124584   0.745   1.694   2.273 -0.2883 -0.8402  0.0030
 4316SOL    HW224585   0.699   1.635   2.146  1.3951 -1.4633  0.7290
 4317SOL     OW24586   2.877   0.577   9.903  0.8295  0.1707 -0.7636
 4317SOL    HW124587   2.830   0.511   9.852 -2.2618  3.0876 -1.7359
 4317SOL    HW224588   2.860   0.541   9.991  0.9485  0.5503 -0.5868
 4318SOL     OW24589   1.442   1.295   5.834 -0.0998  0.1135 -0.1156
 4318SOL    HW124590   1.525   1.286   5.787 -0.8599  2.3181 -1.9198
 4318SOL    HW224591   1.411   1.205   5.846  1.0823  0.0397  2.4539
 4319SOL     OW24592   3.875   0.323   8.854 -0.0564 -0.1572  0.2049
 4319SOL    HW124593   3.877   0.281   8.940  0.9760 -0.9546 -0.2123
 4319SOL    HW224594   3.870   0.416   8.880  1.0605 -0.2481  0.7553
 4320SOL     OW24595   4.274   1.923  11.480  0.2374  0.6792 -0.0121
 4320SOL    HW124596   4.265   1.996  11.542 -0.9276  0.1273  0.4738
 4320SOL    HW224597   4.314   1.959  11.400  1.3624 -0.2220  0.1521
 4321SOL     OW24598   4.192   4.189   0.506 -0.1963  0.2962 -0.0566
 4321SOL    HW124599   4.278   4.197   0.464  0.1607 -0.3902  0.5303
 4321SOL    HW224600   4.147   4.272   0.498 -2.4251 -0.8697  0.3542
 4322SOL     OW24601   2.181   2.869  13.600  0.2284 -0.3575 -0.1134
 4322SOL    HW124602   2.225   2.869  13.685 -0.6846 -2.2588  0.3653
 4322SOL    HW224603   2.205   2.955  13.566  2.1732 -1.6654 -2.0645
 4323SOL     OW24604   3.742   0.971   2.841  0.6938 -0.2443  0.3204
 4323SOL    HW124605   3.765   0.958   2.933 -0.8862 -2.4907  0.4174
 4323SOL    HW224606   3.813   1.019   2.798  0.1501 -0.4795 -0.8554
 4324SOL     OW24607   1.194   3.520   4.593 -0.5905 -0.0341  0.3838
 4324SOL    HW124608   1.099   3.517   4.601 -0.6614 -2.3665 -1.2913
 4324SOL    HW224609   1.214   3.578   4.666  0.8913  1.3819 -1.1421
 4325SOL     OW24610   1.334   0.989   4.474  0.5933  0.4740 -0.4641
 4325SOL    HW124611   1.386   0.911   4.496 -0.8506  0.6846  3.5774
 4325SOL    HW224612   1.404   1.054   4.470  1.0912 -0.1957 -2.4770
 4326SOL     OW24613   0.783   0.856  14.992 -0.4884 -0.0786  0.0775
 4326SOL    HW124614   0.803   0.776  14.944 -0.1932 -0.0411  0.1378
 4326SOL    HW224615   0.855   0.915  14.971 -1.9453  1.8212  0.5096
 4327SOL     OW24616   1.626   2.548   7.102  0.0126  0.0844  0.5042
 4327SOL    HW124617   1.697   2.585   7.155  0.3887 -0.4421  0.3649
 4327SOL    HW224618   1.608   2.616   7.037 -1.5579 -2.1849 -1.4470
 4328SOL     OW24619   3.805   4.618   8.023 -0.0278 -0.3168  0.5880
 4328SOL    HW124620   3.778   4.706   8.049  0.7614 -0.8931  3.3675
 4328SOL    HW224621   3.750   4.603   7.946 -2.1252  0.3200  1.9357
 4329SOL     OW24622   0.691   3.912   5.962 -0.3041  0.6701  0.2239
 4329SOL    HW124623   0.765   3.865   6.001  0.4968  0.8747 -1.0566
 4329SOL    HW224624   0.664   3.849   5.895  1.1848 -0.7045  0.9270
 4330SOL     OW24625   0.624   3.933   0.754 -0.1165 -0.2925 -0.1832
 4330SOL    HW124626   0.538   3.974   0.760 -0.4762 -0.9340 -0.9059
 4330SOL    HW224627   0.632   3.898   0.665  1.7385 -1.2145  0.3395
 4331SOL     OW24628   1.683   0.362   8.579  0.1324  0.3028  0.2453
 4331SOL    HW124629   1.686   0.372   8.675  0.9201 -0.6677  0.3196
 4331SOL    HW224630   1.712   0.446   8.544  2.1529 -2.1855 -4.0316
 4332SOL     OW24631   3.751   2.983  13.741 -0.1560 -0.0602  0.0599
 4332SOL    HW124632   3.845   2.971  13.730 -0.1973 -0.2367 -0.0999
 4332SOL    HW224633   3.724   3.039  13.668  2.2057  1.3513  0.2555
 4333SOL     OW24634   1.898   0.983  10.774 -0.5790 -0.2420 -0.2485
 4333SOL    HW124635   1.963   0.914  10.788  0.8126  1.0597 -0.3274
 4333SOL    HW224636   1.905   1.041  10.849  1.4300 -1.7767  0.7533
 4334SOL     OW24637   0.834   1.084  14.717  0.0114  0.2240  0.3947
 4334SOL    HW124638   0.924   1.082  14.684 -0.3032 -0.9031 -0.3758
 4334SOL    HW224639   0.821   1.178  14.700  0.3494  0.1615 -0.2201
 4335SOL     OW24640   4.546   0.903  11.373 -0.2302  0.1772 -0.2565
 4335SOL    HW124641   4.551   0.940  11.285 -0.7606 -0.5095 -0.5773
 4335SOL    HW224642   4.464   0.946  11.398 -1.6586 -0.9147 -2.9838
 4336SOL     OW24643   4.517   3.090   7.352 -0.5281 -0.2478  0.3185
 4336SOL    HW124644   4.515   3.108   7.258 -3.2875  0.3670  0.4776
 4336SOL    HW224645   4.434   3.127   7.382  0.1936 -0.5057  2.6051
 4337SOL     OW24646   1.971   2.098   7.545 -0.3666  0.0310 -0.0311
 4337SOL    HW124647   2.044   2.122   7.487  1.4570  0.2328  2.3500
 4337SOL    HW224648   2.025   2.068   7.618  0.6313 -0.2128 -0.8632
 4338SOL     OW24649   1.811   1.206   9.402 -0.4913 -0.2593  0.0194
 4338SOL    HW124650   1.813   1.178   9.494 -1.2684 -0.1634  0.0668
 4338SOL    HW224651   1.724   1.176   9.377 -0.6226  0.1322  0.0125
 4339SOL     OW24652   3.063   2.244  14.997 -0.2491 -0.0224 -0.0800
 4339SOL    HW124653   3.096   2.252  15.086  1.7740  1.1411 -0.9271
 4339SOL    HW224654   2.996   2.180  15.021 -1.7444  2.0464  1.2737
 4340SOL     OW24655   3.793   0.930   6.588 -0.0770 -0.0298 -0.1245
 4340SOL    HW124656   3.821   0.871   6.518 -2.0066 -0.6734 -0.3744
 4340SOL    HW224657   3.868   0.914   6.645  0.9336 -0.7034 -1.6512
 4341SOL     OW24658   2.554   1.068   8.159 -0.5022 -0.2673  0.1584
 4341SOL    HW124659   2.563   1.134   8.228  0.4708  0.0727 -0.2838
 4341SOL    HW224660   2.572   0.986   8.205  2.9672  0.0129 -0.6636
 4342SOL     OW24661   3.455   0.039   2.114 -1.1605  0.1856  0.0178
 4342SOL    HW124662   3.511   0.062   2.040 -0.1049 -2.2305  0.0599
 4342SOL    HW224663   3.526   0.028   2.177 -0.3924 -1.3767 -1.1146
 4343SOL     OW24664   2.744   1.190   7.663  0.1518 -0.4059 -0.1628
 4343SOL    HW124665   2.692   1.156   7.590 -1.1772  0.1100  0.5451
 4343SOL    HW224666   2.706   1.145   7.738  1.1756  0.3124  0.7941
 4344SOL     OW24667   3.043   3.906   1.073  0.0317  0.2046  0.1265
 4344SOL    HW124668   2.959   3.863   1.087  0.1902 -1.1464 -2.9136
 4344SOL    HW224669   3.033   3.971   1.141 -0.5226  0.6438 -0.3749
 4345SOL     OW24670   1.586   4.697  17.269 -0.1675  0.5329 -0.0540
 4345SOL    HW124671   1.649   4.698  17.341  2.0309 -0.3394 -1.9852
 4345SOL    HW224672   1.643   4.666  17.199 -0.5638  0.1694 -0.2180
 4346SOL     OW24673   4.363   3.114   8.679 -0.5729  0.2649  0.1457
 4346SOL    HW124674   4.328   3.087   8.764 -1.9010 -0.3340 -0.6002
 4346SOL    HW224675   4.304   3.075   8.615 -1.9764 -0.3074  1.7988
 4347SOL     OW24676   4.237   0.580  12.625 -0.1994  0.1669  0.2095
 4347SOL    HW124677   4.150   0.616  12.640  0.1723  1.0199  0.3531
 4347SOL    HW224678   4.266   0.554  12.712 -2.1074  1.7573  1.3146
 4348SOL     OW24679   1.812   0.647   8.993 -0.0066 -0.8018 -0.2250
 4348SOL    HW124680   1.760   0.690   9.061  1.0823 -0.7298  0.5629
 4348SOL    HW224681   1.867   0.717   8.958 -1.2004  0.9431  1.3453
 4349SOL     OW24682   2.986   1.449  10.681 -0.8621 -0.3280  0.0842
 4349SOL    HW124683   3.005   1.355  10.673 -0.4834 -0.3717  1.4619
 4349SOL    HW224684   2.999   1.465  10.774 -1.9244 -3.7780  0.8365
 4350SOL     OW24685   4.678   1.287   0.878 -0.0390  0.3056 -0.5066
 4350SOL    HW124686   4.718   1.371   0.900  0.5565 -0.2891  0.6366
 4350SOL    HW224687   4.700   1.282   0.785  0.3883 -1.8611 -0.2791
 4351SOL     OW24688   1.381   2.733   9.034  0.2055 -0.2419  0.1406
 4351SOL    HW124689   1.461   2.680   9.034  0.1447 -0.3353 -0.3779
 4351SOL    HW224690   1.419   2.820   9.021  1.7952 -1.0597 -0.6822
 4352SOL     OW24691   1.630   3.260   2.084  0.0411  0.0657 -0.0891
 4352SOL    HW124692   1.598   3.338   2.128  1.6221  1.5858 -1.6488
 4352SOL    HW224693   1.667   3.206   2.154  1.3695  2.3346  0.9514
 4353SOL     OW24694   4.126   4.331  15.759 -0.2996 -0.0962  0.3843
 4353SOL    HW124695   4.111   4.242  15.789  0.3347 -0.2029  0.3638
 4353SOL    HW224696   4.063   4.334  15.686  0.4530 -0.2017 -0.2658
 4354SOL     OW24697   4.011   3.487   3.551 -0.3125 -0.1118 -0.3462
 4354SOL    HW124698   4.008   3.466   3.457 -1.5805  1.0600 -0.5665
 4354SOL    HW224699   4.059   3.412   3.585  1.2926  0.5613 -1.0943
 4355SOL     OW24700   3.103   1.418   4.406 -0.5983 -0.5568  0.1504
 4355SOL    HW124701   3.188   1.375   4.418 -0.3223 -0.0193  0.0923
 4355SOL    HW224702   3.132   1.508   4.418 -1.3795 -0.5733  2.1118
 4356SOL     OW24703   1.403   1.390  11.753 -0.1154 -0.2925  0.1167
 4356SOL    HW124704   1.439   1.303  11.734 -0.1377  0.4604 -3.4071
 4356SOL    HW224705   1.319   1.396  11.707  0.2319  0.6020 -0.4036
 4357SOL     OW24706   1.450   0.573   8.626  0.3977 -0.2350 -0.6504
 4357SOL    HW124707   1.404   0.506   8.676  0.0742 -0.4099 -1.1856
 4357SOL    HW224708   1.448   0.526   8.543  2.7522 -1.1082 -0.2158
 4358SOL     OW24709   1.391   4.057   1.662  0.0047 -0.4640 -0.1845
 4358SOL    HW124710   1.462   4.027   1.718 -0.4025  1.3371  1.2943
 4358SOL    HW224711   1.346   4.105   1.731  2.9291  1.7612  0.1787
 4359SOL     OW24712   0.081   3.321   4.449 -0.4182  0.0660  0.4678
 4359SOL    HW124713   0.152   3.335   4.386  0.6347  0.3996  1.7238
 4359SOL    HW224714   0.009   3.310   4.387  1.8963 -0.2416 -2.1783
 4360SOL     OW24715   2.407   2.940  14.150 -0.2047  0.2292 -0.2189
 4360SOL    HW124716   2.423   2.927  14.056  1.2566  0.8542 -0.0553
 4360SOL    HW224717   2.380   2.857  14.190 -0.8927  1.5394  2.0200
 4361SOL     OW24718   4.476   3.389   6.300 -0.5432  0.0284  0.4410
 4361SOL    HW124719   4.517   3.412   6.383  0.9105 -0.8790 -0.0297
 4361SOL    HW224720   4.531   3.440   6.240  0.0454 -0.0125  0.9465
 4362SOL     OW24721   2.408   1.435  16.516  0.0093  0.2217  0.0740
 4362SOL    HW124722   2.480   1.396  16.565 -0.7563  0.3861  1.3365
 4362SOL    HW224723   2.350   1.362  16.538 -2.0135  1.4570 -1.1752
 4363SOL     OW24724   2.797   2.299   3.605  0.6411 -0.5077 -0.3636
 4363SOL    HW124725   2.784   2.293   3.699  0.3618 -1.5681 -0.4725
 4363SOL    HW224726   2.710   2.328   3.575  1.3160 -0.2919 -2.1162
 4364SOL     OW24727   3.160   4.211   2.688  0.2496 -0.4205 -0.1139
 4364SOL    HW124728   3.210   4.226   2.607  1.1338  0.2784  0.5648
 4364SOL    HW224729   3.156   4.116   2.697 -0.0699 -0.3837  0.1115
 4365SOL     OW24730   2.526   2.986   4.465 -0.4687  0.4950 -0.7996
 4365SOL    HW124731   2.535   2.925   4.392  2.3853  0.5081 -0.4541
 4365SOL    HW224732   2.592   2.946   4.522  0.2139 -0.3303 -2.1724
 4366SOL     OW24733   2.608   0.004   4.290 -0.0991 -0.4419  0.1497
 4366SOL    HW124734   2.535   4.688   4.324  0.5503 -1.1796  0.3893
 4366SOL    HW224735   2.555   0.083   4.275 -0.2583 -1.0978 -2.7107
 4367SOL     OW24736   1.985   1.004   5.897 -0.2141  0.2500  0.3277
 4367SOL    HW124737   2.022   1.088   5.869 -0.5832 -0.3182 -1.8214
 4367SOL    HW224738   1.899   1.016   5.856  0.3670  0.0980 -0.9055
 4368SOL     OW24739   0.720   4.246   4.555  0.2884  0.6564 -0.3328
 4368SOL    HW124740   0.646   4.307   4.555 -1.3821 -1.3863  3.8962
 4368SOL    HW224741   0.697   4.189   4.627  0.4464  0.9349 -0.0605
 4369SOL     OW24742   1.435   2.199   3.384  0.2226  0.2534  0.1176
 4369SOL    HW124743   1.454   2.245   3.302  0.5864 -2.3717 -1.2371
 4369SOL    HW224744   1.364   2.259   3.409 -1.1738 -1.3579  0.0196
 4370SOL     OW24745   1.966   3.307   1.758  0.1507  0.0533 -0.5644
 4370SOL    HW124746   1.930   3.263   1.835 -0.1640 -2.2750 -2.0361
 4370SOL    HW224747   1.999   3.228   1.714 -0.6213 -1.1133  0.9496
 4371SOL     OW24748   0.807   4.086   7.639  0.2671 -0.0411  0.2579
 4371SOL    HW124749   0.851   4.112   7.558  0.1739 -1.0371 -0.1074
 4371SOL    HW224750   0.721   4.124   7.617  0.1266 -1.5625 -1.7856
 4372SOL     OW24751   3.874   2.650   4.110  0.2932  0.2954  0.3188
 4372SOL    HW124752   3.915   2.696   4.036  1.3008 -1.9924 -0.5342
 4372SOL    HW224753   3.799   2.605   4.073  0.3330  0.0391  0.5500
 4373SOL     OW24754   1.511   1.129   5.415 -0.1832  0.3308 -0.3527
 4373SOL    HW124755   1.426   1.161   5.386 -0.3950  0.8793  0.8581
 4373SOL    HW224756   1.532   1.085   5.333 -0.1598  0.6386 -0.5143
 4374SOL     OW24757   3.236   3.272   2.662 -0.0412 -0.4201 -0.2100
 4374SOL    HW124758   3.304   3.208   2.641  2.5136  2.2480 -0.0751
 4374SOL    HW224759   3.193   3.283   2.577 -1.5418 -1.3216  0.4377
 4375SOL     OW24760   1.057   4.270   3.697 -0.4649 -0.3996 -0.0453
 4375SOL    HW124761   1.100   4.186   3.679 -1.3537 -0.7051 -0.7485
 4375SOL    HW224762   1.005   4.248   3.774  2.2734 -0.3970  1.8052
 4376SOL     OW24763   3.840   2.046   0.665 -0.1948  0.1331 -0.1048
 4376SOL    HW124764   3.781   2.121   0.668  0.0882  0.3706 -0.3952
 4376SOL    HW224765   3.920   2.077   0.707 -0.8630 -1.2651  2.1889
 4377SOL     OW24766   4.468   3.561   4.773 -0.3568  0.1608  0.0152
 4377SOL    HW124767   4.406   3.492   4.796  1.1695 -1.3083 -0.2978
 4377SOL    HW224768   4.416   3.600   4.703  0.5990  2.8642  0.8256
 4378SOL     OW24769   3.052   1.127   1.879 -0.5122 -0.5548 -0.5603
 4378SOL    HW124770   3.046   1.034   1.902  0.8752 -0.2782  0.9572
 4378SOL    HW224771   3.135   1.117   1.834  0.2062  0.1708  0.5922
 4379SOL     OW24772   4.651   1.947  11.250  0.2060  0.1069  0.0201
 4379SOL    HW124773   4.626   1.880  11.187 -2.2601  1.3994 -0.3761
 4379SOL    HW224774   4.565   1.966  11.287  0.1871  0.2280 -0.0871
 4380SOL     OW24775   0.635   2.665   3.683 -0.2380  0.1243 -0.0477
 4380SOL    HW124776   0.627   2.599   3.752  0.7573 -0.6474 -0.6633
 4380SOL    HW224777   0.726   2.645   3.661  0.3630  2.4814  0.3410
 4381SOL     OW24778   3.424   4.671   3.556  0.3204 -0.3044  0.1098
 4381SOL    HW124779   3.484   4.601   3.530 -0.5557 -0.3724 -1.7313
 4381SOL    HW224780   3.370   4.633   3.625  0.9490  0.2774  0.9293
 4382SOL     OW24781   2.441   0.803  14.864  0.3964 -0.0201  0.0473
 4382SOL    HW124782   2.384   0.841  14.930  2.0833  1.2303  0.7861
 4382SOL    HW224783   2.413   0.711  14.870 -2.3771  0.7097 -2.0920
 4383SOL     OW24784   0.544   1.259   5.594  0.5521  0.5453  0.2268
 4383SOL    HW124785   0.458   1.276   5.632  1.4885 -0.1898  2.6949
 4383SOL    HW224786   0.540   1.170   5.559 -1.2772  0.5495  0.4571
 4384SOL     OW24787   2.277   4.356  16.606 -0.1681 -0.4112 -0.5448
 4384SOL    HW124788   2.199   4.410  16.613  0.6811  0.6306  0.9726
 4384SOL    HW224789   2.257   4.268  16.638  1.3287 -0.3648  0.5168
 4385SOL     OW24790   3.997   1.975  11.774  0.6377 -0.0256 -0.3870
 4385SOL    HW124791   4.088   1.961  11.749  0.7843  0.5150 -0.1564
 4385SOL    HW224792   4.007   1.987  11.868 -1.3063 -0.5276 -0.1197
 4386SOL     OW24793   3.987   4.029  11.960 -0.3429  0.0696  0.2547
 4386SOL    HW124794   3.918   4.093  11.949 -0.1625  0.3908  0.9763
 4386SOL    HW224795   4.013   4.063  12.046  0.9759 -1.5334  0.4881
 4387SOL     OW24796   1.059   2.480  15.113  0.1148 -0.4544 -0.4002
 4387SOL    HW124797   1.082   2.572  15.099  0.1640 -0.1499  1.7410
 4387SOL    HW224798   0.964   2.483  15.100  0.1394 -0.7260 -0.6417
 4388SOL     OW24799   3.458   1.775   2.152  0.5901  0.7670  0.1093
 4388SOL    HW124800   3.408   1.763   2.072  1.9842  0.6898 -0.7526
 4388SOL    HW224801   3.398   1.771   2.226 -1.0461 -0.9808 -1.3247
 4389SOL     OW24802   0.147   0.126   6.375 -0.2425  0.3215 -0.1903
 4389SOL    HW124803   0.139   0.191   6.444  0.1449 -2.1701  2.2035
 4389SOL    HW224804   0.063   0.080   6.372  0.4156 -0.9385  0.6798
 4390SOL     OW24805   2.706   1.891   6.367  0.8462  0.1897 -0.0510
 4390SOL    HW124806   2.791   1.935   6.363  0.7052  0.3276 -1.4122
 4390SOL    HW224807   2.679   1.917   6.455 -0.8850 -2.7354  0.2882
 4391SOL     OW24808   0.805   2.097   3.083 -0.2085  0.0048  0.7433
 4391SOL    HW124809   0.777   2.019   3.131  0.8558  0.9242  2.8348
 4391SOL    HW224810   0.828   2.067   2.995  4.0048 -0.7700  2.0919
 4392SOL     OW24811   0.687   4.229   6.815  0.7168  0.0689 -0.1059
 4392SOL    HW124812   0.728   4.294   6.873 -1.7823  0.6499  1.0261
 4392SOL    HW224813   0.758   4.200   6.759  0.3869  1.5757 -1.3004
 4393SOL     OW24814   1.491   4.026   9.747  0.4647 -0.2809 -0.7245
 4393SOL    HW124815   1.575   4.063   9.775 -0.1750  1.0047 -0.5228
 4393SOL    HW224816   1.448   4.024   9.832 -0.8679 -0.2953 -1.4013
 4394SOL     OW24817   2.447   3.135   4.704 -0.3228  0.2255 -0.3448
 4394SOL    HW124818   2.420   3.047   4.730  3.1363 -0.1136  2.1668
 4394SOL    HW224819   2.497   3.126   4.623  3.1666 -0.8948  1.8994
 4395SOL     OW24820   0.635   2.106   1.916 -0.6718 -0.1701  0.0521
 4395SOL    HW124821   0.601   2.100   1.826 -1.0232  0.9468  0.1094
 4395SOL    HW224822   0.683   2.024   1.926  0.5653  0.6046  0.4729
 4396SOL     OW24823   2.145   3.913   3.384 -0.4304 -0.4793  0.2248
 4396SOL    HW124824   2.190   3.944   3.305 -1.8730 -0.2535 -0.4954
 4396SOL    HW224825   2.060   3.954   3.371 -0.5910 -1.1874 -0.9521
 4397SOL     OW24826   1.415   3.443   1.321  0.2766  0.1287 -0.2194
 4397SOL    HW124827   1.459   3.527   1.310 -1.4991  0.9813 -0.8870
 4397SOL    HW224828   1.388   3.453   1.412 -0.1150 -0.4186 -0.2710
 4398SOL     OW24829   3.686   0.264  17.047  0.3078 -0.0658 -0.1656
 4398SOL    HW124830   3.711   0.203  17.117  0.1585  0.6956  0.5522
 4398SOL    HW224831   3.602   0.225  17.026  1.5295 -1.5484 -2.3451
 4399SOL     OW24832   2.511   0.877  11.285  0.7576  0.3875  0.3576
 4399SOL    HW124833   2.492   0.957  11.237  0.8244  1.2950  1.8575
 4399SOL    HW224834   2.486   0.900  11.374  1.5642 -0.2400  0.7512
 4400SOL     OW24835   2.900   0.267   8.227 -0.1065  0.5791  0.0145
 4400SOL    HW124836   2.869   0.195   8.283  1.9284  0.2001  0.6685
 4400SOL    HW224837   2.966   0.311   8.282  1.7806 -2.4506  0.2011
 4401SOL     OW24838   1.352   3.483   5.005 -0.3923 -0.2217  0.4943
 4401SOL    HW124839   1.348   3.518   4.916  2.5121 -0.5332  0.2314
 4401SOL    HW224840   1.347   3.388   4.997 -0.6885 -0.1470 -0.1704
 4402SOL     OW24841   4.726   3.585   6.386  0.1208 -0.1808  0.1746
 4402SOL    HW124842   4.674   3.530   6.445 -1.1642 -0.5075 -1.2326
 4402SOL    HW224843   4.671   3.662   6.373  1.4224  0.4872 -1.3652
 4403SOL     OW24844   3.001   0.654   3.448 -0.2107  0.0831  0.3044
 4403SOL    HW124845   3.064   0.600   3.400  1.7273  0.6096  2.2239
 4403SOL    HW224846   2.921   0.603   3.442 -0.5527  0.6940 -0.3573
 4404SOL     OW24847   1.671   2.217   0.257  0.3438  0.3202 -0.4468
 4404SOL    HW124848   1.693   2.263   0.176  0.2318 -1.7047 -1.6494
 4404SOL    HW224849   1.578   2.195   0.260  0.4198 -0.1864 -1.7234
 4405SOL     OW24850   2.322   0.470   2.918  0.6574  0.3754 -0.3938
 4405SOL    HW124851   2.388   0.461   2.987 -0.6698  0.0644  0.8490
 4405SOL    HW224852   2.250   0.479   2.981 -1.2445 -1.7535 -2.2513
 4406SOL     OW24853   0.016   3.151   4.740 -0.3706 -0.2367  0.2593
 4406SOL    HW124854   0.058   3.143   4.825 -0.1065  2.3017  0.3916
 4406SOL    HW224855   0.059   3.234   4.718 -0.3089  0.4260  2.9036
 4407SOL     OW24856   1.062   1.891   5.017 -0.4341 -0.2555 -0.7081
 4407SOL    HW124857   1.119   1.818   4.996  0.1788 -0.2474  0.9786
 4407SOL    HW224858   1.111   1.942   5.081 -2.3534  1.0274 -0.2342
 4408SOL     OW24859   3.923   2.164   6.753  0.0043 -0.0539  0.3297
 4408SOL    HW124860   3.946   2.178   6.661  2.1071  0.6867  0.9778
 4408SOL    HW224861   3.989   2.101   6.783 -0.8420 -0.6179  1.0189
 4409SOL     OW24862   0.128   3.282   3.466 -0.2436  0.1035  0.1205
 4409SOL    HW124863   0.197   3.234   3.422 -0.4499 -1.7885  1.8515
 4409SOL    HW224864   0.092   3.221   3.530 -0.0585 -1.2207 -1.0506
 4410SOL     OW24865   3.745   1.135   5.733  0.3259  0.4769 -0.1394
 4410SOL    HW124866   3.695   1.201   5.782 -2.5010  0.0826 -2.4786
 4410SOL    HW224867   3.829   1.152   5.776 -0.2203  0.5393  0.9094
 4411SOL     OW24868   2.898   2.293  17.068  0.1478 -0.4021  0.0144
 4411SOL    HW124869   2.860   2.380  17.057  1.1983 -0.0907 -1.0828
 4411SOL    HW224870   2.870   2.245  16.990 -0.8828 -0.0724  0.1856
 4412SOL     OW24871   2.823   0.524  16.503  0.1174  0.2380  0.1573
 4412SOL    HW124872   2.887   0.586  16.539 -2.2241  1.4095  2.2487
 4412SOL    HW224873   2.811   0.474  16.584  0.4671 -1.0051 -0.5465
 4413SOL     OW24874   2.919   0.760  10.765 -0.5182  0.3523 -0.0157
 4413SOL    HW124875   2.883   0.781  10.679 -1.1596  1.2423  0.4664
 4413SOL    HW224876   3.003   0.724  10.736 -0.7315 -0.4753  0.3861
 4414SOL     OW24877   0.230   2.649   2.617  0.4097 -0.0939  0.1701
 4414SOL    HW124878   0.201   2.738   2.601 -0.2077  0.0966  2.3742
 4414SOL    HW224879   0.165   2.603   2.564  1.2601  1.1265 -1.9171
 4415SOL     OW24880   3.502   0.834   1.113 -0.0889  0.0332 -0.2949
 4415SOL    HW124881   3.575   0.782   1.080 -0.4489  0.9830 -2.5218
 4415SOL    HW224882   3.508   0.906   1.051 -3.1752 -0.3830 -1.0702
 4416SOL     OW24883   4.024   3.324  11.613  0.3548  0.3521 -0.4750
 4416SOL    HW124884   4.001   3.232  11.626 -0.2623  0.5108 -0.4302
 4416SOL    HW224885   3.942   3.367  11.639 -0.4239 -0.6309 -1.2740
 4417SOL     OW24886   2.206   4.426   8.071  0.1742 -0.5969 -0.2059
 4417SOL    HW124887   2.159   4.397   7.992  3.8547  0.2309 -2.7216
 4417SOL    HW224888   2.178   4.517   8.080  3.3449  0.2209  1.4638
 4418SOL     OW24889   1.692   3.214   9.889  0.0437  0.0995 -0.2846
 4418SOL    HW124890   1.614   3.269   9.897  0.0834 -0.1099  1.5614
 4418SOL    HW224891   1.656   3.146   9.832  0.1953 -0.1386 -0.0959
 4419SOL     OW24892   1.254   3.983   4.249 -0.0309  0.0144 -0.1678
 4419SOL    HW124893   1.178   3.995   4.193 -1.7001  1.0287  2.3113
 4419SOL    HW224894   1.233   4.051   4.313  0.9381 -0.6211  0.8363
 4420SOL     OW24895   2.272   2.528   4.928  0.1915  0.0310 -0.0110
 4420SOL    HW124896   2.233   2.441   4.916  0.1634 -0.0138  0.4136
 4420SOL    HW224897   2.272   2.527   5.024  2.2079 -0.5978 -0.0125
 4421SOL     OW24898   1.892   3.532  12.541 -0.1817 -0.0249 -0.4843
 4421SOL    HW124899   1.985   3.511  12.555 -0.4220 -0.8034 -0.0550
 4421SOL    HW224900   1.867   3.554  12.630 -0.0430  0.7280 -0.6273
 4422SOL     OW24901   4.017   2.683  12.351  0.4711 -0.5711 -0.5245
 4422SOL    HW124902   3.951   2.627  12.310 -1.1263  0.7582  0.2134
 4422SOL    HW224903   3.950   2.732  12.400  4.1044  2.6418  1.1924
 4423SOL     OW24904   0.880   3.218   8.120 -0.3352  0.8455  0.0926
 4423SOL    HW124905   0.852   3.206   8.029  0.4020  0.5109 -0.0937
 4423SOL    HW224906   0.935   3.293   8.097 -0.5058  0.7576 -0.5934
 4424SOL     OW24907   0.563   4.015   6.503 -0.1114  0.5855  0.3119
 4424SOL    HW124908   0.523   4.047   6.423  2.0899 -1.2340 -1.4994
 4424SOL    HW224909   0.528   4.079   6.565  1.1441  0.6964  0.9064
 4425SOL     OW24910   3.780   2.882   5.456  0.2823 -0.4970 -0.1177
 4425SOL    HW124911   3.753   2.850   5.370 -0.5356  1.6016 -0.6508
 4425SOL    HW224912   3.701   2.924   5.490  3.5514  1.0319  5.6630
 4426SOL     OW24913   1.341   4.271  11.972 -0.0491  0.0639 -0.3238
 4426SOL    HW124914   1.427   4.247  12.007  0.9071  0.9993 -2.0407
 4426SOL    HW224915   1.331   4.215  11.895  0.5318 -0.0596 -0.3107
 4427SOL     OW24916   0.170   4.619   6.915 -0.5137  0.1966 -0.3123
 4427SOL    HW124917   0.075   4.617   6.910 -0.4734 -1.4490 -0.5420
 4427SOL    HW224918   0.183   4.657   7.002 -0.0498  3.6958 -1.9466
 4428SOL     OW24919   0.675   2.036   1.254  0.5464  0.1028 -0.5462
 4428SOL    HW124920   0.705   2.112   1.303  0.1640  0.3073 -0.6285
 4428SOL    HW224921   0.757   1.990   1.235  0.1879 -0.1139 -1.5734
 4429SOL     OW24922   2.414   4.131   7.349  0.6164 -0.5018  0.4791
 4429SOL    HW124923   2.408   4.036   7.337 -2.1724 -0.2194 -0.3721
 4429SOL    HW224924   2.322   4.155   7.361 -0.4507 -3.9411 -0.9526
 4430SOL     OW24925   4.492   2.517   4.290 -0.0591 -0.2373  0.2594
 4430SOL    HW124926   4.540   2.476   4.362 -1.0134 -1.6465  0.1036
 4430SOL    HW224927   4.417   2.551   4.339  0.4545  1.0706  0.1227
 4431SOL     OW24928   0.919   1.817   9.151 -0.3643  0.1197 -0.2806
 4431SOL    HW124929   0.942   1.754   9.220 -0.7668  0.8230  0.5035
 4431SOL    HW224930   0.912   1.892   9.211 -0.9008  0.5834 -0.9351
 4432SOL     OW24931   0.917   4.090   3.846  0.2973 -0.0913  0.2566
 4432SOL    HW124932   0.891   4.009   3.801  0.0106 -0.2338  0.6752
 4432SOL    HW224933   0.844   4.096   3.907  0.2381  1.6746  0.0069
 4433SOL     OW24934   3.714   1.185   0.249  0.2450  0.3981 -0.6412
 4433SOL    HW124935   3.736   1.220   0.162  0.4242  2.3688  0.1941
 4433SOL    HW224936   3.681   1.265   0.289  0.0038 -0.1035  0.1577
 4434SOL     OW24937   3.280   3.318   4.347  0.0373 -0.0715  0.1942
 4434SOL    HW124938   3.374   3.311   4.366  0.2691  1.6049 -0.3232
 4434SOL    HW224939   3.261   3.226   4.333 -0.9069  0.1026  0.3458
 4435SOL     OW24940   3.536   3.560   7.998 -0.0132 -0.3214 -0.1616
 4435SOL    HW124941   3.481   3.519   8.065  1.7585  0.3950  1.7427
 4435SOL    HW224942   3.626   3.557   8.032 -0.5096 -0.2271  1.1892
 4436SOL     OW24943   3.077   2.908   6.295  0.6956  0.1203  0.1957
 4436SOL    HW124944   3.134   2.979   6.265 -1.5489  1.8990  0.1444
 4436SOL    HW224945   3.104   2.883   6.383  0.9140 -0.5947 -0.0800
 4437SOL     OW24946   3.156   2.514   8.758 -0.5044  0.1462 -0.4685
 4437SOL    HW124947   3.099   2.470   8.694 -0.2283 -0.8972  0.0011
 4437SOL    HW224948   3.241   2.508   8.715 -0.8359 -1.5711 -0.9132
 4438SOL     OW24949   3.173   3.356   6.728  0.1827  0.1816 -0.0580
 4438SOL    HW124950   3.161   3.279   6.672  1.2851  1.2385 -1.7323
 4438SOL    HW224951   3.178   3.311   6.812  2.4818  0.9382  0.1935
 4439SOL     OW24952   1.671   1.588  13.769 -0.3275 -0.8965 -0.7809
 4439SOL    HW124953   1.719   1.568  13.849 -1.7888 -0.3958  0.2403
 4439SOL    HW224954   1.633   1.674  13.789 -1.2224 -2.0220  2.4842
 4440SOL     OW24955   2.742   0.129  14.609 -0.5415  0.1798  0.1835
 4440SOL    HW124956   2.678   0.062  14.584 -0.5047 -0.7772  2.6597
 4440SOL    HW224957   2.790   0.086  14.680  0.0708  1.1217  0.3289
 4441SOL     OW24958   2.757   2.564   0.407 -0.1970  0.3308 -0.4580
 4441SOL    HW124959   2.720   2.621   0.475 -0.3941  1.6997 -1.7179
 4441SOL    HW224960   2.730   2.606   0.326 -0.6675  0.2476 -0.3458
 4442SOL     OW24961   2.448   2.186   6.360  0.3070 -0.0918  0.2028
 4442SOL    HW124962   2.408   2.113   6.408  0.9693 -0.4119  0.2731
 4442SOL    HW224963   2.437   2.251   6.429  0.5970 -0.5561  0.6860
 4443SOL     OW24964   0.567   2.155   5.334  0.0063  0.4877 -0.1463
 4443SOL    HW124965   0.624   2.087   5.297 -0.9323 -0.1417 -0.4301
 4443SOL    HW224966   0.605   2.167   5.421  1.8975 -3.4588 -0.4002
 4444SOL     OW24967   0.669   2.618   7.997 -0.4000 -0.1036  0.4254
 4444SOL    HW124968   0.586   2.570   8.000  0.5063 -1.7119 -0.2672
 4444SOL    HW224969   0.713   2.568   8.066 -1.1514  0.2483  1.1636
 4445SOL     OW24970   0.709   0.196   6.096  0.0831 -0.3121 -0.1195
 4445SOL    HW124971   0.800   0.192   6.124 -0.2233 -0.8796  0.7742
 4445SOL    HW224972   0.675   0.121   6.144  0.7800 -0.2910  0.4069
 4446SOL     OW24973   3.894   1.270   3.037 -0.1893  0.0874  0.0776
 4446SOL    HW124974   3.849   1.303   2.959  1.9554  1.0065 -0.7766
 4446SOL    HW224975   3.834   1.197   3.053  1.7781 -1.0791  2.1372
 4447SOL     OW24976   4.673   2.311   4.757  0.1887 -0.0098  0.0659
 4447SOL    HW124977   4.583   2.345   4.757 -0.0838 -0.7274 -0.1951
 4447SOL    HW224978   4.674   2.230   4.706 -4.0741  0.3719 -0.5988
 4448SOL     OW24979   3.471   4.299  14.493  0.9523  0.0631  0.0290
 4448SOL    HW124980   3.475   4.389  14.461  1.6466  0.1791  0.4196
 4448SOL    HW224981   3.546   4.266  14.444 -1.1288 -2.4579 -1.4154
 4449SOL     OW24982   2.617   0.951   6.518 -0.5483 -0.1299  0.6333
 4449SOL    HW124983   2.556   1.004   6.466  0.9039 -0.1323 -1.0723
 4449SOL    HW224984   2.702   0.975   6.481 -0.2987  0.9332  1.8878
 4450SOL     OW24985   1.745   2.599   8.704 -0.3035 -0.1793  0.0574
 4450SOL    HW124986   1.679   2.617   8.637  0.1304  0.5622 -0.1782
 4450SOL    HW224987   1.806   2.541   8.659 -0.0090 -0.3703  0.7116
 4451SOL     OW24988   4.659   1.095   1.092 -1.1397  0.2274  0.4164
 4451SOL    HW124989   4.666   1.133   1.005 -1.1287  1.1945  0.8405
 4451SOL    HW224990   4.680   1.169   1.149  1.9527 -1.3494  1.2883
 4452SOL     OW24991   0.100   1.019   2.791 -0.8214  0.8187  0.0393
 4452SOL    HW124992   0.051   0.938   2.773 -0.3359  0.7828 -1.1067
 4452SOL    HW224993   0.082   1.037   2.884 -1.3680 -0.8175  0.2661
 4453SOL     OW24994   0.349   4.486   2.626 -0.1319 -0.1361 -0.2479
 4453SOL    HW124995   0.364   4.486   2.720  1.5526 -1.3135 -0.5185
 4453SOL    HW224996   0.261   4.454   2.609 -0.2417  0.3357 -0.5765
 4454SOL     OW24997   4.278   1.596   6.148 -0.4183  0.2708  0.0103
 4454SOL    HW124998   4.238   1.655   6.084  0.9806  1.4569  0.2196
 4454SOL    HW224999   4.310   1.529   6.088 -0.2578  0.0490  0.3439
 4455SOL     OW25000   1.846   0.248  13.938  0.0203  0.5193 -0.0002
 4455SOL    HW125001   1.752   0.264  13.944 -0.0079  0.9760 -1.5368
 4455SOL    HW225002   1.850   0.181  14.006 -0.3275 -0.7326 -1.2099
 4456SOL     OW25003   1.972   3.702   0.943 -0.3703  0.1213 -0.3168
 4456SOL    HW125004   1.974   3.694   1.038  1.8748 -0.1429 -0.3837
 4456SOL    HW225005   2.009   3.787   0.918 -0.5756  0.6810  1.3045
 4457SOL     OW25006   2.978   1.886   4.934  0.1933  0.3713 -0.3212
 4457SOL    HW125007   2.988   1.847   4.847 -0.2968 -1.4323  0.4160
 4457SOL    HW225008   2.887   1.867   4.957 -0.2850  2.4715 -0.5297
 4458SOL     OW25009   0.504   1.579   2.879  0.1802  0.2143  0.1484
 4458SOL    HW125010   0.476   1.533   2.958 -0.5870 -0.6337 -0.6271
 4458SOL    HW225011   0.436   1.645   2.867  2.4885  2.2666 -1.6824
 4459SOL     OW25012   2.007   3.666  16.639 -0.2964  0.0423 -0.5425
 4459SOL    HW125013   2.081   3.608  16.618  1.1058  1.0494  1.5212
 4459SOL    HW225014   2.053   3.723  16.701 -0.7715 -0.1034 -0.0534
 4460SOL     OW25015   0.071   2.313   4.118 -0.0763 -0.1882 -0.3153
 4460SOL    HW125016   0.106   2.224   4.112 -0.2270 -0.2659 -0.0407
 4460SOL    HW225017   0.054   2.337   4.027 -0.4261  0.6799 -0.0198
 4461SOL     OW25018   3.411   2.898   8.017 -0.2787 -0.1260 -0.4241
 4461SOL    HW125019   3.470   2.825   8.037  1.3753  0.5606 -2.7649
 4461SOL    HW225020   3.458   2.967   8.063  1.2278 -0.7730 -0.9975
 4462SOL     OW25021   1.352   2.765   2.238 -0.0505 -0.2838  0.7313
 4462SOL    HW125022   1.419   2.718   2.287 -0.5960 -1.1756  0.6302
 4462SOL    HW225023   1.291   2.770   2.312 -0.8736 -1.1069  0.1125
 4463SOL     OW25024   0.945   3.406   9.043 -0.0934  0.0802  0.1726
 4463SOL    HW125025   0.962   3.376   8.954  2.7370  0.3731  0.5912
 4463SOL    HW225026   0.859   3.366   9.054 -1.0121  1.8784 -0.3925
 4464SOL     OW25027   0.131   4.623  14.926 -0.1783  0.2142  0.2765
 4464SOL    HW125028   0.042   4.637  14.894  0.0408 -0.3228 -0.5574
 4464SOL    HW225029   0.121   4.552  14.990 -0.9828  0.8653  0.8679
 4465SOL     OW25030   2.097   2.123  10.538 -0.0184  0.2125  0.0518
 4465SOL    HW125031   2.014   2.135  10.583  0.2345  0.8234  0.3598
 4465SOL    HW225032   2.136   2.210  10.540 -2.4954  1.3168 -0.1710
 4466SOL     OW25033   3.859   3.926   4.697  0.0190 -0.0903  0.3665
 4466SOL    HW125034   3.914   3.969   4.763  1.0537 -2.3740  0.9959
 4466SOL    HW225035   3.925   3.870   4.657  2.2630  2.4376  0.5084
 4467SOL     OW25036   3.530   2.518  10.828 -0.6932  0.1507  0.1278
 4467SOL    HW125037   3.601   2.476  10.877 -0.0758 -0.9010 -1.7091
 4467SOL    HW225038   3.580   2.560  10.758  0.5133  0.4557  1.1559
 4468SOL     OW25039   2.536   2.392   3.551  0.6839 -0.0233  0.1977
 4468SOL    HW125040   2.481   2.469   3.539  0.4963 -0.3437 -1.0023
 4468SOL    HW225041   2.554   2.366   3.461 -1.5497  0.8200 -0.4721
 4469SOL     OW25042   2.588   2.986   6.764 -0.2027  0.2068 -0.2527
 4469SOL    HW125043   2.547   3.063   6.724 -2.5435 -1.6365 -1.4023
 4469SOL    HW225044   2.511   2.934   6.787  0.0370 -0.6486 -1.3863
 4470SOL     OW25045   1.588   1.098   2.705 -0.5144 -0.0008 -0.5794
 4470SOL    HW125046   1.523   1.168   2.696 -2.1080 -1.2763  1.0288
 4470SOL    HW225047   1.527   1.024   2.708 -1.7519  1.1224  1.7531
 4471SOL     OW25048   3.294   1.116   1.767 -0.1243 -0.2403 -0.0994
 4471SOL    HW125049   3.383   1.151   1.762  0.3714 -1.1015  2.5427
 4471SOL    HW225050   3.316   1.032   1.727 -0.7460 -0.2900 -0.3400
 4472SOL     OW25051   0.440   1.466   1.745 -0.1925  0.3421 -0.0706
 4472SOL    HW125052   0.389   1.424   1.815  0.3137 -1.9186 -1.0676
 4472SOL    HW225053   0.413   1.556   1.764  1.5069  1.3820 -2.6047
 4473SOL     OW25054   1.284   1.723   4.974 -0.0529  0.0577 -0.1953
 4473SOL    HW125055   1.354   1.679   4.927  1.4874 -0.9129  3.0013
 4473SOL    HW225056   1.305   1.814   4.955 -0.2167 -0.0373 -0.8325
 4474SOL     OW25057   2.314   3.781   8.316  0.1318 -0.2679  0.2247
 4474SOL    HW125058   2.373   3.771   8.240  0.9989 -1.3953  1.0438
 4474SOL    HW225059   2.246   3.725   8.278 -0.9088  0.0901  1.5818
 4475SOL     OW25060   0.989   1.996   7.269  0.0281  0.3712 -0.8019
 4475SOL    HW125061   0.959   2.049   7.195  0.0850  0.4452 -0.7723
 4475SOL    HW225062   0.951   1.909   7.257 -0.5066  0.4795  0.0943
 4476SOL     OW25063   0.386   0.991  15.777  0.2509 -0.0574  0.4378
 4476SOL    HW125064   0.408   0.900  15.798  0.7558  0.1707  0.8944
 4476SOL    HW225065   0.464   1.037  15.807  1.5694 -1.5665 -0.6286
 4477SOL     OW25066   2.337   1.589   7.039  0.0319 -0.3591  0.2087
 4477SOL    HW125067   2.399   1.602   7.111  2.1622 -1.4910 -1.4256
 4477SOL    HW225068   2.270   1.652   7.067  3.0846  1.6801  2.9381
 4478SOL     OW25069   1.042   1.740  15.388  0.4128 -0.2635 -0.3872
 4478SOL    HW125070   1.010   1.650  15.380 -2.3386  0.3832  3.4145
 4478SOL    HW225071   1.081   1.743  15.301  0.8236  1.1996 -0.1529
 4479SOL     OW25072   4.367   0.469   6.470  0.1713 -0.8383 -0.5625
 4479SOL    HW125073   4.404   0.556   6.454  0.1040 -0.6028  0.5480
 4479SOL    HW225074   4.325   0.449   6.386 -0.2528  0.9715 -0.7891
 4480SOL     OW25075   2.380   1.973   0.085 -0.1991 -0.8673 -0.2685
 4480SOL    HW125076   2.311   2.026   0.126  1.4419  1.5735 -0.6863
 4480SOL    HW225077   2.454   2.015   0.129 -1.0003 -2.1019  2.2914
 4481SOL     OW25078   1.535   0.114   6.937  0.3267  0.3288  0.6374
 4481SOL    HW125079   1.559   0.033   6.894 -1.9912  0.2259 -0.4946
 4481SOL    HW225080   1.471   0.155   6.878 -0.4053 -3.1586 -0.9975
 4482SOL     OW25081   3.857   1.323   6.900 -0.5698  0.2261  0.1161
 4482SOL    HW125082   3.909   1.335   6.979  2.1274  1.5271 -1.8277
 4482SOL    HW225083   3.928   1.288   6.846 -0.8716 -0.2452  0.0217
 4483SOL     OW25084   2.378   4.542   4.193 -0.5019 -0.2298  0.2407
 4483SOL    HW125085   2.438   4.610   4.163 -2.0066  1.3541  0.8385
 4483SOL    HW225086   2.338   4.515   4.111  0.8619  0.4094 -0.6461
 4484SOL     OW25087   0.078   3.073   3.669 -0.2858 -0.5978 -0.2322
 4484SOL    HW125088   0.103   3.094   3.759 -3.8324  1.7082  0.2106
 4484SOL    HW225089   0.124   2.990   3.661 -0.8288 -0.8199 -1.1017
 4485SOL     OW25090   4.717   1.856   6.325  0.2039 -0.2609  0.4791
 4485SOL    HW125091   0.020   1.938   6.356  1.1978 -0.3502 -0.5518
 4485SOL    HW225092   0.016   1.797   6.392 -0.1257 -0.8156  0.1592
 4486SOL     OW25093   4.443   0.870   2.842  0.2853 -0.2938  0.8369
 4486SOL    HW125094   4.441   0.807   2.769  1.1838 -0.4205  0.9130
 4486SOL    HW225095   4.359   0.914   2.838 -0.0329 -1.4473 -4.9592
 4487SOL     OW25096   0.345   3.118   3.329  0.1480  0.0234  1.0835
 4487SOL    HW125097   0.282   3.045   3.331 -0.4228  0.5236  1.3626
 4487SOL    HW225098   0.355   3.120   3.234  0.4306  1.0690  1.1340
 4488SOL     OW25099   2.941   3.727   9.471  0.2085  0.1013 -0.0508
 4488SOL    HW125100   2.920   3.759   9.559  0.8274 -0.1364  0.1882
 4488SOL    HW225101   2.902   3.640   9.484  1.7262 -0.5327  0.2619
 4489SOL     OW25102   0.033   1.304   9.352  0.2441 -0.2705 -0.1897
 4489SOL    HW125103   0.065   1.216   9.335  1.3371  0.0958 -0.0209
 4489SOL    HW225104   4.692   1.299   9.295 -0.2393 -0.1925  0.4563
 4490SOL     OW25105   3.300   2.348   7.440 -0.1305  0.5002  0.2872
 4490SOL    HW125106   3.323   2.386   7.524  0.8535  0.3990  0.0588
 4490SOL    HW225107   3.274   2.426   7.391  0.9008  0.5926 -0.1034
 4491SOL     OW25108   1.085   0.940   3.418  0.3913 -0.2367 -0.1934
 4491SOL    HW125109   1.082   1.005   3.488  1.5071  0.0710 -0.4344
 4491SOL    HW225110   1.066   0.993   3.341 -0.6229 -0.9790 -0.4523
 4492SOL     OW25111   3.995   3.123   8.016 -0.3453 -0.0325  0.2157
 4492SOL    HW125112   4.050   3.126   7.937 -0.1906  2.3483  0.4339
 4492SOL    HW225113   4.001   3.215   8.042  1.1184  0.0551 -0.4069
 4493SOL     OW25114   3.158   0.307  14.698  0.3150 -0.5683  0.3948
 4493SOL    HW125115   3.200   0.385  14.736 -1.0089 -0.5003  1.7140
 4493SOL    HW225116   3.109   0.353  14.630  0.4977  2.1453  2.0790
 4494SOL     OW25117   2.475   3.993   2.648 -0.1558  0.1101  0.2427
 4494SOL    HW125118   2.422   3.932   2.701 -0.6111  0.0271 -0.3092
 4494SOL    HW225119   2.480   4.071   2.704  0.5378  0.4455 -0.2844
 4495SOL     OW25120   2.614   1.107   2.676 -0.3224  0.0298 -0.3250
 4495SOL    HW125121   2.636   1.193   2.712  1.2311 -0.0839 -1.0121
 4495SOL    HW225122   2.598   1.059   2.758  1.7927 -2.1141 -1.1611
 4496SOL     OW25123   1.653   2.694   5.907  0.2064 -0.1255  0.0834
 4496SOL    HW125124   1.605   2.612   5.918  1.6497 -0.6344  2.5708
 4496SOL    HW225125   1.622   2.730   5.990  0.1525 -1.8446  0.8041
 4497SOL     OW25126   4.573   0.995   8.887  0.1872 -0.0707 -0.3909
 4497SOL    HW125127   4.535   0.948   8.961  0.0209 -0.4988 -0.7466
 4497SOL    HW225128   4.593   0.923   8.827 -0.3444  1.8429 -2.8818
 4498SOL     OW25129   3.463   0.983   4.789 -0.2721  0.2662  0.0342
 4498SOL    HW125130   3.553   1.009   4.809 -0.8135  1.5862  0.7321
 4498SOL    HW225131   3.434   0.929   4.863  0.1134  0.3278  0.2272
 4499SOL     OW25132   4.150   0.349   3.325  0.2791 -0.1174 -0.1896
 4499SOL    HW125133   4.085   0.346   3.395  3.1267 -3.1952  2.3205
 4499SOL    HW225134   4.188   0.432   3.354  1.1043 -0.1493 -1.1752
 4500SOL     OW25135   4.373   4.089  14.855 -0.1531 -0.4907 -0.0121
 4500SOL    HW125136   4.281   4.061  14.860 -0.5460  0.7796 -0.3027
 4500SOL    HW225137   4.394   4.061  14.766 -3.7877  1.8631 -1.5962
 4501SOL     OW25138   3.904   0.602   8.884 -0.1107  0.1034 -0.0815
 4501SOL    HW125139   3.822   0.644   8.911 -0.4462 -0.5499 -0.0699
 4501SOL    HW225140   3.925   0.632   8.796 -2.2186  1.5098 -0.0967
 4502SOL     OW25141   2.258   1.607   5.293 -0.0519 -0.0247 -0.1643
 4502SOL    HW125142   2.319   1.678   5.274  0.8571 -0.8467 -0.3142
 4502SOL    HW225143   2.321   1.543   5.328  0.4418 -0.5550 -2.0283
 4503SOL     OW25144   0.637   2.096   9.349 -0.0794  0.0639 -0.3519
 4503SOL    HW125145   0.632   2.034   9.276  0.7574  1.6846 -1.7878
 4503SOL    HW225146   0.684   2.167   9.307 -0.2455  1.3930  1.7077
 4504SOL     OW25147   0.456   3.755   8.018  0.1134 -0.1626  0.3514
 4504SOL    HW125148   0.364   3.773   8.034 -0.0375 -2.5276  2.1246
 4504SOL    HW225149   0.490   3.730   8.104  0.3308 -0.7779  0.0954
 4505SOL     OW25150   3.181   4.039   4.713  0.0219  0.0259  0.7009
 4505SOL    HW125151   3.101   4.011   4.668  0.9332 -0.7597 -0.4349
 4505SOL    HW225152   3.171   4.133   4.727  2.1440  0.2990  0.3292
 4506SOL     OW25153   0.136   3.521  14.162 -0.6353  0.5131  0.0878
 4506SOL    HW125154   0.119   3.440  14.113 -0.8868  0.7687 -0.2464
 4506SOL    HW225155   0.052   3.565  14.171 -0.5449  0.6556  0.2308
 4507SOL     OW25156   4.012   1.799   9.036 -0.3896  0.1807  0.1918
 4507SOL    HW125157   4.040   1.763   8.952 -2.0020  0.6356 -0.5226
 4507SOL    HW225158   4.008   1.893   9.025 -0.2584  0.3569  1.5688
 4508SOL     OW25159   4.292   0.442  12.863 -0.1174  0.6854 -0.5927
 4508SOL    HW125160   4.318   0.358  12.826  1.4564  0.2636  1.4887
 4508SOL    HW225161   4.369   0.468  12.914 -0.8947 -0.1618  1.0081
 4509SOL     OW25162   2.914   0.741   0.413  0.0962  0.0228  0.6148
 4509SOL    HW125163   2.833   0.789   0.431  0.0063 -0.6379  1.9529
 4509SOL    HW225164   2.957   0.778   0.335 -0.3409  1.0277  0.8419
 4510SOL     OW25165   3.595   3.221  17.699  0.1372  0.3882 -0.3175
 4510SOL    HW125166   3.574   3.192  17.611 -0.5034 -2.1096  0.6552
 4510SOL    HW225167   3.508   3.201  17.735 -0.0924 -0.1899 -1.1926
 4511SOL     OW25168   4.016   1.670   5.027 -0.2906 -0.2723 -0.5309
 4511SOL    HW125169   3.921   1.664   5.024 -0.4778  0.8774  2.7640
 4511SOL    HW225170   4.038   1.629   4.943  2.9719  1.8383 -0.7267
 4512SOL     OW25171   3.644   4.444   6.938  0.1410 -0.0749 -0.0863
 4512SOL    HW125172   3.568   4.500   6.954  0.4573 -0.0053  1.2292
 4512SOL    HW225173   3.663   4.384   7.011 -3.4232 -0.9498  0.1018
 4513SOL     OW25174   1.148   4.237   6.344  0.0261  0.1356 -0.6044
 4513SOL    HW125175   1.114   4.195   6.265  1.0251 -0.9407 -0.4548
 4513SOL    HW225176   1.242   4.222   6.344  0.0905  0.6295 -3.5007
 4514SOL     OW25177   4.179   1.198  11.147 -0.2957  0.2338 -0.3486
 4514SOL    HW125178   4.229   1.166  11.071 -0.3917  2.0903 -1.1881
 4514SOL    HW225179   4.242   1.247  11.201 -1.2782  0.0067  0.9973
 4515SOL     OW25180   0.306   0.069  14.978 -0.7636  0.1524 -0.3667
 4515SOL    HW125181   0.323   0.071  15.072 -3.0361 -1.1104  0.0722
 4515SOL    HW225182   0.231   0.011  14.970  2.2988 -3.8475 -0.3827
 4516SOL     OW25183   0.898   2.241   5.181  0.4888 -0.7656  0.0683
 4516SOL    HW125184   0.875   2.185   5.255 -1.6918  0.7560  0.5503
 4516SOL    HW225185   0.875   2.179   5.111  1.4389 -1.1245  0.0774
 4517SOL     OW25186   1.791   3.843   1.361 -0.2608 -0.1144  0.2520
 4517SOL    HW125187   1.759   3.905   1.427  1.7314  0.1586  0.9434
 4517SOL    HW225188   1.717   3.782   1.353 -1.2455  0.8553  1.8349
 4518SOL     OW25189   2.252   2.495   5.196 -0.4338 -0.2983  0.5435
 4518SOL    HW125190   2.183   2.429   5.203 -0.7551 -0.2131 -1.9465
 4518SOL    HW225191   2.270   2.517   5.287  1.9774 -0.6638  0.1615
 4519SOL     OW25192   2.897   2.146   7.846 -0.3471 -0.3389 -0.1403
 4519SOL    HW125193   2.954   2.187   7.912 -1.6708  0.9011  0.2118
 4519SOL    HW225194   2.964   2.111   7.787 -1.8609 -1.4095 -1.2090
 4520SOL     OW25195   4.324   3.143   2.544 -0.0299  0.1725 -0.0200
 4520SOL    HW125196   4.340   3.130   2.450  2.7186  2.3016  0.1440
 4520SOL    HW225197   4.237   3.107   2.560  1.3573 -2.6057  1.2149
 4521SOL     OW25198   2.456   1.926   7.245 -0.0087 -0.0253 -0.2757
 4521SOL    HW125199   2.386   1.939   7.310  0.9684 -0.2435  0.8149
 4521SOL    HW225200   2.526   1.980   7.282 -0.7091  1.0944 -0.5668
 4522SOL     OW25201   1.873   2.980   2.627  0.7274 -0.8045 -0.2534
 4522SOL    HW125202   1.817   3.041   2.675 -0.3288 -0.7982 -1.4947
 4522SOL    HW225203   1.950   3.036   2.619 -1.6560  2.4698 -0.4136
 4523SOL     OW25204   2.348   0.168   9.719  0.3275  0.1553 -0.2501
 4523SOL    HW125205   2.430   0.135   9.682  1.7171  2.1750  1.0496
 4523SOL    HW225206   2.324   0.219   9.642  0.1058  0.0037 -0.2834
 4524SOL     OW25207   1.737   4.604   1.053 -0.3216 -0.0428  0.3322
 4524SOL    HW125208   1.760   4.661   0.980  1.4433  0.5788  1.3491
 4524SOL    HW225209   1.722   4.669   1.122 -2.3334  0.8530 -0.9485
 4525SOL     OW25210   0.323   0.767   3.287  0.5739 -0.1344  0.2224
 4525SOL    HW125211   0.293   0.730   3.204 -0.2855 -0.5224  0.6983
 4525SOL    HW225212   0.313   0.861   3.271  1.2545 -0.1869 -0.5347
 4526SOL     OW25213   1.801   1.087  17.406 -0.2672  0.1551 -0.1514
 4526SOL    HW125214   1.824   1.129  17.323  0.9643  0.3815  0.3049
 4526SOL    HW225215   1.847   1.145  17.467 -1.5187  1.4336 -0.4285
 4527SOL     OW25216   4.002   1.336   5.839  0.0105 -0.3172  0.2583
 4527SOL    HW125217   4.033   1.365   5.925 -1.2923  0.4081  0.4785
 4527SOL    HW225218   3.946   1.408   5.811  0.0221  0.6397  2.6758
 4528SOL     OW25219   1.394   3.834   6.966 -0.0052 -0.0745  0.0063
 4528SOL    HW125220   1.444   3.766   7.012  0.0748  2.5521  3.7558
 4528SOL    HW225221   1.311   3.817   7.011  0.1904 -1.3646 -0.1023
 4529SOL     OW25222   4.068   2.389   6.335 -0.1002 -0.2561 -0.0349
 4529SOL    HW125223   4.009   2.425   6.401  2.5111  0.4926  1.8814
 4529SOL    HW225224   4.136   2.457   6.334 -0.6874  0.3999  2.7558
 4530SOL     OW25225   4.041   2.083  14.344 -0.7459 -0.2082 -0.2588
 4530SOL    HW125226   4.039   2.056  14.252 -0.6206  0.9773 -0.6136
 4530SOL    HW225227   3.976   2.025  14.384 -0.9945  0.6716  0.6263
 4531SOL     OW25228   3.294   2.859   8.637 -0.2441  0.1730  0.0599
 4531SOL    HW125229   3.337   2.930   8.683 -1.4180 -0.4765  2.1569
 4531SOL    HW225230   3.351   2.785   8.660  0.8512  0.6095 -1.2859
 4532SOL     OW25231   0.565   2.584  12.799 -0.0415  0.2051  0.4276
 4532SOL    HW125232   0.634   2.645  12.774  1.2086 -0.6866  1.7148
 4532SOL    HW225233   0.586   2.513  12.738 -1.0866  0.4080 -0.1647
 4533SOL     OW25234   0.871   3.809   9.585 -0.3058  0.2697 -0.6150
 4533SOL    HW125235   0.820   3.850   9.655 -1.1339  0.2804 -1.2321
 4533SOL    HW225236   0.948   3.787   9.637 -0.0473 -0.6040 -1.3873
 4534SOL     OW25237   4.267   3.524  11.793 -0.5010 -0.5974 -0.5535
 4534SOL    HW125238   4.209   3.598  11.775  1.2765  1.6408  2.8635
 4534SOL    HW225239   4.287   3.547  11.884  3.5312  1.1755 -1.8857
 4535SOL     OW25240   0.208   2.326   9.266 -0.0664 -0.2951  0.0507
 4535SOL    HW125241   0.217   2.242   9.221  2.8106 -0.2571  0.5550
 4535SOL    HW225242   0.181   2.382   9.193  1.5075  1.4667  0.8268
 4536SOL     OW25243   3.816   2.635   6.267  0.2503  0.7442 -0.7893
 4536SOL    HW125244   3.741   2.584   6.298  2.5571 -2.3523 -0.2311
 4536SOL    HW225245   3.884   2.579   6.306 -0.0443  1.1220  0.2639
 4537SOL     OW25246   2.745   1.605   6.422  0.4789 -0.7636  0.5912
 4537SOL    HW125247   2.740   1.698   6.401  0.3011 -0.8886  0.0969
 4537SOL    HW225248   2.653   1.600   6.449  0.9214 -2.1579  1.8561
 4538SOL     OW25249   2.881   0.758   6.477  0.5763 -0.0998  0.1392
 4538SOL    HW125250   2.949   0.699   6.446  2.1535  2.4332 -1.2568
 4538SOL    HW225251   2.875   0.821   6.405 -1.1915 -0.1095  0.2719
 4539SOL     OW25252   1.991   4.343   4.513  0.5912  0.4607 -0.0357
 4539SOL    HW125253   1.912   4.305   4.552 -3.2958  5.0820 -3.4468
 4539SOL    HW225254   2.040   4.366   4.592  3.1118 -0.5635 -1.3078
 4540SOL     OW25255   4.018   3.663   7.734 -0.1085 -0.3151 -0.6328
 4540SOL    HW125256   3.963   3.732   7.698  0.8681  0.2554 -1.0209
 4540SOL    HW225257   4.095   3.718   7.740 -1.5152  1.7355 -1.4529
 4541SOL     OW25258   0.454   1.350   6.527 -0.3725  0.5849  0.0510
 4541SOL    HW125259   0.437   1.397   6.445 -1.0929  3.4182  1.8142
 4541SOL    HW225260   0.373   1.298   6.533  0.5672 -1.0234 -1.2605
 4542SOL     OW25261   3.970   4.620   8.846  0.1004  0.1149  0.8451
 4542SOL    HW125262   3.946   4.560   8.917 -0.5110  1.1255  1.4847
 4542SOL    HW225263   3.922   4.579   8.774 -1.6954 -0.1435  2.1809
 4543SOL     OW25264   0.925   2.920  10.526 -0.0220 -0.4151  0.2507
 4543SOL    HW125265   0.838   2.891  10.553 -0.0372  1.2985  2.0739
 4543SOL    HW225266   0.973   2.882  10.600  0.8072 -0.4467 -0.3012
 4544SOL     OW25267   3.784   4.094   8.441  0.1128 -0.1310 -0.0567
 4544SOL    HW125268   3.869   4.056   8.418 -0.6136 -0.7349 -1.7189
 4544SOL    HW225269   3.815   4.181   8.468 -0.1451 -0.9163  2.7924
 4545SOL     OW25270   2.301   3.007  15.749  0.3486  0.7138 -0.2967
 4545SOL    HW125271   2.319   3.002  15.655  1.8884  2.5205 -0.1054
 4545SOL    HW225272   2.217   3.054  15.747 -0.9491 -1.5286  1.8490
 4546SOL     OW25273   2.263   0.413   5.640  0.3061  0.1649  0.2015
 4546SOL    HW125274   2.324   0.484   5.659 -0.3434  0.0302  2.7764
 4546SOL    HW225275   2.283   0.389   5.550 -0.1958  0.4712  0.0066
 4547SOL     OW25276   1.721   4.482  15.709 -0.2689 -0.2507 -0.3810
 4547SOL    HW125277   1.633   4.444  15.706 -0.2217 -0.3412 -0.6870
 4547SOL    HW225278   1.732   4.477  15.804 -1.7113  1.8043 -0.1131
 4548SOL     OW25279   3.985   2.493   8.871 -0.2348 -0.2440 -0.0580
 4548SOL    HW125280   3.988   2.451   8.786  0.4476 -0.5855  0.1349
 4548SOL    HW225281   4.064   2.545   8.856 -1.5387  1.8562  0.3320
 4549SOL     OW25282   1.796   2.779   6.398 -1.0376 -0.3125  0.0253
 4549SOL    HW125283   1.739   2.720   6.448 -1.9175  0.6322  0.1414
 4549SOL    HW225284   1.881   2.778   6.441 -0.7892  1.5068 -0.4416
 4550SOL     OW25285   4.720   2.720   4.993 -0.1067  0.3130 -0.4524
 4550SOL    HW125286   4.633   2.701   5.027 -0.9535 -2.3762 -4.1292
 4550SOL    HW225287   0.030   2.646   5.031  0.4104  0.2434 -1.2038
 4551SOL     OW25288   0.164   3.138  11.816  0.9467  0.0878  0.2173
 4551SOL    HW125289   0.178   3.208  11.879 -0.7050  2.1937 -1.7658
 4551SOL    HW225290   0.079   3.161  11.778  1.5372 -0.1325 -1.2235
 4552SOL     OW25291   4.437   0.401   9.094 -0.8812  0.3472  0.5859
 4552SOL    HW125292   4.523   0.362   9.077 -0.2419  2.4083 -0.8646
 4552SOL    HW225293   4.457   0.458   9.167  0.3079  0.0480  0.5011
 4553SOL     OW25294   2.910   4.075   3.916 -0.0820  0.4095 -0.5829
 4553SOL    HW125295   2.926   3.982   3.900  1.3518  0.8230 -1.5420
 4553SOL    HW225296   2.840   4.070   3.981 -1.5698  1.1587 -2.1409
 4554SOL     OW25297   1.267   3.332   8.233  0.1425 -0.5192 -0.1388
 4554SOL    HW125298   1.208   3.381   8.291  1.9266 -0.4954  1.6656
 4554SOL    HW225299   1.248   3.367   8.146 -1.7307 -2.8427 -0.6576
 4555SOL     OW25300   0.205   0.189   0.638  0.2302 -0.2474 -0.0961
 4555SOL    HW125301   0.279   0.226   0.687  0.0937  0.3443 -0.3323
 4555SOL    HW225302   0.234   0.210   0.549 -1.6386  0.6710 -0.4929
 4556SOL     OW25303   2.439   1.907   0.483 -0.1656  0.6079 -0.2918
 4556SOL    HW125304   2.356   1.868   0.455 -0.4050  2.6179 -2.3902
 4556SOL    HW225305   2.501   1.839   0.458  0.2885 -0.1933  3.0083
 4557SOL     OW25306   3.949   0.577   6.902 -0.8531 -0.3510  0.2606
 4557SOL    HW125307   3.996   0.598   6.983 -1.2781 -0.0671  0.4325
 4557SOL    HW225308   3.861   0.569   6.938 -0.6243 -1.5663  0.5825
 4558SOL     OW25309   3.647   1.793   6.791 -0.3961  0.0949  0.9147
 4558SOL    HW125310   3.674   1.798   6.700  0.1577  0.6806  1.1052
 4558SOL    HW225311   3.680   1.705   6.810 -0.2973 -0.0026  0.2682
 4559SOL     OW25312   2.105   0.023  11.746  0.1900 -0.4244 -0.4033
 4559SOL    HW125313   2.032   0.045  11.804 -0.4509 -1.9902 -0.6199
 4559SOL    HW225314   2.120   0.107  11.702 -0.7561 -1.5144 -2.7680
 4560SOL     OW25315   2.784   0.857   9.530  0.0025  0.1704  0.1110
 4560SOL    HW125316   2.786   0.952   9.541 -1.7255  0.0835  1.0780
 4560SOL    HW225317   2.742   0.850   9.444  0.3362 -1.0064  0.0332
 4561SOL     OW25318   3.594   1.201   6.962  0.1020 -0.3109  0.0660
 4561SOL    HW125319   3.581   1.106   6.963  0.2344 -0.3421 -1.0302
 4561SOL    HW225320   3.678   1.216   6.918 -1.2950  2.0363 -1.7123
 4562SOL     OW25321   3.728   3.938   4.130 -0.3789  0.3715  0.3637
 4562SOL    HW125322   3.760   3.899   4.049  3.0031  1.8725  0.9839
 4562SOL    HW225323   3.794   3.904   4.191 -0.5843  1.2011  1.0423
 4563SOL     OW25324   2.736   0.333  10.094  0.0745 -0.0625 -0.3301
 4563SOL    HW125325   2.671   0.277  10.051  0.6509  0.1874 -1.5455
 4563SOL    HW225326   2.676   0.385  10.147 -0.0224 -1.3134  0.7922
 4564SOL     OW25327   4.030   4.616   5.213  0.0820  0.4975  0.3682
 4564SOL    HW125328   4.092   4.649   5.147  1.7344 -3.5709 -0.1272
 4564SOL    HW225329   3.983   4.552   5.159  1.7715  1.1226 -1.8371
 4565SOL     OW25330   2.930   0.435   0.697  0.7759 -0.2769 -0.4663
 4565SOL    HW125331   2.870   0.424   0.771 -0.0509 -0.9495 -1.2340
 4565SOL    HW225332   3.013   0.440   0.744 -0.0295 -1.6219  1.0789
 4566SOL     OW25333   0.434   2.173  15.090 -0.0979 -0.3448 -0.4487
 4566SOL    HW125334   0.485   2.251  15.111 -1.3091  0.6370 -1.1763
 4566SOL    HW225335   0.386   2.159  15.172  1.5318 -1.8171  0.2474
 4567SOL     OW25336   3.760   0.488  11.680  0.2679 -0.7629 -0.7123
 4567SOL    HW125337   3.774   0.557  11.615  0.3422 -0.5460 -0.4650
 4567SOL    HW225338   3.690   0.528  11.731 -0.7957 -1.3639 -1.7000
 4568SOL     OW25339   1.888   1.417   2.202  0.2380  0.1252 -0.1658
 4568SOL    HW125340   1.963   1.456   2.157  1.0320  0.2325  1.2198
 4568SOL    HW225341   1.883   1.335   2.154 -0.5527 -0.9824  1.8063
 4569SOL     OW25342   1.756   0.774   0.727 -0.0218  0.3451  0.1911
 4569SOL    HW125343   1.802   0.756   0.809  0.8840 -0.0068 -0.3861
 4569SOL    HW225344   1.823   0.814   0.671 -0.7538 -0.8154 -1.5030
 4570SOL     OW25345   0.021   4.100   6.660  0.8828  0.7072  0.5727
 4570SOL    HW125346   4.718   4.104   6.573  1.2386 -1.5953  0.2986
 4570SOL    HW225347   0.114   4.091   6.636  0.5177 -1.4859 -0.0643
 4571SOL     OW25348   2.897   3.411  10.694  0.5618 -0.1986 -1.1413
 4571SOL    HW125349   2.804   3.394  10.707  0.3051  0.7260 -1.7762
 4571SOL    HW225350   2.947   3.336  10.725  2.5555  1.3623 -0.5794
 4572SOL     OW25351   3.992   2.829   5.775  0.6487  0.3173 -0.1755
 4572SOL    HW125352   3.913   2.876   5.799  0.0760  0.8367 -3.0817
 4572SOL    HW225353   4.023   2.791   5.857  2.3191  0.5875 -0.6813
 4573SOL     OW25354   4.183   1.215   4.013 -0.7549 -0.3457  0.3685
 4573SOL    HW125355   4.174   1.145   3.948  1.8535 -3.0254  2.8534
 4573SOL    HW225356   4.120   1.278   3.978 -1.6203 -1.9087 -0.8627
 4574SOL     OW25357   0.917   4.696   4.670  0.0520  0.0702 -0.2953
 4574SOL    HW125358   0.975   4.688   4.594  0.3195 -2.0525  0.1523
 4574SOL    HW225359   0.897   4.607   4.698 -1.5482  0.5563  0.1201
 4575SOL     OW25360   0.377   4.463   6.592  0.4140 -0.1793  0.6739
 4575SOL    HW125361   0.285   4.487   6.600  0.3904  0.3952 -1.3920
 4575SOL    HW225362   0.402   4.499   6.507 -1.3168  0.7394  0.5589
 4576SOL     OW25363   2.256   3.459  14.666  0.0947  0.3332  0.2760
 4576SOL    HW125364   2.188   3.398  14.639  1.9325 -1.8977  0.6983
 4576SOL    HW225365   2.207   3.541  14.653 -2.3971 -1.5183 -2.0705
 4577SOL     OW25366   2.591   3.461  17.250 -0.3764 -0.2262 -0.4990
 4577SOL    HW125367   2.592   3.478  17.156 -0.8039 -0.3036 -0.5156
 4577SOL    HW225368   2.685   3.471  17.267 -0.8319  0.6339  1.5151
 4578SOL     OW25369   1.761   0.520   6.670  0.4431 -0.3660  0.4765
 4578SOL    HW125370   1.746   0.575   6.593 -0.3431 -0.5256  0.5069
 4578SOL    HW225371   1.756   0.440   6.619 -0.0087  1.7415 -2.7867
 4579SOL     OW25372   0.417   0.501   4.827  0.1266  0.3667 -0.1767
 4579SOL    HW125373   0.425   0.589   4.789 -0.5875 -0.2703 -1.7847
 4579SOL    HW225374   0.393   0.519   4.918  1.8686  1.9736 -0.0463
 4580SOL     OW25375   2.490   3.956   3.582  0.2126 -0.0079  0.1612
 4580SOL    HW125376   2.560   3.978   3.520  1.8934 -1.0051  1.7000
 4580SOL    HW225377   2.420   4.015   3.555  0.9048  1.4670  1.5825
 4581SOL     OW25378   3.856   2.592  12.595  0.1910 -0.9651 -0.5488
 4581SOL    HW125379   3.825   2.683  12.588  0.9785 -0.6908 -0.5024
 4581SOL    HW225380   3.863   2.568  12.502 -2.1817  0.1128 -0.9992
 4582SOL     OW25381   2.484   1.464   8.531  0.3730 -0.2134  0.2177
 4582SOL    HW125382   2.457   1.544   8.576 -0.8738  0.1312 -1.1711
 4582SOL    HW225383   2.580   1.465   8.540  0.3457 -1.9625  0.6631
 4583SOL     OW25384   3.403   4.291   8.312 -0.2462  0.9544 -0.4520
 4583SOL    HW125385   3.440   4.349   8.246 -0.8349  0.2154 -1.4320
 4583SOL    HW225386   3.415   4.343   8.391  0.9511  0.8251 -0.5448
 4584SOL     OW25387   2.829   2.909   6.074  0.2751  0.1235 -0.8933
 4584SOL    HW125388   2.760   2.911   6.140  0.4029 -0.6562 -0.7293
 4584SOL    HW225389   2.905   2.923   6.131 -1.8583  0.2887  1.9163
 4585SOL     OW25390   2.518   2.972   8.436  0.7945 -0.0801  0.1633
 4585SOL    HW125391   2.504   2.923   8.518 -1.0986 -2.2736 -1.4650
 4585SOL    HW225392   2.460   3.047   8.446  0.4003 -0.2009 -1.2582
 4586SOL     OW25393   3.518   3.024   1.113  0.6280 -0.1867 -0.0318
 4586SOL    HW125394   3.510   3.029   1.017 -0.4791 -0.3400  0.0548
 4586SOL    HW225395   3.484   3.109   1.141  0.7341  0.6401 -2.3485
 4587SOL     OW25396   2.764   3.459   6.809  0.1702 -0.0776 -0.3341
 4587SOL    HW125397   2.848   3.498   6.836  1.7670 -2.5062 -1.7674
 4587SOL    HW225398   2.781   3.368   6.833  1.0689 -0.0156 -0.7210
 4588SOL     OW25399   4.266   0.822  11.557 -0.4870  0.8210  0.0802
 4588SOL    HW125400   4.335   0.756  11.560 -0.9985  0.1987 -1.9651
 4588SOL    HW225401   4.317   0.884  11.609  1.3442 -1.6815  1.2239
 4589SOL     OW25402   0.543   3.941   4.951 -0.1914 -0.4027  0.5207
 4589SOL    HW125403   0.605   3.875   4.983 -0.9511 -1.1899  0.3642
 4589SOL    HW225404   0.544   3.997   5.029 -0.9202 -0.1363  0.3350
 4590SOL     OW25405   4.422   3.383  11.612  0.4428  0.2817 -0.9120
 4590SOL    HW125406   4.372   3.437  11.674 -1.4423 -0.0138 -2.1897
 4590SOL    HW225407   4.352   3.330  11.575  1.0731 -0.9491 -0.3576
 4591SOL     OW25408   3.220   1.628   4.748  0.6163  0.2545  0.0043
 4591SOL    HW125409   3.220   1.722   4.768  1.2591  0.5612 -1.3905
 4591SOL    HW225410   3.223   1.620   4.653 -0.3501 -0.7290  0.0620
 4592SOL     OW25411   4.611   3.219   8.611  0.5433 -0.0445  0.0112
 4592SOL    HW125412   4.590   3.313   8.613  0.1668 -0.1119 -0.8883
 4592SOL    HW225413   4.528   3.179   8.637 -0.4093  2.7027  1.2318
 4593SOL     OW25414   0.731   0.027  14.704 -0.2417 -0.3604 -0.0916
 4593SOL    HW125415   0.823   0.040  14.727 -0.1484 -2.7158  0.8711
 4593SOL    HW225416   0.737   0.096  14.638 -2.9203  0.4732  0.5418
 4594SOL     OW25417   1.029   4.026  13.791  0.1550  0.5649 -0.4866
 4594SOL    HW125418   0.961   3.960  13.777  0.0336  1.0254 -2.0765
 4594SOL    HW225419   0.984   4.089  13.847  2.7866  1.8919  0.1384
 4595SOL     OW25420   4.652   1.182   7.675 -0.5898 -0.0970  0.3946
 4595SOL    HW125421   4.726   1.125   7.654  0.1383  1.1408 -0.3868
 4595SOL    HW225422   4.599   1.182   7.595  1.6244 -0.4223 -1.0595
 4596SOL     OW25423   0.070   3.691   2.357 -0.4804 -0.5730  0.3579
 4596SOL    HW125424   0.000   3.757   2.359 -0.1634 -0.1879 -1.2454
 4596SOL    HW225425   0.131   3.741   2.411 -0.9960 -0.7609  1.1114
 4597SOL     OW25426   2.206   2.342  17.146  0.3097  0.0559  0.1058
 4597SOL    HW125427   2.175   2.427  17.116  2.9680  1.3742  1.1403
 4597SOL    HW225428   2.295   2.363  17.172  0.2352  1.1947 -0.5499
 4598SOL     OW25429   3.678   1.638   0.121  0.0210 -0.1541 -0.1054
 4598SOL    HW125430   3.756   1.686   0.151  0.2386  0.1774 -1.1925
 4598SOL    HW225431   3.649   1.694   0.049  0.5408  1.1248  0.6745
 4599SOL     OW25432   3.600   1.290  14.815 -0.1743  0.2711  0.3515
 4599SOL    HW125433   3.658   1.287  14.739 -1.2796 -0.2004 -0.4821
 4599SOL    HW225434   3.518   1.299  14.766 -0.9007 -2.1321  1.0947
 4600SOL     OW25435   3.911   2.020  15.965 -0.1955 -0.5945 -0.3871
 4600SOL    HW125436   3.906   2.015  16.060 -1.6300  0.1245 -0.4215
 4600SOL    HW225437   3.966   2.096  15.946 -0.5041  0.1398  1.7675
 4601SOL     OW25438   0.234   2.801   7.682 -0.8500  0.3295  0.1816
 4601SOL    HW125439   0.197   2.864   7.620 -2.1725 -1.3287 -0.7094
 4601SOL    HW225440   0.155   2.787   7.735 -1.6230  1.0589 -0.7780
 4602SOL     OW25441   3.804   1.228   2.072 -0.0935  0.1062 -0.1328
 4602SOL    HW125442   3.880   1.236   2.130 -0.9526 -1.8070  1.2436
 4602SOL    HW225443   3.760   1.149   2.104 -0.5831 -0.1213 -1.3349
 4603SOL     OW25444   1.619   0.844  12.811  0.6847 -0.2494  0.2969
 4603SOL    HW125445   1.593   0.797  12.890 -3.7591 -0.0054 -0.9774
 4603SOL    HW225446   1.710   0.822  12.794  0.6759 -0.0766  0.0306
 4604SOL     OW25447   0.096   1.770  17.108  0.5921 -0.0871 -0.3806
 4604SOL    HW125448   0.044   1.816  17.174  0.7433 -1.2907  0.5808
 4604SOL    HW225449   0.023   1.725  17.064 -0.2802  0.2710  0.6881
 4605SOL     OW25450   3.862   2.586   7.652  0.5317 -0.5578 -0.0747
 4605SOL    HW125451   3.933   2.643   7.680  0.4433 -1.9444  2.9277
 4605SOL    HW225452   3.789   2.648   7.653  0.9233 -0.0352 -2.9728
 4606SOL     OW25453   0.015   0.452   2.314  0.1598  0.0473 -0.3314
 4606SOL    HW125454   0.056   0.434   2.399  1.6135 -0.7656 -1.2170
 4606SOL    HW225455   0.037   0.545   2.309 -2.6797  0.7583  0.1749
 4607SOL     OW25456   1.853   4.355   2.619 -0.2193  0.1387  0.2149
 4607SOL    HW125457   1.932   4.402   2.646  0.5762  1.3857 -4.2779
 4607SOL    HW225458   1.884   4.265   2.631  0.8179  0.3015 -1.1972
 4608SOL     OW25459   3.300   3.858   5.181 -0.0694  0.1467 -0.0366
 4608SOL    HW125460   3.279   3.772   5.218  0.0899 -0.1483 -0.6244
 4608SOL    HW225461   3.286   3.845   5.087  0.2358 -0.7088  0.0387
 4609SOL     OW25462   0.766   2.521   8.986 -0.3644 -0.9167 -0.1035
 4609SOL    HW125463   0.730   2.449   9.038 -0.0378  0.0074  1.3972
 4609SOL    HW225464   0.832   2.555   9.046 -0.8103 -1.1947  0.5397
 4610SOL     OW25465   0.313   1.814   8.760  0.4466 -0.0147  0.1667
 4610SOL    HW125466   0.273   1.741   8.712  1.6616 -0.4806 -0.1166
 4610SOL    HW225467   0.271   1.885   8.711 -0.3515  0.4884  1.5720
 4611SOL     OW25468   1.757   3.403   5.501  0.4257 -0.2498  0.3711
 4611SOL    HW125469   1.776   3.324   5.451  1.3911 -0.3826  0.9299
 4611SOL    HW225470   1.816   3.382   5.574 -0.3593 -0.0140  1.0752
 4612SOL     OW25471   1.790   4.634  13.929 -0.4964 -0.0015  0.2380
 4612SOL    HW125472   1.724   4.574  13.896 -2.5290  1.2860  2.0014
 4612SOL    HW225473   1.810   4.684  13.850  0.6608 -0.1794  0.4046
 4613SOL     OW25474   2.435   1.782   4.541  0.6021  0.5012 -0.0850
 4613SOL    HW125475   2.403   1.833   4.616 -1.0544  0.4048 -0.7309
 4613SOL    HW225476   2.453   1.696   4.579 -2.2599  0.0004  0.1315
 4614SOL     OW25477   2.708   0.718   6.695 -0.1484 -0.2740  0.6238
 4614SOL    HW125478   2.734   0.771   6.620 -3.2675 -2.1574 -1.7986
 4614SOL    HW225479   2.727   0.632   6.657  0.3353  0.2558 -0.3413
 4615SOL     OW25480   0.722   0.828   6.384  0.0263  0.1926  0.0488
 4615SOL    HW125481   0.806   0.853   6.344  1.6164 -2.5565  1.6163
 4615SOL    HW225482   0.716   0.736   6.357 -1.4916  0.0739  0.8155
 4616SOL     OW25483   2.360   1.312  15.620 -0.0123 -0.2643 -0.3232
 4616SOL    HW125484   2.409   1.241  15.660 -1.8479 -1.1918  0.2672
 4616SOL    HW225485   2.419   1.336  15.549  0.6837  1.5074  0.8381
 4617SOL     OW25486   1.415   4.590   7.892  0.2813 -0.0870  0.0077
 4617SOL    HW125487   1.460   4.531   7.953  0.1733  0.7748  0.9293
 4617SOL    HW225488   1.361   4.525   7.847 -0.1919  0.1853  0.1790
 4618SOL     OW25489   0.929   3.623   0.509 -0.0862 -0.0626 -0.5699
 4618SOL    HW125490   0.948   3.535   0.540 -1.1758 -0.2862 -0.5347
 4618SOL    HW225491   1.005   3.680   0.519  0.3643 -0.8081  0.1931
 4619SOL     OW25492   1.826   2.448   9.317 -0.4512 -0.1264 -0.1889
 4619SOL    HW125493   1.868   2.425   9.234  0.0438  1.6296 -0.4251
 4619SOL    HW225494   1.735   2.419   9.312 -0.6184  0.1287  1.3680
 4620SOL     OW25495   2.514   4.650   8.154  0.3880 -0.2917 -0.2562
 4620SOL    HW125496   2.505   4.653   8.059 -0.2554 -1.3563 -0.2307
 4620SOL    HW225497   2.492   4.558   8.171 -0.7718 -0.1639 -1.0224
 4621SOL     OW25498   1.282   3.844   1.415 -0.3958 -0.0825 -0.3078
 4621SOL    HW125499   1.216   3.794   1.462  1.6961 -2.7898 -0.2594
 4621SOL    HW225500   1.273   3.801   1.330  0.0086  0.0963 -0.4435
 4622SOL     OW25501   1.498   3.247   2.386  0.1104  0.0181  0.0552
 4622SOL    HW125502   1.444   3.257   2.308  1.3311  1.8554 -0.5602
 4622SOL    HW225503   1.566   3.184   2.361 -0.4390 -0.9353  0.9468
 4623SOL     OW25504   1.424   2.931   8.316 -0.1423  0.0345 -0.1349
 4623SOL    HW125505   1.464   2.845   8.308 -1.8425 -0.7320 -0.3534
 4623SOL    HW225506   1.331   2.911   8.305 -0.7728  3.3701 -0.9237
 4624SOL     OW25507   2.951   3.475   3.743  0.4509 -0.0713 -0.4871
 4624SOL    HW125508   3.044   3.500   3.747  0.3001  0.4668 -0.3823
 4624SOL    HW225509   2.910   3.551   3.785 -1.0077 -0.2510 -1.6132
 4625SOL     OW25510   3.779   0.402   6.639  0.4299 -0.4818 -0.2383
 4625SOL    HW125511   3.727   0.375   6.563 -2.7639  0.7903  1.5271
 4625SOL    HW225512   3.729   0.474   6.677  0.4708 -0.1489 -0.8196
 4626SOL     OW25513   1.051   1.433   9.148 -0.2476 -0.2806  0.3145
 4626SOL    HW125514   1.057   1.338   9.136  2.6591  0.2237 -2.4506
 4626SOL    HW225515   1.106   1.452   9.224 -0.6418  1.3385  0.1878
 4627SOL     OW25516   4.001   3.875   8.352 -0.3396 -0.0213 -0.2535
 4627SOL    HW125517   4.029   3.800   8.404  2.4935  1.1019 -0.1320
 4627SOL    HW225518   3.936   3.834   8.295 -0.1394 -1.1863  0.3602
 4628SOL     OW25519   1.100   4.225   5.682 -0.0273 -0.5855 -0.3040
 4628SOL    HW125520   1.145   4.308   5.666 -0.8562 -0.1665 -0.4451
 4628SOL    HW225521   1.166   4.185   5.739 -0.8443 -0.8505  0.4568
 4629SOL     OW25522   0.403   1.929   5.191  0.7147 -0.5439 -0.2316
 4629SOL    HW125523   0.414   1.928   5.096 -0.2733 -0.4819 -0.3409
 4629SOL    HW225524   0.364   1.843   5.202  1.7962 -0.9340  0.5964
 4630SOL     OW25525   3.680   3.602   5.408  0.3690 -0.2373 -0.4200
 4630SOL    HW125526   3.718   3.603   5.495 -0.7497 -0.0903  0.0624
 4630SOL    HW225527   3.684   3.697   5.396 -1.3584  0.0846  1.5109
 4631SOL     OW25528   2.412   0.562  12.101 -0.1578 -0.2056  0.3065
 4631SOL    HW125529   2.323   0.561  12.067 -0.2118  0.2268  0.4272
 4631SOL    HW225530   2.397   0.517  12.183 -1.1984  0.0901  0.2712
 4632SOL     OW25531   2.732   0.400   2.189  0.6439  0.8653 -0.5913
 4632SOL    HW125532   2.763   0.438   2.272 -0.5789 -0.6433  0.5545
 4632SOL    HW225533   2.667   0.468   2.171  0.0652  1.0496  2.1320
 4633SOL     OW25534   4.464   2.501  14.489 -0.3553  0.4562  0.1330
 4633SOL    HW125535   4.509   2.472  14.568  1.0858  1.3396 -0.3603
 4633SOL    HW225536   4.414   2.574  14.526  3.2609  2.1626  1.6332
 4634SOL     OW25537   4.264   4.711   7.952 -0.3994 -0.8016  0.4655
 4634SOL    HW125538   4.212   0.019   8.019 -1.9088 -0.1923 -1.1048
 4634SOL    HW225539   4.200   4.652   7.913 -0.5656  1.9596 -3.4258
 4635SOL     OW25540   3.353   3.121  12.779  0.0487  0.1365 -0.3526
 4635SOL    HW125541   3.323   3.198  12.827 -0.9974  0.0335 -0.8331
 4635SOL    HW225542   3.395   3.075  12.852  0.2320 -0.1799 -0.6559
 4636SOL     OW25543   0.063   2.016   7.825  0.2536  0.1688  0.1489
 4636SOL    HW125544   0.109   2.095   7.795 -0.9073  1.3501  1.4963
 4636SOL    HW225545   0.005   2.052   7.892  1.7822  2.3340  0.2987
 4637SOL     OW25546   1.806   4.630   8.035 -0.1545  0.1191  0.1177
 4637SOL    HW125547   1.772   4.644   7.947  1.1582  3.0417  0.0749
 4637SOL    HW225548   1.726   4.631   8.088 -0.3738  0.1400 -0.2125
 4638SOL     OW25549   4.310   0.803   5.069  0.0117  0.0468 -0.4059
 4638SOL    HW125550   4.386   0.835   5.118 -0.8591  1.2337  0.1460
 4638SOL    HW225551   4.259   0.884   5.075 -0.8340 -0.5794  0.7496
 4639SOL     OW25552   0.387   3.398   8.046  0.4158 -0.2820  0.5425
 4639SOL    HW125553   0.468   3.423   8.091 -0.2025  0.3751  1.2993
 4639SOL    HW225554   0.405   3.308   8.017 -3.1734 -0.6870 -0.4381
 4640SOL     OW25555   1.566   2.410   5.346  0.3796  0.1695 -0.3392
 4640SOL    HW125556   1.608   2.345   5.403  0.8689  0.5597 -0.2524
 4640SOL    HW225557   1.479   2.417   5.384  1.3898 -0.8356  2.1857
 4641SOL     OW25558   2.591   2.858   1.381 -0.2859 -0.2452 -0.2444
 4641SOL    HW125559   2.627   2.947   1.382  1.5609 -0.9975  0.7326
 4641SOL    HW225560   2.669   2.805   1.364 -0.0502 -0.5907  1.9834
 4642SOL     OW25561   2.404   1.979   4.722 -0.0060 -0.7156  0.1061
 4642SOL    HW125562   2.481   1.998   4.775 -0.2916 -1.1036  0.6474
 4642SOL    HW225563   2.357   2.061   4.733  0.5806 -0.2843 -0.5583
 4643SOL     OW25564   2.418   1.720   2.004  0.1610  0.4015  0.2702
 4643SOL    HW125565   2.488   1.659   1.981 -1.0886 -0.9190 -0.0651
 4643SOL    HW225566   2.416   1.730   2.099 -1.8628  3.4206 -0.1130
 4644SOL     OW25567   1.994   3.204   5.882  0.3193 -0.1364  0.2376
 4644SOL    HW125568   1.902   3.184   5.897 -0.2257  1.3608 -1.1128
 4644SOL    HW225569   1.991   3.251   5.799  4.1857  0.2396  0.3216
 4645SOL     OW25570   2.809   2.001   2.477  0.2983  0.2512  0.2062
 4645SOL    HW125571   2.870   1.962   2.414 -0.8669  1.6332 -1.7792
 4645SOL    HW225572   2.764   2.061   2.418 -1.7251 -0.8196  0.6641
 4646SOL     OW25573   4.469   1.189   8.695  0.2212 -0.9070 -0.2399
 4646SOL    HW125574   4.511   1.137   8.763  2.5319  2.6901  1.0530
 4646SOL    HW225575   4.502   1.154   8.613 -0.6328 -0.2393 -0.8697
 4647SOL     OW25576   1.998   1.272  17.528 -0.3916 -0.1189  0.4723
 4647SOL    HW125577   2.001   1.273  17.624 -0.5493  0.3800  0.4747
 4647SOL    HW225578   1.995   1.367  17.513  0.2690 -0.2949 -0.7062
 4648SOL     OW25579   0.197   1.284   0.482  0.0569  0.5325  0.0894
 4648SOL    HW125580   0.212   1.280   0.576 -0.1008  0.7543  0.1260
 4648SOL    HW225581   0.123   1.225   0.465 -0.2276  1.1016 -0.6771
 4649SOL     OW25582   2.997   3.621   1.218  0.2150  0.9620 -0.2651
 4649SOL    HW125583   2.948   3.629   1.136 -1.3676 -0.4605  0.5499
 4649SOL    HW225584   2.935   3.621   1.291 -0.8340 -3.2220 -1.1576
 4650SOL     OW25585   1.895   3.548   5.868  0.1988  0.1003  0.8081
 4650SOL    HW125586   1.846   3.466   5.865  0.0795  0.1695  0.8461
 4650SOL    HW225587   1.853   3.599   5.938  1.7207  1.4035  0.7515
 4651SOL     OW25588   4.367   0.063  15.412  0.0569  0.3496  0.0696
 4651SOL    HW125589   4.351   0.015  15.331  1.3920  1.3089 -0.7533
 4651SOL    HW225590   4.462   0.072  15.415  0.2102 -1.6260  1.8017
 4652SOL     OW25591   1.581   4.532   8.206 -0.0285  0.6387 -0.2454
 4652SOL    HW125592   1.581   4.575   8.292  1.1684  1.5196 -0.6861
 4652SOL    HW225593   1.504   4.476   8.209  1.6619 -1.5658  1.2174
 4653SOL     OW25594   3.453   3.517  14.585  0.2183  0.0507 -0.1764
 4653SOL    HW125595   3.525   3.526  14.524 -0.5205  1.9944 -0.7705
 4653SOL    HW225596   3.416   3.429  14.572  0.7378 -0.0294 -1.0781
 4654SOL     OW25597   0.364   4.098  16.010  0.4786  0.3329  0.7030
 4654SOL    HW125598   0.440   4.061  16.055  0.9626  0.4909  0.0037
 4654SOL    HW225599   0.400   4.181  15.980 -0.9717  0.6607 -0.1417
 4655SOL     OW25600   0.400   0.719  10.726 -0.1918  0.0621 -0.6155
 4655SOL    HW125601   0.417   0.808  10.758 -0.9167 -0.1191  0.2823
 4655SOL    HW225602   0.482   0.702  10.680 -1.4020 -2.5234 -1.7632
 4656SOL     OW25603   4.179   4.098   8.366 -0.1273 -0.2344 -0.0669
 4656SOL    HW125604   4.239   4.037   8.408  1.1416  0.2296 -1.1931
 4656SOL    HW225605   4.112   4.037   8.334  0.1194  0.0188 -1.0932
 4657SOL     OW25606   2.430   0.441   8.019 -0.0446 -0.2399 -0.3208
 4657SOL    HW125607   2.416   0.507   8.087  2.0400  0.9325 -1.0454
 4657SOL    HW225608   2.351   0.388   8.032 -0.8914  1.2754  0.8630
 4658SOL     OW25609   4.668   4.162   3.977 -0.6308  0.5620 -0.1753
 4658SOL    HW125610   4.608   4.117   3.918  0.3054  1.3018 -1.6784
 4658SOL    HW225611   0.004   4.186   3.919 -0.2039  3.7738  1.6582
 4659SOL     OW25612   0.834   3.058  17.155  0.5226 -0.5372  0.8051
 4659SOL    HW125613   0.924   3.026  17.155  0.4806 -0.6493 -0.1507
 4659SOL    HW225614   0.798   3.005  17.226  0.2258  2.3935  2.8749
 4660SOL     OW25615   3.475   4.524   7.236 -0.2140  0.2862 -0.5849
 4660SOL    HW125616   3.407   4.580   7.274  0.8373  0.6821  0.7290
 4660SOL    HW225617   3.473   4.558   7.146  0.0375  0.1602 -0.6363
 4661SOL     OW25618   1.597   2.539   6.749 -0.2186  0.3153  1.1336
 4661SOL    HW125619   1.502   2.538   6.745 -0.0551  0.5234 -2.3971
 4661SOL    HW225620   1.614   2.633   6.744 -1.5855  0.5576  1.1398
 4662SOL     OW25621   4.246   2.654   4.805  0.3674  0.2701  0.1135
 4662SOL    HW125622   4.243   2.607   4.722 -0.8753  1.1252 -0.3226
 4662SOL    HW225623   4.196   2.731   4.779  2.4517  1.3734 -0.6830
 4663SOL     OW25624   1.426   3.279   3.064 -0.1640 -0.9595 -0.3168
 4663SOL    HW125625   1.468   3.242   3.141  0.3262 -0.9183 -0.5652
 4663SOL    HW225626   1.373   3.201   3.047 -0.0574 -0.9626 -0.6350
 4664SOL     OW25627   3.423   2.641   1.169  0.1287  0.4668 -0.5121
 4664SOL    HW125628   3.516   2.663   1.173  0.7281 -2.1678 -0.0204
 4664SOL    HW225629   3.441   2.549   1.146  1.1518  0.4622  0.3023
 4665SOL     OW25630   3.981   1.088   5.943 -0.1729  0.1327 -0.3921
 4665SOL    HW125631   4.000   1.176   5.910  3.0976  0.1269  1.4478
 4665SOL    HW225632   3.909   1.114   6.001  0.9456  3.2874 -0.4196
 4666SOL     OW25633   1.733   3.344   7.005  0.0527  0.8311 -0.0671
 4666SOL    HW125634   1.647   3.304   6.998  0.9109 -1.2213  1.0190
 4666SOL    HW225635   1.703   3.425   6.963 -1.6074  0.8864  1.2085
 4667SOL     OW25636   1.700   2.236   5.550 -0.1600  0.0069 -0.5335
 4667SOL    HW125637   1.700   2.310   5.611 -2.6989 -0.8636  0.4831
 4667SOL    HW225638   1.639   2.173   5.587  1.5154 -0.1492  1.9444
 4668SOL     OW25639   2.822   2.671   4.917  0.0480 -0.6761  0.1883
 4668SOL    HW125640   2.762   2.663   4.991  1.3501  2.3311  1.5667
 4668SOL    HW225641   2.870   2.753   4.931 -0.0520 -0.3440 -1.3799
 4669SOL     OW25642   0.512   0.744  14.979 -0.7763  0.1871  0.4379
 4669SOL    HW125643   0.516   0.743  14.883 -3.7480 -0.5911  0.3159
 4669SOL    HW225644   0.587   0.801  14.992 -0.9100  0.2530  0.8898
 4670SOL     OW25645   4.685   0.814   4.852 -0.2634 -0.1840  0.1640
 4670SOL    HW125646   4.734   0.878   4.799 -0.7174 -0.0201 -0.0584
 4670SOL    HW225647   4.644   0.761   4.784  0.8470 -0.8773  0.0292
 4671SOL     OW25648   0.270   0.571  15.022  0.0124 -0.0648  0.3339
 4671SOL    HW125649   0.311   0.657  15.011  3.9511 -2.2335 -1.7831
 4671SOL    HW225650   0.301   0.529  14.942  1.5516  1.6367  0.0276
 4672SOL     OW25651   4.588   3.098  11.146 -0.0919  0.1449 -0.2964
 4672SOL    HW125652   4.624   3.067  11.063  1.4387  0.6730  0.1727
 4672SOL    HW225653   4.496   3.090  11.118  0.1037  0.2431 -0.9720
 4673SOL     OW25654   3.429   2.531   8.374 -0.5801 -0.0455  0.2459
 4673SOL    HW125655   3.354   2.541   8.315  0.4121  0.8899 -0.8506
 4673SOL    HW225656   3.452   2.622   8.391 -0.7092  0.5779 -2.8517
 4674SOL     OW25657   3.674   0.242  14.111  0.6377 -0.4314 -0.1253
 4674SOL    HW125658   3.679   0.284  14.197 -1.1031  1.0566 -0.7563
 4674SOL    HW225659   3.580   0.231  14.099  0.5014  0.6517 -0.0760
 4675SOL     OW25660   3.993   0.313   6.821  0.0040  0.7434 -0.0653
 4675SOL    HW125661   3.987   0.397   6.867  0.0011  1.0178 -0.5698
 4675SOL    HW225662   3.915   0.324   6.767  0.5981 -0.1281 -1.0906
 4676SOL     OW25663   0.794   1.638   5.965 -0.0975  0.3954  0.8655
 4676SOL    HW125664   0.704   1.662   5.943  0.4234  1.0055 -0.6581
 4676SOL    HW225665   0.798   1.669   6.055 -2.3017  0.6090  0.8842
 4677SOL     OW25666   2.695   2.005  17.025  0.7844 -0.3334 -0.4666
 4677SOL    HW125667   2.614   1.959  17.048  1.1432 -0.7781 -0.0889
 4677SOL    HW225668   2.686   2.031  16.933  1.7327  0.3202 -0.3848
 4678SOL     OW25669   2.763   3.975  16.727  0.1986 -0.5201 -0.1503
 4678SOL    HW125670   2.840   3.929  16.694 -0.4553  0.0243 -2.4252
 4678SOL    HW225671   2.803   4.058  16.755 -0.0491 -0.5346  0.2455
 4679SOL     OW25672   3.153   0.166   7.114 -0.5604  0.1050  0.1055
 4679SOL    HW125673   3.087   0.132   7.175  0.1312  0.5512  1.1044
 4679SOL    HW225674   3.106   0.206   7.041 -1.4244  2.3437  1.8820
 4680SOL     OW25675   2.204   2.651  17.191  0.0490  0.1013 -0.0757
 4680SOL    HW125676   2.293   2.672  17.218  0.2283 -2.1787  1.0487
 4680SOL    HW225677   2.150   2.678  17.266 -0.6446  1.8574 -1.2098
 4681SOL     OW25678   2.897   4.156   6.617  0.1327 -0.2029 -0.3606
 4681SOL    HW125679   2.951   4.216   6.565  0.1051 -1.2033 -1.5127
 4681SOL    HW225680   2.867   4.227   6.675  0.3489  0.4949 -1.1022
 4682SOL     OW25681   4.698   4.361   7.325 -0.2658  0.0433 -0.7696
 4682SOL    HW125682   4.731   4.446   7.295 -0.6756 -0.3125 -2.2497
 4682SOL    HW225683   4.639   4.392   7.395 -0.4001  0.3818 -1.0303
 4683SOL     OW25684   0.303   4.480   8.668 -0.6581 -0.1767 -0.6068
 4683SOL    HW125685   0.262   4.561   8.638  1.6161  1.0454 -0.4788
 4683SOL    HW225686   0.339   4.441   8.589  0.2589  0.7505 -0.6600
 4684SOL     OW25687   3.915   2.701   6.010  0.0223 -0.0214 -0.5373
 4684SOL    HW125688   3.900   2.663   6.097  2.9893  1.7272  0.7584
 4684SOL    HW225689   3.872   2.786   6.021 -2.2356 -1.2888  0.3900
 4685SOL     OW25690   3.637   0.537   4.156  0.1364 -0.0071  0.2797
 4685SOL    HW125691   3.614   0.548   4.248 -1.8616  2.1201 -0.4683
 4685SOL    HW225692   3.731   0.552   4.164 -0.0320  0.2151  1.8732
 4686SOL     OW25693   1.920   4.440   3.959  0.3237  0.3793  0.9313
 4686SOL    HW125694   1.850   4.505   3.958  0.5940  0.6582  0.0155
 4686SOL    HW225695   1.927   4.435   3.864  0.7688  0.4177  0.9648
 4687SOL     OW25696   0.733   2.218   6.041  0.6463 -0.3672  0.1311
 4687SOL    HW125697   0.786   2.232   5.963 -0.6268  1.6514 -0.3467
 4687SOL    HW225698   0.720   2.304   6.081 -0.6567 -1.2748  1.7181
 4688SOL     OW25699   2.535   3.636   5.349 -0.8519 -0.4763 -0.1276
 4688SOL    HW125700   2.626   3.663   5.347 -1.2241  0.7464 -0.9136
 4688SOL    HW225701   2.501   3.666   5.265  0.4767  1.9718  0.2063
 4689SOL     OW25702   4.657   2.822   4.205  0.1827 -0.2312  0.0389
 4689SOL    HW125703   4.616   2.763   4.141  0.8245 -3.4572  2.6688
 4689SOL    HW225704   4.575   2.835   4.252  0.1626 -0.9455  0.1983
 4690SOL     OW25705   0.732   2.236  14.564  0.0730  0.3532 -0.2933
 4690SOL    HW125706   0.760   2.218  14.474 -1.1428 -0.3348 -0.5322
 4690SOL    HW225707   0.814   2.247  14.613 -0.7527 -1.8127  1.5516
 4691SOL     OW25708   2.430   4.513   9.232 -0.6195  0.6395 -0.7578
 4691SOL    HW125709   2.513   4.503   9.184 -1.3852 -1.2708 -1.7006
 4691SOL    HW225710   2.377   4.521   9.153  0.9546  1.0998 -1.7882
 4692SOL     OW25711   3.979   0.116   0.513  0.4508  0.1384  0.4640
 4692SOL    HW125712   3.983   0.204   0.474  0.1674 -0.3311 -0.6071
 4692SOL    HW225713   4.060   0.075   0.484  0.2660 -0.5745  0.9622
 4693SOL     OW25714   3.194   4.331  14.677  0.3181  0.5554  0.0226
 4693SOL    HW125715   3.222   4.266  14.612  2.6753  1.9105 -0.3309
 4693SOL    HW225716   3.235   4.299  14.758  2.8747  2.2574 -0.5857
 4694SOL     OW25717   4.336   0.350   8.866 -0.8282  0.0566 -0.3882
 4694SOL    HW125718   4.396   0.279   8.844 -0.7347 -0.4994  1.6409
 4694SOL    HW225719   4.356   0.366   8.959 -0.0847 -3.6991  0.0762
 4695SOL     OW25720   4.087   3.738   4.641  0.0164 -0.1787 -0.8554
 4695SOL    HW125721   4.128   3.665   4.688 -0.7926  0.1771  0.4146
 4695SOL    HW225722   4.034   3.689   4.578 -2.1129 -0.2419  1.0041
 4696SOL     OW25723   1.896   2.735   8.100 -0.6737  0.7516  0.4095
 4696SOL    HW125724   1.829   2.798   8.075  0.2033  1.3841 -0.3654
 4696SOL    HW225725   1.903   2.757   8.193  0.0447  0.0349  0.5248
 4697SOL     OW25726   1.682   3.334   8.412 -0.5767  0.2498 -0.5632
 4697SOL    HW125727   1.670   3.426   8.435 -0.2478 -0.0580  0.7883
 4697SOL    HW225728   1.601   3.290   8.439 -0.7164 -0.1152 -1.5766
 4698SOL     OW25729   3.193   4.409   5.158 -0.4175 -0.0680 -0.0625
 4698SOL    HW125730   3.201   4.446   5.070 -0.3509  1.3577  0.5440
 4698SOL    HW225731   3.281   4.372   5.166 -0.9379 -1.3790 -0.4075
 4699SOL     OW25732   3.414   1.035  15.677 -0.3769  0.0476  0.0690
 4699SOL    HW125733   3.480   1.103  15.695 -0.7352  0.2758  0.5079
 4699SOL    HW225734   3.367   1.037  15.760 -0.9088 -0.0833 -0.2290
 4700SOL     OW25735   3.242   2.051   6.382  0.2410 -0.8091 -0.5656
 4700SOL    HW125736   3.305   2.037   6.453 -1.3615 -0.9662  0.8364
 4700SOL    HW225737   3.300   2.033   6.309  0.5731 -2.1261  0.0147
 4701SOL     OW25738   1.135   2.201   6.279 -0.3264 -0.3031 -0.3735
 4701SOL    HW125739   1.167   2.215   6.190 -0.0972  0.6682 -0.1364
 4701SOL    HW225740   1.090   2.117   6.271 -0.7929  0.0054 -1.0281
 4702SOL     OW25741   2.999   0.087   2.123  0.1406 -0.1070 -0.3019
 4702SOL    HW125742   3.081   0.040   2.108  0.5859  0.3878  0.5972
 4702SOL    HW225743   2.949   0.024   2.175  2.3084 -0.8013  0.9123
 4703SOL     OW25744   2.528   4.518  11.120  0.1999  0.0578 -0.1786
 4703SOL    HW125745   2.561   4.542  11.207  0.1333  2.4792 -0.8145
 4703SOL    HW225746   2.593   4.550  11.058 -0.6987 -2.4451 -2.3935
 4704SOL     OW25747   2.401   1.381   5.743  0.7639  0.2258 -0.0478
 4704SOL    HW125748   2.347   1.390   5.822 -1.4641  1.6776 -1.7222
 4704SOL    HW225749   2.440   1.468   5.739 -1.3902  1.1450 -1.8938
 4705SOL     OW25750   0.947   4.177   8.976  0.4570  0.0782 -0.0287
 4705SOL    HW125751   1.040   4.168   8.953  0.7283  1.7608  0.4455
 4705SOL    HW225752   0.906   4.101   9.018  0.2322  0.8494  1.1304
 4706SOL     OW25753   2.126   0.119   5.771  0.0242  0.3763 -0.8823
 4706SOL    HW125754   2.135   0.049   5.706 -2.6165  0.6068 -1.4665
 4706SOL    HW225755   2.163   0.191   5.720 -1.9048  1.4354 -0.7568
 4707SOL     OW25756   3.261   4.631   6.753 -0.4021  0.0449  0.0570
 4707SOL    HW125757   3.298   4.714   6.722  1.3357 -1.8876 -2.9634
 4707SOL    HW225758   3.171   4.632   6.719 -0.3777 -0.7546 -0.0318
 4708SOL     OW25759   3.419   0.134   4.461  0.5490 -0.1664 -0.2202
 4708SOL    HW125760   3.456   0.046   4.452  2.1805  0.6175 -1.0223
 4708SOL    HW225761   3.489   0.197   4.445  2.0390 -1.9032 -0.5407
 4709SOL     OW25762   2.935   4.383   4.577  0.4918  0.0895  0.4215
 4709SOL    HW125763   2.874   4.312   4.558  0.0329  0.1512  1.7031
 4709SOL    HW225764   2.878   4.457   4.600  1.1835  1.5589 -2.5642
 4710SOL     OW25765   0.068   0.371   1.416 -0.2286 -0.1351  0.0846
 4710SOL    HW125766   0.066   0.401   1.325  0.0254 -0.8465 -0.1481
 4710SOL    HW225767   4.722   0.412   1.447 -0.0401  0.2212  0.1175
 4711SOL     OW25768   1.592   0.188   1.786 -0.1405  0.0890  0.7333
 4711SOL    HW125769   1.590   0.138   1.705  0.6996  1.1338  0.0762
 4711SOL    HW225770   1.671   0.236   1.761 -0.5649  0.6146  0.4237
 4712SOL     OW25771   3.673   3.320   5.067  0.0559 -0.1269  0.3554
 4712SOL    HW125772   3.603   3.350   5.125 -2.1591 -2.9971 -0.8280
 4712SOL    HW225773   3.629   3.332   4.982  1.5162 -2.5074 -0.7318
 4713SOL     OW25774   1.307   1.987   0.601 -0.0468 -0.2712  0.5299
 4713SOL    HW125775   1.314   1.931   0.524 -3.9200  0.8168 -0.6105
 4713SOL    HW225776   1.384   1.962   0.652 -0.7173 -0.9015  1.2416
 4714SOL     OW25777   0.885   3.402   6.037  0.1657 -0.0605 -0.8166
 4714SOL    HW125778   0.973   3.398   6.001  0.0148 -3.2575 -0.8645
 4714SOL    HW225779   0.846   3.323   6.000 -0.7581 -0.3778  0.7994
 4715SOL     OW25780   4.672   3.616  12.658  0.2123  0.8599  0.3819
 4715SOL    HW125781   4.678   3.675  12.733  1.2156  0.9542  0.2264
 4715SOL    HW225782   0.015   3.639  12.609 -0.3603  2.4676  0.1989
 4716SOL     OW25783   3.772   4.366   8.089 -0.4137  0.1222  0.2085
 4716SOL    HW125784   3.837   4.324   8.033  0.4801  2.3827 -0.4021
 4716SOL    HW225785   3.780   4.459   8.071 -1.2394  0.2331  0.4010
 4717SOL     OW25786   4.135   3.222  11.854  0.4041  0.8485 -0.1064
 4717SOL    HW125787   4.136   3.136  11.811  2.7654  0.7989  0.0230
 4717SOL    HW225788   4.123   3.277  11.777 -0.0411  1.8778  0.7141
 4718SOL     OW25789   1.378   3.665   4.813  0.0445 -0.3783  0.4954
 4718SOL    HW125790   1.449   3.682   4.751  0.2494  1.0817  1.1274
 4718SOL    HW225791   1.370   3.744   4.866 -0.5554 -1.2335  1.6854
 4719SOL     OW25792   2.146   2.755  13.946  0.3131  0.3228  0.1378
 4719SOL    HW125793   2.237   2.762  13.917  0.1960  0.2979 -0.2394
 4719SOL    HW225794   2.142   2.846  13.977  3.1621  1.4764 -2.8185
 4720SOL     OW25795   4.667   1.087   4.972  0.3734 -0.5525 -0.1919
 4720SOL    HW125796   4.630   1.008   4.934  0.7287 -0.9327  0.2471
 4720SOL    HW225797   4.624   1.163   4.932 -3.0459 -1.5531  1.5385
 4721SOL     OW25798   3.047   1.872   0.694  0.0865 -0.7435  0.1606
 4721SOL    HW125799   3.051   1.789   0.741 -1.6148 -0.9946 -0.1366
 4721SOL    HW225800   2.958   1.899   0.719  0.9417  0.7193  1.6294
 4722SOL     OW25801   0.287   3.338   1.769 -0.0655  0.7579  0.1303
 4722SOL    HW125802   0.365   3.288   1.793 -1.0660 -1.9123 -2.2089
 4722SOL    HW225803   0.271   3.363   1.860 -3.6839 -2.0924  0.2310
 4723SOL     OW25804   2.024   2.156   2.218  0.7874 -0.1708  0.3979
 4723SOL    HW125805   2.106   2.130   2.178  0.4006 -3.3997  1.7069
 4723SOL    HW225806   2.017   2.251   2.225  0.3708 -0.1093 -0.9873
 4724SOL     OW25807   2.532   4.457   5.258 -0.0460  0.1212 -0.3033
 4724SOL    HW125808   2.591   4.412   5.319 -1.1625 -0.9888 -0.0671
 4724SOL    HW225809   2.455   4.401   5.259 -0.4516  0.7176  1.0692
 4725SOL     OW25810   4.712   0.480   4.363 -0.4877  0.6319  0.2543
 4725SOL    HW125811   4.676   0.435   4.439  3.2448 -0.4625  1.3857
 4725SOL    HW225812   0.015   0.553   4.411  2.5212 -0.2731 -0.8450
 4726SOL     OW25813   3.636   3.963   3.368 -0.0802  0.3074 -0.3150
 4726SOL    HW125814   3.699   4.016   3.418  0.2444 -1.0247  0.6929
 4726SOL    HW225815   3.576   3.946   3.440 -0.8979 -0.9663 -1.3136
 4727SOL     OW25816   2.938   2.559  14.512  0.3989  0.0084 -0.0488
 4727SOL    HW125817   2.884   2.599  14.445  0.6881 -0.3020 -0.4641
 4727SOL    HW225818   3.028   2.586  14.494  0.8933 -0.7705  1.1875
 4728SOL     OW25819   4.440   3.956   3.032 -0.6219 -0.1378  0.1512
 4728SOL    HW125820   4.383   4.025   3.068 -3.3970 -1.8186 -0.9925
 4728SOL    HW225821   4.496   3.994   2.963 -0.7007 -1.2412 -0.5152
 4729SOL     OW25822   2.584   4.149   6.886  0.4588 -0.7195  0.5838
 4729SOL    HW125823   2.630   4.113   6.962  1.0872 -0.1077  0.4927
 4729SOL    HW225824   2.652   4.208   6.854  0.2850 -0.6086  0.4148
 4730SOL     OW25825   2.138   4.415   4.833 -0.1966  0.1763 -0.2404
 4730SOL    HW125826   2.180   4.463   4.761  0.2083 -1.6821 -1.2196
 4730SOL    HW225827   2.099   4.479   4.892 -0.0874  0.5685 -0.5856
 4731SOL     OW25828   4.209   0.361   0.539  0.2995 -0.3943 -0.6061
 4731SOL    HW125829   4.115   0.362   0.524  0.6489  0.8779 -2.7456
 4731SOL    HW225830   4.238   0.428   0.476  0.6672 -0.2595 -0.2899
 4732SOL     OW25831   0.879   0.562   4.899 -0.1190  0.1867 -0.1162
 4732SOL    HW125832   0.938   0.506   4.850 -0.0112  0.9952 -0.9027
 4732SOL    HW225833   0.876   0.648   4.857 -0.4443  0.4066  0.3473
 4733SOL     OW25834   1.781   0.865   2.965  0.0145  0.4597 -0.7057
 4733SOL    HW125835   1.805   0.830   3.051  0.8510  1.0893 -0.6864
 4733SOL    HW225836   1.704   0.919   2.983  0.7896  2.4385 -3.3196
 4734SOL     OW25837   2.301   3.879   2.814 -0.0300 -0.0215 -0.2767
 4734SOL    HW125838   2.226   3.829   2.783  0.3158  0.0283 -1.2084
 4734SOL    HW225839   2.321   3.837   2.898 -1.7367  0.9251  0.6024
 4735SOL     OW25840   1.095   1.920   4.706 -0.5525 -0.0573 -0.3184
 4735SOL    HW125841   1.140   1.956   4.782 -0.8295  0.2517 -0.3009
 4735SOL    HW225842   1.158   1.856   4.672  0.1719  0.0317  0.8673
 4736SOL     OW25843   2.370   1.584   2.606 -0.2885 -0.2065 -0.2369
 4736SOL    HW125844   2.440   1.537   2.561 -0.3055 -0.7269  0.2720
 4736SOL    HW225845   2.315   1.609   2.532  1.1716 -1.3088 -1.6933
 4737SOL     OW25846   4.184   0.283  15.250  0.6188  0.0957  0.1875
 4737SOL    HW125847   4.107   0.248  15.295  0.2042 -1.2709 -1.5515
 4737SOL    HW225848   4.240   0.207  15.266 -1.6442 -1.6249  0.0808
 4738SOL     OW25849   0.441   1.160   0.485  0.2462  0.8870  0.0421
 4738SOL    HW125850   0.434   1.068   0.458  1.9080  0.8528 -0.3247
 4738SOL    HW225851   0.351   1.181   0.462  0.0249  0.0359  0.1113
 4739SOL     OW25852   0.581   2.275   8.799 -0.2319  0.2495 -0.2569
 4739SOL    HW125853   0.501   2.310   8.839 -1.5833 -0.1031 -2.6899
 4739SOL    HW225854   0.549   2.239   8.717 -0.2654  2.0958 -1.0539
 4740SOL     OW25855   2.616   0.599   9.086  0.3262 -0.1174 -0.1839
 4740SOL    HW125856   2.659   0.515   9.101  0.4601 -0.2108 -1.0871
 4740SOL    HW225857   2.578   0.575   9.002 -0.2475 -0.0016  0.0394
 4741SOL     OW25858   0.173   2.883  12.967  0.2937  0.5188 -0.3362
 4741SOL    HW125859   0.241   2.866  12.901  1.3932  0.2351  0.8861
 4741SOL    HW225860   0.158   2.791  12.988 -1.5902  0.5329 -1.5760
 4742SOL     OW25861   3.659   1.230   2.898 -0.2941  0.9521 -0.5389
 4742SOL    HW125862   3.678   1.138   2.882 -1.9090  0.2187  1.8921
 4742SOL    HW225863   3.615   1.256   2.816 -3.0772  0.0672  0.6701
 4743SOL     OW25864   3.804   2.371   1.002  0.1473 -0.3000  0.1500
 4743SOL    HW125865   3.876   2.339   0.948 -1.0881 -2.1026 -0.4335
 4743SOL    HW225866   3.759   2.287   1.011 -2.7932  1.0587 -1.7839
 4744SOL     OW25867   0.868   2.634   7.252  0.4941  0.6644  0.2259
 4744SOL    HW125868   0.866   2.570   7.324  0.5771 -2.2309 -2.3373
 4744SOL    HW225869   0.801   2.700   7.272  2.4073  2.8029 -0.4328
 4745SOL     OW25870   1.818   3.922   5.817  0.3801 -0.5830 -0.5502
 4745SOL    HW125871   1.875   3.933   5.892 -0.8058  1.7300  0.0294
 4745SOL    HW225872   1.850   3.841   5.778  1.1785 -0.6586  0.2916
 4746SOL     OW25873   3.792   2.564  12.289 -0.6505 -0.2522  0.2554
 4746SOL    HW125874   3.714   2.613  12.262 -0.1652  0.1577 -0.3917
 4746SOL    HW225875   3.748   2.480  12.299 -1.7280  0.4628  1.5809
 4747SOL     OW25876   4.320   0.516   0.351  0.0111 -0.1378  0.1159
 4747SOL    HW125877   4.313   0.611   0.356  0.7507 -0.1722  1.9488
 4747SOL    HW225878   4.284   0.494   0.265  0.1724 -0.0691  0.0314
 4748SOL     OW25879   3.783   4.277   5.266 -0.2146  0.3281 -0.2393
 4748SOL    HW125880   3.799   4.350   5.207  2.8622  0.3337  0.5964
 4748SOL    HW225881   3.733   4.326   5.332 -0.6184 -1.3349  0.7080
 4749SOL     OW25882   2.658   1.559   3.329  0.3138 -0.1920  0.1433
 4749SOL    HW125883   2.612   1.545   3.247  0.2809  0.7367  0.0124
 4749SOL    HW225884   2.619   1.641   3.358  1.5022 -0.1762  1.6875
 4750SOL     OW25885   2.149   4.089   9.445  0.0863 -0.0750 -0.1349
 4750SOL    HW125886   2.203   4.013   9.467  0.9253  0.3493 -0.7203
 4750SOL    HW225887   2.203   4.152   9.397 -1.2384 -0.1489 -1.7416
 4751SOL     OW25888   1.414   4.151   7.456  0.0260  0.0116 -0.3611
 4751SOL    HW125889   1.459   4.081   7.410 -0.9505 -0.1506 -1.0526
 4751SOL    HW225890   1.483   4.217   7.467 -1.1433  0.9780  1.1093
 4752SOL     OW25891   4.540   1.957   7.690  0.3642 -0.1245  0.2285
 4752SOL    HW125892   4.532   1.887   7.625  0.7272 -1.4757  1.6675
 4752SOL    HW225893   4.632   1.942   7.708  0.4844  1.1275  0.7020
 4753SOL     OW25894   1.696   2.497   7.452  0.4911  0.3893  0.2823
 4753SOL    HW125895   1.738   2.541   7.377  0.2041 -0.1188 -0.1796
 4753SOL    HW225896   1.764   2.527   7.512  2.1363 -0.2225 -1.2404
 4754SOL     OW25897   3.690   2.472   4.004 -0.0804  0.0479 -0.3054
 4754SOL    HW125898   3.634   2.394   3.994  2.1360 -1.5573 -0.0207
 4754SOL    HW225899   3.751   2.450   3.934  1.2650  0.9534  0.6027
 4755SOL     OW25900   1.222   1.105   4.731  0.5589  0.9652  0.2514
 4755SOL    HW125901   1.317   1.117   4.732  0.8809 -1.8458  1.8236
 4755SOL    HW225902   1.209   1.094   4.637 -2.9537  0.4723  0.8045
 4756SOL     OW25903   0.648   3.567   8.472 -0.1175  0.3589 -0.1946
 4756SOL    HW125904   0.674   3.475   8.465  0.8375  0.7580 -1.8786
 4756SOL    HW225905   0.728   3.610   8.442 -0.0744  0.2333 -0.2618
 4757SOL     OW25906   0.706   3.330   1.646  0.2001 -0.6745  0.0489
 4757SOL    HW125907   0.690   3.408   1.593 -0.0132 -2.2467 -2.1939
 4757SOL    HW225908   0.631   3.278   1.617 -0.8690  1.2002 -0.5926
 4758SOL     OW25909   1.367   3.095   8.095  0.1034  0.1502 -0.3769
 4758SOL    HW125910   1.401   3.043   8.168  0.2092 -0.7524 -1.0630
 4758SOL    HW225911   1.366   3.178   8.142  0.4074  0.1875 -0.4378
 4759SOL     OW25912   2.771   0.893   3.672  0.1147 -0.0360 -0.1661
 4759SOL    HW125913   2.731   0.807   3.663  1.5984 -0.6102 -1.2228
 4759SOL    HW225914   2.861   0.871   3.698  0.5826  1.4547 -0.4804
 4760SOL     OW25915   4.286   1.488   3.404  0.6689  0.0696  0.1808
 4760SOL    HW125916   4.259   1.532   3.484 -2.1695 -0.7893 -0.2836
 4760SOL    HW225917   4.229   1.411   3.405  0.0671  0.4958 -0.9357
 4761SOL     OW25918   0.483   1.257  12.494  0.3631 -0.2122 -0.3923
 4761SOL    HW125919   0.387   1.254  12.499  0.3987 -1.3182 -0.3188
 4761SOL    HW225920   0.496   1.182  12.435  1.0883 -1.6352  1.5579
 4762SOL     OW25921   2.373   3.096  13.082 -0.5176 -0.0867  0.0188
 4762SOL    HW125922   2.367   3.158  13.154  0.4829  0.6007 -0.4959
 4762SOL    HW225923   2.328   3.018  13.114  0.5814  0.1641  2.1504
 4763SOL     OW25924   0.116   2.217  16.427 -0.3775  0.6493 -0.0650
 4763SOL    HW125925   0.121   2.195  16.334 -1.8453  0.3658 -0.0669
 4763SOL    HW225926   0.187   2.164  16.464 -1.2980 -1.4672 -1.3486
 4764SOL     OW25927   0.048   1.486   2.173 -0.7469  0.0041  0.2708
 4764SOL    HW125928   0.015   1.398   2.159 -2.7627  1.2165 -2.6234
 4764SOL    HW225929   0.137   1.478   2.141 -1.1772 -1.6427 -0.4827
 4765SOL     OW25930   3.990   3.896   7.034  0.3071 -0.2473  0.6991
 4765SOL    HW125931   3.992   3.814   7.085 -0.9605  0.3546  1.7144
 4765SOL    HW225932   3.940   3.870   6.957  0.7624  0.7449  0.0781
 4766SOL     OW25933   2.048   3.424   3.727  0.1179  0.0896  0.2878
 4766SOL    HW125934   2.065   3.461   3.641 -0.0595 -1.7007 -0.5207
 4766SOL    HW225935   2.108   3.475   3.782  1.3631  0.7569 -1.6788
 4767SOL     OW25936   0.979   0.926   7.375 -0.0155 -0.1154  0.5813
 4767SOL    HW125937   1.049   0.944   7.312  1.4645 -1.2420  1.8768
 4767SOL    HW225938   1.033   0.883   7.442  2.7992  2.2226 -0.1580
 4768SOL     OW25939   1.315   0.224   3.021  0.0146 -0.3775  0.2758
 4768SOL    HW125940   1.372   0.289   2.981 -0.4694  0.7841  1.4458
 4768SOL    HW225941   1.287   0.180   2.941  0.5825 -1.4348  0.6542
 4769SOL     OW25942   0.433   4.139   5.112 -0.1868  0.1706  0.1622
 4769SOL    HW125943   0.386   4.196   5.051  1.0667  2.1381  1.0422
 4769SOL    HW225944   0.381   4.117   5.190  0.7431 -0.1394  0.6956
 4770SOL     OW25945   1.968   1.945   0.424 -1.0538  0.1714  0.5259
 4770SOL    HW125946   1.884   1.939   0.469 -1.4497 -1.4590 -0.4366
 4770SOL    HW225947   1.966   2.036   0.393  1.5314 -0.0939 -0.4613
 4771SOL     OW25948   3.783   3.000  16.433  0.0185  0.1291 -0.3791
 4771SOL    HW125949   3.860   3.036  16.476 -1.2187 -0.5411  2.4071
 4771SOL    HW225950   3.812   2.987  16.342 -1.1350  1.6221 -0.9559
 4772SOL     OW25951   0.750   0.718   1.419 -0.0680 -0.0961  0.1242
 4772SOL    HW125952   0.706   0.779   1.360 -0.6293 -0.2445  0.3894
 4772SOL    HW225953   0.709   0.738   1.503  1.0150 -1.3494  0.9485
 4773SOL     OW25954   1.246   0.684   6.934 -0.4478 -0.0905 -0.9754
 4773SOL    HW125955   1.278   0.760   6.887  0.6146  1.2957  2.0175
 4773SOL    HW225956   1.197   0.639   6.864  1.5277 -0.7083 -1.9751
 4774SOL     OW25957   0.963   0.324  17.136 -0.0641 -0.0977  0.5240
 4774SOL    HW125958   0.924   0.409  17.154  1.1316  0.5724 -0.0887
 4774SOL    HW225959   1.043   0.335  17.187 -0.2477  1.7051  0.4066
 4775SOL     OW25960   2.184   1.599   0.686  0.2025  0.4482  0.0617
 4775SOL    HW125961   2.198   1.686   0.648  1.3652 -0.4922 -1.6306
 4775SOL    HW225962   2.089   1.600   0.690  0.1913 -1.0461 -0.0736
 4776SOL     OW25963   1.947   4.537   4.306  0.1696  0.7754 -0.0239
 4776SOL    HW125964   1.911   4.492   4.230 -3.3469  0.3628  1.9250
 4776SOL    HW225965   1.960   4.464   4.367 -0.1566  1.2757  0.6391
 4777SOL     OW25966   0.895   0.262   3.072 -0.1604 -0.2529 -0.6238
 4777SOL    HW125967   0.829   0.307   3.126  1.8268 -1.5196  2.8310
 4777SOL    HW225968   0.903   0.175   3.110 -0.0242  0.8125  1.7721
 4778SOL     OW25969   3.167   4.508   7.905  0.1660  1.0989  0.0275
 4778SOL    HW125970   3.196   4.423   7.939  1.6510  0.8592 -1.8109
 4778SOL    HW225971   3.131   4.543   7.986 -1.9389  0.2904 -0.5400
 4779SOL     OW25972   1.729   0.430  14.699  0.2237  0.2878 -0.4091
 4779SOL    HW125973   1.658   0.367  14.691  0.9305 -0.6788  0.9299
 4779SOL    HW225974   1.797   0.393  14.643  1.5155  0.3876  1.0951
 4780SOL     OW25975   1.141   1.108   8.194  0.1008 -0.6998 -0.3081
 4780SOL    HW125976   1.139   1.012   8.193  1.1367 -0.7145 -0.5843
 4780SOL    HW225977   1.114   1.123   8.284 -0.6965 -1.5948 -0.3902
 4781SOL     OW25978   4.678   4.125   8.036 -0.0974  0.2789  1.0294
 4781SOL    HW125979   4.666   4.209   8.080  2.4102  0.2221  1.8196
 4781SOL    HW225980   4.732   4.077   8.099  0.5473  1.2767  1.2359
 4782SOL     OW25981   0.472   1.879  10.234  0.1105  0.1853 -0.5524
 4782SOL    HW125982   0.483   1.793  10.194  1.8964  0.0984  0.0902
 4782SOL    HW225983   0.378   1.893  10.225 -0.3577 -2.2837  0.7512
 4783SOL     OW25984   0.739   1.027   8.845  0.4163  0.6879 -0.1794
 4783SOL    HW125985   0.766   1.105   8.797  3.0467  0.9676  1.7660
 4783SOL    HW225986   0.781   0.959   8.792  1.2154  0.2933  0.9462
 4784SOL     OW25987   2.681   0.523   8.413  0.4212 -0.2778  0.6341
 4784SOL    HW125988   2.628   0.448   8.386 -0.9413  1.0656 -0.4943
 4784SOL    HW225989   2.716   0.555   8.329 -1.9879  0.3768 -0.1340
 4785SOL     OW25990   4.003   3.811  17.468 -0.5976  0.1507 -0.3295
 4785SOL    HW125991   4.012   3.756  17.390 -0.4020 -0.7501  0.3302
 4785SOL    HW225992   4.025   3.898  17.434 -1.9870  1.2498  1.5214
 4786SOL     OW25993   1.407   1.967   6.145  0.1713 -0.0173  0.5206
 4786SOL    HW125994   1.486   1.948   6.194  0.6642  0.1606 -0.2005
 4786SOL    HW225995   1.404   1.887   6.091 -2.1232  1.4347 -1.5116
 4787SOL     OW25996   4.349   1.125   1.345  0.0468 -0.4730  0.1074
 4787SOL    HW125997   4.352   1.211   1.303  2.5317 -0.7956 -0.3757
 4787SOL    HW225998   4.439   1.126   1.377 -0.0863 -0.9017  0.4791
 4788SOL     OW25999   3.240   3.623  16.409  0.4579 -0.6333 -0.6462
 4788SOL    HW126000   3.261   3.693  16.470 -0.9930 -1.8490  1.2401
 4788SOL    HW226001   3.200   3.673  16.338  1.0443  2.2077  1.0236
 4789SOL     OW26002   2.650   3.570   5.958 -0.5796 -0.4558  0.1368
 4789SOL    HW126003   2.691   3.643   5.911 -1.2497 -0.9108 -1.1539
 4789SOL    HW226004   2.641   3.596   6.049  0.5818 -1.8771  0.6635
 4790SOL     OW26005   2.398   4.492   9.826 -0.3221 -0.5189 -0.3094
 4790SOL    HW126006   2.375   4.552   9.897 -0.5533  1.1917 -1.8335
 4790SOL    HW226007   2.353   4.533   9.752  0.2577  0.0401 -0.3472
 4791SOL     OW26008   2.670   2.018   8.547  1.2280 -0.8735  0.0501
 4791SOL    HW126009   2.622   1.968   8.481  1.5112 -0.9649 -0.0848
 4791SOL    HW226010   2.758   1.989   8.525  0.5573 -1.5592 -1.6976
 4792SOL     OW26011   2.367   2.355   1.739 -0.0122  0.0407  0.3592
 4792SOL    HW126012   2.449   2.314   1.712  0.2033 -0.0137  1.1035
 4792SOL    HW226013   2.394   2.413   1.810 -0.9042  1.2736 -0.3098
 4793SOL     OW26014   3.028   0.733   2.262 -0.0166 -0.0936 -0.4624
 4793SOL    HW126015   3.119   0.704   2.268 -0.1001  0.1591  2.0799
 4793SOL    HW226016   3.029   0.798   2.333  0.7945 -0.1211 -0.4515
 4794SOL     OW26017   2.320   3.238   4.244 -0.6608  0.6187 -0.0829
 4794SOL    HW126018   2.258   3.289   4.192  1.6387  2.4919 -0.9854
 4794SOL    HW226019   2.386   3.219   4.178 -0.2265  1.3836  0.1301
 4795SOL     OW26020   1.089   3.251   6.891  0.1900 -0.0167 -0.2837
 4795SOL    HW126021   1.049   3.339   6.891 -3.8244 -1.8456  0.8141
 4795SOL    HW226022   1.022   3.205   6.841  0.0057 -0.7849  0.6707
 4796SOL     OW26023   1.899   0.053  15.327 -0.4321  0.4042  0.0124
 4796SOL    HW126024   1.936   0.135  15.360  1.7249 -0.7941  0.5522
 4796SOL    HW226025   1.873   0.014  15.411  2.1701  2.1243  1.6107
 4797SOL     OW26026   0.080   2.897   6.997  0.3339 -0.6413 -0.3134
 4797SOL    HW126027   0.079   2.984   6.958 -1.0113 -0.4517  0.1565
 4797SOL    HW226028   0.077   2.924   7.089 -1.1325  2.3028 -1.2140
 4798SOL     OW26029   2.886   0.140   6.543  0.0880 -0.1787  0.0580
 4798SOL    HW126030   2.881   0.205   6.474  0.0559  0.0007  0.2276
 4798SOL    HW226031   2.797   0.120   6.573 -0.0573 -0.8841 -0.8554
 4799SOL     OW26032   2.262   3.319   4.722  0.3143  0.4154 -0.0819
 4799SOL    HW126033   2.179   3.272   4.726  1.2678 -1.1094  1.3793
 4799SOL    HW226034   2.322   3.245   4.716 -0.6855 -0.4630  0.6686
 4800SOL     OW26035   4.462   3.752   6.962 -0.2029 -0.4164  0.1397
 4800SOL    HW126036   4.494   3.712   7.043  0.0297 -2.1385 -0.8022
 4800SOL    HW226037   4.544   3.770   6.914 -0.2931  0.4238  0.2919
 4801SOL     OW26038   1.565   3.379   4.394  0.4670  0.0817  0.3137
 4801SOL    HW126039   1.568   3.474   4.382  0.3242  0.0697  0.1790
 4801SOL    HW226040   1.524   3.382   4.480  0.0318  1.6415  0.0493
 4802SOL     OW26041   0.153   2.486   3.214 -0.1644  0.4004 -0.4175
 4802SOL    HW126042   0.155   2.525   3.127 -0.4791 -0.1130 -0.6560
 4802SOL    HW226043   0.247   2.482   3.234 -0.4318 -3.6472  0.0229
 4803SOL     OW26044   1.671   4.471   3.450  0.4594 -0.1264  0.0222
 4803SOL    HW126045   1.616   4.417   3.506 -0.1638  0.7314  0.2392
 4803SOL    HW226046   1.651   4.434   3.364  1.1510 -1.0711  0.2662
 4804SOL     OW26047   2.658   1.265   5.063 -0.4736  0.1350 -0.0727
 4804SOL    HW126048   2.569   1.299   5.059 -0.9133 -1.1970 -1.5311
 4804SOL    HW226049   2.682   1.272   4.971 -1.3645  0.5791 -0.2651
 4805SOL     OW26050   0.589   2.037   2.238  0.2518  0.1426 -0.4027
 4805SOL    HW126051   0.568   1.943   2.242  1.4383 -0.0632  0.8752
 4805SOL    HW226052   0.621   2.042   2.148  0.7166  1.8057 -0.1344
 4806SOL     OW26053   2.869   1.974   5.393 -0.8527 -0.1333  0.1218
 4806SOL    HW126054   2.837   2.040   5.331  1.3252 -0.6841 -1.6061
 4806SOL    HW226055   2.791   1.919   5.395 -1.7727  1.1619 -0.2581
 4807SOL     OW26056   1.892   3.724   5.650 -0.6636  0.4613  0.2464
 4807SOL    HW126057   1.912   3.649   5.706 -0.8111 -0.3994 -0.8590
 4807SOL    HW226058   1.975   3.734   5.603 -0.9790  0.3176 -0.3364
 4808SOL     OW26059   4.557   3.030   8.044  0.3338 -0.0741 -0.2543
 4808SOL    HW126060   4.579   2.953   8.097  0.1157 -0.1009 -0.2042
 4808SOL    HW226061   4.643   3.047   8.006  1.1062 -1.9213  0.6562
 4809SOL     OW26062   2.669   0.919  11.062  0.0732 -0.1904 -0.6797
 4809SOL    HW126063   2.601   0.981  11.035  0.7171  0.6770 -0.3428
 4809SOL    HW226064   2.633   0.885  11.143  1.8566 -0.0507  0.1758
 4810SOL     OW26065   4.600   1.855   6.925  0.5030  0.5043  0.1095
 4810SOL    HW126066   4.574   1.913   6.996 -1.3792 -0.5886  0.2844
 4810SOL    HW226067   4.688   1.893   6.914  1.4437 -0.6555  3.5469
 4811SOL     OW26068   2.642   3.098  15.684  0.7296  0.1580 -0.6515
 4811SOL    HW126069   2.560   3.147  15.682  1.9404  2.3255  2.4352
 4811SOL    HW226070   2.684   3.134  15.605  0.2557  1.2377 -0.4073
 4812SOL     OW26071   0.668   2.771   8.948 -0.5847  0.2946 -0.3803
 4812SOL    HW126072   0.696   2.682   8.929  1.7713  1.0924 -0.6768
 4812SOL    HW226073   0.628   2.742   9.030  1.0135 -0.8019  0.0192
 4813SOL     OW26074   4.469   4.710   5.241 -0.0236 -0.4908  0.5900
 4813SOL    HW126075   4.437   0.039   5.303  0.6006 -0.3302  0.7468
 4813SOL    HW226076   4.402   4.643   5.248 -3.2740  2.5829 -0.7405
 4814SOL     OW26077   2.845   4.511   6.486 -0.1585 -0.2121 -0.0226
 4814SOL    HW126078   2.797   4.590   6.460 -0.5878 -1.2466 -2.3657
 4814SOL    HW226079   2.818   4.446   6.422 -3.3107  1.0784  0.0103
 4815SOL     OW26080   0.167   0.880   9.111 -0.1448 -0.2324 -0.5095
 4815SOL    HW126081   0.103   0.809   9.118 -0.3456 -0.1239 -1.2370
 4815SOL    HW226082   0.230   0.832   9.058  1.4909  0.3959  0.8528
 4816SOL     OW26083   1.508   1.378  13.846  0.0378  0.4495  0.1074
 4816SOL    HW126084   1.487   1.330  13.766 -0.4725 -1.7398  1.5639
 4816SOL    HW226085   1.558   1.449  13.805 -2.0440  1.4192 -0.7701
 4817SOL     OW26086   3.386   2.736   4.566 -0.0841  0.0727  0.0694
 4817SOL    HW126087   3.399   2.641   4.560  1.5065  0.4618 -2.6917
 4817SOL    HW226088   3.383   2.755   4.660  0.8705  1.4024 -0.1812
 4818SOL     OW26089   4.192   4.105   9.508  0.5749 -0.4206  0.0548
 4818SOL    HW126090   4.227   4.097   9.596 -1.1853  2.2467  0.9847
 4818SOL    HW226091   4.099   4.121   9.521  0.8852  0.3417  1.2588
 4819SOL     OW26092   2.766   2.494  17.361  0.7544  0.0018 -0.2803
 4819SOL    HW126093   2.741   2.405  17.339 -0.6366 -0.0427  1.4446
 4819SOL    HW226094   2.791   2.481  17.452 -0.8603 -0.2646  0.1265
 4820SOL     OW26095   1.897   2.475  16.353 -0.6468  0.1719 -0.6584
 4820SOL    HW126096   1.964   2.473  16.284  0.9090 -2.4162  0.9290
 4820SOL    HW226097   1.823   2.489  16.293  0.0357  1.7765 -1.1435
 4821SOL     OW26098   4.284   0.148  11.548  0.2170  0.6415 -0.3285
 4821SOL    HW126099   4.266   0.191  11.465 -0.0800  0.6294 -0.2730
 4821SOL    HW226100   4.320   0.068  11.510  0.4849 -0.3954  2.0834
 4822SOL     OW26101   2.338   3.978  13.790  0.0251  0.1962  0.1208
 4822SOL    HW126102   2.262   3.997  13.845  0.5163  4.3868 -0.6426
 4822SOL    HW226103   2.311   3.991  13.699  1.7524  0.3047 -0.3775
 4823SOL     OW26104   2.808   0.560   6.968 -0.0012  0.4748 -0.3376
 4823SOL    HW126105   2.810   0.645   6.924  1.0633  2.3135  3.2564
 4823SOL    HW226106   2.718   0.548   6.998  0.3177 -0.8952  0.1007
 4824SOL     OW26107   0.502   1.189  17.115  0.1414 -0.0463 -0.4409
 4824SOL    HW126108   0.580   1.239  17.140  0.0545  0.6087 -1.5023
 4824SOL    HW226109   0.457   1.261  17.072  0.1076 -0.0241 -0.3683
 4825SOL     OW26110   3.928   2.558   2.425 -0.3960  0.7294 -0.2774
 4825SOL    HW126111   3.941   2.473   2.384  0.6562  1.3078 -1.1585
 4825SOL    HW226112   4.014   2.566   2.465 -0.1441 -1.3448 -0.4022
 4826SOL     OW26113   1.690   0.656  10.399 -0.2802 -0.5273 -0.6500
 4826SOL    HW126114   1.617   0.706  10.436  0.1808 -0.9257  0.8047
 4826SOL    HW226115   1.662   0.570  10.370 -0.7975 -0.7865  0.6011
 4827SOL     OW26116   2.504   1.772   3.496  0.3811 -0.3327 -0.1267
 4827SOL    HW126117   2.421   1.783   3.449  1.9246  1.9333 -2.2772
 4827SOL    HW226118   2.469   1.745   3.581 -0.7940 -3.0366 -1.4733
 4828SOL     OW26119   3.976   0.234   5.611 -0.1308 -0.2712  0.1276
 4828SOL    HW126120   3.894   0.221   5.564 -0.6832 -0.4751  1.1589
 4828SOL    HW226121   4.026   0.294   5.555 -0.2241  0.1517  0.4996
 4829SOL     OW26122   4.612   0.780   7.915  0.6837 -0.2200 -0.0510
 4829SOL    HW126123   4.569   0.865   7.901  0.6029 -0.0573  1.1876
 4829SOL    HW226124   4.560   0.749   7.989  2.0197 -0.8411  0.6212
 4830SOL     OW26125   3.806   1.385   5.457  0.3452 -0.4432 -0.3075
 4830SOL    HW126126   3.811   1.478   5.434  0.2938 -0.5409 -0.7073
 4830SOL    HW226127   3.827   1.346   5.372 -3.0993  2.4718 -2.4733
 4831SOL     OW26128   0.318   0.523   0.467 -0.7935  0.6075  0.1382
 4831SOL    HW126129   0.349   0.603   0.424 -3.2349  0.6243 -1.5800
 4831SOL    HW226130   0.399   0.482   0.498  0.0620  1.8842 -0.4404
 4832SOL     OW26131   0.259   0.897   9.740  0.0272  0.0658  0.3303
 4832SOL    HW126132   0.333   0.927   9.792 -1.6124  0.1402  2.6682
 4832SOL    HW226133   0.224   0.985   9.725 -2.6987 -1.2333 -0.9940
 4833SOL     OW26134   2.921   2.531   6.990 -0.5284 -0.0361 -0.7259
 4833SOL    HW126135   2.889   2.601   6.933  0.1223  1.3030  0.5455
 4833SOL    HW226136   2.870   2.549   7.069  3.6826 -0.1270  1.9781
 4834SOL     OW26137   4.471   3.026   2.737 -0.2752  0.0547  0.1955
 4834SOL    HW126138   4.428   3.041   2.653 -0.0823  0.9367  0.2539
 4834SOL    HW226139   4.464   3.114   2.775  0.9153  0.7385 -1.1750
 4835SOL     OW26140   4.004   3.671   6.401 -0.2481  0.1806 -0.5157
 4835SOL    HW126141   4.051   3.722   6.467 -0.1399  2.4735 -2.3651
 4835SOL    HW226142   3.932   3.730   6.380  1.0232  2.2709  0.9492
 4836SOL     OW26143   3.572   4.296   8.998 -0.4312  0.1282  0.9142
 4836SOL    HW126144   3.543   4.217   9.042 -3.2696  1.8481  2.1214
 4836SOL    HW226145   3.647   4.259   8.951 -1.2122 -1.1983  0.7230
 4837SOL     OW26146   4.445   4.452   3.279 -0.2361 -0.2239  0.0921
 4837SOL    HW126147   4.427   4.529   3.332  1.8260  0.7951 -0.7007
 4837SOL    HW226148   4.404   4.385   3.335 -0.3303 -0.0285  0.2588
 4838SOL     OW26149   1.915   2.144   8.399  0.3439  0.3767  0.1701
 4838SOL    HW126150   1.894   2.052   8.413 -1.0563  0.4477 -1.4717
 4838SOL    HW226151   1.894   2.155   8.306 -0.8974 -2.0521  0.1477
 4839SOL     OW26152   0.026   1.482  10.463  0.5397 -0.7297 -0.4063
 4839SOL    HW126153   0.106   1.527  10.435  1.8228 -1.8030  1.5410
 4839SOL    HW226154   4.700   1.516  10.398  0.8669  0.0553 -0.3079
 4840SOL     OW26155   4.557   2.354  16.582  0.7243  0.5096 -0.1680
 4840SOL    HW126156   4.467   2.364  16.551  0.5473  1.4739  0.6951
 4840SOL    HW226157   4.587   2.442  16.560  1.6349  0.0764 -0.6899
 4841SOL     OW26158   3.440   2.363   7.130 -0.0904  0.0602 -0.5893
 4841SOL    HW126159   3.529   2.390   7.150  0.3165  0.0031 -2.3221
 4841SOL    HW226160   3.378   2.414   7.182 -1.4042  1.1809 -3.2309
 4842SOL     OW26161   3.281   4.427   2.938 -0.0930 -0.0378  0.1812
 4842SOL    HW126162   3.191   4.394   2.935 -0.8735  2.2723 -1.5352
 4842SOL    HW226163   3.282   4.473   2.855  1.4994 -0.4648 -0.0212
 4843SOL     OW26164   2.225   3.205   3.875 -0.2076 -0.0256 -0.2411
 4843SOL    HW126165   2.164   3.132   3.880 -2.5674  1.8819 -0.7312
 4843SOL    HW226166   2.154   3.269   3.860 -0.0177 -0.1123 -1.5648
 4844SOL     OW26167   3.629   3.609   6.185  0.4266  0.1846 -0.3718
 4844SOL    HW126168   3.551   3.556   6.169  0.8419  0.2493 -2.6108
 4844SOL    HW226169   3.701   3.560   6.146  0.1718 -0.2080 -0.3494
 4845SOL     OW26170   0.218   2.609   7.228  0.4010 -0.1004  0.0805
 4845SOL    HW126171   0.192   2.591   7.137  0.2755 -0.2741  0.1507
 4845SOL    HW226172   0.136   2.637   7.268 -0.1235  0.1415 -1.1465
 4846SOL     OW26173   3.499   1.792  17.701  0.4704  0.0797 -0.1990
 4846SOL    HW126174   3.434   1.862  17.708 -0.8733 -1.1930  0.0623
 4846SOL    HW226175   3.437   1.720  17.688  0.1988 -0.1478  2.2065
 4847SOL     OW26176   4.012   0.526   9.292  0.0962 -0.0004  0.1362
 4847SOL    HW126177   3.949   0.479   9.347  0.6616 -1.1081 -0.1733
 4847SOL    HW226178   4.093   0.493   9.331  1.6450  0.6332 -2.5158
 4848SOL     OW26179   4.340   3.123  12.214 -0.3506  0.5653  0.1365
 4848SOL    HW126180   4.381   3.197  12.257 -0.1359 -0.0974  1.0769
 4848SOL    HW226181   4.261   3.104  12.266 -0.0315  0.4017  0.5638
 4849SOL     OW26182   0.514   1.204  13.782 -0.6549  0.9173 -0.3000
 4849SOL    HW126183   0.437   1.250  13.747 -1.4777  0.1046  0.4207
 4849SOL    HW226184   0.542   1.258  13.856 -0.4142 -1.9136  1.6587
 4850SOL     OW26185   3.421   1.391   8.287  0.0315  0.4633 -0.2830
 4850SOL    HW126186   3.515   1.384   8.270  0.8963  2.9761  3.4306
 4850SOL    HW226187   3.395   1.379   8.196  2.3400 -0.0201 -0.8596
 4851SOL     OW26188   4.191   2.724   6.753  0.4073  0.0662 -0.6217
 4851SOL    HW126189   4.260   2.722   6.687  1.6844 -0.3767  0.7347
 4851SOL    HW226190   4.178   2.632   6.773  1.5946  0.0049 -0.1445
 4852SOL     OW26191   4.459   1.254  11.828 -0.0857  0.1240  0.3651
 4852SOL    HW126192   4.387   1.258  11.891 -0.3338  3.5748 -0.0890
 4852SOL    HW226193   4.432   1.329  11.775 -1.4706 -1.8538 -1.6740
 4853SOL     OW26194   0.936   3.139   2.495 -0.2722 -0.7507  0.2700
 4853SOL    HW126195   1.027   3.166   2.505 -1.0920  1.0847  2.5992
 4853SOL    HW226196   0.899   3.089   2.568 -0.5732 -1.1610 -0.1582
 4854SOL     OW26197   0.789   4.084   3.528  0.4260  0.2954  0.4675
 4854SOL    HW126198   0.699   4.053   3.538  0.6873 -0.3485  0.7837
 4854SOL    HW226199   0.838   4.019   3.578 -0.8996 -0.0349  1.3493
 4855SOL     OW26200   2.868   0.953   8.812  0.1500  0.7845  0.0092
 4855SOL    HW126201   2.842   0.897   8.885 -0.6991  2.3158  0.9117
 4855SOL    HW226202   2.921   0.892   8.761 -0.5284 -0.4991  0.8488
 4856SOL     OW26203   4.404   1.623   7.536  0.6935  0.0645 -0.9140
 4856SOL    HW126204   4.425   1.558   7.469  0.3767 -0.7300 -0.2480
 4856SOL    HW226205   4.497   1.637   7.556  0.6838  0.4195 -1.1270
 4857SOL     OW26206   2.255   1.526   1.215 -0.8965 -0.0350 -0.1704
 4857SOL    HW126207   2.226   1.492   1.299  2.7434 -1.0050  0.6892
 4857SOL    HW226208   2.193   1.486   1.154  0.8181 -0.5777 -1.5604
 4858SOL     OW26209   1.102   1.343   6.963 -0.0991 -0.4648  0.2488
 4858SOL    HW126210   1.154   1.302   6.893  0.6220  1.7847 -0.5089
 4858SOL    HW226211   1.118   1.433   6.937  0.1350 -0.0446  1.8479
 4859SOL     OW26212   0.938   0.327   7.186 -0.5210  0.2636 -0.1366
 4859SOL    HW126213   0.964   0.279   7.108  0.1557 -1.4075  1.1121
 4859SOL    HW226214   0.900   0.410   7.157  0.6867  0.5718 -0.8113
 4860SOL     OW26215   2.683   4.646   5.612 -0.1261 -0.0044  0.1871
 4860SOL    HW126216   2.684   0.000   5.643 -1.8778  1.0170 -2.8348
 4860SOL    HW226217   2.696   4.595   5.692 -0.4404 -2.5682 -1.3990
 4861SOL     OW26218   1.131   1.995   4.108  0.1942 -0.1956  0.0822
 4861SOL    HW126219   1.073   2.069   4.095 -0.0806 -0.8299 -2.4496
 4861SOL    HW226220   1.121   1.974   4.201 -1.8930 -3.5991 -0.9253
 4862SOL     OW26221   1.892   4.496   5.674 -0.1832 -0.0653  0.0764
 4862SOL    HW126222   1.917   4.406   5.654 -0.8139 -0.2375  0.0956
 4862SOL    HW226223   1.972   4.529   5.716  1.0842 -0.8568 -1.7151
 4863SOL     OW26224   4.618   1.153   5.943  0.1630 -0.0482 -1.0360
 4863SOL    HW126225   4.648   1.184   6.028 -1.2833 -0.4466 -0.3749
 4863SOL    HW226226   4.587   1.067   5.971  3.7902 -0.9533  0.0968
 4864SOL     OW26227   4.625   4.633   9.369  0.5083 -0.0648  0.0131
 4864SOL    HW126228   4.705   4.636   9.316  0.3181  0.5900 -0.2425
 4864SOL    HW226229   4.646   4.566   9.434 -0.1929  1.4606  1.7840
 4865SOL     OW26230   4.014   0.083   9.033  0.9031 -0.2441  0.1225
 4865SOL    HW126231   4.025   0.014   8.968  1.4855  1.1157 -1.2025
 4865SOL    HW226232   4.054   0.047   9.112  0.8086 -0.9756 -0.1636
 4866SOL     OW26233   3.408   4.572   3.885  0.5761 -0.1888  0.2909
 4866SOL    HW126234   3.378   4.645   3.939 -1.9705 -0.5283 -0.6871
 4866SOL    HW226235   3.498   4.557   3.915 -0.0827 -1.5386  1.5946
 4867SOL     OW26236   4.665   1.767  11.494 -0.1914  0.6311 -1.0130
 4867SOL    HW126237   4.703   1.831  11.555  0.1982  0.0759 -0.6749
 4867SOL    HW226238   4.660   1.825  11.418  1.0296  2.3808  0.2400
 4868SOL     OW26239   1.677   0.696   5.720 -0.2445 -0.4811  0.0490
 4868SOL    HW126240   1.598   0.745   5.698  1.2738  2.3721  0.9350
 4868SOL    HW226241   1.703   0.670   5.632  0.8238 -1.4366  0.6397
 4869SOL     OW26242   1.489   3.562   7.445 -0.0855  0.0014 -0.5346
 4869SOL    HW126243   1.399   3.566   7.479 -0.5115  0.8794 -1.7528
 4869SOL    HW226244   1.529   3.520   7.521  0.3335  0.4657 -0.5027
 4870SOL     OW26245   4.672   1.170   3.829  0.1960  0.1209  0.6637
 4870SOL    HW126246   4.734   1.153   3.758 -0.4657  0.4741  0.0097
 4870SOL    HW226247   4.677   1.092   3.884  1.2270  1.5715  2.6622
 4871SOL     OW26248   1.457   1.736   5.677  0.1797 -0.0994 -0.0829
 4871SOL    HW126249   1.437   1.826   5.700  1.1185 -0.3647  1.8130
 4871SOL    HW226250   1.367   1.707   5.665  0.9593 -0.9419 -4.0473
 4872SOL     OW26251   3.783   0.702  11.499 -0.3491  0.2612  0.4192
 4872SOL    HW126252   3.740   0.753  11.430  0.8837  0.3562 -0.2727
 4872SOL    HW226253   3.783   0.764  11.572 -0.3105 -1.0463  1.5312
 4873SOL     OW26254   3.295   2.451   3.103 -0.4728 -0.0956 -0.4115
 4873SOL    HW126255   3.236   2.381   3.074 -0.4399 -1.6995  3.4042
 4873SOL    HW226256   3.236   2.502   3.160  0.0948 -0.1447  0.2123
 4874SOL     OW26257   0.882   2.969  15.194 -0.0094 -0.2462 -0.1653
 4874SOL    HW126258   0.863   2.877  15.178  0.1417 -0.0438 -1.5578
 4874SOL    HW226259   0.848   2.978  15.283  0.5688 -1.8170  0.2170
 4875SOL     OW26260   0.290   2.494   3.492 -0.2552 -0.3989  0.4091
 4875SOL    HW126261   0.341   2.500   3.411  2.3634 -0.1490  2.0530
 4875SOL    HW226262   0.293   2.401   3.512  0.4695 -0.5787 -0.5522
 4876SOL     OW26263   3.780   1.723  15.312  0.1007 -0.4515  0.3442
 4876SOL    HW126264   3.817   1.803  15.348 -1.3019  1.6330 -2.9045
 4876SOL    HW226265   3.816   1.735  15.224 -0.5870  0.9102  0.2553
 4877SOL     OW26266   0.751   2.096   8.908  0.5600  0.3200 -0.1837
 4877SOL    HW126267   0.698   2.164   8.866  0.0245 -0.0500 -0.1065
 4877SOL    HW226268   0.705   2.016   8.883 -0.4497  0.9019 -0.1977
 4878SOL     OW26269   3.763   2.614   8.944  0.3050  0.4536  0.4830
 4878SOL    HW126270   3.852   2.584   8.926  0.5937  1.7346 -0.2171
 4878SOL    HW226271   3.776   2.661   9.027 -0.9930  1.1939  0.2548
 4879SOL     OW26272   2.503   2.532   1.903 -0.1987  0.1717 -0.5221
 4879SOL    HW126273   2.559   2.554   1.977 -2.4762 -3.0065  2.0947
 4879SOL    HW226274   2.558   2.532   1.825  1.1461 -1.5510  0.4330
 4880SOL     OW26275   3.553   0.965   7.210  0.2226  0.1412  0.1753
 4880SOL    HW126276   3.525   0.880   7.176  2.8768 -0.1758 -1.2549
 4880SOL    HW226277   3.477   1.011   7.176  0.8442  1.4149  0.5020
 4881SOL     OW26278   1.965   0.864   2.024 -0.3490 -0.4040 -0.3124
 4881SOL    HW126279   1.877   0.888   1.995  0.8681  2.3913 -1.6159
 4881SOL    HW226280   1.964   0.898   2.114 -1.4166  0.2997 -0.5823
 4882SOL     OW26281   1.184   0.710   7.419 -0.2243 -0.2145 -0.0102
 4882SOL    HW126282   1.193   0.631   7.365 -0.4614  0.0111 -0.3822
 4882SOL    HW226283   1.216   0.777   7.357  1.5457  0.5568  1.7335
 4883SOL     OW26284   1.803   1.680  16.249  0.0540  0.2413 -0.2272
 4883SOL    HW126285   1.774   1.729  16.173 -0.8027 -1.9579 -1.3066
 4883SOL    HW226286   1.871   1.630  16.204  0.0368  0.8051 -0.8621
 4884SOL     OW26287   1.512   2.446   5.942  0.3586  0.1717  0.7571
 4884SOL    HW126288   1.524   2.383   6.013 -0.5986 -0.6124  0.2130
 4884SOL    HW226289   1.501   2.382   5.872 -0.5149  0.0322  1.0226
 4885SOL     OW26290   2.016   0.647   8.644  0.4125 -0.0876 -0.0985
 4885SOL    HW126291   1.962   0.703   8.588  0.8126 -0.5124 -0.9020
 4885SOL    HW226292   2.006   0.703   8.721  1.3765 -0.2247  0.1311
 4886SOL     OW26293   3.921   3.077  11.652  0.0184 -0.1077 -0.0392
 4886SOL    HW126294   3.832   3.056  11.623 -0.0124 -1.6868  1.1872
 4886SOL    HW226295   3.969   3.025  11.589  1.3555  2.2977 -1.0147
 4887SOL     OW26296   2.178   0.350   2.373  0.4061 -0.3451  0.2338
 4887SOL    HW126297   2.224   0.275   2.409 -1.3638 -1.7831 -0.5113
 4887SOL    HW226298   2.131   0.310   2.300  0.4582 -1.7973  0.9997
 4888SOL     OW26299   3.715   4.481   3.628  0.5447  0.5639  0.4096
 4888SOL    HW126300   3.775   4.525   3.568  0.0800  0.3751 -0.1921
 4888SOL    HW226301   3.709   4.538   3.704  1.3270 -0.0633  0.9398
 4889SOL     OW26302   2.599   1.051   0.897  0.5691  0.0707 -0.7713
 4889SOL    HW126303   2.545   1.095   0.832 -0.1777  0.1643 -0.0870
 4889SOL    HW226304   2.659   1.124   0.914  3.1916 -2.3854  0.6203
 4890SOL     OW26305   1.171   0.233   9.911  0.0639  0.3614 -0.2658
 4890SOL    HW126306   1.161   0.143   9.879 -0.7622  0.7584 -1.1505
 4890SOL    HW226307   1.153   0.285   9.832 -2.7725 -0.4410 -0.1396
 4891SOL     OW26308   3.841   4.203  14.149 -0.7667 -0.6448  0.3174
 4891SOL    HW126309   3.848   4.108  14.151  0.9187 -0.5171  0.0330
 4891SOL    HW226310   3.754   4.217  14.188 -0.5738 -1.3665  0.9919
 4892SOL     OW26311   2.457   1.358  10.282 -0.1383  0.2578 -0.2741
 4892SOL    HW126312   2.375   1.384  10.240  0.6360 -0.9853 -2.5233
 4892SOL    HW226313   2.491   1.444  10.306 -0.6034  0.1053  0.9380
 4893SOL     OW26314   3.152   4.052  16.179  0.0762  1.1823 -0.2421
 4893SOL    HW126315   3.240   4.085  16.196  0.5737 -0.2005 -0.1523
 4893SOL    HW226316   3.125   4.106  16.105  0.0047 -0.1707 -1.2094
 4894SOL     OW26317   2.891   1.283  10.948 -0.2737  0.0982 -0.8094
 4894SOL    HW126318   2.946   1.295  10.871  1.2043  0.6696  0.3226
 4894SOL    HW226319   2.901   1.192  10.976  1.9006  0.3003 -0.8923
 4895SOL     OW26320   4.615   1.194   1.445  0.4433 -0.1742  0.1496
 4895SOL    HW126321   4.641   1.233   1.361 -1.4404  1.2142  0.2112
 4895SOL    HW226322   4.595   1.275   1.492 -0.2391  0.0038 -0.4525
 4896SOL     OW26323   1.546   0.599   2.697 -0.1709  0.2503 -0.1751
 4896SOL    HW126324   1.500   0.541   2.636  1.1277 -2.5345  1.5223
 4896SOL    HW226325   1.629   0.610   2.650 -0.9053  1.3584 -1.2093
 4897SOL     OW26326   4.629   3.944  15.388 -0.0759 -0.2846 -0.1620
 4897SOL    HW126327   4.608   4.029  15.428  3.3961  0.3558  0.2730
 4897SOL    HW226328   4.717   3.941  15.425 -0.0336 -0.6197 -0.2903
 4898SOL     OW26329   1.224   0.645   2.469  0.0494  0.6191  0.1990
 4898SOL    HW126330   1.226   0.717   2.406 -0.5078  0.6895  0.2615
 4898SOL    HW226331   1.131   0.653   2.492 -0.2758 -0.7273 -0.5974
 4899SOL     OW26332   3.431   2.494   3.390  0.6997  0.3013 -0.1093
 4899SOL    HW126333   3.356   2.437   3.408  0.1624  0.9731 -0.2309
 4899SOL    HW226334   3.399   2.540   3.313  0.1341 -1.3409 -0.8478
 4900SOL     OW26335   1.652   2.869   3.854  0.0150 -0.3571  0.0546
 4900SOL    HW126336   1.738   2.843   3.821 -0.2499  1.4596 -2.0673
 4900SOL    HW226337   1.597   2.797   3.824  0.9883  0.3291 -3.3399
 4901SOL     OW26338   0.375   3.064   5.993 -0.0606  0.1425  0.2643
 4901SOL    HW126339   0.294   3.067   6.043  0.4480 -0.0265  1.0954
 4901SOL    HW226340   0.392   3.158   5.992 -1.0906  0.3464  1.8470
 4902SOL     OW26341   2.101   1.793   7.417  1.0631  0.0470 -0.6594
 4902SOL    HW126342   2.177   1.850   7.405  1.8139 -1.1720 -1.7182
 4902SOL    HW226343   2.128   1.706   7.389 -0.4790 -0.6659  0.0652
 4903SOL     OW26344   1.432   2.221   4.674  0.3500  0.0014  0.6775
 4903SOL    HW126345   1.387   2.213   4.590  0.5783 -0.0704  0.5605
 4903SOL    HW226346   1.508   2.165   4.654 -0.5490 -0.7425 -0.6322
 4904SOL     OW26347   4.545   1.459  10.980 -0.2367  0.1337  0.4692
 4904SOL    HW126348   4.629   1.435  11.021 -0.1454 -0.4320 -0.0434
 4904SOL    HW226349   4.557   1.417  10.895  2.9478 -0.3815  1.1778
 4905SOL     OW26350   2.025   1.564   0.379 -0.0359 -0.3112  0.1168
 4905SOL    HW126351   1.949   1.536   0.327  0.6935 -3.5732  0.8041
 4905SOL    HW226352   1.982   1.637   0.423 -1.1517 -0.2229 -1.1015
 4906SOL     OW26353   1.921   0.410   6.072 -0.0896  0.1738  0.2103
 4906SOL    HW126354   1.982   0.370   6.010 -0.7906  0.7214 -0.8411
 4906SOL    HW226355   1.866   0.449   6.003  0.1232 -0.4391 -0.3022
 4907SOL     OW26356   3.184   0.063  15.188 -0.3305  0.3176  0.0869
 4907SOL    HW126357   3.272   0.072  15.151 -1.1946  1.0949 -1.7718
 4907SOL    HW226358   3.138   0.047  15.106 -0.2392 -1.8749  0.4740
 4908SOL     OW26359   0.152   1.525   4.285 -0.3488  0.7503  0.3364
 4908SOL    HW126360   0.155   1.458   4.217 -0.7189  0.8162  0.2515
 4908SOL    HW226361   0.229   1.575   4.257  0.6075  0.9303  3.3582
 4909SOL     OW26362   0.997   0.686   3.519  0.0859  0.0199  0.0606
 4909SOL    HW126363   0.917   0.740   3.527 -0.0666 -0.1829 -0.0988
 4909SOL    HW226364   1.051   0.737   3.459 -0.6107  0.5280 -0.1383
 4910SOL     OW26365   0.402   0.589   3.039  0.0985 -0.5391  0.3100
 4910SOL    HW126366   0.476   0.557   3.091  1.9511  2.5100 -0.5033
 4910SOL    HW226367   0.390   0.515   2.978 -2.1601 -0.1034  0.2544
 4911SOL     OW26368   2.604   1.406   1.846 -0.6594 -0.3066 -0.3545
 4911SOL    HW126369   2.671   1.340   1.861  0.7747  0.8516 -1.6151
 4911SOL    HW226370   2.629   1.452   1.766 -0.2711 -0.6546 -0.4309
 4912SOL     OW26371   2.158   1.956  17.365 -0.7705 -0.3214  0.1031
 4912SOL    HW126372   2.121   2.021  17.304 -0.1791  0.3115  0.4255
 4912SOL    HW226373   2.237   2.006  17.383  0.6392 -2.1400 -0.9996
 4913SOL     OW26374   4.693   3.800   5.881 -0.3933  0.5824  0.4691
 4913SOL    HW126375   4.680   3.894   5.892 -2.4191  0.4266 -0.6714
 4913SOL    HW226376   4.650   3.769   5.960 -0.3119 -0.8932 -0.0605
 4914SOL     OW26377   4.245   1.376  11.548 -0.1958 -0.4967  0.4451
 4914SOL    HW126378   4.151   1.384  11.561 -0.2432 -1.0069  0.4040
 4914SOL    HW226379   4.269   1.445  11.611 -1.0998 -3.3852  3.9383
 4915SOL     OW26380   1.424   4.728   4.841  0.3208  0.1222 -0.0527
 4915SOL    HW126381   1.416   0.045   4.920  1.2748 -0.0336  0.1523
 4915SOL    HW226382   1.375   0.044   4.777  0.7338 -0.1570 -0.5928
 4916SOL     OW26383   0.272   1.469   0.289  0.5792  0.1601 -0.1764
 4916SOL    HW126384   0.223   1.430   0.361  1.5222 -0.2378  0.2477
 4916SOL    HW226385   0.311   1.546   0.330 -1.7900  1.4553 -0.3370
 4917SOL     OW26386   0.796   3.247  10.450  0.2436  0.0807 -0.2141
 4917SOL    HW126387   0.742   3.223  10.525 -0.2855 -0.2504 -0.7035
 4917SOL    HW226388   0.778   3.171  10.396  0.4466 -0.3654  0.3465
 4918SOL     OW26389   2.863   1.292  12.143 -0.3955 -0.0726 -0.0762
 4918SOL    HW126390   2.776   1.287  12.104 -0.6781  0.4963  0.4639
 4918SOL    HW226391   2.860   1.359  12.212  2.1441  0.7130 -0.7515
 4919SOL     OW26392   0.766   3.537   8.035  0.2310 -0.3569 -0.3392
 4919SOL    HW126393   0.705   3.507   8.102 -1.7858  0.0372 -2.0083
 4919SOL    HW226394   0.844   3.483   8.048 -0.3671 -0.3214  3.5037
 4920SOL     OW26395   1.034   3.964  14.669 -0.4672  0.0941  0.3858
 4920SOL    HW126396   0.962   3.937  14.726  0.3192  0.1979  1.4245
 4920SOL    HW226397   1.047   4.050  14.708 -0.9315 -0.3199  1.4418
 4921SOL     OW26398   0.241   3.455  13.478  0.0295 -0.0818  0.4917
 4921SOL    HW126399   0.233   3.502  13.395  0.2055 -1.6831 -0.4181
 4921SOL    HW226400   0.204   3.524  13.534  1.7613  0.7603  0.5688
 4922SOL     OW26401   1.772   1.772  10.177  0.4532  0.2474 -0.2503
 4922SOL    HW126402   1.696   1.740  10.226  1.5692 -0.4152  1.0343
 4922SOL    HW226403   1.820   1.800  10.255 -0.2586 -0.2377  0.3602
 4923SOL     OW26404   3.681   2.399   3.182 -0.3445 -0.0188 -0.3769
 4923SOL    HW126405   3.636   2.482   3.198 -1.4207 -0.5763 -0.5052
 4923SOL    HW226406   3.703   2.409   3.089  0.6925 -0.2980 -0.1525
 4924SOL     OW26407   1.538   2.235  12.304  0.1071 -0.4983  0.1870
 4924SOL    HW126408   1.602   2.294  12.344 -0.4092 -0.1482  0.4902
 4924SOL    HW226409   1.543   2.167  12.371  0.1242  2.1265  2.8608
 4925SOL     OW26410   2.125   3.047  13.329  0.8320 -0.0341  0.3224
 4925SOL    HW126411   2.162   2.962  13.303 -0.7402 -0.5180 -0.3683
 4925SOL    HW226412   2.032   3.038  13.308  1.2110  0.3125 -1.5341
 4926SOL     OW26413   1.182   0.542   8.997 -0.1680 -0.6117  0.2358
 4926SOL    HW126414   1.205   0.541   9.089  1.6841  1.7153 -0.2060
 4926SOL    HW226415   1.087   0.543   9.008 -0.1729 -0.2124  0.1652
 4927SOL     OW26416   2.725   3.924   7.336 -0.1566  0.1877  0.2411
 4927SOL    HW126417   2.642   3.878   7.343  1.4067 -2.9054 -1.8341
 4927SOL    HW226418   2.773   3.923   7.419 -1.0564  2.4396  0.7792
 4928SOL     OW26419   0.941   2.348   3.140 -0.6576  0.0973 -0.1419
 4928SOL    HW126420   0.879   2.281   3.109  1.5087 -1.4075 -1.2414
 4928SOL    HW226421   0.892   2.429   3.127  0.3056  0.6622 -0.2206
 4929SOL     OW26422   1.739   0.776   4.110 -0.6514  0.1987  0.1984
 4929SOL    HW126423   1.661   0.726   4.135  0.0310 -0.8875  0.1402
 4929SOL    HW226424   1.768   0.730   4.031  0.0836  2.0807 -0.6279
 4930SOL     OW26425   1.305   0.716  13.339  0.0298  0.3453  0.2733
 4930SOL    HW126426   1.260   0.767  13.406  2.5127  1.4012  1.1016
 4930SOL    HW226427   1.296   0.776  13.264  0.4653 -0.1209 -0.1521
 4931SOL     OW26428   1.891   2.461   3.270 -0.0400  0.1663 -0.0979
 4931SOL    HW126429   1.982   2.464   3.300 -0.7830 -0.0407  2.1559
 4931SOL    HW226430   1.913   2.408   3.193 -1.2137  2.1089 -1.7644
 4932SOL     OW26431   4.012   3.191   6.867 -0.0245 -0.3773  0.3129
 4932SOL    HW126432   4.017   3.107   6.822  1.7046 -0.9042  1.5128
 4932SOL    HW226433   4.031   3.257   6.799 -1.5494 -1.3551 -1.0618
 4933SOL     OW26434   4.106   0.797   8.096 -0.7582  0.3653  0.2567
 4933SOL    HW126435   4.078   0.866   8.035  0.3192  0.6435  0.0795
 4933SOL    HW226436   4.077   0.838   8.178 -1.0235  0.2381  0.2255
 4934SOL     OW26437   2.083   0.055   2.999 -0.7410  0.0375 -0.1447
 4934SOL    HW126438   2.081   0.117   2.926 -0.7272  1.8194  1.3819
 4934SOL    HW226439   2.003   0.005   2.981  0.4340 -2.7090  2.4400
 4935SOL     OW26440   1.419   0.409   1.853  0.2491 -0.8539 -0.1391
 4935SOL    HW126441   1.467   0.326   1.843  0.0815 -1.0486  0.6603
 4935SOL    HW226442   1.357   0.407   1.780 -0.6952  0.8853  0.6278
 4936SOL     OW26443   4.098   2.178   2.131 -0.1410 -0.1212  0.3227
 4936SOL    HW126444   4.055   2.107   2.084 -2.2639  1.5108 -0.2213
 4936SOL    HW226445   4.072   2.160   2.222  1.4399  0.4105  0.8675
 4937SOL     OW26446   1.075   0.648   9.693  0.1336  0.2649  0.4708
 4937SOL    HW126447   1.057   0.712   9.762 -0.2171 -0.3707  0.9777
 4937SOL    HW226448   1.164   0.617   9.714  0.0552 -0.6809 -0.5730
 4938SOL     OW26449   2.527   1.334   6.788  0.2922  0.2953  0.1712
 4938SOL    HW126450   2.544   1.284   6.868 -3.5516 -0.0794  0.7459
 4938SOL    HW226451   2.516   1.422   6.825 -0.5005  0.4341 -0.4110
 4939SOL     OW26452   4.207   1.910   2.532  0.3899  0.6151  0.0600
 4939SOL    HW126453   4.241   1.877   2.616 -0.0688 -0.7034 -0.2736
 4939SOL    HW226454   4.162   1.991   2.555 -2.6318 -1.0328 -0.0194
 4940SOL     OW26455   0.835   1.362   4.980 -0.4901 -0.0652 -0.1662
 4940SOL    HW126456   0.895   1.318   4.920  1.3575  1.8748  0.2770
 4940SOL    HW226457   0.859   1.452   4.959 -1.7929  0.5422  0.9346
 4941SOL     OW26458   2.262   1.811   3.277 -0.2141  0.0205  0.1157
 4941SOL    HW126459   2.186   1.756   3.262  0.9000 -1.0649 -1.4634
 4941SOL    HW226460   2.317   1.785   3.203  1.1602 -0.7092  1.3902
 4942SOL     OW26461   3.268   2.963   3.138 -0.9794  0.1551 -0.3767
 4942SOL    HW126462   3.342   2.966   3.077 -0.6132 -0.0680  0.0519
 4942SOL    HW226463   3.203   2.955   3.069  1.2064 -0.2460 -2.3574
 4943SOL     OW26464   0.008   1.648   3.963  0.2904  0.0847 -0.4669
 4943SOL    HW126465   4.709   1.564   3.934 -0.2087 -0.1423  0.7944
 4943SOL    HW226466   0.101   1.625   3.967  0.9589  2.8154 -0.2293
 4944SOL     OW26467   2.055   2.203   3.581 -0.1460  0.8966 -0.0261
 4944SOL    HW126468   2.111   2.129   3.560 -0.4356  0.6713 -0.0002
 4944SOL    HW226469   2.034   2.197   3.674  1.2423 -2.0663  0.0830
 4945SOL     OW26470   2.771   0.070   4.710  0.2470  0.1261  0.1115
 4945SOL    HW126471   2.731   0.001   4.764  1.5242 -0.7883 -0.0983
 4945SOL    HW226472   2.806   0.127   4.779 -0.1450 -0.5680  0.8864
 4946SOL     OW26473   3.917   1.785  13.488 -0.2182  0.0122 -0.2615
 4946SOL    HW126474   3.826   1.815  13.477  0.2877  0.4733 -3.0746
 4946SOL    HW226475   3.939   1.854  13.551  1.4521  0.4931 -1.3901
 4947SOL     OW26476   2.261   2.769   6.134  0.3680  0.0713  0.1393
 4947SOL    HW126477   2.350   2.803   6.145 -0.0155  0.7042  1.3996
 4947SOL    HW226478   2.283   2.683   6.098 -1.2871 -0.2419 -0.0904
 4948SOL     OW26479   1.201   3.954  14.061 -0.7849 -0.2520  0.4249
 4948SOL    HW126480   1.131   3.894  14.088 -0.1582 -0.2925  1.9559
 4948SOL    HW226481   1.166   3.971  13.973  0.0399  3.9260  0.9037
 4949SOL     OW26482   3.052   1.791   0.417  0.0626 -0.6247  0.3749
 4949SOL    HW126483   3.093   1.705   0.424 -0.0870 -0.6461  0.9715
 4949SOL    HW226484   3.052   1.827   0.506  3.1936  0.1102  0.0636
 4950SOL     OW26485   4.467   0.345   4.847  0.4046 -0.4376  0.0005
 4950SOL    HW126486   4.392   0.307   4.893  1.8804 -0.4495  2.3906
 4950SOL    HW226487   4.545   0.340   4.902  0.7685  0.6643 -0.4077
 4951SOL     OW26488   1.759   2.159   2.785  0.6211 -0.3704  0.6402
 4951SOL    HW126489   1.769   2.254   2.790  1.9087 -0.3155 -2.8549
 4951SOL    HW226490   1.665   2.152   2.797  0.5519  1.0843  0.8943
 4952SOL     OW26491   0.463   3.270   3.533  0.3306 -0.3340  0.4795
 4952SOL    HW126492   0.453   3.197   3.594  1.0276  0.7766  1.9342
 4952SOL    HW226493   0.440   3.229   3.450  0.8291 -0.7003  0.5268
 4953SOL     OW26494   1.291   4.453   9.731 -0.1624  0.0483  0.4967
 4953SOL    HW126495   1.328   4.537   9.760  0.8970 -1.4617  3.4939
 4953SOL    HW226496   1.362   4.394   9.756  0.9821  0.8847 -0.7783
 4954SOL     OW26497   4.697   1.552   4.708  0.2569  0.6681 -0.4533
 4954SOL    HW126498   4.679   1.629   4.762  2.3998 -0.2192  1.5178
 4954SOL    HW226499   0.045   1.571   4.666  0.3455  1.3365  0.0275
 4955SOL     OW26500   0.565   2.632   3.016  0.6184 -0.5319  0.5860
 4955SOL    HW126501   0.546   2.578   2.940 -0.9357  0.5437  0.2082
 4955SOL    HW226502   0.534   2.717   2.986  0.0036 -0.7879  0.4997
 4956SOL     OW26503   3.144   2.213   6.213 -0.9686 -0.0039 -0.5841
 4956SOL    HW126504   3.163   2.299   6.250  1.5428 -0.2718 -1.2385
 4956SOL    HW226505   3.173   2.154   6.283 -0.5875  1.6794  0.6720
 4957SOL     OW26506   2.057   2.817   6.473 -0.2246  0.0781  0.3597
 4957SOL    HW126507   2.114   2.893   6.461 -1.2867  0.8654  0.2918
 4957SOL    HW226508   2.089   2.753   6.410 -0.2660  1.4594 -1.0601
 4958SOL     OW26509   1.857   2.166   1.813  0.6799 -0.4203 -0.1984
 4958SOL    HW126510   1.818   2.253   1.799 -0.4094 -0.7189  1.0568
 4958SOL    HW226511   1.948   2.194   1.806  0.8273 -0.7181  0.6368
 4959SOL     OW26512   3.067   2.492   7.778  0.7489 -0.0007  0.2964
 4959SOL    HW126513   3.038   2.561   7.837  0.5188  0.3613 -0.2403
 4959SOL    HW226514   3.059   2.416   7.835 -2.1981  0.3349  0.3155
 4960SOL     OW26515   1.239   1.953  14.508 -0.2343 -0.2430 -0.3139
 4960SOL    HW126516   1.174   1.886  14.487  0.3662 -1.2524  1.0401
 4960SOL    HW226517   1.267   1.928  14.596  0.4722 -0.4118 -0.5874
 4961SOL     OW26518   2.174   2.656   3.995 -0.5924  0.0261 -0.0759
 4961SOL    HW126519   2.243   2.609   4.043 -0.1031 -0.3221 -1.1206
 4961SOL    HW226520   2.128   2.703   4.064 -0.3862  1.4598 -0.9206
 4962SOL     OW26521   1.519   2.143  10.173 -0.1821  0.0853  0.1167
 4962SOL    HW126522   1.579   2.117  10.242  1.8032  0.8711 -1.3122
 4962SOL    HW226523   1.562   2.127  10.089  0.6444 -1.3988  0.8321
 4963SOL     OW26524   3.669   2.265   3.596  0.1436  0.3778  0.4269
 4963SOL    HW126525   3.669   2.171   3.580  1.5019  0.7402 -1.7456
 4963SOL    HW226526   3.719   2.304   3.524  0.7039  1.8238  1.5850
 4964SOL     OW26527   0.046   0.559   5.870 -0.0651  0.1668  0.3066
 4964SOL    HW126528   0.038   0.528   5.960 -1.1202 -2.8238 -0.8421
 4964SOL    HW226529   0.024   0.651   5.886  1.0926  0.4641  0.2146
 4965SOL     OW26530   4.216   3.043  12.933  0.1661  0.3484 -0.1100
 4965SOL    HW126531   4.194   2.955  12.965  1.0458 -0.3101 -1.2973
 4965SOL    HW226532   4.181   3.099  13.002 -0.4938  0.8301 -0.8304
 4966SOL     OW26533   1.667   0.249   2.255 -0.3278  0.5138  0.0108
 4966SOL    HW126534   1.607   0.238   2.182 -2.2057  1.3412  1.4496
 4966SOL    HW226535   1.751   0.265   2.211 -0.0035 -0.5175  0.2418
 4967SOL     OW26536   2.947   2.894   8.450  0.2965  0.8409 -0.2102
 4967SOL    HW126537   2.941   2.907   8.544 -0.1775  0.4540 -0.1895
 4967SOL    HW226538   2.952   2.799   8.457  4.4134  0.9792 -1.4057
 4968SOL     OW26539   0.680   1.911   4.055  0.4350  0.4681  0.2691
 4968SOL    HW126540   0.735   1.968   4.108 -0.4218  1.2784  0.2789
 4968SOL    HW226541   0.595   1.950   4.078 -0.9370 -1.8746 -0.7604
 4969SOL     OW26542   2.292   1.691  16.503  0.2142 -0.3988  0.0083
 4969SOL    HW126543   2.273   1.703  16.410  1.7537 -1.7288 -0.4794
 4969SOL    HW226544   2.329   1.603  16.512 -0.1773 -0.8378 -2.4574
 4970SOL     OW26545   4.514   3.645  11.120  0.1267 -0.1548 -0.1064
 4970SOL    HW126546   4.556   3.607  11.197 -1.3458  0.2477  0.8948
 4970SOL    HW226547   4.570   3.722  11.106 -0.6492  0.6946  1.4339
 4971SOL     OW26548   0.745   0.712   3.954 -0.4044 -0.1823 -0.0433
 4971SOL    HW126549   0.690   0.664   4.016 -0.6163  1.1759  0.8097
 4971SOL    HW226550   0.830   0.694   3.994 -0.9286  0.5681  1.3876
 4972SOL     OW26551   2.067   1.599   3.257  0.4974  0.4437 -0.6685
 4972SOL    HW126552   2.015   1.530   3.217 -1.3255  0.9259  0.8596
 4972SOL    HW226553   1.998   1.639   3.310  2.8541  3.0768  0.4480
 4973SOL     OW26554   1.149   4.284   2.118  0.2145 -0.1245  0.4927
 4973SOL    HW126555   1.150   4.353   2.051  0.4242  1.6471  2.3155
 4973SOL    HW226556   1.182   4.205   2.077  1.4391  0.9972 -0.6848
 4974SOL     OW26557   4.221   1.786   8.021 -0.6870  0.4904  0.3576
 4974SOL    HW126558   4.204   1.776   7.928 -3.0472 -1.6982  1.0332
 4974SOL    HW226559   4.316   1.768   8.022 -0.5319  1.3303  0.3471
 4975SOL     OW26560   1.969   2.313   2.514  0.7005 -0.2557  0.1027
 4975SOL    HW126561   2.051   2.297   2.560  0.6985  0.5726  0.4064
 4975SOL    HW226562   1.907   2.343   2.582  0.5295  0.3309 -0.3048
 4976SOL     OW26563   3.980   0.547   8.048 -0.1215  0.1957  0.4208
 4976SOL    HW126564   4.056   0.492   8.030 -0.9477 -1.5457  2.2239
 4976SOL    HW226565   4.019   0.634   8.051  1.8657 -0.6717 -0.8158
 4977SOL     OW26566   3.159   4.592   7.611 -0.3173  0.2944  0.0343
 4977SOL    HW126567   3.182   4.565   7.700 -1.1960 -0.6463 -0.0306
 4977SOL    HW226568   3.071   4.628   7.620  0.4617  2.2417 -0.0864
 4978SOL     OW26569   1.328   0.418   3.689 -0.5029  0.1385 -0.4099
 4978SOL    HW126570   1.307   0.496   3.638  2.5356  0.7471 -0.7325
 4978SOL    HW226571   1.242   0.384   3.715 -0.6537  0.8674  0.0427
 4979SOL     OW26572   4.082   0.278   2.449 -0.3846  0.0017  0.1853
 4979SOL    HW126573   4.088   0.336   2.373  0.6976  2.2014  1.9369
 4979SOL    HW226574   4.108   0.195   2.409  3.1518  1.0342  0.3127
 4980SOL     OW26575   1.940   3.003   9.310  0.0764  0.4126  0.3489
 4980SOL    HW126576   2.029   2.973   9.292 -0.0219 -0.0048  0.5640
 4980SOL    HW226577   1.909   2.923   9.353 -0.4143  0.9594  1.0150
 4981SOL     OW26578   2.855   2.736   4.164 -0.1399  0.0104  0.0695
 4981SOL    HW126579   2.760   2.737   4.155 -0.1973 -1.0723  0.5022
 4981SOL    HW226580   2.858   2.770   4.253 -0.1365  0.9460 -0.2961
 4982SOL     OW26581   0.177   0.485  13.715 -0.1282  0.0065 -0.3460
 4982SOL    HW126582   0.198   0.574  13.745  0.8508  0.4660 -2.3799
 4982SOL    HW226583   0.182   0.430  13.793 -1.1974 -0.4066 -0.5816
 4983SOL     OW26584   0.585   0.350   8.137  0.0557  0.0576 -0.1722
 4983SOL    HW126585   0.561   0.261   8.112  0.3528 -0.5484  1.7030
 4983SOL    HW226586   0.581   0.339   8.232 -1.1728 -0.2575 -0.2588
 4984SOL     OW26587   1.677   0.708   2.156 -0.5956  0.0624 -0.3054
 4984SOL    HW126588   1.678   0.779   2.092  0.5143  0.4451  0.1350
 4984SOL    HW226589   1.754   0.658   2.130  1.1605  3.5610 -1.7764
 4985SOL     OW26590   0.417   2.621   0.891  0.0021  0.1292 -0.2780
 4985SOL    HW126591   0.417   2.584   0.979 -1.6328 -1.1475 -0.8057
 4985SOL    HW226592   0.322   2.611   0.882  0.0977 -1.0588 -0.0041
 4986SOL     OW26593   4.017   0.581   5.761  0.1748 -0.1814 -0.4443
 4986SOL    HW126594   4.019   0.673   5.787 -1.1079 -0.6157  1.1710
 4986SOL    HW226595   3.955   0.545   5.825 -1.0278  1.4134 -0.7146
 4987SOL     OW26596   1.143   0.012   5.325 -0.2547 -0.7844  0.9799
 4987SOL    HW126597   1.161   0.015   5.419 -1.6446  2.0697  1.1350
 4987SOL    HW226598   1.113   0.101   5.310  0.0221 -1.1194 -1.6408
 4988SOL     OW26599   0.725   0.282  14.591  0.0237  0.3919 -0.0633
 4988SOL    HW126600   0.739   0.375  14.572 -0.6516  0.3135 -0.9615
 4988SOL    HW226601   0.692   0.290  14.680  1.7511 -0.0653  0.6113
 4989SOL     OW26602   2.239   3.433   6.449 -0.4682 -0.0317  0.0430
 4989SOL    HW126603   2.206   3.357   6.400  1.6875 -1.4338  0.7643
 4989SOL    HW226604   2.158   3.479   6.471 -0.4515 -0.6382  1.4306
 4990SOL     OW26605   4.597   0.318  13.755 -0.1871  0.3609 -0.0303
 4990SOL    HW126606   4.636   0.239  13.719 -0.0868  0.3150  0.1758
 4990SOL    HW226607   4.595   0.377  13.680  0.3543 -0.7384 -0.9019
 4991SOL     OW26608   2.195   4.117  16.250 -0.6134  0.2085 -0.1054
 4991SOL    HW126609   2.253   4.118  16.326 -1.1627  0.6902  0.3096
 4991SOL    HW226610   2.131   4.055  16.285 -0.8198  0.3651 -0.2059
 4992SOL     OW26611   1.507   1.692   7.930 -0.0281 -0.4006  0.4875
 4992SOL    HW126612   1.473   1.633   7.998 -0.2385 -1.8390 -0.8628
 4992SOL    HW226613   1.600   1.671   7.943  0.2601  0.1296 -0.7884
 4993SOL     OW26614   1.261   4.605   1.095 -0.1415  0.3510 -0.1896
 4993SOL    HW126615   1.182   4.566   1.133 -0.3931  0.5006 -0.5506
 4993SOL    HW226616   1.227   4.655   1.020  0.5078  0.4510 -0.4127
 4994SOL     OW26617   1.038   1.187   5.727  0.2933  0.1378  0.0839
 4994SOL    HW126618   1.024   1.263   5.783  0.7677  0.4836 -0.2703
 4994SOL    HW226619   0.946   1.159   5.723  0.2326  0.2533  0.5745
 4995SOL     OW26620   4.613   1.738   6.107 -0.2721  0.2018 -0.5049
 4995SOL    HW126621   4.623   1.654   6.152 -1.5270 -0.3176 -1.1992
 4995SOL    HW226622   4.668   1.797   6.158 -1.2123  1.1468 -0.5688
 4996SOL     OW26623   2.340   1.151   3.588 -0.3015 -0.1691  1.0076
 4996SOL    HW126624   2.334   1.223   3.651  0.8164 -1.0242  2.0914
 4996SOL    HW226625   2.249   1.133   3.565 -0.6119  1.5775  0.8627
 4997SOL     OW26626   4.473   0.946   8.489  0.2523 -0.3862 -0.1955
 4997SOL    HW126627   4.498   0.870   8.541  0.9028  0.3987  0.6316
 4997SOL    HW226628   4.549   1.003   8.497 -0.4994  0.9013 -2.1542
 4998SOL     OW26629   3.990   3.032   8.472  0.2262 -0.1728 -0.3334
 4998SOL    HW126630   3.898   3.023   8.495 -0.4047  0.3810 -2.5628
 4998SOL    HW226631   4.021   2.942   8.477  0.0875 -0.3834 -3.0758
 4999SOL     OW26632   2.355   3.289   8.088  0.5244  0.0133 -0.4175
 4999SOL    HW126633   2.419   3.227   8.123 -0.6725 -1.1472 -0.2797
 4999SOL    HW226634   2.401   3.314   8.008  2.2984 -0.7371  0.3806
 5000SOL     OW26635   4.301   0.824  12.477 -0.0178  0.2784  0.1397
 5000SOL    HW126636   4.276   0.738  12.510  1.2541  0.2470  0.9968
 5000SOL    HW226637   4.296   0.813  12.382  0.3881 -0.0499  0.1608
 5001SOL     OW26638   0.200   0.004   2.510  0.0349 -0.0013 -0.1938
 5001SOL    HW126639   0.174   4.712   2.597  1.6954 -3.8308 -0.9274
 5001SOL    HW226640   0.113   0.007   2.470  0.9159 -2.0394 -2.2506
 5002SOL     OW26641   0.209   2.008   8.614 -0.5808 -0.6070 -0.0704
 5002SOL    HW126642   0.147   2.033   8.683 -1.2532  1.0534 -1.2975
 5002SOL    HW226643   0.241   2.095   8.593 -3.9081  1.4864  3.4053
 5003SOL     OW26644   4.150   1.601  14.459 -0.2408 -0.1459 -0.0947
 5003SOL    HW126645   4.056   1.619  14.454 -0.1968  0.2488  0.4008
 5003SOL    HW226646   4.157   1.518  14.412  0.5089 -0.3109  0.3039
 5004SOL     OW26647   1.821   0.002   2.684  0.6250  0.4727 -0.4236
 5004SOL    HW126648   1.779   0.074   2.638  0.1836  1.5413  1.6621
 5004SOL    HW226649   1.749   4.676   2.687  0.1581  1.0503  0.3737
 5005SOL     OW26650   4.695   4.656   8.009 -0.2681  0.2602 -0.1877
 5005SOL    HW126651   0.002   4.724   7.956  0.2366  1.1645  1.3694
 5005SOL    HW226652   4.614   4.642   7.961 -0.2838  0.1484 -0.1282
 5006SOL     OW26653   3.971   3.803   5.935 -0.6618 -0.0617 -0.4658
 5006SOL    HW126654   4.031   3.833   6.003 -1.2280  0.1853 -0.0726
 5006SOL    HW226655   4.023   3.785   5.857 -0.2408 -1.6052  0.1617
 5007SOL     OW26656   2.902   1.668   6.203 -0.4012 -0.1357 -0.7701
 5007SOL    HW126657   2.819   1.652   6.248 -0.8849 -0.1023 -1.6407
 5007SOL    HW226658   2.956   1.690   6.279  0.0788 -1.1657 -0.8237
 5008SOL     OW26659   3.996   0.184  14.979  0.0798 -0.2158  0.0272
 5008SOL    HW126660   4.062   0.207  14.914 -1.3907  0.9095 -1.0562
 5008SOL    HW226661   4.034   0.100  15.007 -1.9896 -0.9514  0.6397
 5009SOL     OW26662   1.704   0.934   1.976 -0.0508 -0.6374  0.1590
 5009SOL    HW126663   1.663   0.992   2.040  0.4742  0.4149 -0.4716
 5009SOL    HW226664   1.708   0.999   1.907 -0.7304 -1.2116 -0.4166
 5010SOL     OW26665   4.339   2.297   2.154 -0.4161 -0.3927  0.2008
 5010SOL    HW126666   4.375   2.224   2.103 -0.6867 -0.7227  0.4774
 5010SOL    HW226667   4.249   2.267   2.169 -0.1848 -0.6934  1.0092
 5011SOL     OW26668   1.405   4.342   8.298 -0.3007 -0.6499  0.1931
 5011SOL    HW126669   1.338   4.286   8.259 -0.0145 -0.6058 -0.3702
 5011SOL    HW226670   1.352   4.388   8.363 -0.3180 -1.1949  0.5646
 5012SOL     OW26671   4.182   3.189   7.839  0.1614  0.1178 -0.1150
 5012SOL    HW126672   4.222   3.254   7.782  1.0471  0.0508  0.4369
 5012SOL    HW226673   4.204   3.105   7.799 -0.9988 -0.8006  1.1560
 5013SOL     OW26674   1.972   3.771   4.129 -0.2705  0.8071  0.2023
 5013SOL    HW126675   1.942   3.813   4.209  0.7181 -1.1148  1.5949
 5013SOL    HW226676   2.028   3.698   4.157  0.8304  0.9050 -1.7250
 5014SOL     OW26677   4.032   0.907   3.677  0.3611  0.1645  0.4684
 5014SOL    HW126678   4.092   0.838   3.651  1.8836  1.3645  0.7693
 5014SOL    HW226679   4.095   0.975   3.704 -2.8394  2.1915  2.7797
 5015SOL     OW26680   3.608   3.708   4.318 -0.1237  0.2089 -0.6795
 5015SOL    HW126681   3.690   3.742   4.281  2.4483 -2.7804  2.2990
 5015SOL    HW226682   3.543   3.778   4.330 -0.0346  0.2768 -0.5982
 5016SOL     OW26683   0.378   0.696   8.997  0.5089 -0.2833 -1.0771
 5016SOL    HW126684   0.438   0.739   8.936  1.8817  1.8216  1.7974
 5016SOL    HW226685   0.425   0.699   9.080 -3.8631 -0.4915  1.4218
 5017SOL     OW26686   0.634   4.395   3.945 -0.1983 -0.1264 -0.1057
 5017SOL    HW126687   0.594   4.478   3.971  2.7963  0.8289  1.4844
 5017SOL    HW226688   0.721   4.431   3.925 -0.6451  1.1636  0.2858
 5018SOL     OW26689   0.121   0.625   2.507  0.2247 -0.3984 -0.1771
 5018SOL    HW126690   0.163   0.698   2.463  0.6212  1.0260  2.5681
 5018SOL    HW226691   0.052   0.667   2.559  0.5130 -0.4365  0.2397
 5019SOL     OW26692   0.230   1.961  16.963 -0.4453 -0.1683 -0.2015
 5019SOL    HW126693   0.200   1.910  17.038 -1.5711 -1.3300 -1.4342
 5019SOL    HW226694   0.150   2.014  16.953 -0.5636 -0.2047  0.5287
 5020SOL     OW26695   2.002   3.012   7.180 -0.0665 -0.3523  0.0663
 5020SOL    HW126696   1.992   3.088   7.123 -2.5761 -0.6164  0.1357
 5020SOL    HW226697   1.913   3.002   7.216  0.2128 -1.4493  0.4418
 5021SOL     OW26698   0.324   0.484   7.784 -0.1205  0.6312 -0.2492
 5021SOL    HW126699   0.363   0.567   7.757  0.4181  0.5175  0.1805
 5021SOL    HW226700   0.396   0.428   7.754 -1.7188 -1.3732 -0.2734
 5022SOL     OW26701   3.875   3.858   4.329  0.5644 -0.3882 -0.5946
 5022SOL    HW126702   3.899   3.809   4.408  3.4894  0.0170 -1.2296
 5022SOL    HW226703   3.900   3.940   4.371 -0.8502 -0.9157  1.2919
 5023SOL     OW26704   0.387   2.697   9.498  0.9135  0.4097  0.5259
 5023SOL    HW126705   0.418   2.619   9.544  0.3053 -0.8580 -1.2430
 5023SOL    HW226706   0.469   2.737   9.467 -0.3848  2.5775 -0.1298
 5024SOL     OW26707   4.154   0.991   7.686 -0.6955 -0.1304 -0.6705
 5024SOL    HW126708   4.180   1.022   7.599 -2.4783 -1.6248 -1.7140
 5024SOL    HW226709   4.143   0.898   7.668  2.4266 -0.6368 -0.0071
 5025SOL     OW26710   1.817   0.747   7.384  0.0407  0.4267 -0.2842
 5025SOL    HW126711   1.730   0.706   7.383 -0.0048  0.5208 -0.3219
 5025SOL    HW226712   1.871   0.671   7.402  0.7440  0.3079 -2.8393
 5026SOL     OW26713   0.877   0.851  16.130  0.5908 -0.4301 -0.2142
 5026SOL    HW126714   0.815   0.839  16.201  0.8358 -3.7757 -0.5661
 5026SOL    HW226715   0.885   0.761  16.096 -3.7764 -1.4937  1.7127
 5027SOL     OW26716   4.362   3.115   4.256 -0.2465 -0.1788  0.0653
 5027SOL    HW126717   4.381   3.172   4.331  0.2092 -0.6085  0.2696
 5027SOL    HW226718   4.389   3.032   4.294  0.9830 -0.3483 -1.1959
 5028SOL     OW26719   1.679   1.882   2.667 -0.0786 -0.2242 -0.0314
 5028SOL    HW126720   1.707   1.864   2.577 -1.4179  0.1215 -0.5064
 5028SOL    HW226721   1.710   1.970   2.685 -2.9272  0.8087 -0.2742
 5029SOL     OW26722   1.795   2.841  17.586  0.2465  0.4755  0.4405
 5029SOL    HW126723   1.886   2.839  17.614 -0.3564 -1.4115  2.3067
 5029SOL    HW226724   1.762   2.870  17.671  1.7040  3.7776 -0.1422
 5030SOL     OW26725   3.984   0.415  10.971 -0.2720  0.1566  0.3833
 5030SOL    HW126726   3.987   0.390  11.063  2.5906  1.7594  0.7213
 5030SOL    HW226727   3.954   0.505  10.976  1.7918  0.9088 -0.3966
 5031SOL     OW26728   3.907   4.106   9.332 -0.1161  0.0258  0.1886
 5031SOL    HW126729   3.881   4.198   9.330 -0.6411 -0.1440 -0.6789
 5031SOL    HW226730   3.895   4.093   9.426 -0.0257 -3.5656 -0.2731
 5032SOL     OW26731   2.211   2.568   2.529  0.1846  0.2854 -0.3163
 5032SOL    HW126732   2.180   2.485   2.492  0.2054  0.4701 -0.7415
 5032SOL    HW226733   2.194   2.555   2.622 -0.6862 -0.4916 -0.5806
 5033SOL     OW26734   3.205   0.481   2.105  0.4175 -0.2647  0.3822
 5033SOL    HW126735   3.136   0.415   2.115  1.2449 -1.2791 -0.5649
 5033SOL    HW226736   3.225   0.487   2.199 -0.9249 -1.1824  0.7315
 5034SOL     OW26737   2.595   1.189   5.802 -0.5521  0.5308 -0.8491
 5034SOL    HW126738   2.539   1.264   5.782  0.6371  0.8100 -3.1104
 5034SOL    HW226739   2.664   1.208   5.738 -0.1516  0.0586 -0.5526
 5035SOL     OW26740   2.595   1.917  10.304 -0.4040  0.2097 -0.2329
 5035SOL    HW126741   2.549   1.833  10.308 -0.9931  0.5972  1.2237
 5035SOL    HW226742   2.682   1.894  10.339  0.3791  1.8099 -1.1176
 5036SOL     OW26743   2.467   1.523   3.915  0.2648 -0.6438 -0.7322
 5036SOL    HW126744   2.400   1.497   3.979 -0.4418  0.0139 -1.2067
 5036SOL    HW226745   2.473   1.450   3.853 -1.2218 -0.2960 -1.2895
 5037SOL     OW26746   2.293   1.107   3.007  0.8354  0.1796  0.2306
 5037SOL    HW126747   2.199   1.124   3.003  0.6519 -1.5769 -2.5045
 5037SOL    HW226748   2.311   1.139   3.096 -1.1617  0.5527  0.5008
 5038SOL     OW26749   2.178   0.921   3.477  0.3516 -0.2289  0.1225
 5038SOL    HW126750   2.126   0.867   3.535  0.3835 -0.4334 -0.0381
 5038SOL    HW226751   2.172   0.864   3.400  0.7466  1.3076 -1.0519
 5039SOL     OW26752   0.764   0.709   1.967 -0.7143  0.0632  0.3876
 5039SOL    HW126753   0.670   0.694   1.981 -0.4245 -0.9137  1.2819
 5039SOL    HW226754   0.780   0.765   2.043 -0.7676  0.7313 -0.0967
 5040SOL     OW26755   4.059   0.277  17.528 -0.4723 -0.7999 -0.0545
 5040SOL    HW126756   4.051   0.226  17.608  0.6955  0.5511  0.9294
 5040SOL    HW226757   4.064   0.199  17.473  2.0983 -0.8536  0.2618
 5041SOL     OW26758   0.052   0.683   4.545  0.4853 -0.0033  0.9670
 5041SOL    HW126759   0.051   0.779   4.546 -1.4471 -0.0275 -0.5154
 5041SOL    HW226760   0.010   0.661   4.628 -2.5930  1.1500 -0.3036
 5042SOL     OW26761   1.487   1.127   8.854 -0.0133  0.2530 -0.4939
 5042SOL    HW126762   1.509   1.209   8.898  1.2982 -0.4646  0.1939
 5042SOL    HW226763   1.567   1.074   8.854 -0.5414 -0.5311 -1.8259
 5043SOL     OW26764   1.578   1.572   0.242 -0.3690 -0.6333 -0.3990
 5043SOL    HW126765   1.508   1.510   0.225  0.4942 -1.7523  0.1090
 5043SOL    HW226766   1.556   1.650   0.190  0.2857  1.5783  2.6403
 5044SOL     OW26767   4.164   1.042   8.981  0.2979 -0.5261 -0.1694
 5044SOL    HW126768   4.069   1.040   8.964  0.2863  1.5120 -0.3328
 5044SOL    HW226769   4.169   1.066   9.074 -0.1891 -0.8519 -0.0613
 5045SOL     OW26770   1.522   0.069   3.111  0.0772 -0.6712 -0.0705
 5045SOL    HW126771   1.587   0.079   3.041 -0.3926 -0.8835 -0.5434
 5045SOL    HW226772   1.467   0.147   3.099  1.6060  0.1811 -1.6324
 5046SOL     OW26773   4.546   3.634   2.742 -0.4693 -0.2876  0.0647
 5046SOL    HW126774   4.554   3.548   2.700 -1.7618 -1.4993  2.3013
 5046SOL    HW226775   4.634   3.670   2.734  0.2317 -1.8485  0.8247
 5047SOL     OW26776   3.004   1.740  17.059  0.1537  0.0379  0.1239
 5047SOL    HW126777   2.992   1.831  17.083  0.5299  0.1788 -0.2114
 5047SOL    HW226778   2.968   1.730  16.971  1.4219  0.7168 -0.4758
 5048SOL     OW26779   0.345   0.053   2.959  0.1037 -0.8469  0.5378
 5048SOL    HW126780   0.433   0.078   2.987 -1.0944 -0.6618  4.0256
 5048SOL    HW226781   0.292   0.087   3.031 -1.6324 -0.9529 -0.6871
 5049SOL     OW26782   3.649   3.952   0.699  0.1008  0.1027  0.1872
 5049SOL    HW126783   3.651   4.017   0.769 -1.2140  2.3859 -1.8882
 5049SOL    HW226784   3.628   4.011   0.626  0.1122  0.1217  0.1993
 5050SOL     OW26785   1.429   4.300   6.326  0.1302 -0.2963  0.0392
 5050SOL    HW126786   1.478   4.218   6.317 -1.2887 -1.0798 -0.5661
 5050SOL    HW226787   1.477   4.326   6.405  0.1667  1.4965 -0.5941
 5051SOL     OW26788   0.073   3.703   2.808 -0.0186  0.3042 -0.2755
 5051SOL    HW126789   0.137   3.633   2.822 -0.1017  0.3001  0.0919
 5051SOL    HW226790   0.099   3.769   2.872  0.8113 -0.1113 -0.1846
 5052SOL     OW26791   2.174   0.417   3.298 -0.1284  0.3779 -0.5451
 5052SOL    HW126792   2.126   0.462   3.229 -0.4545 -1.3505 -1.4418
 5052SOL    HW226793   2.135   0.330   3.291  1.1107 -0.2293  0.0557
 5053SOL     OW26794   2.061   0.469   7.060 -0.4654  0.7235  0.1964
 5053SOL    HW126795   1.967   0.466   7.046 -0.3430 -0.0005 -0.4252
 5053SOL    HW226796   2.087   0.501   6.974 -2.7638  0.9709 -0.4077
 5054SOL     OW26797   2.842   4.658   1.044 -0.1217  0.5567  0.1310
 5054SOL    HW126798   2.935   4.638   1.049 -0.0575  1.5291  2.9214
 5054SOL    HW226799   2.836   0.003   1.094 -1.5143  0.6075 -0.0971
 5055SOL     OW26800   0.517   1.556   3.782  0.1746 -0.2914  0.6707
 5055SOL    HW126801   0.506   1.526   3.872 -0.0943  0.2418  0.8086
 5055SOL    HW226802   0.599   1.509   3.763  0.6219  0.1744  1.4456
 5056SOL     OW26803   0.898   3.465   2.735 -0.4349  0.5304  0.2580
 5056SOL    HW126804   0.882   3.549   2.692 -0.0035  1.0216  1.0500
 5056SOL    HW226805   0.985   3.446   2.699 -2.0188  0.0860 -3.2686
 5057SOL     OW26806   4.025   0.673   0.020  0.5982 -0.5685  0.2573
 5057SOL    HW126807   3.996   0.669   0.112 -0.6282  1.0541 -0.0666
 5057SOL    HW226808   4.093   0.740   0.014 -0.4109  0.2808 -1.5172
 5058SOL     OW26809   2.694   3.523   2.879  0.6980  0.5065  0.3459
 5058SOL    HW126810   2.693   3.610   2.840  0.0727  0.4202  0.1701
 5058SOL    HW226811   2.788   3.508   2.892  0.7595 -0.1569 -0.8699
 5059SOL     OW26812   3.014   3.734   2.732 -0.2504 -0.3504 -0.2469
 5059SOL    HW126813   3.012   3.644   2.700  1.6957  0.4068 -2.5206
 5059SOL    HW226814   2.926   3.745   2.767 -0.1686 -0.8311  0.1131
 5060SOL     OW26815   3.211   0.018  14.694  0.0011  0.0758 -0.5009
 5060SOL    HW126816   3.243   4.697  14.624 -1.8665 -2.3516  0.5898
 5060SOL    HW226817   3.182   0.096  14.648  0.4786  0.6263  0.1298
 5061SOL     OW26818   0.317   4.670   8.286 -0.2237  0.2121  0.0865
 5061SOL    HW126819   0.272   4.591   8.255  0.7172  0.6617 -2.4188
 5061SOL    HW226820   0.243   4.731   8.284  1.6707  2.5194  0.6473
 5062SOL     OW26821   1.580   4.553   4.453 -0.0557 -0.5723  0.2940
 5062SOL    HW126822   1.541   4.483   4.505  0.4328 -0.6546  0.5479
 5062SOL    HW226823   1.650   4.502   4.412 -1.2977 -0.4737 -1.9316
 5063SOL     OW26824   3.701   4.485   6.269 -0.1087 -0.3687 -0.1331
 5063SOL    HW126825   3.706   4.407   6.213  3.1720 -0.4171  0.2396
 5063SOL    HW226826   3.721   4.446   6.354  0.4717  1.9500  0.7843
 5064SOL     OW26827   4.130   2.269   3.082  0.4632  0.1941 -0.0739
 5064SOL    HW126828   4.163   2.341   3.028  1.2159  0.3781  0.6394
 5064SOL    HW226829   4.172   2.306   3.160  2.2759  1.4506 -1.6556
 5065SOL     OW26830   1.563   3.333  14.895 -0.1323 -0.1335  0.1495
 5065SOL    HW126831   1.575   3.424  14.924  0.3749  0.3134 -1.4609
 5065SOL    HW226832   1.482   3.318  14.943  0.7627 -1.5342  1.2231
 5066SOL     OW26833   2.814   2.418   1.493  0.1291  0.1480  0.4204
 5066SOL    HW126834   2.889   2.417   1.434 -0.2342  2.0143 -0.0694
 5066SOL    HW226835   2.782   2.329   1.477 -0.5130  0.5109 -0.3150
 5067SOL     OW26836   2.242   4.235   5.041 -0.3490 -0.2408 -0.6909
 5067SOL    HW126837   2.295   4.171   4.992  1.6096  0.3298  0.6834
 5067SOL    HW226838   2.236   4.294   4.967 -2.3763  1.5688  0.9119
 5068SOL     OW26839   3.009   1.891   3.823  0.3386  0.5855 -0.1979
 5068SOL    HW126840   2.932   1.890   3.766 -0.8364  2.0110  1.3552
 5068SOL    HW226841   3.073   1.843   3.770  0.3890 -0.1726  0.5405
 5069SOL     OW26842   3.828   4.619  15.758 -0.3363 -0.8237 -0.4881
 5069SOL    HW126843   3.917   4.641  15.784 -0.9305  0.3588  0.5645
 5069SOL    HW226844   3.803   4.709  15.735 -2.5183 -1.1570  0.5488
 5070SOL     OW26845   3.798   4.252   8.833  0.1766 -0.0346  0.2696
 5070SOL    HW126846   3.824   4.165   8.802 -0.7102  0.0810 -0.8156
 5070SOL    HW226847   3.870   4.277   8.891 -0.9119  0.8716  1.2113
 5071SOL     OW26848   2.777   4.008   9.498 -0.6497 -0.0318  0.0265
 5071SOL    HW126849   2.768   4.072   9.427 -0.2889  0.5449  0.5089
 5071SOL    HW226850   2.861   3.962   9.492 -2.2652 -3.0901  1.0107
 5072SOL     OW26851   4.596   3.729  15.218  0.4461 -0.0407  0.4451
 5072SOL    HW126852   4.628   3.780  15.293  2.0565 -1.1345  0.5134
 5072SOL    HW226853   4.502   3.736  15.233 -0.0109  2.4085 -3.6071
 5073SOL     OW26854   2.113   3.190   8.345  0.2555  0.2429 -0.3983
 5073SOL    HW126855   2.138   3.192   8.253 -0.3225 -1.3728 -0.5827
 5073SOL    HW226856   2.100   3.285   8.354 -2.2895 -0.0766 -0.6525
 5074SOL     OW26857   3.944   2.381  12.837  0.3760 -0.0387  0.0619
 5074SOL    HW126858   4.005   2.321  12.880 -0.3203 -0.0150  1.0804
 5074SOL    HW226859   3.998   2.445  12.790 -0.1547 -0.0626 -0.5704
 5075SOL     OW26860   0.886   4.138   2.022 -0.1587  0.2692  0.2400
 5075SOL    HW126861   0.909   4.117   2.113 -0.3677 -1.7738 -0.1691
 5075SOL    HW226862   0.899   4.233   2.025  2.2189 -0.0224 -1.1064
 5076SOL     OW26863   1.421   4.079   0.405 -0.0081  0.0045 -0.4186
 5076SOL    HW126864   1.439   4.136   0.330 -1.4799  1.2769  0.1724
 5076SOL    HW226865   1.410   4.149   0.471 -1.0668 -1.6737  1.1758
 5077SOL     OW26866   0.902   1.939   2.875  0.7251  0.5001  0.5470
 5077SOL    HW126867   0.853   1.975   2.802  1.1578 -0.2818 -0.1295
 5077SOL    HW226868   0.899   1.846   2.850  0.5654  0.1543  1.8299
 5078SOL     OW26869   2.794   3.633   8.442  0.1337  0.3891  0.6411
 5078SOL    HW126870   2.719   3.652   8.386  0.2184 -0.3173  0.2872
 5078SOL    HW226871   2.765   3.561   8.498  1.2747 -0.2680  0.3909
 5079SOL     OW26872   4.660   0.701   5.304 -0.3739  0.1167  0.7962
 5079SOL    HW126873   4.640   0.608   5.316  0.1917 -0.2606 -1.2421
 5079SOL    HW226874   4.714   0.708   5.383 -0.7171  0.8935  0.9557
 5080SOL     OW26875   1.800   2.762   1.367  0.7706  0.2338  0.5778
 5080SOL    HW126876   1.790   2.847   1.324  1.0168 -0.0810 -0.0990
 5080SOL    HW226877   1.836   2.783   1.453  0.5351  2.1555  0.2156
 5081SOL     OW26878   0.063   4.697   0.046  0.1881 -0.0280 -0.2184
 5081SOL    HW126879   0.099   4.670   0.131 -2.0714 -0.6006  0.5517
 5081SOL    HW226880   0.115   0.040   0.036 -0.6047  0.3325 -1.4750
 5082SOL     OW26881   4.170   1.939   1.808  0.0468 -0.1192 -0.5095
 5082SOL    HW126882   4.089   1.978   1.842 -0.2808 -1.2422 -0.0062
 5082SOL    HW226883   4.149   1.848   1.830  0.0101 -0.4113 -1.7846
 5083SOL     OW26884   0.413   2.019   5.719 -0.2352  0.1894 -0.0405
 5083SOL    HW126885   0.473   2.086   5.686  1.2922 -1.0224  0.2426
 5083SOL    HW226886   0.454   1.936   5.696 -0.7465  0.0446 -0.3981
 5084SOL     OW26887   1.873   1.927  10.409  0.4465 -0.2291  0.0720
 5084SOL    HW126888   1.932   2.000  10.429  1.8102 -0.8865 -1.5222
 5084SOL    HW226889   1.861   1.876  10.489  0.7306 -0.7393 -0.2121
 5085SOL     OW26890   4.542   3.925   4.612  0.5844 -0.6756  0.1255
 5085SOL    HW126891   4.470   3.956   4.668  0.9150 -0.3763  0.3869
 5085SOL    HW226892   4.501   3.941   4.527  1.0476 -1.6470 -0.2748
 5086SOL     OW26893   2.053   0.039  15.971 -0.6282  0.0054  0.3981
 5086SOL    HW126894   2.068   0.029  15.877  1.6606  1.0239  0.6427
 5086SOL    HW226895   1.972   0.090  15.970 -1.7315 -1.6505  5.2616
 5087SOL     OW26896   0.829   1.549   9.026  0.6951  0.1753  0.1193
 5087SOL    HW126897   0.841   1.638   9.061 -0.6552  0.1289  0.6997
 5087SOL    HW226898   0.917   1.512   9.035 -0.7264 -3.0828  0.7001
 5088SOL     OW26899   0.865   3.432  12.136 -0.1317  0.0772 -0.1746
 5088SOL    HW126900   0.880   3.524  12.115 -2.0980  0.5213  0.3585
 5088SOL    HW226901   0.949   3.392  12.115 -0.4205 -0.6490  0.0676
 5089SOL     OW26902   4.381   0.768   8.072 -0.4502  0.1226  0.1993
 5089SOL    HW126903   4.287   0.782   8.082 -0.4008  2.0983 -2.1389
 5089SOL    HW226904   4.372   0.674   8.058 -1.6780  0.1741  0.6035
 5090SOL     OW26905   1.609   0.884   8.370 -0.1261 -0.1737  0.9069
 5090SOL    HW126906   1.604   0.845   8.457  0.5403  2.6836  2.2358
 5090SOL    HW226907   1.586   0.972   8.398 -1.8973 -0.2208 -0.4144
 5091SOL     OW26908   4.171   0.892   0.045  0.4042  0.4602  0.3372
 5091SOL    HW126909   4.255   0.918   0.008  0.6729 -0.5765  0.1949
 5091SOL    HW226910   4.131   0.979   0.047  2.2931  1.3282 -0.1233
 5092SOL     OW26911   3.564   0.143   9.543  0.4313  0.1102  0.2073
 5092SOL    HW126912   3.622   0.211   9.578 -0.3522  1.3520 -0.8765
 5092SOL    HW226913   3.546   0.103   9.628  1.4975 -0.2050  0.2831
 5093SOL     OW26914   0.270   1.285   4.537 -0.0403  0.0162  0.3186
 5093SOL    HW126915   0.269   1.377   4.509  0.5213 -0.8058 -2.4147
 5093SOL    HW226916   0.251   1.282   4.631  0.8191  0.5073  0.5041
 5094SOL     OW26917   4.065   1.116   7.012  0.4915 -0.0783  0.2099
 5094SOL    HW126918   3.972   1.104   7.030  0.8360 -1.0457  1.4057
 5094SOL    HW226919   4.077   1.052   6.942 -2.4190 -2.2250  1.6771
 5095SOL     OW26920   4.137   1.572   6.889 -0.4317  0.0366  0.1180
 5095SOL    HW126921   4.225   1.611   6.890 -0.8730  1.0547 -0.7747
 5095SOL    HW226922   4.099   1.617   6.814 -0.1108  2.1557  1.2220
 5096SOL     OW26923   2.621   2.611   7.594 -0.0251 -0.1072 -0.2518
 5096SOL    HW126924   2.624   2.707   7.588 -0.2659  0.0087  1.4249
 5096SOL    HW226925   2.626   2.582   7.503 -2.6063 -0.5392 -0.2541
 5097SOL     OW26926   1.774   0.183   9.360 -0.0280  0.7939 -0.1869
 5097SOL    HW126927   1.802   0.217   9.275 -0.7296 -0.9163 -1.1054
 5097SOL    HW226928   1.855   0.206   9.407  2.4998 -1.4630 -3.4204
 5098SOL     OW26929   2.435   2.320  15.350  0.2019  0.5426 -0.3279
 5098SOL    HW126930   2.340   2.320  15.362  0.4973 -3.8978  1.8413
 5098SOL    HW226931   2.466   2.295  15.437 -0.0164 -0.6545 -0.5979
 5099SOL     OW26932   0.355   2.801   1.581  0.4544  0.1690 -0.1252
 5099SOL    HW126933   0.305   2.881   1.597  0.4014  0.1004  0.0627
 5099SOL    HW226934   0.419   2.821   1.513  1.0483  0.2438  0.4441
 5100SOL     OW26935   4.715   4.316   1.978 -0.3312 -0.4593  0.4601
 5100SOL    HW126936   0.073   4.312   1.959 -0.1196 -2.3179  1.8467
 5100SOL    HW226937   4.684   4.226   1.972  1.0898 -0.9169  0.0417
 5101SOL     OW26938   0.415   3.512   2.005 -0.1078 -0.3215 -0.2577
 5101SOL    HW126939   0.509   3.493   1.998 -0.3362 -1.7204  0.5402
 5101SOL    HW226940   0.413   3.606   2.024  1.4590 -0.4654  0.5937
 5102SOL     OW26941   4.716   3.928  14.216  0.5418 -0.0827  0.7159
 5102SOL    HW126942   0.070   3.946  14.242  0.7151 -0.5470  0.4428
 5102SOL    HW226943   4.695   3.995  14.152 -0.7678 -0.2039  1.0149
 5103SOL     OW26944   2.021   4.645   9.830 -0.1770 -0.2298  0.1064
 5103SOL    HW126945   2.004   0.001   9.812  0.4894  0.2395  1.9542
 5103SOL    HW226946   2.087   4.630   9.762 -0.0427  0.9674 -0.0204
 5104SOL     OW26947   2.976   2.381   8.612  0.1128 -0.2851  0.0693
 5104SOL    HW126948   3.046   2.317   8.620 -1.0722 -1.7232 -1.1984
 5104SOL    HW226949   2.911   2.346   8.673 -0.2567  1.1884  0.5379
 5105SOL     OW26950   0.584   0.219   9.292  0.2247  0.3245 -0.2037
 5105SOL    HW126951   0.553   0.263   9.371 -4.6899  1.4872 -2.7894
 5105SOL    HW226952   0.578   0.128   9.322  0.5938  0.0249 -1.0428
 5106SOL     OW26953   3.201   0.351  16.777  0.0049  0.6173 -0.3240
 5106SOL    HW126954   3.167   0.309  16.698 -0.2135 -0.3777  0.2981
 5106SOL    HW226955   3.276   0.402  16.745  1.1671 -0.9118 -0.0634
 5107SOL     OW26956   3.972   0.828   5.887 -0.2348  0.3413  0.0655
 5107SOL    HW126957   3.943   0.811   5.976 -0.3047  1.5867  0.2870
 5107SOL    HW226958   3.982   0.923   5.900  0.7835  0.1514  0.6876
 5108SOL     OW26959   3.586   4.176   0.570 -0.0421 -0.1360 -0.5042
 5108SOL    HW126960   3.629   4.250   0.612 -0.8561  0.6820 -1.1134
 5108SOL    HW226961   3.618   4.182   0.480 -0.4842 -0.4116 -0.6825
 5109SOL     OW26962   4.103   3.878   3.745 -0.4304  0.2217 -0.8290
 5109SOL    HW126963   4.131   3.836   3.826 -0.9495  1.0465 -0.2136
 5109SOL    HW226964   4.176   3.937   3.724  0.3896  0.1631  1.7890
 5110SOL     OW26965   3.656   1.910  14.138 -0.0659  0.1236 -0.3914
 5110SOL    HW126966   3.593   1.973  14.102  1.0860  0.3602 -1.9826
 5110SOL    HW226967   3.596   1.859  14.192  0.5053  0.4184  0.5234
 5111SOL     OW26968   3.732   4.592  11.497  0.4894  0.2196  0.2941
 5111SOL    HW126969   3.800   4.659  11.506 -1.2502  1.6130  2.9455
 5111SOL    HW226970   3.661   4.641  11.456 -1.0397 -1.7759  0.5772
 5112SOL     OW26971   0.532   4.495  16.224  0.0157  0.3151 -0.2967
 5112SOL    HW126972   0.565   4.470  16.138  0.5490  0.4323 -0.1242
 5112SOL    HW226973   0.570   4.424  16.276  0.4817  1.2912  0.6938
 5113SOL     OW26974   0.557   3.547   6.573 -0.3168  0.1390 -0.2030
 5113SOL    HW126975   0.582   3.460   6.603 -2.6610 -0.4317  0.1004
 5113SOL    HW226976   0.636   3.602   6.565 -0.7999  0.8039 -0.4340
 5114SOL     OW26977   2.955   2.684   3.199  0.2534  1.2764 -0.0995
 5114SOL    HW126978   2.975   2.777   3.183  2.3208  0.7423 -0.6741
 5114SOL    HW226979   2.898   2.666   3.125  2.2042  2.1236 -1.8031
 5115SOL     OW26980   0.625   2.391   1.660  0.2730 -0.0415  0.1838
 5115SOL    HW126981   0.591   2.480   1.651 -1.1698 -0.7445 -1.4471
 5115SOL    HW226982   0.545   2.338   1.666 -0.5740  0.9736 -1.8767
 5116SOL     OW26983   3.158   4.152   3.194 -0.7716  0.3401  0.2291
 5116SOL    HW126984   3.148   4.200   3.111  0.4956 -0.0276 -0.1388
 5116SOL    HW226985   3.192   4.220   3.252  0.3567 -0.5885  0.6511
 5117SOL     OW26986   3.898   3.660   0.004  1.0284  0.3059 -0.3842
 5117SOL    HW126987   3.907   3.678   0.097 -1.1012 -2.7314  0.4043
 5117SOL    HW226988   3.853   3.740  17.718  0.0257  0.1103  0.6377
 5118SOL     OW26989   1.344   3.526  17.690 -0.2301  0.4757  0.1678
 5118SOL    HW126990   1.382   3.612  17.707  0.3570  0.5298 -1.4414
 5118SOL    HW226991   1.276   3.526   0.014 -2.0907 -1.7622 -1.6923
 5119SOL     OW26992   1.024   1.098   7.059 -0.7633  0.0934  0.0841
 5119SOL    HW126993   1.076   1.164   7.014 -0.9278 -0.0176 -0.2760
 5119SOL    HW226994   0.950   1.155   7.079  0.1469  1.2157  0.2175
 5120SOL     OW26995   2.451   3.657   2.632 -0.3651  0.2053  0.0128
 5120SOL    HW126996   2.468   3.670   2.725  1.8150  0.2191 -0.3896
 5120SOL    HW226997   2.539   3.669   2.596  0.1827 -0.0031  1.2713
 5121SOL     OW26998   4.361   0.058   9.020 -0.0864 -0.2544  0.3423
 5121SOL    HW126999   4.444   0.100   9.040 -1.8764  2.0438  3.0116
 5121SOL    HW227000   4.342   0.019   9.105  0.3417 -1.5472 -0.1531
 5122SOL     OW27001   2.134   2.846   5.676  0.0648 -0.3172  0.1267
 5122SOL    HW127002   2.089   2.766   5.703 -1.1248  0.9781  1.9413
 5122SOL    HW227003   2.100   2.908   5.740 -2.4300 -2.3319  0.7284
 5123SOL     OW27004   0.658   4.024   1.852  0.0919  0.8349 -0.1322
 5123SOL    HW127005   0.738   4.062   1.887 -0.9097  0.9182  2.0598
 5123SOL    HW227006   0.594   4.047   1.919 -0.5638  0.4440 -0.6165
 5124SOL     OW27007   4.508   4.611   3.058 -0.1101 -0.8576  0.0715
 5124SOL    HW127008   4.423   4.622   3.016 -1.8863 -1.0720  3.5810
 5124SOL    HW227009   4.480   4.552   3.128  0.3323 -0.9501  0.1676
 5125SOL     OW27010   3.150   4.426   7.368  0.1751  0.6149  0.3208
 5125SOL    HW127011   3.136   4.478   7.448 -1.4714  1.3742 -0.4623
 5125SOL    HW227012   3.243   4.410   7.383 -0.1077 -0.3845  1.0230
 5126SOL     OW27013   4.016   2.214   2.408  0.6211 -0.1232 -0.3380
 5126SOL    HW127014   4.009   2.184   2.499 -0.1125 -1.0908 -0.7198
 5126SOL    HW227015   4.083   2.282   2.412 -0.7749  1.1941  0.8073
 5127SOL     OW27016   4.436   0.870  13.084  0.2927  0.1218 -0.1572
 5127SOL    HW127017   4.375   0.832  13.020  0.2406  1.8981 -1.1667
 5127SOL    HW227018   4.398   0.952  13.117  1.5137  0.8864 -0.6554
 5128SOL     OW27019   1.552   3.397  11.150 -0.5914  0.7669  0.1365
 5128SOL    HW127020   1.497   3.341  11.204  0.2296 -3.0462 -2.9836
 5128SOL    HW227021   1.569   3.329  11.085 -2.7725  2.2367 -1.9707
 5129SOL     OW27022   2.436   3.058   6.183 -0.2466  0.3730  0.3218
 5129SOL    HW127023   2.495   3.013   6.243 -2.1630 -1.6986  0.6160
 5129SOL    HW227024   2.464   3.039   6.093  1.2930 -0.1565  0.9130
 5130SOL     OW27025   1.105   2.366   7.339  0.5398 -0.0626 -0.0144
 5130SOL    HW127026   1.011   2.384   7.346  0.6544  0.6931 -0.4598
 5130SOL    HW227027   1.118   2.308   7.414  0.7380 -0.9720 -0.7600
 5131SOL     OW27028   0.977   4.175   4.269 -0.2407 -0.3189 -0.3115
 5131SOL    HW127029   0.933   4.259   4.283  0.1484 -0.0520 -0.6875
 5131SOL    HW227030   0.910   4.129   4.218 -0.1250  0.4360 -1.1481
 5132SOL     OW27031   0.476   1.590   6.720 -0.2821  0.6279 -0.1054
 5132SOL    HW127032   0.483   1.665   6.779 -0.9793  0.2824  0.4221
 5132SOL    HW227033   0.570   1.582   6.704  0.0663 -0.0409  2.1814
 5133SOL     OW27034   1.517   0.241   5.011  0.2685  0.0000  0.2290
 5133SOL    HW127035   1.602   0.213   5.046  1.7256  2.5770 -1.2432
 5133SOL    HW227036   1.541   0.270   4.923 -0.9560  0.9880  0.2244
 5134SOL     OW27037   4.661   3.382   2.673 -0.5225 -1.0136  0.6976
 5134SOL    HW127038   0.019   3.379   2.654 -1.2365  1.8690 -3.1501
 5134SOL    HW227039   4.624   3.356   2.589  1.1903  0.0573 -0.3909
 5135SOL     OW27040   3.673   0.640   6.749  0.1156 -0.4054  0.4882
 5135SOL    HW127041   3.684   0.638   6.844 -0.5747 -0.6344  0.5635
 5135SOL    HW227042   3.636   0.728   6.742  0.8754 -0.1013  0.2807
 5136SOL     OW27043   3.280   3.259  17.719  0.1660 -0.0066  0.3230
 5136SOL    HW127044   3.191   3.224  17.711  0.4000 -0.5396  0.0038
 5136SOL    HW227045   3.323   3.176  17.741  1.3992  1.0936  2.0315
 5137SOL     OW27046   1.834   2.249  15.731 -0.3955 -0.0255 -0.2997
 5137SOL    HW127047   1.831   2.268  15.824 -0.3760  1.8328 -0.6700
 5137SOL    HW227048   1.755   2.194  15.732 -0.1048 -0.4514 -0.6468
 5138SOL     OW27049   2.688   3.293  13.580  0.4596 -0.3785  0.1173
 5138SOL    HW127050   2.694   3.264  13.489 -1.0530 -0.4428  0.0379
 5138SOL    HW227051   2.662   3.385  13.571 -0.7172 -0.3713  3.5763
 5139SOL     OW27052   4.205   3.764   3.141  0.3299  0.0989 -0.5889
 5139SOL    HW127053   4.204   3.859   3.129 -1.8970 -0.3706 -4.1015
 5139SOL    HW227054   4.254   3.736   3.063 -0.0443  0.4625 -0.9552
 5140SOL     OW27055   4.319   1.933  14.463  0.4714 -0.2985  0.1112
 5140SOL    HW127056   4.333   1.840  14.446  0.3501 -0.0244 -1.5289
 5140SOL    HW227057   4.381   1.958  14.531  0.1682  1.1449 -0.1323
 5141SOL     OW27058   4.362   1.270   4.240  0.2243  0.2962  0.0674
 5141SOL    HW127059   4.314   1.248   4.320 -0.9736 -0.1388 -0.7789
 5141SOL    HW227060   4.296   1.264   4.171  0.6278 -3.8363  0.0584
 5142SOL     OW27061   0.798   0.137   4.335 -0.1859  0.4925 -0.5586
 5142SOL    HW127062   0.876   0.146   4.280  1.0704 -2.4334  0.6894
 5142SOL    HW227063   0.797   0.216   4.388  0.0883 -0.5243  0.9754
 5143SOL     OW27064   4.650   0.085  13.517 -0.2828  0.5794  0.3825
 5143SOL    HW127065   4.644   0.063  13.424 -2.3272  0.0144  0.6379
 5143SOL    HW227066   4.613   0.002  13.548  1.2354  0.2059  1.2017
 5144SOL     OW27067   4.426   1.891   8.937  0.4383 -0.4254  0.2281
 5144SOL    HW127068   4.356   1.854   8.883 -1.9281 -0.5694  3.3978
 5144SOL    HW227069   4.389   1.950   9.002  0.6029 -0.6419  0.5171
 5145SOL     OW27070   4.418   3.704   8.164 -0.5352 -0.3036  0.1937
 5145SOL    HW127071   4.421   3.799   8.153 -2.6120  0.1360  3.4671
 5145SOL    HW227072   4.510   3.682   8.153 -0.8351  0.4557 -3.7155
 5146SOL     OW27073   0.303   4.707   1.008  0.2402  0.1034  0.5668
 5146SOL    HW127074   0.247   4.725   1.084  0.1568 -1.2458  0.8290
 5146SOL    HW227075   0.272   4.624   0.971 -1.1345  1.3035 -0.9975
 5147SOL     OW27076   0.214   2.864   6.354 -0.0566  0.3107 -0.7757
 5147SOL    HW127077   0.288   2.804   6.366 -1.1678 -0.6556  1.2946
 5147SOL    HW227078   0.194   2.873   6.448 -0.0176  3.2979 -1.0646
 5148SOL     OW27079   2.314   0.597   5.312  0.1911  0.7302  0.2637
 5148SOL    HW127080   2.278   0.686   5.307  0.7038  0.8062 -2.1133
 5148SOL    HW227081   2.236   0.548   5.287  0.7499 -0.6461  1.2181
 5149SOL     OW27082   2.692   1.875   4.554  0.5185 -0.3134  0.2550
 5149SOL    HW127083   2.742   1.831   4.485 -0.6388 -2.6664  0.9138
 5149SOL    HW227084   2.610   1.826   4.552 -0.1614  0.7618  2.0705
 5150SOL     OW27085   0.618   1.055   7.092 -0.3883 -0.3042  0.5968
 5150SOL    HW127086   0.570   1.033   7.171  1.4067  1.8817  2.3307
 5150SOL    HW227087   0.581   0.985   7.039  0.6965 -1.3748  1.2615
 5151SOL     OW27088   1.616   3.794   2.839 -0.3241  0.2613 -0.6503
 5151SOL    HW127089   1.692   3.773   2.895 -0.7934  1.0982  0.2885
 5151SOL    HW227090   1.610   3.886   2.864 -1.4027  0.4621 -1.7151
 5152SOL     OW27091   2.127   0.301   8.282  0.1618 -0.0682 -0.2856
 5152SOL    HW127092   2.121   0.336   8.193  1.7234  1.3612  0.1701
 5152SOL    HW227093   2.183   0.227   8.259  0.3327  0.2431 -0.8604
 5153SOL     OW27094   1.402   2.247  12.601  0.0955 -0.2781 -0.2725
 5153SOL    HW127095   1.387   2.160  12.562  0.3961 -0.3643 -0.1921
 5153SOL    HW227096   1.497   2.243  12.608  0.1650 -0.2903 -1.1433
 5154SOL     OW27097   3.810   1.884   2.548  0.6454 -0.3372  0.2823
 5154SOL    HW127098   3.748   1.882   2.475  0.1762 -0.4514  0.6858
 5154SOL    HW227099   3.765   1.938   2.612  0.1776  0.7395 -0.9537
 5155SOL     OW27100   4.240   0.887   5.437 -0.0145  0.0231 -0.4456
 5155SOL    HW127101   4.207   0.798   5.450 -0.6596  0.9058  3.9516
 5155SOL    HW227102   4.302   0.873   5.365  1.6348  0.1114  0.9499
 5156SOL     OW27103   2.275   1.095  13.449  0.8239 -0.1871  0.1437
 5156SOL    HW127104   2.320   1.015  13.477 -1.4066 -0.8097  2.0312
 5156SOL    HW227105   2.323   1.157  13.504 -0.0749  1.0897 -0.5201
 5157SOL     OW27106   3.464   2.791   8.347 -0.2057 -0.3289  0.2931
 5157SOL    HW127107   3.543   2.795   8.293 -0.4125 -0.7160 -0.0373
 5157SOL    HW227108   3.478   2.870   8.399 -2.1030  0.6062 -0.6478
 5158SOL     OW27109   0.833   1.621   8.641  0.0792 -0.6234 -0.6047
 5158SOL    HW127110   0.914   1.591   8.600 -0.3231  1.4381 -2.8643
 5158SOL    HW227111   0.836   1.714   8.618 -1.6684 -0.1461  1.0595
 5159SOL     OW27112   0.051   3.010   1.103  0.6690  0.5250  0.4396
 5159SOL    HW127113   0.040   2.961   1.021  2.2529  1.9500 -0.6356
 5159SOL    HW227114   0.146   3.017   1.100  0.7205 -0.1576  0.7167
 5160SOL     OW27115   0.414   2.264  10.070 -0.3284  0.6133  0.0765
 5160SOL    HW127116   0.396   2.349  10.031 -0.9698 -0.1048 -1.2327
 5160SOL    HW227117   0.391   2.282  10.161 -3.2685  0.5966 -0.6646
 5161SOL     OW27118   3.931   4.101   9.619  0.9226  0.1043 -0.3137
 5161SOL    HW127119   3.864   4.056   9.670  2.4300  0.3845  1.8811
 5161SOL    HW227120   3.935   4.187   9.661  0.4520  0.1326 -0.3263
 5162SOL     OW27121   0.499   0.137   1.724  0.1801 -0.6199  0.1515
 5162SOL    HW127122   0.438   0.198   1.683  0.6435  0.4406  1.0312
 5162SOL    HW227123   0.446   0.113   1.801  1.7686  1.8814  2.0297
 5163SOL     OW27124   3.241   4.013   3.535  0.4936 -0.1098  0.0690
 5163SOL    HW127125   3.313   4.063   3.574 -0.2137  0.8996  0.0540
 5163SOL    HW227126   3.159   4.055   3.560  0.4262 -0.2603  0.1003
 5164SOL     OW27127   4.351   4.320   7.033 -0.2965  0.2145  0.6034
 5164SOL    HW127128   4.275   4.270   7.002 -0.6908  0.7161  0.7630
 5164SOL    HW227129   4.401   4.250   7.075 -1.2186 -1.7544 -1.5459
 5165SOL     OW27130   2.906   0.844   5.921  0.2735 -0.6808 -0.0036
 5165SOL    HW127131   2.885   0.895   5.843  1.2951  0.5682  0.5421
 5165SOL    HW227132   2.818   0.841   5.960 -0.3919 -0.3292 -1.4955
 5166SOL     OW27133   2.215   1.275   5.281 -0.3856  0.6298 -0.3368
 5166SOL    HW127134   2.121   1.293   5.289 -0.1236  1.7046  0.3287
 5166SOL    HW227135   2.249   1.322   5.357  2.0607 -0.1552 -0.9494
 5167SOL     OW27136   0.392   3.936   2.809 -0.1954 -0.0335 -0.3202
 5167SOL    HW127137   0.350   4.010   2.766 -1.0130 -0.5677 -0.4493
 5167SOL    HW227138   0.485   3.952   2.790  0.1361 -0.8580  0.6369
 5168SOL     OW27139   0.075   1.904   0.257 -0.1316  0.0662  0.8149
 5168SOL    HW127140   0.042   1.876   0.172  1.1208 -0.6671  0.5728
 5168SOL    HW227141   0.051   1.997   0.255  2.4405  0.7096 -0.0747
 5169SOL     OW27142   3.865   1.280  10.985 -0.4657 -0.5770  0.5651
 5169SOL    HW127143   3.929   1.265  11.055  1.6630  3.9028 -0.4353
 5169SOL    HW227144   3.801   1.209  10.995 -1.5209  0.5563  1.8455
 5170SOL     OW27145   4.220   1.182   4.439 -0.8243  0.5443 -0.0455
 5170SOL    HW127146   4.130   1.217   4.439 -1.3889 -0.9485  1.2207
 5170SOL    HW227147   4.202   1.089   4.428  1.1850  0.2471 -0.7541
 5171SOL     OW27148   0.043   2.903   0.312  0.0637 -0.3350 -0.3190
 5171SOL    HW127149   0.014   2.953   0.236 -0.4733  0.6931  0.5615
 5171SOL    HW227150   0.114   2.953   0.352 -0.2475 -0.8694  0.9024
 5172SOL     OW27151   4.660   4.584   3.474 -0.4787  0.2804  0.0662
 5172SOL    HW127152   4.619   4.519   3.531  0.1720  0.0108  0.2321
 5172SOL    HW227153   4.617   4.666   3.497  0.0294  0.2106  1.2650
 5173SOL     OW27154   0.080   0.828   5.908  0.0668  0.4426  0.2379
 5173SOL    HW127155   0.037   0.863   5.830  0.3519 -0.9140 -0.5295
 5173SOL    HW227156   0.020   0.853   5.978  1.2105  1.2794  0.9204
 5174SOL     OW27157   1.668   0.174  14.919 -0.5576  1.1710  0.1591
 5174SOL    HW127158   1.669   0.239  14.989 -0.8189  1.7342 -0.3628
 5174SOL    HW227159   1.687   0.098  14.974 -0.5755 -0.3449 -1.9006
 5175SOL     OW27160   3.171   3.935   2.678  0.5128 -0.3305 -0.2793
 5175SOL    HW127161   3.219   3.893   2.608 -0.7953 -1.0285 -0.7508
 5175SOL    HW227162   3.119   3.860   2.706  3.6582 -2.1985  0.5715
 5176SOL     OW27163   1.466   1.879  15.405  0.5614 -0.0753  0.2868
 5176SOL    HW127164   1.538   1.941  15.416 -0.8281  1.6286 -0.1706
 5176SOL    HW227165   1.509   1.813  15.350  0.6904  1.3489 -1.3155
 5177SOL     OW27166   0.366   3.977  17.606 -0.5378 -0.2646 -0.4239
 5177SOL    HW127167   0.294   3.975  17.669  0.5092 -0.4145  0.7698
 5177SOL    HW227168   0.332   3.947  17.522  1.0264  2.3587 -2.0302
 5178SOL     OW27169   0.148   2.442   2.125  0.3492  0.1783  0.0699
 5178SOL    HW127170   0.227   2.447   2.179  0.3616 -2.0792  0.2389
 5178SOL    HW227171   0.116   2.531   2.139  1.6247  0.5518  0.5800
 5179SOL     OW27172   3.708   2.966   2.917  0.3063 -0.2588 -0.2909
 5179SOL    HW127173   3.729   2.885   2.870  1.3304 -0.6367  0.8252
 5179SOL    HW227174   3.744   3.036   2.862  1.5809 -1.5755 -1.1335
 5180SOL     OW27175   1.180   4.714   3.961 -0.0955 -0.2567  0.0842
 5180SOL    HW127176   1.114   4.723   4.030 -0.0125 -0.5900  0.2050
 5180SOL    HW227177   1.148   0.046   3.902  1.9561  0.2463 -0.4560
 5181SOL     OW27178   0.839   0.091   5.287  0.3305  0.3689  0.5284
 5181SOL    HW127179   0.769   0.059   5.344 -0.5669 -0.2810 -0.9397
 5181SOL    HW227180   0.782   0.129   5.220 -0.8871 -1.1873  0.6887
 5182SOL     OW27181   2.205   3.108   5.058  0.1924  0.3794  0.7704
 5182SOL    HW127182   2.148   3.041   5.096  1.2900 -0.4165  1.0016
 5182SOL    HW227183   2.165   3.186   5.097 -1.7436  0.5972 -1.6567
 5183SOL     OW27184   0.740   4.551   2.649 -0.2213 -0.0046  0.4293
 5183SOL    HW127185   0.647   4.573   2.647 -0.5612 -1.5121 -0.5843
 5183SOL    HW227186   0.766   4.617   2.585  1.3898 -1.5598 -0.5188
 5184SOL     OW27187   3.562   1.112  14.335 -0.0361 -0.4087 -0.0382
 5184SOL    HW127188   3.590   1.057  14.261  1.1471  0.5171 -0.2651
 5184SOL    HW227189   3.497   1.056  14.378  1.0765 -0.1959  1.8844
 5185SOL     OW27190   0.440   3.687  15.640 -0.0631  0.5447 -0.2759
 5185SOL    HW127191   0.457   3.762  15.697  0.8242 -1.3939  2.0270
 5185SOL    HW227192   0.361   3.664  15.688  2.4348 -3.1510  2.0410
 5186SOL     OW27193   3.466   1.525   8.650 -0.2243  0.2288  0.0323
 5186SOL    HW127194   3.507   1.610   8.669 -0.4269  0.5523 -0.9347
 5186SOL    HW227195   3.384   1.533   8.698  0.2578 -1.1193  1.0449
 5187SOL     OW27196   1.158   0.299   3.420 -0.2404  0.6886 -0.0583
 5187SOL    HW127197   1.174   0.243   3.344 -0.2114 -2.1603  2.0270
 5187SOL    HW227198   1.075   0.339   3.395  0.2914  0.8890 -1.4640
 5188SOL     OW27199   0.102   1.487  13.127  0.2648  0.3946 -0.0882
 5188SOL    HW127200   0.149   1.492  13.044 -2.0568  1.3472 -1.3494
 5188SOL    HW227201   0.177   1.463  13.181  0.3614  0.2527 -0.2850
 5189SOL     OW27202   4.546   4.165  15.844 -0.4652 -0.4094  0.1537
 5189SOL    HW127203   4.625   4.205  15.879 -0.6678 -2.3749  2.8701
 5189SOL    HW227204   4.492   4.242  15.824 -3.5652 -1.9892  2.4417
 5190SOL     OW27205   2.949   2.891   5.557  0.1935 -0.2221 -0.1249
 5190SOL    HW127206   2.957   2.810   5.507 -3.3093  0.5971 -2.0436
 5190SOL    HW227207   2.942   2.957   5.488  1.5815  0.5750  0.4916
 5191SOL     OW27208   2.951   3.624   4.805  0.6278  0.2975  0.5504
 5191SOL    HW127209   2.878   3.675   4.770  0.8511 -1.2434 -2.1492
 5191SOL    HW227210   3.017   3.627   4.736  0.5847 -0.2278  0.4839
 5192SOL     OW27211   1.695   3.821   6.789  0.8144 -0.4855 -0.1469
 5192SOL    HW127212   1.696   3.882   6.863  0.6567 -0.1202 -0.4494
 5192SOL    HW227213   1.727   3.875   6.717 -1.2578  0.2386 -0.5194
 5193SOL     OW27214   3.317   2.181   3.354  0.3561 -0.2106  0.2845
 5193SOL    HW127215   3.262   2.193   3.431  1.5553 -1.8145  1.4027
 5193SOL    HW227216   3.294   2.089   3.338 -0.8337  0.3340 -1.1361
 5194SOL     OW27217   0.581   4.251  16.389 -0.5112  0.1475 -0.5694
 5194SOL    HW127218   0.665   4.225  16.350  0.2669  2.6970 -0.5654
 5194SOL    HW227219   0.547   4.172  16.431  3.1638 -1.8856 -1.3842
 5195SOL     OW27220   2.211   0.364   9.299 -0.3371  0.0435 -0.0883
 5195SOL    HW127221   2.126   0.392   9.266 -0.4100 -1.3665 -1.1163
 5195SOL    HW227222   2.265   0.422   9.245  0.3754 -1.4391 -0.9820
 5196SOL     OW27223   2.149   1.510   3.894 -0.1893 -0.0376 -0.4235
 5196SOL    HW127224   2.055   1.504   3.907 -0.1281 -2.0129 -0.8835
 5196SOL    HW227225   2.165   1.598   3.929  1.9609 -0.5544 -0.0782
 5197SOL     OW27226   1.102   3.833   0.497  0.2828  0.6648 -0.0753
 5197SOL    HW127227   1.196   3.849   0.496  0.0462  2.0164 -0.9421
 5197SOL    HW227228   1.069   3.852   0.409 -0.8321  1.3087  0.4731
 5198SOL     OW27229   4.646   2.421   3.326  0.0074 -0.3532 -0.1751
 5198SOL    HW127230   4.654   2.334   3.364  0.7154 -0.5379 -0.7417
 5198SOL    HW227231   4.733   2.442   3.291  0.4342 -0.2131  0.9786
 5199SOL     OW27232   1.887   4.456   1.498  0.4749 -0.5375 -0.2416
 5199SOL    HW127233   1.945   4.449   1.422 -0.2167  1.6462 -0.9819
 5199SOL    HW227234   1.913   4.542   1.532  2.4914 -0.8279 -1.0108
 5200SOL     OW27235   0.446   4.383  17.027  0.2386 -0.4569 -0.2130
 5200SOL    HW127236   0.471   4.320  16.960  1.2489 -1.6820  1.3163
 5200SOL    HW227237   0.484   4.461  16.986 -0.6835 -0.8931 -1.8929
 5201SOL     OW27238   0.539   0.708   9.209  0.5171 -0.4167 -0.6017
 5201SOL    HW127239   0.628   0.696   9.244 -0.1002 -1.6462  0.5421
 5201SOL    HW227240   0.538   0.802   9.227  3.7427  0.1248 -3.1893
 5202SOL     OW27241   4.333   0.181  13.379  0.2891 -0.3756  0.3415
 5202SOL    HW127242   4.282   0.259  13.401 -0.7619 -1.2183  0.8867
 5202SOL    HW227243   4.423   0.202  13.405 -0.4333  3.2278 -0.1002
 5203SOL     OW27244   1.196   2.619   7.408  0.0028 -0.0840  0.0958
 5203SOL    HW127245   1.193   2.534   7.364  0.0998  0.2735 -0.6121
 5203SOL    HW227246   1.269   2.667   7.368 -0.3695  0.6729  0.3287
 5204SOL     OW27247   0.840   3.954   9.078 -0.2471  0.6270 -0.2573
 5204SOL    HW127248   0.758   3.981   9.037  1.0663  1.3267 -2.3929
 5204SOL    HW227249   0.809   3.873   9.118  1.0120  0.0318 -0.4956
 5205SOL     OW27250   3.930   3.121  12.647 -0.2616 -0.9669 -0.6078
 5205SOL    HW127251   3.935   3.045  12.705  2.1931  2.0533  3.1051
 5205SOL    HW227252   3.991   3.097  12.577 -0.4443 -0.5387 -0.9091
 5206SOL     OW27253   0.728   3.932   9.810  0.5744 -0.2326  0.1322
 5206SOL    HW127254   0.790   3.966   9.874 -1.8376  0.9576  1.8139
 5206SOL    HW227255   0.723   4.003   9.746  0.2269 -1.9318 -1.7444
 5207SOL     OW27256   4.718   3.368  11.097  0.3813 -0.0767 -0.0129
 5207SOL    HW127257   4.672   3.388  11.179  1.0029 -0.6838  0.4854
 5207SOL    HW227258   4.654   3.302  11.069 -0.6507  1.4711 -1.2896
 5208SOL     OW27259   2.491   1.082   0.430 -0.5602  0.4038 -0.1259
 5208SOL    HW127260   2.421   1.147   0.437 -0.8458  0.1033 -0.1878
 5208SOL    HW227261   2.451   1.040   0.354 -0.6434 -0.2090  0.2598
 5209SOL     OW27262   4.326   4.080  13.199 -0.2437 -0.2229 -0.1086
 5209SOL    HW127263   4.257   4.144  13.217  0.9643  1.1172 -0.3597
 5209SOL    HW227264   4.368   4.123  13.126 -3.7625  0.2896 -1.8516
 5210SOL     OW27265   0.070   3.353  13.950  0.0939 -0.1793 -0.0113
 5210SOL    HW127266   0.137   3.288  13.969  0.8023  0.5653  0.0027
 5210SOL    HW227267   4.732   3.293  13.938  2.0915 -2.7578  0.3098
 5211SOL     OW27268   3.444   2.656   2.960  0.1961 -0.3688  0.0496
 5211SOL    HW127269   3.505   2.668   3.033  1.2055  0.9262 -0.9956
 5211SOL    HW227270   3.392   2.588   3.004  0.8473 -0.0704  1.2887
 5212SOL     OW27271   1.906   0.944   0.552  0.0660  0.3955  0.3441
 5212SOL    HW127272   1.905   1.038   0.535 -3.9019  0.2834 -0.0569
 5212SOL    HW227273   1.989   0.916   0.512 -1.2370 -0.6239 -1.6630
 5213SOL     OW27274   3.617   1.686  10.546  0.2810  0.4532 -0.3814
 5213SOL    HW127275   3.589   1.700  10.455 -1.1882  0.1368  0.0217
 5213SOL    HW227276   3.532   1.690  10.589  0.6229 -1.8735  0.5432
 5214SOL     OW27277   4.245   1.263  11.995  1.0682 -0.0401 -0.0612
 5214SOL    HW127278   4.232   1.248  12.088  0.0916 -0.2454 -0.2262
 5214SOL    HW227279   4.160   1.297  11.966  0.9027  1.1955  1.9137
 5215SOL     OW27280   4.272   1.043   3.831 -0.1793 -0.0122 -0.1735
 5215SOL    HW127281   4.362   1.013   3.844 -0.2593 -0.2486 -0.1833
 5215SOL    HW227282   4.284   1.125   3.782 -0.1314  1.5786  2.5044
 5216SOL     OW27283   2.818   2.186  10.741 -0.2049  0.4043 -0.0674
 5216SOL    HW127284   2.826   2.275  10.777 -1.0151  0.1023  0.8405
 5216SOL    HW227285   2.903   2.154  10.771 -1.7277 -2.8424  0.7073
 5217SOL     OW27286   2.778   0.484   7.346  0.1127 -0.5778  0.1511
 5217SOL    HW127287   2.844   0.551   7.329 -0.7901  0.5470  1.1077
 5217SOL    HW227288   2.803   0.420   7.280 -1.8471 -0.3691 -0.7867
 5218SOL     OW27289   0.166   0.160   3.242  0.0178  0.0747  0.3120
 5218SOL    HW127290   0.071   0.157   3.246 -0.0042 -1.0474 -0.9603
 5218SOL    HW227291   0.190   0.094   3.308  0.8095  0.1213  0.0637
 5219SOL     OW27292   0.757   0.861   3.457 -0.2332  0.1853 -0.2176
 5219SOL    HW127293   0.796   0.829   3.376 -0.7603 -0.9706 -0.0239
 5219SOL    HW227294   0.706   0.938   3.433  1.1461  0.8944 -0.8441
 5220SOL     OW27295   1.996   0.499   5.494  0.0774  0.3505 -0.4976
 5220SOL    HW127296   2.003   0.548   5.412 -0.0331  0.3349 -0.5176
 5220SOL    HW227297   2.063   0.534   5.551 -0.8034  0.3451  0.5446
 5221SOL     OW27298   1.795   3.860   2.582  0.5300 -0.0914 -0.7928
 5221SOL    HW127299   1.724   3.815   2.627  1.9416  0.3454  1.8470
 5221SOL    HW227300   1.847   3.793   2.537  0.5482 -0.4855 -0.1880
 5222SOL     OW27301   4.719   3.814   8.418 -0.4717 -0.5849 -0.3505
 5222SOL    HW127302   0.059   3.760   8.397  0.4660  0.9959 -1.1019
 5222SOL    HW227303   4.729   3.825   8.513  0.0690 -3.7259 -0.0634
 5223SOL     OW27304   3.881   3.464   1.341  0.3572  0.1569  0.9214
 5223SOL    HW127305   3.977   3.459   1.344  0.2946 -3.5145 -3.4201
 5223SOL    HW227306   3.853   3.416   1.420  2.6484 -0.1703  1.5404
 5224SOL     OW27307   3.634   1.657   5.579  0.5192  0.0961 -0.2690
 5224SOL    HW127308   3.595   1.628   5.496 -0.2368  2.6978 -0.8317
 5224SOL    HW227309   3.724   1.656   5.546 -0.5449 -1.1519 -3.2061
 5225SOL     OW27310   4.209   1.056   7.441  0.7091 -0.2608  0.6323
 5225SOL    HW127311   4.289   1.108   7.436 -0.4107  1.4340  0.3612
 5225SOL    HW227312   4.221   1.007   7.360 -0.4755 -0.6272  0.6794
 5226SOL     OW27313   1.932   4.491  14.094 -0.2557 -0.4741 -0.2773
 5226SOL    HW127314   1.910   4.523  14.182 -1.4528 -1.5058 -0.2019
 5226SOL    HW227315   1.875   4.541  14.035  2.2085  0.3954 -1.9434
 5227SOL     OW27316   0.447   3.148   3.991 -0.1643 -0.0887 -0.5577
 5227SOL    HW127317   0.522   3.206   4.003 -0.8844 -0.1269  4.3626
 5227SOL    HW227318   0.464   3.087   4.063  1.2382 -0.9396 -1.6132
 5228SOL     OW27319   3.451   0.253   8.325 -0.3876 -0.2177  0.2558
 5228SOL    HW127320   3.408   0.338   8.326  0.4377  0.2068 -0.3732
 5228SOL    HW227321   3.541   0.279   8.343 -0.3346 -0.2591  0.0580
 5229SOL     OW27322   2.867   3.419  17.255  0.3467  0.2089  0.1057
 5229SOL    HW127323   2.928   3.345  17.262 -2.1494 -1.9449 -1.1405
 5229SOL    HW227324   2.908   3.486  17.201 -1.3937  0.0570 -1.3893
 5230SOL     OW27325   2.425   0.611   1.078  0.4705 -0.4212 -0.0091
 5230SOL    HW127326   2.474   0.615   0.996 -0.6462  1.5521 -0.5825
 5230SOL    HW227327   2.485   0.667   1.128  1.5955 -0.6919 -1.0478
 5231SOL     OW27328   1.288   0.819   1.211 -0.3263  0.0959 -0.0142
 5231SOL    HW127329   1.225   0.891   1.205  0.9766  1.2900  0.7065
 5231SOL    HW227330   1.231   0.745   1.235 -1.5583  0.8175 -0.7164
 5232SOL     OW27331   3.760   1.030   3.090  0.2916 -0.2082 -0.3461
 5232SOL    HW127332   3.832   0.990   3.139  0.8197 -1.2684 -1.9930
 5232SOL    HW227333   3.684   1.016   3.147 -0.6046  1.3609 -1.1471
 5233SOL     OW27334   4.592   2.831   3.375  0.0574  0.6093  0.4871
 5233SOL    HW127335   4.670   2.778   3.396 -0.0534  0.7853  1.3622
 5233SOL    HW227336   4.599   2.909   3.430  0.2300  0.1154  1.1652
 5234SOL     OW27337   4.432   3.343   5.615  0.2598  0.4887 -0.5813
 5234SOL    HW127338   4.502   3.293   5.573  1.7772  0.9097  1.4396
 5234SOL    HW227339   4.470   3.362   5.701 -0.6130 -0.9921  0.1277
 5235SOL     OW27340   4.574   4.295   2.729 -0.2755  0.1514  0.3508
 5235SOL    HW127341   4.482   4.270   2.723 -0.3119  0.3253  0.1772
 5235SOL    HW227342   4.554   4.387   2.713 -1.4633  0.0448  1.1849
 5236SOL     OW27343   1.563   2.147   1.851 -0.2964  0.7663  0.3375
 5236SOL    HW127344   1.614   2.227   1.857 -0.5785  0.8974  0.9602
 5236SOL    HW227345   1.620   2.090   1.798 -2.9505 -0.7577 -0.8804
 5237SOL     OW27346   3.793   1.016   1.896  0.3441 -0.6633  0.6676
 5237SOL    HW127347   3.871   1.017   1.842 -0.3938  2.8057 -0.2991
 5237SOL    HW227348   3.813   1.086   1.958 -0.5305  0.1892 -0.0057
 5238SOL     OW27349   1.376   2.647   4.246 -0.1042  0.1713  0.0741
 5238SOL    HW127350   1.369   2.735   4.282  1.5964 -0.2705  1.5038
 5238SOL    HW227351   1.287   2.613   4.253 -0.5810  0.7230 -3.2750
 5239SOL     OW27352   0.641   1.248   8.357 -0.6526  0.2668 -1.1040
 5239SOL    HW127353   0.725   1.288   8.333  0.0474 -0.7154 -0.2628
 5239SOL    HW227354   0.648   1.269   8.450  0.7231 -1.2870 -0.8643
 5240SOL     OW27355   0.789   4.502  12.442 -0.2210  0.1812 -0.4649
 5240SOL    HW127356   0.724   4.557  12.486 -1.1764  0.8446 -2.7131
 5240SOL    HW227357   0.863   4.524  12.499 -1.1867 -0.3549  1.0102
 5241SOL     OW27358   1.172   1.314   7.421  0.1900  0.4651 -0.3390
 5241SOL    HW127359   1.088   1.293   7.461 -0.4561  1.6283 -1.0815
 5241SOL    HW227360   1.181   1.404   7.452  0.4698  0.1941  0.3814
 5242SOL     OW27361   2.682   0.152   5.723 -0.2353 -0.0196 -0.0480
 5242SOL    HW127362   2.776   0.154   5.740 -0.1799 -1.4078 -0.1600
 5242SOL    HW227363   2.648   0.196   5.801 -1.1113 -1.0406  0.1537
 5243SOL     OW27364   0.344   1.254   3.418  0.0355  0.1621  0.4741
 5243SOL    HW127365   0.370   1.346   3.418  1.9302 -0.3515 -0.6198
 5243SOL    HW227366   0.430   1.215   3.435  0.5882  1.0297 -0.2933
 5244SOL     OW27367   0.653   1.435   0.824  0.1104  0.4025  0.0968
 5244SOL    HW127368   0.584   1.444   0.758 -0.9286  1.3387  1.2962
 5244SOL    HW227369   0.682   1.524   0.843  1.9117 -0.2199  0.1856
 5245SOL     OW27370   1.050   2.476   1.477 -0.1964  0.0364 -0.1642
 5245SOL    HW127371   1.142   2.489   1.497 -0.2649  2.4112 -1.3453
 5245SOL    HW227372   1.044   2.468   1.381 -0.5424 -1.0555 -0.0549
 5246SOL     OW27373   0.383   2.449  10.593  0.3403 -0.3145  0.4577
 5246SOL    HW127374   0.373   2.418  10.683  0.7953  1.1706  1.0139
 5246SOL    HW227375   0.404   2.541  10.605  1.4715 -0.6448  1.0439
 5247SOL     OW27376   0.207   4.728   8.608  0.0765 -0.0087 -0.5593
 5247SOL    HW127377   0.180   0.046   8.683 -0.8080 -0.5731 -0.4656
 5247SOL    HW227378   0.155   0.011   8.530  0.1589  0.9755 -0.3621
 5248SOL     OW27379   3.838   4.498   5.993  0.3362 -0.1735 -0.1124
 5248SOL    HW127380   3.777   4.568   5.972  0.5824  0.9539  2.8454
 5248SOL    HW227381   3.782   4.424   6.014  1.7017 -0.4701  2.5083
 5249SOL     OW27382   1.169   0.488   4.926 -0.3611 -0.4454  0.0331
 5249SOL    HW127383   1.142   0.576   4.952  1.8051  0.2197  0.0268
 5249SOL    HW227384   1.117   0.465   4.849  2.2731 -1.0365 -1.5972
 5250SOL     OW27385   2.464   4.384  16.390 -0.4296 -0.3053 -0.0604
 5250SOL    HW127386   2.393   4.376  16.328  1.5445  0.6450 -2.4306
 5250SOL    HW227387   2.415   4.384  16.472  0.8745  0.1715  0.7325
 5251SOL     OW27388   1.905   3.713   3.353 -0.4823  0.3681  0.1449
 5251SOL    HW127389   1.914   3.808   3.345  1.2709  0.4196  2.6264
 5251SOL    HW227390   1.829   3.704   3.296  0.8436  0.1071 -1.5777
 5252SOL     OW27391   4.621   3.634   3.154 -0.4944 -0.2799 -0.0374
 5252SOL    HW127392   4.653   3.590   3.232 -1.6763 -0.5715  0.2864
 5252SOL    HW227393   4.665   3.579   3.089  0.3938 -1.2266  1.3630
 5253SOL     OW27394   0.579   0.214   2.519  0.1172 -0.0699  0.3473
 5253SOL    HW127395   0.641   0.173   2.458 -1.0996 -1.3269 -0.0338
 5253SOL    HW227396   0.536   0.140   2.562  0.0649 -0.8443 -1.0179
 5254SOL     OW27397   0.992   2.209  14.622 -0.4089 -0.0957 -0.1825
 5254SOL    HW127398   1.027   2.139  14.567 -0.0516  0.2796 -0.4285
 5254SOL    HW227399   1.066   2.230  14.679  0.2975 -0.2623 -1.0410
 5255SOL     OW27400   3.008   4.567   8.104  0.1696 -0.0519  0.5196
 5255SOL    HW127401   2.922   4.573   8.062 -0.0265  0.5984  1.0298
 5255SOL    HW227402   2.994   4.610   8.188  1.2624 -0.9833  1.1733
 5256SOL     OW27403   2.573   0.013   9.699  0.1597  0.5653  0.2557
 5256SOL    HW127404   2.664   4.718   9.696 -0.5990 -1.6462 -0.2392
 5256SOL    HW227405   2.531   4.672   9.661  1.1093  0.5872 -0.8389
 5257SOL     OW27406   3.462   3.779   8.996 -0.1148 -0.1183 -0.1759
 5257SOL    HW127407   3.374   3.814   8.982 -0.1428  0.3719  1.1932
 5257SOL    HW227408   3.515   3.857   8.978  0.6799 -0.5516  0.2943
 5258SOL     OW27409   2.963   3.405   2.928 -0.1139 -0.3879 -0.2304
 5258SOL    HW127410   3.019   3.472   2.967  2.8323 -2.4316 -0.9175
 5258SOL    HW227411   3.008   3.320   2.921  0.4042 -0.0518 -0.9393
 5259SOL     OW27412   1.937   4.018   7.417 -0.2574  0.0730  0.3312
 5259SOL    HW127413   1.918   4.023   7.510  2.7980  2.6921  0.8131
 5259SOL    HW227414   1.921   3.924   7.404 -1.0433  0.3181 -0.4339
 5260SOL     OW27415   3.636   1.486  15.962 -0.3701 -0.1899  0.3700
 5260SOL    HW127416   3.707   1.545  15.985 -1.0867  0.6439  0.4560
 5260SOL    HW227417   3.561   1.525  16.009 -1.1933 -0.0335 -1.0662
 5261SOL     OW27418   4.125   0.838  17.147  0.7099 -0.0627 -0.4793
 5261SOL    HW127419   4.112   0.924  17.187  0.7083  0.2406 -1.1333
 5261SOL    HW227420   4.097   0.852  17.057  1.9262 -0.0434 -0.8480
 5262SOL     OW27421   3.257   2.632   5.577  0.0551  0.1649 -0.0540
 5262SOL    HW127422   3.308   2.608   5.655 -1.3078  1.2058  1.1532
 5262SOL    HW227423   3.181   2.673   5.619  0.4058  0.0158  0.7219
 5263SOL     OW27424   0.203   1.457   6.390  0.3213 -0.5381  0.3838
 5263SOL    HW127425   0.172   1.380   6.437 -1.0464 -0.8555 -1.0176
 5263SOL    HW227426   0.142   1.524   6.422  0.6641  0.1656 -0.4279
 5264SOL     OW27427   2.267   1.848   5.911 -0.0199  0.1751  1.2980
 5264SOL    HW127428   2.354   1.810   5.924  0.4076  0.3676 -0.9998
 5264SOL    HW227429   2.250   1.868   6.003  1.4583 -0.6831  1.7498
 5265SOL     OW27430   1.678   3.223   6.223  0.1775  0.2755  0.2214
 5265SOL    HW127431   1.749   3.166   6.195  0.5568  0.4871  0.7376
 5265SOL    HW227432   1.668   3.188   6.312 -2.8485  1.0415  0.1838
 5266SOL     OW27433   3.047   1.004   0.473  0.2075  0.2218 -0.2661
 5266SOL    HW127434   3.063   0.964   0.388  1.2596 -0.8917  0.4541
 5266SOL    HW227435   3.087   0.940   0.531  1.0596  1.7773  0.8666
 5267SOL     OW27436   0.535   1.286  16.144  0.4404  0.0880 -0.0639
 5267SOL    HW127437   0.560   1.370  16.103 -0.2238 -1.4350 -3.6309
 5267SOL    HW227438   0.621   1.244  16.136  0.4549 -0.8976  5.2706
 5268SOL     OW27439   1.043   2.504   5.933  0.1805  0.2215 -0.2893
 5268SOL    HW127440   1.125   2.550   5.916  0.2672  0.7915  1.7371
 5268SOL    HW227441   0.989   2.572   5.893  1.6218  2.4625  1.5445
 5269SOL     OW27442   3.991   3.646   8.545  0.0543  0.3677 -0.0315
 5269SOL    HW127443   3.906   3.601   8.549  0.7098 -0.7620  1.2519
 5269SOL    HW227444   3.995   3.690   8.629  3.8565  0.6782 -0.3802
 5270SOL     OW27445   0.987   4.621   8.482 -0.1212  0.3739  0.2147
 5270SOL    HW127446   0.938   4.690   8.527 -0.0581  0.5928 -0.0567
 5270SOL    HW227447   0.947   4.628   8.396  1.1131 -1.1093 -0.4901
 5271SOL     OW27448   4.159   2.294  17.153  0.6176  0.2155 -0.1058
 5271SOL    HW127449   4.123   2.358  17.214 -0.9757 -1.3716  0.6418
 5271SOL    HW227450   4.162   2.214  17.205 -1.2885  0.1157 -0.1451
 5272SOL     OW27451   2.878   3.084   3.002  0.6084  0.0905 -0.2412
 5272SOL    HW127452   2.885   2.999   3.047 -0.6449  1.1593  1.9939
 5272SOL    HW227453   2.813   3.134   3.052  0.1561 -1.5042  0.7744
 5273SOL     OW27454   0.830   2.207   7.117 -0.3283  0.5594 -0.6853
 5273SOL    HW127455   0.906   2.256   7.086  0.9883  0.5373  2.5153
 5273SOL    HW227456   0.759   2.266   7.092 -2.4538 -1.1474  1.3460
 5274SOL     OW27457   0.539   2.423   5.813 -0.2497  0.3391 -0.4340
 5274SOL    HW127458   0.590   2.503   5.806  1.7392 -0.8929  0.0003
 5274SOL    HW227459   0.464   2.464   5.857  0.0086 -1.3189  1.5505
 5275SOL     OW27460   2.724   3.899   2.554  0.4252  0.0885  0.1233
 5275SOL    HW127461   2.642   3.937   2.586  0.6524  2.5690 -2.1692
 5275SOL    HW227462   2.763   3.986   2.540  1.5747 -0.6170 -1.0851
 5276SOL     OW27463   3.438   0.308   2.915 -0.7005  0.7148 -0.0924
 5276SOL    HW127464   3.523   0.294   2.873 -1.6286 -1.9601 -1.1211
 5276SOL    HW227465   3.390   0.260   2.847  0.3446 -0.4775  0.0184
 5277SOL     OW27466   3.822   2.692   5.117  0.0286 -0.5969 -0.0844
 5277SOL    HW127467   3.878   2.634   5.168  0.0423  0.3509  0.9929
 5277SOL    HW227468   3.856   2.674   5.030  1.8753  0.7483  0.3780
 5278SOL     OW27469   4.612   1.602  14.710  0.1944  0.2097  0.1935
 5278SOL    HW127470   4.518   1.587  14.707  0.1611  0.8892 -1.8570
 5278SOL    HW227471   4.633   1.639  14.625 -2.3716  0.8314 -0.1576
 5279SOL     OW27472   3.035   0.654   7.621  0.0077  0.1541  0.1630
 5279SOL    HW127473   3.038   0.574   7.674  1.5001  0.1739  0.1210
 5279SOL    HW227474   2.967   0.709   7.659 -1.2242  0.6213 -2.7661
 5280SOL     OW27475   2.653   3.243   2.852 -0.3883  0.6432  0.1925
 5280SOL    HW127476   2.679   3.263   2.762 -1.4406  0.1538 -0.2129
 5280SOL    HW227477   2.669   3.324   2.900  1.8212 -0.3817  1.1801
 5281SOL     OW27478   3.863   4.288   3.978  0.3483  0.0761 -0.0781
 5281SOL    HW127479   3.951   4.294   3.941 -0.5557  0.8190 -2.0928
 5281SOL    HW227480   3.873   4.202   4.018 -0.0796 -0.4995 -1.2372
 5282SOL     OW27481   0.140   4.624  12.429 -0.1187  0.1209  0.2281
 5282SOL    HW127482   0.111   4.709  12.396  1.0012  1.7961  3.5557
 5282SOL    HW227483   0.200   4.594  12.361 -1.6035 -0.5907 -0.7760
 5283SOL     OW27484   3.404   4.365   2.061 -0.1733  0.9634 -0.0567
 5283SOL    HW127485   3.339   4.426   2.097 -0.7101  0.1549  0.3509
 5283SOL    HW227486   3.352   4.286   2.053  0.1574  0.6465  0.9121
 5284SOL     OW27487   2.232   4.112  16.788 -0.5071  0.2296  0.0210
 5284SOL    HW127488   2.153   4.061  16.770  0.8320 -1.5618 -0.7572
 5284SOL    HW227489   2.201   4.178  16.850  2.5013  2.0617 -0.4293
 5285SOL     OW27490   4.170   0.569  13.312 -0.3950  0.3113 -0.3102
 5285SOL    HW127491   4.264   0.574  13.327 -0.1537 -1.0281 -1.3526
 5285SOL    HW227492   4.144   0.489  13.359 -2.0951 -0.5838 -2.7343
 5286SOL     OW27493   2.563   3.137   8.200 -0.2484 -0.1572 -0.1161
 5286SOL    HW127494   2.551   3.054   8.247 -1.2501 -0.1952 -0.4305
 5286SOL    HW227495   2.649   3.154   8.238  0.7981 -0.3412 -2.4260
 5287SOL     OW27496   3.043   2.197   4.171  0.9676  0.5154 -0.4290
 5287SOL    HW127497   3.042   2.108   4.135 -2.1586 -0.2171  1.5155
 5287SOL    HW227498   3.138   2.206   4.180  1.1336 -1.9970  0.3275
 5288SOL     OW27499   3.684   2.175   6.102 -0.1208 -0.0259  0.2508
 5288SOL    HW127500   3.716   2.198   6.015 -0.0515 -1.9980 -0.2655
 5288SOL    HW227501   3.591   2.157   6.086  0.0478  0.4195 -1.2422
 5289SOL     OW27502   4.103   1.450  17.329  0.5097  0.2970  0.7339
 5289SOL    HW127503   4.047   1.472  17.403  1.7428  0.3104  1.6586
 5289SOL    HW227504   4.141   1.366  17.355  1.1355 -0.4558 -2.6623
 5290SOL     OW27505   3.301   1.720   1.933 -0.2710  0.4897 -0.2284
 5290SOL    HW127506   3.221   1.759   1.967  0.1189  1.8298 -0.8622
 5290SOL    HW227507   3.260   1.658   1.872 -0.0347  0.1070  0.0016
 5291SOL     OW27508   3.780   2.923   6.830  0.0309  0.1076  0.2526
 5291SOL    HW127509   3.855   2.979   6.812 -0.2054  0.3089 -0.1033
 5291SOL    HW227510   3.828   2.841   6.843 -1.0637  0.0094  3.6492
 5292SOL     OW27511   3.711   2.974   9.755 -0.2163 -0.0667 -0.0380
 5292SOL    HW127512   3.661   2.944   9.679  1.8045 -1.4958 -0.7956
 5292SOL    HW227513   3.802   2.970   9.725  0.0387 -2.4564  1.0841
 5293SOL     OW27514   1.740   4.054   2.066  0.2268 -0.5549  0.2954
 5293SOL    HW127515   1.750   4.140   2.108 -0.4021 -0.2815 -0.1339
 5293SOL    HW227516   1.725   4.009   2.149  1.8111 -2.1132 -0.2574
 5294SOL     OW27517   2.174   4.308  11.739  0.5546  0.0443 -0.0144
 5294SOL    HW127518   2.239   4.273  11.799  0.6212  1.4824  0.7446
 5294SOL    HW227519   2.227   4.361  11.680  0.2751  0.4016  0.0557
 5295SOL     OW27520   3.153   1.924  10.214 -0.3797 -0.2359  0.5680
 5295SOL    HW127521   3.202   1.858  10.165  0.8418  1.4856 -0.5489
 5295SOL    HW227522   3.064   1.906  10.182 -0.5489 -0.0299  0.9150
 5296SOL     OW27523   4.653   3.088   2.079 -0.5502 -0.3782  0.8351
 5296SOL    HW127524   0.009   3.062   2.071 -0.0612  1.9578 -0.9526
 5296SOL    HW227525   4.627   3.091   1.988 -0.7637 -0.3827  0.8968
 5297SOL     OW27526   4.324   0.161   6.857  0.0578 -0.4974  0.3597
 5297SOL    HW127527   4.269   0.134   6.784 -0.9000  3.3078 -0.3136
 5297SOL    HW227528   4.282   0.107   6.925 -0.0973 -1.3514 -0.4169
 5298SOL     OW27529   3.540   2.468   8.911  0.8463  0.3254 -0.0283
 5298SOL    HW127530   3.621   2.509   8.940  1.0786  0.4427 -0.8310
 5298SOL    HW227531   3.478   2.490   8.980  1.0663  2.0199 -0.3797
 5299SOL     OW27532   4.153   4.565   9.817  0.0580  0.4870  0.4077
 5299SOL    HW127533   4.230   4.606   9.855  0.1675  1.0902 -0.4435
 5299SOL    HW227534   4.088   4.636   9.818 -0.2549  0.2606 -2.0331
 5300SOL     OW27535   0.540   3.359   9.114  0.1017  0.0066  0.7284
 5300SOL    HW127536   0.605   3.320   9.057 -2.3040 -1.6714 -0.8771
 5300SOL    HW227537   0.570   3.336   9.202  0.9637  0.5076  0.5660
 5301SOL     OW27538   3.685   3.248   2.085 -0.4492 -0.4439  0.5015
 5301SOL    HW127539   3.771   3.206   2.075 -1.8378 -3.2021  0.2216
 5301SOL    HW227540   3.712   3.338   2.103  1.2210 -1.2486  2.1123
 5302SOL     OW27541   0.429   1.865   8.073 -0.5601 -0.0158 -0.7557
 5302SOL    HW127542   0.504   1.811   8.096  0.9121  2.1932 -0.3700
 5302SOL    HW227543   0.360   1.817   8.119 -0.2848  1.7825  1.5418
 5303SOL     OW27544   0.904   2.261  11.043 -0.0146  0.2795  0.3921
 5303SOL    HW127545   0.863   2.278  11.128  1.7374  0.0536  1.2768
 5303SOL    HW227546   0.996   2.250  11.065 -0.6209 -2.0486  1.7741
 5304SOL     OW27547   2.620   0.635   0.583  0.7226  0.0907 -0.0175
 5304SOL    HW127548   2.712   0.640   0.607  1.1929  1.2331 -2.0919
 5304SOL    HW227549   2.622   0.726   0.553 -1.6956 -0.2383 -1.1874
 5305SOL     OW27550   0.067   3.978   8.215 -0.3252  0.0054 -0.2867
 5305SOL    HW127551   0.013   3.934   8.281 -0.6842 -0.9133 -1.1878
 5305SOL    HW227552   0.138   4.015   8.266 -0.1167 -0.4829 -0.2183
 5306SOL     OW27553   0.354   0.235   0.924  0.2696 -0.6126  0.1023
 5306SOL    HW127554   0.346   0.263   1.015 -1.4384 -2.0601  0.3977
 5306SOL    HW227555   0.321   0.146   0.939  0.4839 -0.6462  0.3718
 5307SOL     OW27556   1.531   2.946   8.933  0.2915  0.6963 -0.2389
 5307SOL    HW127557   1.516   2.973   8.843  0.7220 -1.3091 -0.9103
 5307SOL    HW227558   1.620   2.976   8.949  0.4361  0.0256  0.2112
 5308SOL     OW27559   3.536   3.405   5.335 -0.1357 -0.6482  0.1050
 5308SOL    HW127560   3.590   3.478   5.365  0.9106 -2.0114  1.5489
 5308SOL    HW227561   3.544   3.335   5.399  1.8929  1.6058  2.3417
 5309SOL     OW27562   0.650   0.345  16.826  0.5861 -0.1455 -0.1940
 5309SOL    HW127563   0.569   0.375  16.866  0.1161  0.1409 -1.3480
 5309SOL    HW227564   0.687   0.429  16.800 -0.2825  1.0308  2.4856
 5310SOL     OW27565   1.206   0.315  15.054 -0.1657  0.1202 -0.0200
 5310SOL    HW127566   1.262   0.373  15.002 -0.2349 -0.9003 -1.2217
 5310SOL    HW227567   1.276   0.256  15.081 -1.4433 -1.5028 -0.2974
 5311SOL     OW27568   3.961   2.491   3.454  0.4337  0.0340 -0.4316
 5311SOL    HW127569   3.911   2.541   3.389  0.7196  0.0491 -0.6432
 5311SOL    HW227570   3.941   2.405   3.418  0.7944  0.4935 -1.7467
 5312SOL     OW27571   1.500   2.053  17.700 -0.0697  0.5195 -0.0746
 5312SOL    HW127572   1.576   2.079  17.648 -0.7224  2.2614 -0.1529
 5312SOL    HW227573   1.447   2.132  17.715 -0.1208  0.3783  0.4921
 5313SOL     OW27574   3.456   2.705   7.335  0.0181  0.0105  0.1352
 5313SOL    HW127575   3.429   2.710   7.426 -0.6823  3.5347 -0.2707
 5313SOL    HW227576   3.551   2.703   7.339 -0.0873 -0.4076  2.1704
 5314SOL     OW27577   1.861   2.385   4.285 -0.5867 -0.0447 -0.3015
 5314SOL    HW127578   1.835   2.353   4.198  0.9630 -1.0624 -0.3839
 5314SOL    HW227579   1.782   2.437   4.299 -0.5098 -0.4007  1.4139
 5315SOL     OW27580   0.113   4.172  17.006  0.6008 -0.2138 -0.3629
 5315SOL    HW127581   0.183   4.198  16.945 -0.1657  0.8015 -0.8050
 5315SOL    HW227582   0.057   4.115  16.954 -0.4708 -0.3479  0.9451
 5316SOL     OW27583   1.752   1.184   6.098  0.6008 -0.1448 -0.0973
 5316SOL    HW127584   1.771   1.277   6.087  2.3813 -0.4012  0.8465
 5316SOL    HW227585   1.769   1.159   6.189 -1.4468  3.2969  1.1929
 5317SOL     OW27586   3.536   0.919  11.872 -0.2284  0.3993  0.1116
 5317SOL    HW127587   3.541   1.015  11.878  1.8090  0.2968  0.0929
 5317SOL    HW227588   3.459   0.906  11.928 -0.2610 -1.4337 -0.3700
 5318SOL     OW27589   1.545   1.653   6.958  0.1721 -0.0026  0.3727
 5318SOL    HW127590   1.565   1.678   7.048  2.8601 -0.5824 -0.0583
 5318SOL    HW227591   1.628   1.614   6.931 -0.3175  0.5882 -1.9815
 5319SOL     OW27592   4.469   1.685   8.632  0.0601 -0.0278 -0.6774
 5319SOL    HW127593   4.415   1.644   8.700  0.0762  2.6534  0.9849
 5319SOL    HW227594   4.428   1.663   8.549  1.3670 -1.9432 -0.8247
 5320SOL     OW27595   0.662   3.869  16.757 -0.2407  0.0568  0.7443
 5320SOL    HW127596   0.712   3.788  16.742 -0.0924 -0.0474  1.7926
 5320SOL    HW227597   0.605   3.852  16.682 -2.1342 -1.6715  2.5706
 5321SOL     OW27598   1.708   3.964   2.316  0.2992  0.9600 -0.1413
 5321SOL    HW127599   1.619   3.998   2.327  1.0867  2.2046  2.4073
 5321SOL    HW227600   1.685   3.874   2.340 -4.2740  1.9896 -0.6669
 5322SOL     OW27601   4.202   3.776  13.131 -0.1884 -0.1132 -0.0943
 5322SOL    HW127602   4.224   3.798  13.040  0.3502 -0.8683 -0.1512
 5322SOL    HW227603   4.287   3.782  13.175  0.0982  1.3920 -0.8473
 5323SOL     OW27604   2.242   1.878   6.195  0.3927 -0.1188  0.1370
 5323SOL    HW127605   2.259   1.941   6.265  0.1445  1.2065 -1.0214
 5323SOL    HW227606   2.313   1.814   6.206  1.0952  0.6139 -0.1770
 5324SOL     OW27607   1.020   1.034  14.923 -0.2858 -0.1355 -0.1110
 5324SOL    HW127608   0.945   1.018  14.867 -0.5834 -0.0064  0.2519
 5324SOL    HW227609   0.999   1.117  14.965 -1.1723 -0.3427 -0.1574
 5325SOL     OW27610   4.402   3.797   4.338 -0.4464  0.4024 -0.5497
 5325SOL    HW127611   4.381   3.816   4.247 -0.3721  4.6215  0.2885
 5325SOL    HW227612   4.329   3.838   4.385 -0.4081 -0.4353  0.2273
 5326SOL     OW27613   2.574   4.344   3.999 -0.4762 -0.1524  0.3790
 5326SOL    HW127614   2.624   4.304   4.071 -0.6030  0.1144  0.6128
 5326SOL    HW227615   2.560   4.433   4.030  0.9135 -0.1081  0.8895
 5327SOL     OW27616   0.283   1.015   6.646 -0.1445  0.2652  0.0549
 5327SOL    HW127617   0.374   0.992   6.630 -0.6779 -2.8065  1.5245
 5327SOL    HW227618   0.243   0.977   6.568  0.0445 -1.2035  0.6886
 5328SOL     OW27619   3.562   0.709   4.684  0.6049 -0.2555  0.2402
 5328SOL    HW127620   3.550   0.716   4.779 -0.1101  0.0408  0.1247
 5328SOL    HW227621   3.471   0.717   4.655 -0.1508  2.8883  3.4460
 5329SOL     OW27622   4.171   2.231  16.421 -0.2798  0.6053  0.6358
 5329SOL    HW127623   4.229   2.158  16.402 -1.6483  0.0135 -1.2507
 5329SOL    HW227624   4.227   2.302  16.453 -0.2508  1.6660 -1.8479
 5330SOL     OW27625   0.163   0.982  14.254  0.2809 -0.1614 -0.3515
 5330SOL    HW127626   0.252   1.009  14.275  0.8565 -1.0326 -1.6307
 5330SOL    HW227627   0.177   0.926  14.178  0.5579 -1.3262  0.5676
 5331SOL     OW27628   4.404   1.304   5.131 -0.5014  0.5527  0.0427
 5331SOL    HW127629   4.452   1.249   5.193 -2.1100  0.3873  1.1330
 5331SOL    HW227630   4.463   1.378   5.113  0.0529 -0.4036 -2.0813
 5332SOL     OW27631   3.502   0.532   2.151  0.5440 -0.0971 -0.3011
 5332SOL    HW127632   3.435   0.579   2.100 -1.6314 -0.5178  2.1654
 5332SOL    HW227633   3.493   0.444   2.115 -1.0050 -1.2479  2.8684
 5333SOL     OW27634   0.301   2.189   5.155  0.6907  0.4831 -0.1388
 5333SOL    HW127635   0.249   2.232   5.223  1.6332  1.3661  0.0317
 5333SOL    HW227636   0.327   2.106   5.196 -0.4918  0.0791 -0.1996
 5334SOL     OW27637   3.977   1.499   6.333  0.6699  0.4074  0.0892
 5334SOL    HW127638   3.971   1.594   6.342  1.1631  0.2016  2.5645
 5334SOL    HW227639   3.924   1.476   6.410  0.2510  1.9055  0.2510
 5335SOL     OW27640   3.912   0.748   2.517  0.1605 -0.0340 -0.0707
 5335SOL    HW127641   3.833   0.792   2.487 -0.4908 -1.3603 -0.2995
 5335SOL    HW227642   3.904   0.662   2.474  3.2472 -1.0936  1.4589
 5336SOL     OW27643   1.844   1.102   3.185  0.1322 -0.5357  0.1179
 5336SOL    HW127644   1.911   1.108   3.253  0.1458  0.1198  0.0511
 5336SOL    HW227645   1.896   1.118   3.106 -1.9374  0.3409 -1.0672
 5337SOL     OW27646   0.753   4.344   8.679  0.0961 -0.0010  0.1923
 5337SOL    HW127647   0.730   4.360   8.771  0.9291 -0.2457  0.4445
 5337SOL    HW227648   0.740   4.249   8.672 -1.5109  0.1210  1.4264
 5338SOL     OW27649   3.052   3.568   5.190 -0.0489  0.0813 -0.1965
 5338SOL    HW127650   3.119   3.574   5.122  1.9195 -1.9658  1.5949
 5338SOL    HW227651   3.023   3.477   5.180 -2.8034  0.8023  1.2349
 5339SOL     OW27652   4.720   2.929   7.254  0.4844  0.0412  0.2285
 5339SOL    HW127653   4.656   2.986   7.296  0.0750 -1.0250  1.0580
 5339SOL    HW227654   4.674   2.846   7.243 -2.2633  1.5047  0.6816
 5340SOL     OW27655   1.480   0.640   9.622 -0.0235 -0.1374  0.4523
 5340SOL    HW127656   1.437   0.637   9.708 -0.5855  1.0591  0.1992
 5340SOL    HW227657   1.480   0.545   9.610  1.1561 -0.1750  0.7200
 5341SOL     OW27658   2.029   1.372   0.083 -0.3783  0.6664 -0.9183
 5341SOL    HW127659   2.111   1.412   0.111 -1.0424  1.5391 -0.2125
 5341SOL    HW227660   1.973   1.394   0.157  0.6191  0.9566 -0.2445
 5342SOL     OW27661   4.401   1.478   7.993  0.4562  0.0457  0.0491
 5342SOL    HW127662   4.479   1.431   7.964 -0.4414 -1.0555 -0.5955
 5342SOL    HW227663   4.379   1.513   7.907  2.5754  1.6713  0.1811
 5343SOL     OW27664   4.441   2.122   7.888 -0.4368  0.1038  0.5707
 5343SOL    HW127665   4.463   2.050   7.829  0.4425 -0.7092  1.8926
 5343SOL    HW227666   4.509   2.109   7.954 -0.9499  2.5559  1.5827
 5344SOL     OW27667   0.510   2.744   3.440 -0.1370 -0.3739  0.4557
 5344SOL    HW127668   0.572   2.720   3.508  0.9986 -1.1788 -0.8762
 5344SOL    HW227669   0.470   2.665   3.403 -0.3264  0.3807 -0.9629
 5345SOL     OW27670   2.024   4.575   5.928 -0.2544 -0.0858  0.3046
 5345SOL    HW127671   1.996   4.538   6.012 -0.6893 -0.4059  0.0209
 5345SOL    HW227672   1.963   4.648   5.929  0.3651  0.4243  0.4906
 5346SOL     OW27673   1.222   4.287   4.391  0.0294 -0.0694  0.0527
 5346SOL    HW127674   1.141   4.265   4.345  0.6288 -0.6844 -0.7115
 5346SOL    HW227675   1.225   4.221   4.460  0.3260 -0.9064 -0.7651
 5347SOL     OW27676   1.890   4.617   0.467  0.4734 -0.5178  0.2025
 5347SOL    HW127677   1.825   4.649   0.529 -1.5580 -1.9786 -1.1758
 5347SOL    HW227678   1.960   4.680   0.483  0.9681 -1.0174  0.0200
 5348SOL     OW27679   3.743   0.521  17.107  0.2260 -0.1842 -0.2236
 5348SOL    HW127680   3.832   0.500  17.134  0.3377  1.7385  0.9058
 5348SOL    HW227681   3.711   0.436  17.077  0.3232  0.0505 -0.9958
 5349SOL     OW27682   0.262   4.128   2.673 -0.9357  0.1093  0.1500
 5349SOL    HW127683   0.203   4.201   2.691 -0.8706  0.5944 -1.5387
 5349SOL    HW227684   0.293   4.148   2.584  0.0930  0.0039  0.4879
 5350SOL     OW27685   1.373   4.500   3.930 -0.0714  0.0289 -0.0944
 5350SOL    HW127686   1.308   4.565   3.959 -0.6897 -0.6772  0.1029
 5350SOL    HW227687   1.409   4.534   3.849  2.7204 -1.1753  0.6420
 5351SOL     OW27688   1.535   1.863   5.331  0.0050 -0.2315  0.4122
 5351SOL    HW127689   1.589   1.789   5.360  0.8675  0.1086 -0.3108
 5351SOL    HW227690   1.463   1.808   5.299  2.0473 -1.8183 -1.5386
 5352SOL     OW27691   0.242   2.255   5.930  0.3893 -0.2957 -0.6303
 5352SOL    HW127692   0.148   2.263   5.950  0.7458  0.4380  0.7887
 5352SOL    HW227693   0.272   2.177   5.977 -1.0261 -0.2687  0.3512
 5353SOL     OW27694   1.681   2.133   5.899 -0.1639 -0.0904 -0.1984
 5353SOL    HW127695   1.622   2.159   5.969  1.8259 -0.4523  1.6116
 5353SOL    HW227696   1.735   2.211   5.901 -0.7195  0.2835  0.0708
 5354SOL     OW27697   4.232   4.067   5.927  0.3890 -0.3330 -0.3997
 5354SOL    HW127698   4.175   4.082   5.851 -0.8991  0.3121  0.6789
 5354SOL    HW227699   4.165   4.082   5.994  2.3255 -0.1450  1.4681
 5355SOL     OW27700   2.131   2.787   4.957 -0.0744  0.4164  0.2136
 5355SOL    HW127701   2.043   2.752   4.944 -0.2363  0.8592  0.1103
 5355SOL    HW227702   2.181   2.712   4.924  0.2543  0.6591  0.1670
 5356SOL     OW27703   1.458   1.938   1.612  0.3150 -0.0371 -0.3244
 5356SOL    HW127704   1.453   1.852   1.570 -0.1176 -0.3655  0.4120
 5356SOL    HW227705   1.554   1.948   1.617  0.5228 -1.9774 -0.3653
 5357SOL     OW27706   1.868   1.691   2.855 -0.2311 -0.2082 -0.0082
 5357SOL    HW127707   1.793   1.744   2.880 -2.4095 -2.9032 -0.8905
 5357SOL    HW227708   1.890   1.725   2.768 -0.2536 -0.8214 -0.2511
 5358SOL     OW27709   1.547   4.537  14.410  0.3306 -0.2495  0.5222
 5358SOL    HW127710   1.536   4.572  14.498  0.3442  3.6465 -1.0304
 5358SOL    HW227711   1.609   4.604  14.381  0.5198 -0.1715  1.1034
 5359SOL     OW27712   1.522   0.508   7.561  0.0328 -0.0020  0.3945
 5359SOL    HW127713   1.511   0.575   7.493  2.0936 -0.7158 -0.6320
 5359SOL    HW227714   1.573   0.557   7.625 -0.8823 -1.7707  2.4553
 5360SOL     OW27715   2.753   2.229   8.775 -0.4649  0.0168 -0.3849
 5360SOL    HW127716   2.690   2.296   8.748 -0.3819  0.2121 -0.0954
 5360SOL    HW227717   2.742   2.168   8.702 -2.8879  1.6174 -1.3648
 5361SOL     OW27718   0.739   4.312  13.473 -0.5376  0.5415 -0.3140
 5361SOL    HW127719   0.685   4.342  13.546 -1.7674 -1.0718 -0.5513
 5361SOL    HW227720   0.752   4.385  13.412  1.0148  0.0011 -0.6431
 5362SOL     OW27721   2.754   4.169   2.586  0.3008 -0.4455  0.5701
 5362SOL    HW127722   2.809   4.239   2.621  0.6560  0.1478 -1.1790
 5362SOL    HW227723   2.695   4.215   2.527  0.2359 -2.3314 -0.8334
 5363SOL     OW27724   3.905   0.607   4.141  0.7798  0.0561 -0.5227
 5363SOL    HW127725   3.992   0.637   4.167 -0.6653  3.2050  0.8006
 5363SOL    HW227726   3.918   0.532   4.083  0.4905 -0.1504 -0.3260
 5364SOL     OW27727   0.070   2.762   2.934  0.3676  0.0791  0.5101
 5364SOL    HW127728   0.154   2.716   2.929  0.1604 -0.1981 -0.3605
 5364SOL    HW227729   0.009   2.707   2.884  1.5440 -0.8790  0.1323
 5365SOL     OW27730   3.079   1.540   7.914 -0.0546  0.5900  0.3191
 5365SOL    HW127731   3.163   1.575   7.943  0.0863  0.6052 -0.1170
 5365SOL    HW227732   3.037   1.531   8.000 -0.9888 -2.1218 -0.4172
 5366SOL     OW27733   3.200   1.970  17.245  0.0809  0.0350 -0.4845
 5366SOL    HW127734   3.194   2.060  17.276 -1.5674 -0.2977  0.1322
 5366SOL    HW227735   3.115   1.955  17.204 -0.2745 -0.0436  0.2928
 5367SOL     OW27736   1.486   0.238  11.498  0.2960  0.0821 -0.1414
 5367SOL    HW127737   1.565   0.226  11.550  0.2852 -2.0028 -0.6023
 5367SOL    HW227738   1.505   0.172  11.431  1.0066  0.0088  0.1362
 5368SOL     OW27739   0.914   1.242   3.883  0.1566  0.4094 -0.6312
 5368SOL    HW127740   0.840   1.183   3.894  0.3232  0.4753  0.8464
 5368SOL    HW227741   0.979   1.205   3.943 -0.6436 -0.2918 -0.2065
 5369SOL     OW27742   4.327   4.688   9.988  0.1479  0.0160  0.2318
 5369SOL    HW127743   4.284   4.705  10.071  1.8525  1.9976  0.7279
 5369SOL    HW227744   4.385   4.615  10.010  2.5107  2.8997  3.6759
 5370SOL     OW27745   3.792   4.012   6.743 -0.3724 -0.0802 -0.0519
 5370SOL    HW127746   3.825   3.926   6.769  2.6685  1.6886  2.0227
 5370SOL    HW227747   3.850   4.032   6.670  2.0909  1.4036  2.3030
 5371SOL     OW27748   3.260   3.462   3.760 -0.3706 -0.5003  0.2000
 5371SOL    HW127749   3.260   3.393   3.827 -0.5728 -0.9978 -0.3041
 5371SOL    HW227750   3.280   3.537   3.816  2.1082 -0.6236 -0.5263
 5372SOL     OW27751   2.631   3.913   4.960  0.0431 -0.2822 -0.5959
 5372SOL    HW127752   2.643   3.872   4.875  2.1685  0.4118 -0.6537
 5372SOL    HW227753   2.726   3.928   4.969  0.0879 -0.5910 -0.5704
 5373SOL     OW27754   2.056   3.818  15.433  0.0861  0.2975  0.0788
 5373SOL    HW127755   2.123   3.758  15.467 -2.2770 -1.0568  2.4705
 5373SOL    HW227756   2.106   3.879  15.380 -1.1338  0.6249 -0.6884
 5374SOL     OW27757   4.282   2.136  11.703  0.3025 -0.5129  0.6560
 5374SOL    HW127758   4.363   2.139  11.653  1.0675  0.6962  1.9843
 5374SOL    HW227759   4.262   2.222  11.739  2.0038  0.1766 -0.0635
 5375SOL     OW27760   0.424   3.356   5.889 -0.3170  0.4925  0.6237
 5375SOL    HW127761   0.360   3.415   5.847 -0.2074  0.2658  0.1391
 5375SOL    HW227762   0.508   3.402   5.886 -0.6178  0.8829 -1.7566
 5376SOL     OW27763   0.106   1.513   3.581 -0.0986 -0.3253 -0.0551
 5376SOL    HW127764   0.100   1.434   3.526 -0.8407  1.0715 -1.9786
 5376SOL    HW227765   0.013   1.525   3.600  0.1684  1.2296  0.2400
 5377SOL     OW27766   1.431   0.534   4.957 -0.0090  0.0637  0.5691
 5377SOL    HW127767   1.458   0.476   5.028 -2.6333 -1.4474  0.3376
 5377SOL    HW227768   1.336   0.524   4.956  0.0541 -0.1346 -2.3241
 5378SOL     OW27769   1.062   2.889   4.429 -0.1592 -0.4061  0.0900
 5378SOL    HW127770   0.984   2.847   4.466 -0.6326 -0.6376 -1.1547
 5378SOL    HW227771   1.033   2.909   4.340  0.6685  1.6416  0.2930
 5379SOL     OW27772   2.138   1.267  16.868 -0.0131 -0.4112  0.9238
 5379SOL    HW127773   2.067   1.316  16.827  0.0543  0.8170  2.2741
 5379SOL    HW227774   2.094   1.203  16.924 -1.9456  0.9483  0.9684
 5380SOL     OW27775   1.532   0.164   9.484  0.1072 -0.0059 -0.0075
 5380SOL    HW127776   1.592   0.166   9.410  0.9227  2.1631  0.7181
 5380SOL    HW227777   1.579   0.109   9.547 -2.7111  0.2445  2.2947
 5381SOL     OW27778   1.960   0.296   7.963  0.3000 -0.0385  0.0531
 5381SOL    HW127779   1.906   0.263   8.035 -0.1736 -3.6244 -1.9414
 5381SOL    HW227780   1.913   0.379   7.950  0.8526  0.0496 -1.3708
 5382SOL     OW27781   0.892   0.859   6.991  0.0488  0.4938 -0.7022
 5382SOL    HW127782   0.932   0.877   7.076 -1.2951  1.0303 -0.1703
 5382SOL    HW227783   0.912   0.938   6.941  3.6782  0.5214  0.8258
 5383SOL     OW27784   0.292   2.729  15.206 -0.0613 -0.4508 -0.1565
 5383SOL    HW127785   0.291   2.756  15.298 -0.4408 -0.6605 -0.0996
 5383SOL    HW227786   0.387   2.725  15.194 -0.3402 -1.2933 -2.1360
 5384SOL     OW27787   2.373   2.132  16.908  0.0670 -0.4794  0.1874
 5384SOL    HW127788   2.379   2.227  16.917  1.7702 -0.5141 -0.6366
 5384SOL    HW227789   2.278   2.120  16.911  0.1269 -0.9944  0.0263
 5385SOL     OW27790   1.533   1.995   3.772  0.2184  0.4018  0.1848
 5385SOL    HW127791   1.600   2.063   3.773 -0.1058  0.7131  0.4639
 5385SOL    HW227792   1.539   1.973   3.679  0.6096 -1.1306  0.5639
 5386SOL     OW27793   2.962   1.080   2.321  0.3356 -0.2718 -0.0016
 5386SOL    HW127794   2.912   1.024   2.262  1.5211 -0.3354 -0.9611
 5386SOL    HW227795   3.025   1.019   2.360  0.7124  0.5229  0.6552
 5387SOL     OW27796   3.850   2.018   5.730 -0.2576  0.0459  0.0292
 5387SOL    HW127797   3.765   1.973   5.728  0.0463 -0.4173 -2.9997
 5387SOL    HW227798   3.826   2.102   5.689 -3.3064 -0.0994  1.4859
 5388SOL     OW27799   3.144   2.053   2.399  0.3975 -0.7276 -0.5637
 5388SOL    HW127800   3.108   2.129   2.355  0.5303 -0.1777  0.2772
 5388SOL    HW227801   3.172   2.085   2.485 -3.2858  0.8560  0.0552
 5389SOL     OW27802   2.568   0.801   7.613 -0.1641 -0.2866 -0.7957
 5389SOL    HW127803   2.565   0.722   7.559  0.1693 -1.2048  0.5360
 5389SOL    HW227804   2.537   0.777   7.700 -0.0908 -2.4233 -1.3531
 5390SOL     OW27805   2.415   0.657   2.739  0.1536 -0.1131  0.4498
 5390SOL    HW127806   2.411   0.579   2.683 -1.3208 -0.7638  1.4736
 5390SOL    HW227807   2.395   0.610   2.820 -0.4799 -0.4169  0.1151
 5391SOL     OW27808   2.339   1.236   8.084 -0.0047 -0.8042  0.2431
 5391SOL    HW127809   2.374   1.265   8.000 -1.1277 -2.4086 -0.7817
 5391SOL    HW227810   2.413   1.189   8.122  0.4068  0.8401  1.4805
 5392SOL     OW27811   0.647   1.507   5.675 -0.5854  0.4782 -0.3874
 5392SOL    HW127812   0.563   1.526   5.717  0.0086  0.9053  0.5997
 5392SOL    HW227813   0.627   1.424   5.630 -0.7366  0.1019  0.3763
 5393SOL     OW27814   0.275   1.036   3.274  0.3435 -0.5181  0.8021
 5393SOL    HW127815   0.269   1.106   3.338 -0.7490  1.4054 -1.3873
 5393SOL    HW227816   0.338   1.074   3.213 -0.0984  0.0073  0.6698
 5394SOL     OW27817   4.698   1.683  15.133 -0.9901  0.5909  0.2587
 5394SOL    HW127818   4.650   1.719  15.058  0.3486 -1.4215 -1.5518
 5394SOL    HW227819   4.655   1.599  15.149 -0.5693  0.6674  1.7226
 5395SOL     OW27820   1.316   0.156   7.148  0.1000  0.1198  0.0397
 5395SOL    HW127821   1.281   0.235   7.106 -1.7457  0.2160  1.7515
 5395SOL    HW227822   1.408   0.164   7.123 -0.4948  0.3524 -2.1274
 5396SOL     OW27823   1.409   2.491   2.372  0.1290 -0.4755  0.2720
 5396SOL    HW127824   1.430   2.403   2.340 -0.8510  0.3250 -2.5377
 5396SOL    HW227825   1.323   2.494   2.331  0.9747 -0.0566 -1.4835
 5397SOL     OW27826   4.446   2.638  12.477  0.7275 -0.0842 -0.0894
 5397SOL    HW127827   4.484   2.608  12.394 -0.1950 -0.8243 -0.2525
 5397SOL    HW227828   4.413   2.556  12.515 -0.5874  0.0592 -0.9039
 5398SOL     OW27829   2.165   1.301   8.318 -0.3503 -0.2209  0.2075
 5398SOL    HW127830   2.187   1.224   8.371 -1.1281  0.5942  1.7085
 5398SOL    HW227831   2.220   1.301   8.240  1.0674 -3.0000  1.2211
 5399SOL     OW27832   1.268   0.021   7.688 -0.0049  0.1679 -0.3670
 5399SOL    HW127833   1.261   4.673   7.733 -1.9896 -1.3608 -3.5485
 5399SOL    HW227834   1.361   0.019   7.664  0.4453 -0.7095  1.4052
 5400SOL     OW27835   4.133   1.483   4.255  0.3313  0.1270  0.8863
 5400SOL    HW127836   4.075   1.497   4.180  0.8416 -0.7432  0.3249
 5400SOL    HW227837   4.211   1.535   4.231  0.0882  0.3604  0.5956
 5401SOL     OW27838   1.431   0.142   9.123  0.1008  0.1935  0.1710
 5401SOL    HW127839   1.381   0.197   9.183  1.1555  2.0769 -0.6458
 5401SOL    HW227840   1.413   0.057   9.162 -0.5106  0.2845  0.1006
 5402SOL     OW27841   2.358   2.756  11.771  0.2393  0.0322 -0.3246
 5402SOL    HW127842   2.275   2.771  11.725 -0.1672 -1.4371 -0.0631
 5402SOL    HW227843   2.320   2.738  11.857  1.4051  1.6350  0.5194
 5403SOL     OW27844   3.759   2.994   8.581  0.5846  0.1643  0.2088
 5403SOL    HW127845   3.670   3.002   8.547  0.5768  0.5156  0.3168
 5403SOL    HW227846   3.730   2.984   8.671  2.1839 -0.0462  0.6928
 5404SOL     OW27847   3.678   2.396  12.923 -0.7113  0.0297 -0.3683
 5404SOL    HW127848   3.683   2.481  12.967 -1.0129  0.0653 -0.3982
 5404SOL    HW227849   3.771   2.387  12.906 -0.6170 -1.2679  0.8192
 5405SOL     OW27850   0.906   1.839  16.324  0.3380  0.1370 -0.3789
 5405SOL    HW127851   0.860   1.916  16.291 -0.9221  0.5370  2.2810
 5405SOL    HW227852   0.837   1.773  16.332 -0.7650  1.5151  1.4301
 5406SOL     OW27853   2.341   2.179   5.519  0.3991  0.0240 -0.3010
 5406SOL    HW127854   2.398   2.189   5.442  1.1501  1.3989  0.4422
 5406SOL    HW227855   2.274   2.114   5.496 -0.9335  0.9708  0.9948
 5407SOL     OW27856   2.623   1.034   7.468 -0.4333  0.6126  0.5661
 5407SOL    HW127857   2.602   0.961   7.527  0.0292 -0.6781 -0.8596
 5407SOL    HW227858   2.577   1.014   7.386  2.6305 -0.6092 -0.8798
 5408SOL     OW27859   1.048   0.798   9.453  0.4788  0.0642  0.4582
 5408SOL    HW127860   0.991   0.870   9.480  0.6150  0.2508  0.2503
 5408SOL    HW227861   1.064   0.762   9.540  1.9062 -4.0899 -1.5105
 5409SOL     OW27862   2.463   4.630   7.316  0.2349 -0.6612 -0.3579
 5409SOL    HW127863   2.369   4.622   7.334  0.5418 -0.3319  1.3411
 5409SOL    HW227864   2.488   4.542   7.344  0.9851 -0.6975 -1.1300
 5410SOL     OW27865   1.729   3.080   5.860 -0.0155 -0.0618 -0.5644
 5410SOL    HW127866   1.666   3.020   5.900 -1.7280  2.5137  0.6368
 5410SOL    HW227867   1.694   3.164   5.891 -1.1012 -0.9680  0.7065
 5411SOL     OW27868   0.991   2.910  12.443  0.0480  0.2459  0.7526
 5411SOL    HW127869   0.897   2.911  12.456  0.0755  0.9027  0.9284
 5411SOL    HW227870   1.008   3.004  12.437 -0.1385  0.0724 -2.6855
 5412SOL     OW27871   2.406   3.536   1.491 -0.0188 -0.3453  0.2697
 5412SOL    HW127872   2.444   3.560   1.406 -0.8628 -0.1608 -0.0578
 5412SOL    HW227873   2.315   3.520   1.465 -0.7695  3.4254  0.5416
 5413SOL     OW27874   3.272   1.675   5.102  0.6271  0.2419 -0.0001
 5413SOL    HW127875   3.230   1.740   5.159  2.5418  0.5864  1.0129
 5413SOL    HW227876   3.322   1.732   5.044  1.9693 -0.4638  0.4629
 5414SOL     OW27877   1.326   1.919   3.195  0.5269  0.4182 -0.0050
 5414SOL    HW127878   1.286   1.989   3.246  0.1174  1.0943 -1.2566
 5414SOL    HW227879   1.420   1.936   3.195  0.4298  0.9976 -0.9694
 5415SOL     OW27880   2.492   4.394   2.645  0.1256 -0.0624 -0.0914
 5415SOL    HW127881   2.529   4.323   2.592 -0.7174  1.1418 -2.2825
 5415SOL    HW227882   2.404   4.394   2.609 -0.6643 -0.6913  1.8510
 5416SOL     OW27883   2.843   0.980   2.118 -0.2489  0.5356  0.2657
 5416SOL    HW127884   2.824   0.962   2.026 -0.0999 -0.0155  0.3436
 5416SOL    HW227885   2.781   0.926   2.167  0.5144 -0.7437 -0.1699
 5417SOL     OW27886   2.648   2.975   2.759 -0.1889  0.2951 -0.0857
 5417SOL    HW127887   2.642   3.067   2.785 -1.8312 -0.4025  2.0191
 5417SOL    HW227888   2.609   2.925   2.832 -1.0420 -0.2859 -0.9419
 5418SOL     OW27889   4.357   4.677  16.502 -0.1334  0.7311  0.0663
 5418SOL    HW127890   4.320   4.709  16.584 -0.2225 -2.1705  1.1398
 5418SOL    HW227891   4.302   4.601  16.485 -1.2173  1.4400  0.3527
 5419SOL     OW27892   3.073   2.769   1.476  0.6495  0.4060  0.2786
 5419SOL    HW127893   3.167   2.757   1.490  0.8106  1.2877 -0.0545
 5419SOL    HW227894   3.044   2.751   1.566  0.2065  0.8515  0.2273
 5420SOL     OW27895   1.963   1.502   1.815 -0.6697 -0.8012  0.8425
 5420SOL    HW127896   2.055   1.527   1.802 -0.4947 -0.9469  1.8311
 5420SOL    HW227897   1.931   1.554   1.888 -0.3527 -1.4454  1.4333
 5421SOL     OW27898   3.844   1.889   4.760  0.0586  0.2669  0.2352
 5421SOL    HW127899   3.839   1.923   4.849  0.1039 -1.9528  1.0780
 5421SOL    HW227900   3.790   1.953   4.713 -0.4084  2.3057  3.5351
 5422SOL     OW27901   2.928   0.685  14.871  0.3465  0.0559 -0.1882
 5422SOL    HW127902   3.007   0.635  14.890  0.5363  0.1479 -0.7434
 5422SOL    HW227903   2.922   0.697  14.776 -0.9108  0.8600 -0.0026
 5423SOL     OW27904   3.231   0.571  16.395 -0.8187 -0.1936  0.3169
 5423SOL    HW127905   3.240   0.476  16.407  0.1801 -0.0956  0.3376
 5423SOL    HW227906   3.216   0.598  16.486 -3.2135  0.8605 -0.4163
 5424SOL     OW27907   4.588   2.158  17.266 -0.5137  0.3282 -0.0063
 5424SOL    HW127908   4.674   2.192  17.242  0.2489 -1.3065  0.3559
 5424SOL    HW227909   4.528   2.232  17.261  0.7200  1.3412  0.1284
 5425SOL     OW27910   3.401   1.325  10.096  0.1595 -0.1049 -0.1773
 5425SOL    HW127911   3.384   1.401  10.152 -2.2484 -0.2988 -0.6344
 5425SOL    HW227912   3.436   1.265  10.161  2.5182  1.7026  0.2292
 5426SOL     OW27913   0.907   0.016   3.200  0.1815 -0.5832  0.0309
 5426SOL    HW127914   0.990   0.011   3.247 -1.0587  1.0390  2.4242
 5426SOL    HW227915   0.867   4.674   3.239  0.4889  0.0603  1.6453
 5427SOL     OW27916   1.402   0.437   2.525  0.1467 -0.2406 -0.3014
 5427SOL    HW127917   1.375   0.383   2.451  1.5938 -0.5677 -0.5907
 5427SOL    HW227918   1.342   0.512   2.523  1.6219  0.9630  1.2878
 5428SOL     OW27919   4.048   2.759   8.542  1.0154 -0.2339 -0.5973
 5428SOL    HW127920   4.050   2.671   8.505 -0.8359  0.0408 -1.3494
 5428SOL    HW227921   4.143   2.769   8.545  0.8181  1.3786  0.3746
 5429SOL     OW27922   3.171   2.363  13.557  0.3811 -0.0021  0.1525
 5429SOL    HW127923   3.190   2.455  13.575 -0.7024  0.3520 -0.4900
 5429SOL    HW227924   3.077   2.378  13.547 -0.0108 -2.2633  0.3525
 5430SOL     OW27925   2.372   4.145   9.119  0.2801  0.2081  0.5420
 5430SOL    HW127926   2.308   4.177   9.183  1.6707  3.1252  0.4895
 5430SOL    HW227927   2.348   4.202   9.045  0.9964  0.7915  0.7591
 5431SOL     OW27928   0.280   2.944   9.458  0.4605  0.0623 -0.8115
 5431SOL    HW127929   0.339   2.996   9.403 -0.0337  0.6961 -0.7509
 5431SOL    HW227930   0.331   2.866   9.479  2.0554  1.6587  1.3070
 5432SOL     OW27931   4.644   2.272  11.389 -0.0627  0.7671 -0.4081
 5432SOL    HW127932   4.574   2.297  11.329 -1.6340 -0.4189  0.9189
 5432SOL    HW227933   4.629   2.339  11.455  2.7330  0.0877  0.9388
 5433SOL     OW27934   4.100   1.803  10.606  0.6543  0.1985 -0.1612
 5433SOL    HW127935   4.022   1.749  10.593  0.3267  0.8446 -0.8588
 5433SOL    HW227936   4.117   1.778  10.696 -0.1474  1.8807  0.4574
 5434SOL     OW27937   3.327   2.054   3.937  0.5182 -0.0362  0.3612
 5434SOL    HW127938   3.274   2.107   3.878  0.9719 -1.7026 -1.5450
 5434SOL    HW227939   3.270   1.980   3.957  0.5853  0.3083  1.8760
 5435SOL     OW27940   0.362   0.322   2.289  0.3650 -0.4292  0.0990
 5435SOL    HW127941   0.308   0.308   2.367 -1.1046  1.5285 -0.5857
 5435SOL    HW227942   0.430   0.254   2.293  1.2547  0.4387 -0.2531
 5436SOL     OW27943   1.400   3.476   1.582  0.6388  0.6502  0.1956
 5436SOL    HW127944   1.471   3.415   1.600  1.1896  1.4763  0.8241
 5436SOL    HW227945   1.442   3.562   1.583  0.9923  0.4706  0.9914
 5437SOL     OW27946   0.506   3.147   0.504 -0.1298  0.1027 -0.5076
 5437SOL    HW127947   0.471   3.232   0.475 -2.6615 -0.4872  0.7695
 5437SOL    HW227948   0.497   3.148   0.599  0.0470  1.0007 -0.5055
 5438SOL     OW27949   1.228   0.114   3.628 -0.6423  0.4930 -0.7498
 5438SOL    HW127950   1.145   0.087   3.666 -0.5421  0.1952 -0.7488
 5438SOL    HW227951   1.191   0.166   3.556 -1.4882 -1.2053 -1.5384
 5439SOL     OW27952   3.525   1.270   3.151  0.2739  0.0118  0.0984
 5439SOL    HW127953   3.486   1.184   3.169 -4.0032  1.3776 -2.7322
 5439SOL    HW227954   3.558   1.243   3.066 -1.7178 -1.5202 -0.1889
 5440SOL     OW27955   1.843   2.659   7.652  0.3950 -0.3709  0.0523
 5440SOL    HW127956   1.758   2.654   7.696  0.3059 -1.0197 -0.1964
 5440SOL    HW227957   1.872   2.742   7.690  2.1454  1.5464 -5.4506
 5441SOL     OW27958   3.137   4.613  16.046  0.0997 -0.2045  0.3469
 5441SOL    HW127959   3.135   4.524  16.011 -1.0036  0.0514 -0.2245
 5441SOL    HW227960   3.058   4.654  16.012 -0.2257 -0.2009  1.1138
 5442SOL     OW27961   3.113   3.737   3.648  0.1606  0.1101 -0.2266
 5442SOL    HW127962   3.150   3.821   3.621 -1.3159  0.8173  0.0029
 5442SOL    HW227963   3.060   3.718   3.570  1.2927  1.4884 -1.3399
 5443SOL     OW27964   0.998   3.143   1.573  0.5754 -0.2122  0.2285
 5443SOL    HW127965   1.014   3.187   1.490  0.0562 -1.2588 -0.4196
 5443SOL    HW227966   1.008   3.217   1.633  1.7336  0.3366 -0.6408
 5444SOL     OW27967   0.071   0.589   7.254  0.3313  0.0268  0.3887
 5444SOL    HW127968   0.012   0.545   7.315  0.0021 -0.5039 -0.3123
 5444SOL    HW227969   0.147   0.603   7.310  1.5922  1.3404 -1.6241
 5445SOL     OW27970   2.442   2.067  15.044  0.1528 -0.0381  0.0271
 5445SOL    HW127971   2.480   1.980  15.033 -0.5312 -0.7814  3.4848
 5445SOL    HW227972   2.453   2.111  14.960  0.1140  0.7921  0.4591
 5446SOL     OW27973   2.122   3.248   0.131 -0.2826  0.2942 -0.5108
 5446SOL    HW127974   2.142   3.314   0.065  1.0819  0.6152  0.2270
 5446SOL    HW227975   2.066   3.294   0.194  0.7936 -0.0357  0.6850
 5447SOL     OW27976   1.361   4.188   5.046 -0.1109 -0.6351  0.2764
 5447SOL    HW127977   1.382   4.279   5.067 -0.4399 -0.3700 -0.5421
 5447SOL    HW227978   1.318   4.153   5.124  1.8029 -0.0668  1.5672
 5448SOL     OW27979   2.559   0.563   7.467  0.2626 -0.6929 -0.2303
 5448SOL    HW127980   2.632   0.542   7.409 -0.0167  1.7488 -1.4859
 5448SOL    HW227981   2.514   0.479   7.477 -0.6149 -0.4988 -2.7253
 5449SOL     OW27982   2.580   4.094   2.963 -0.1071  0.5017  0.1072
 5449SOL    HW127983   2.562   4.008   3.002  0.5409  0.6011  0.6211
 5449SOL    HW227984   2.492   4.131   2.955 -0.3289 -0.0042  0.2007
 5450SOL     OW27985   1.830   2.046   4.617 -0.1736 -0.7057  0.2182
 5450SOL    HW127986   1.808   2.133   4.650 -0.7672 -0.0701 -1.8283
 5450SOL    HW227987   1.813   2.058   4.523  0.8052 -1.3255 -0.0458
 5451SOL     OW27988   4.460   1.752   0.569 -0.1110  0.5635 -0.0839
 5451SOL    HW127989   4.425   1.806   0.498  0.3830  0.3844 -0.4647
 5451SOL    HW227990   4.402   1.781   0.639 -1.2187 -1.6694 -0.0522
 5452SOL     OW27991   1.737   0.516   5.498  0.4797 -0.5560 -0.2956
 5452SOL    HW127992   1.830   0.499   5.487  0.4397 -2.2636  2.2215
 5452SOL    HW227993   1.710   0.426   5.478 -1.4763  0.2969 -1.6004
 5453SOL     OW27994   0.403   2.234   1.851 -0.3277  0.1219 -0.1104
 5453SOL    HW127995   0.426   2.323   1.875  0.0141 -1.0310  3.7259
 5453SOL    HW227996   0.470   2.192   1.905 -0.6651 -0.1787  0.0685
 5454SOL     OW27997   2.051   1.189   6.563 -0.1009  1.0322 -0.1639
 5454SOL    HW127998   2.136   1.223   6.592 -1.0112  1.3211  2.1592
 5454SOL    HW227999   2.067   1.097   6.546 -1.1603  0.7999  0.0725
 5455SOL     OW28000   2.062   2.307   4.124  0.0777  0.2287  0.6242
 5455SOL    HW128001   2.147   2.346   4.106  0.4856 -1.2770 -0.7337
 5455SOL    HW228002   2.025   2.372   4.184  0.6272  2.0092 -0.9683
 5456SOL     OW28003   2.824   0.878   5.605  0.4974 -0.1729  0.5026
 5456SOL    HW128004   2.792   0.937   5.537  1.1515 -0.9869 -0.5176
 5456SOL    HW228005   2.882   0.819   5.557  0.4251  1.5438 -1.7484
 5457SOL     OW28006   3.252   0.637   1.863  0.2890  0.0867  0.6807
 5457SOL    HW128007   3.219   0.620   1.951  0.8715 -2.1846  0.4404
 5457SOL    HW228008   3.291   0.550   1.853 -1.7339 -0.6837 -0.4807
 5458SOL     OW28009   2.797   4.470  16.946 -0.3363  0.2979  0.3724
 5458SOL    HW128010   2.762   4.549  16.905  1.0492 -0.1246 -1.6165
 5458SOL    HW228011   2.798   4.500  17.037  1.9646  2.6854 -0.4524
 5459SOL     OW28012   2.062   4.631   7.075  0.0645 -0.5023 -0.4063
 5459SOL    HW128013   2.017   4.596   6.999 -1.7603 -1.3604  1.0695
 5459SOL    HW228014   2.060   4.555   7.134 -1.9836 -0.3883 -0.3217
 5460SOL     OW28015   2.104   1.016   8.728  0.2615 -0.3458  0.2841
 5460SOL    HW128016   2.126   1.063   8.808  0.6953  0.5234 -0.3431
 5460SOL    HW228017   2.178   0.957   8.720  1.7977  1.5574  0.5777
 5461SOL     OW28018   4.196   2.871  17.237  0.5128  0.2705  0.0994
 5461SOL    HW128019   4.262   2.933  17.207  0.2806  0.1031 -0.7357
 5461SOL    HW228020   4.132   2.880  17.167 -0.6131 -0.1559  1.0563
 5462SOL     OW28021   4.682   0.673   8.202  0.7971 -0.3544 -0.2977
 5462SOL    HW128022   4.657   0.665   8.294  1.7144  3.4385  0.2669
 5462SOL    HW228023   0.025   0.723   8.218 -0.6936  1.8600  0.2481
 5463SOL     OW28024   2.534   3.893   1.261  0.0520  0.2211 -0.2031
 5463SOL    HW128025   2.490   3.884   1.346  0.6331 -0.2610  0.0480
 5463SOL    HW228026   2.515   3.983   1.234 -0.1438  0.4368  0.6311
 5464SOL     OW28027   2.608   3.880   0.750 -0.3589 -0.1618 -0.1098
 5464SOL    HW128028   2.680   3.824   0.722  0.5951  1.3776 -0.7244
 5464SOL    HW228029   2.573   3.926   0.674 -1.1257  1.0775  0.9944
 5465SOL     OW28030   2.885   2.345   0.517 -0.0783 -0.0629 -0.2475
 5465SOL    HW128031   2.849   2.416   0.463  1.8854  2.6565  1.9596
 5465SOL    HW228032   2.975   2.331   0.488  1.3739  0.3670  4.0158
 5466SOL     OW28033   3.807   2.173   8.584  1.0118  0.3637 -0.0253
 5466SOL    HW128034   3.780   2.263   8.600  0.9413  0.1855  0.8967
 5466SOL    HW228035   3.778   2.154   8.495  1.6810  0.7265 -0.3261
 5467SOL     OW28036   0.581   4.010   0.417 -0.3912  0.3048  0.1045
 5467SOL    HW128037   0.602   3.923   0.452  2.2856  0.5301 -0.9283
 5467SOL    HW228038   0.581   4.007   0.321 -2.8617 -0.3402  0.1243
 5468SOL     OW28039   1.451   0.095   9.804 -0.0564  0.5015  0.1773
 5468SOL    HW128040   1.490   0.180   9.826  1.1980  0.4947 -2.0539
 5468SOL    HW228041   1.521   0.053   9.755  1.5572 -0.0358  3.0027
 5469SOL     OW28042   1.096   0.709   1.586 -0.2122  0.1128  0.1460
 5469SOL    HW128043   1.059   0.672   1.505  3.3795 -1.0440 -0.9677
 5469SOL    HW228044   1.014   0.730   1.631  0.9050  0.5695  1.9544
 5470SOL     OW28045   4.041   3.290   9.047  0.2661  0.1855 -0.2555
 5470SOL    HW128046   3.970   3.321   8.991 -1.2449  0.5559  1.8938
 5470SOL    HW228047   4.048   3.354   9.118 -0.1535 -0.3109  0.2273
 5471SOL     OW28048   3.032   4.639  16.470  0.7030  0.0037  0.0961
 5471SOL    HW128049   2.973   4.611  16.400 -0.1764 -0.4213  1.0152
 5471SOL    HW228050   3.105   4.663  16.412  0.8066  2.6812  1.3417
 5472SOL     OW28051   1.727   0.302  11.611 -0.1571 -0.8350  0.7598
 5472SOL    HW128052   1.813   0.293  11.569 -0.6576  0.2145 -0.5139
 5472SOL    HW228053   1.752   0.320  11.701 -1.5823  0.0983  0.9666
 5473SOL     OW28054   2.754   1.113   9.072  0.2344  0.7292  0.0222
 5473SOL    HW128055   2.667   1.073   9.078  0.8123 -0.5532 -0.1188
 5473SOL    HW228056   2.810   1.054   9.123 -0.3291 -0.5612 -0.8593
 5474SOL     OW28057   3.919   1.935   2.266 -0.0447 -0.4755 -0.0514
 5474SOL    HW128058   3.823   1.933   2.271 -0.1278 -1.5216 -2.1314
 5474SOL    HW228059   3.945   1.966   2.353 -3.2153  0.2572  0.6468
 5475SOL     OW28060   1.171   1.119   2.268 -0.3227 -0.7492 -0.3563
 5475SOL    HW128061   1.163   1.166   2.185 -2.1944 -0.7052 -0.1534
 5475SOL    HW228062   1.231   1.176   2.316 -1.3733 -0.1964  0.3136
 5476SOL     OW28063   4.595   0.857   7.589  0.4532 -0.1668  0.0056
 5476SOL    HW128064   4.636   0.783   7.633  1.2727  0.2531 -0.0546
 5476SOL    HW228065   4.581   0.917   7.663  2.6212 -0.1496  0.3965
 5477SOL     OW28066   1.406   2.508   5.658  0.1514  0.1524  0.3545
 5477SOL    HW128067   1.319   2.481   5.627  0.0115  1.9875 -0.8538
 5477SOL    HW228068   1.395   2.597   5.692  0.1076 -0.4560  1.9659
 5478SOL     OW28069   0.763   4.168   0.777 -0.0507  0.1845  0.7439
 5478SOL    HW128070   0.706   4.175   0.700 -0.3809 -1.3554  0.8485
 5478SOL    HW228071   0.746   4.076   0.797  0.1910 -0.8329 -3.8135
 5479SOL     OW28072   2.094   0.325   6.505  0.0767 -0.0263  1.0115
 5479SOL    HW128073   2.097   0.417   6.479 -0.5936  0.2140  1.7658
 5479SOL    HW228074   2.145   0.276   6.441 -0.4039  1.2914 -0.3844
 5480SOL     OW28075   0.859   3.461  12.472  0.1779  0.3288  0.1862
 5480SOL    HW128076   0.912   3.465  12.392 -1.8683  2.3906 -1.0900
 5480SOL    HW228077   0.926   3.493  12.532  0.3608  1.3840 -0.5645
 5481SOL     OW28078   3.206   2.569   1.975 -0.1267 -0.2744 -0.3644
 5481SOL    HW128079   3.217   2.521   1.893 -2.6226  0.6859 -1.2594
 5481SOL    HW228080   3.294   2.605   1.988  0.5989 -1.8831 -0.7702
 5482SOL     OW28081   1.370   2.202   5.811 -0.2572  0.0715  0.2788
 5482SOL    HW128082   1.355   2.107   5.807 -0.6233  0.1395  0.0619
 5482SOL    HW228083   1.398   2.219   5.721 -0.3149  0.0674  0.2602
 5483SOL     OW28084   1.995   3.183  11.529  0.5021  0.3154  0.3690
 5483SOL    HW128085   2.074   3.140  11.561  0.4805  0.4926  0.6600
 5483SOL    HW228086   1.987   3.145  11.442  0.8788  0.3135  0.3356
 5484SOL     OW28087   2.185   0.499   6.174  0.1910  0.0121 -0.8006
 5484SOL    HW128088   2.092   0.510   6.158  0.2910 -0.2152 -1.5643
 5484SOL    HW228089   2.208   0.463   6.088 -0.3020  0.6907 -1.2164
 5485SOL     OW28090   3.365   3.106   6.788 -0.2166  0.6120  0.1837
 5485SOL    HW128091   3.424   3.133   6.718  1.0629 -1.6195  0.3998
 5485SOL    HW228092   3.426   3.088   6.860  1.8958  3.6470 -0.8587
 5486SOL     OW28093   4.475   1.369  10.495  0.2112 -0.0040 -0.1574
 5486SOL    HW128094   4.406   1.431  10.472 -2.1020 -2.7727 -0.5657
 5486SOL    HW228095   4.546   1.419  10.453  1.2412 -0.2261  1.3184
 5487SOL     OW28096   4.141   1.632   1.021 -0.1105 -0.0633 -0.1432
 5487SOL    HW128097   4.177   1.554   1.062  0.7036  1.9203  2.8884
 5487SOL    HW228098   4.204   1.701   1.041 -1.2660  0.9432  0.0389
 5488SOL     OW28099   3.795   3.955  16.484  0.1654 -0.1509  0.3679
 5488SOL    HW128100   3.801   3.920  16.573  0.1997  1.3477  0.9499
 5488SOL    HW228101   3.767   3.878  16.435 -1.9370  0.9896 -0.2162
 5489SOL     OW28102   1.878   0.383   4.778  0.0107  0.4910 -0.2495
 5489SOL    HW128103   1.823   0.459   4.758 -2.4380 -0.6229  2.2315
 5489SOL    HW228104   1.855   0.363   4.869  2.3604  2.7119  0.8026
 5490SOL     OW28105   1.593   0.104  14.076 -0.4629 -0.1756  0.0647
 5490SOL    HW128106   1.593   0.059  14.160  0.8942 -0.9173 -0.3282
 5490SOL    HW228107   1.605   0.031  14.014 -1.2526  0.0740 -0.3701
 5491SOL     OW28108   3.906   3.858   7.626 -0.4119  0.4342 -0.7072
 5491SOL    HW128109   3.815   3.865   7.597 -0.5483 -1.0081 -0.6598
 5491SOL    HW228110   3.910   3.935   7.683  0.0485  0.2596 -0.5008
 5492SOL     OW28111   1.654   1.901   2.380 -0.0429 -0.4524  0.6326
 5492SOL    HW128112   1.614   1.825   2.338 -2.6664  1.5049 -0.3863
 5492SOL    HW228113   1.637   1.973   2.319 -0.3994 -1.4315 -0.4264
 5493SOL     OW28114   3.785   3.698   8.955  0.1015  0.0138 -0.4301
 5493SOL    HW128115   3.698   3.718   8.922  0.3349 -0.0170 -1.0564
 5493SOL    HW228116   3.779   3.659   9.042  1.2039 -0.2532 -0.4654
 5494SOL     OW28117   2.181   4.544   0.581 -0.0036  0.2470 -1.0724
 5494SOL    HW128118   2.183   4.508   0.493  0.2383  2.0518 -1.8146
 5494SOL    HW228119   2.171   4.639   0.569 -0.3730  0.3060 -0.3283
 5495SOL     OW28120   1.165   0.889   6.120  0.2383  0.2592 -0.1287
 5495SOL    HW128121   1.170   0.823   6.051 -1.0761 -0.4144  0.4329
 5495SOL    HW228122   1.259   0.898   6.135  0.1051  0.7043  0.4360
 5496SOL     OW28123   4.682   0.958   6.905  0.3497  0.7497 -0.5633
 5496SOL    HW128124   4.599   0.955   6.954  0.4730  1.2443 -0.3247
 5496SOL    HW228125   4.731   0.886   6.943  0.3711  0.3417 -1.3597
 5497SOL     OW28126   3.677   4.672   7.493 -0.1303  0.2694  0.2361
 5497SOL    HW128127   3.584   4.694   7.502 -0.7800 -0.9969 -3.3008
 5497SOL    HW228128   3.713   0.023   7.477  1.6017 -0.2072  1.6427
 5498SOL     OW28129   2.383   4.634   8.445 -0.3589  0.3031  0.4701
 5498SOL    HW128130   2.306   4.577   8.439 -1.7656  2.2135  0.0330
 5498SOL    HW228131   2.440   4.581   8.390 -1.0910  1.1109 -1.0919
 5499SOL     OW28132   1.972   3.677   2.442  0.3232 -0.9772  0.0398
 5499SOL    HW128133   2.042   3.645   2.500 -0.8228 -0.8580  1.4836
 5499SOL    HW228134   1.998   3.646   2.355 -1.1966 -0.9452 -0.4316
 5500SOL     OW28135   2.023   1.464   4.463 -0.4717  0.2440 -0.1830
 5500SOL    HW128136   1.951   1.485   4.404 -0.1896  0.5265 -0.4281
 5500SOL    HW228137   2.094   1.442   4.403  1.4851  2.9483  1.1418
 5501SOL     OW28138   3.893   1.684   4.584 -0.0911 -0.3074  0.2144
 5501SOL    HW128139   3.988   1.691   4.580 -0.2279  1.2160 -0.4244
 5501SOL    HW228140   3.871   1.761   4.636  0.3603  0.3307 -0.5411
 5502SOL     OW28141   4.107   2.854   3.376 -0.9008 -0.1690 -0.1819
 5502SOL    HW128142   4.168   2.924   3.396 -1.9311  0.4623  0.7626
 5502SOL    HW228143   4.108   2.855   3.281 -0.4565 -0.5827 -0.1833
 5503SOL     OW28144   2.887   0.239   4.878 -0.4927 -0.3536 -0.0118
 5503SOL    HW128145   2.899   0.321   4.925  1.2252 -0.7323  0.2210
 5503SOL    HW228146   2.920   0.179   4.945  1.6250  0.2487 -0.5437
 5504SOL     OW28147   2.230   2.175   0.187  0.1510  0.1412 -0.0028
 5504SOL    HW128148   2.227   2.194   0.281 -1.4937  2.1468 -0.4348
 5504SOL    HW228149   2.137   2.176   0.161  0.4272 -2.0263 -1.0281
 5505SOL     OW28150   3.395   1.060   0.660 -0.0653  0.3094  0.3223
 5505SOL    HW128151   3.375   0.979   0.707 -0.4561 -0.5348 -1.2758
 5505SOL    HW228152   3.432   1.114   0.729  0.6301 -1.1666  1.1062
 5506SOL     OW28153   2.111   2.560   1.811  0.1739  0.0131  0.8931
 5506SOL    HW128154   2.112   2.626   1.881  1.6575  0.3007  0.5922
 5506SOL    HW228155   2.055   2.494   1.852 -2.0011  0.6527 -1.0455
 5507SOL     OW28156   3.602   3.606  13.429 -0.1616 -0.5002 -0.1755
 5507SOL    HW128157   3.663   3.653  13.486  0.0178 -1.4638  0.4234
 5507SOL    HW228158   3.527   3.585  13.484  0.0826 -1.3602 -0.1772
 5508SOL     OW28159   1.883   2.572   3.633  0.1089 -0.1539  0.7031
 5508SOL    HW128160   1.838   2.493   3.604  1.7950 -0.7129 -0.4033
 5508SOL    HW228161   1.868   2.639   3.566  3.0416 -1.1023 -0.8905
 5509SOL     OW28162   3.532   0.755   7.699  0.1503  0.8450 -0.0458
 5509SOL    HW128163   3.625   0.775   7.716 -0.2029  0.6806  2.0848
 5509SOL    HW228164   3.532   0.748   7.604 -1.5057 -1.1109  0.1028
 5510SOL     OW28165   0.876   4.700   0.487  0.0342 -0.6501 -0.3679
 5510SOL    HW128166   0.901   4.722   0.398 -0.3253 -0.0690 -0.3202
 5510SOL    HW228167   0.849   4.608   0.492 -1.7896 -0.1345 -0.4657
 5511SOL     OW28168   0.247   1.767  11.938  0.4867 -0.3328 -0.1029
 5511SOL    HW128169   0.284   1.758  11.850 -0.0749  1.0953 -0.4839
 5511SOL    HW228170   0.186   1.694  11.943 -1.0600  1.0023  0.5810
 5512SOL     OW28171   1.489   1.703  10.708  0.2398  0.1815 -0.3629
 5512SOL    HW128172   1.443   1.752  10.639 -0.5650 -0.1584 -0.0661
 5512SOL    HW228173   1.527   1.623  10.673 -1.0141 -1.5125  2.1416
 5513SOL     OW28174   4.089   1.859   4.405 -0.2373 -0.2507 -0.2786
 5513SOL    HW128175   4.161   1.920   4.391 -2.0216  1.4496 -2.0585
 5513SOL    HW228176   4.041   1.875   4.324 -0.0227  0.9944 -0.1560
 5514SOL     OW28177   1.123   1.685   6.135  0.0972  0.8432  0.5298
 5514SOL    HW128178   1.083   1.598   6.141  2.3165 -0.2929 -1.0814
 5514SOL    HW228179   1.208   1.665   6.095 -1.6459 -2.8469 -1.2474
 5515SOL     OW28180   1.407   3.232   2.631 -0.2809  0.4166  0.4509
 5515SOL    HW128181   1.426   3.243   2.538 -2.1725 -3.4855 -0.3894
 5515SOL    HW228182   1.493   3.246   2.671 -0.0570  1.7194 -0.4686
 5516SOL     OW28183   4.270   3.483  12.170  0.2358 -0.5145 -0.0006
 5516SOL    HW128184   4.319   3.429  12.233 -1.1380 -0.9182  0.7373
 5516SOL    HW228185   4.185   3.473  12.214 -1.2087 -1.6895 -3.0410
 5517SOL     OW28186   1.118   4.531   3.637 -0.1811  0.1248  0.4437
 5517SOL    HW128187   1.119   4.443   3.674 -0.2331  0.1156  0.4224
 5517SOL    HW228188   1.036   4.571   3.667  0.7063  2.3124 -0.0387
 5518SOL     OW28189   2.765   0.216   0.332  0.4003  0.4918  0.5594
 5518SOL    HW128190   2.785   0.285   0.269 -0.5047  1.2289  1.0837
 5518SOL    HW228191   2.755   0.272   0.409 -0.0987 -1.0837  1.6237
 5519SOL     OW28192   1.380   0.688  15.167 -0.3606 -0.3581 -0.6066
 5519SOL    HW128193   1.430   0.767  15.187 -0.0644 -1.0027  1.2878
 5519SOL    HW228194   1.323   0.714  15.095  0.4160  0.0185 -1.0899
 5520SOL     OW28195   1.737   2.036  16.582  0.0597 -0.3611  0.2726
 5520SOL    HW128196   1.810   2.058  16.524 -0.2881 -0.3540 -0.1664
 5520SOL    HW228197   1.667   2.006  16.524  1.2761 -2.8634  0.0915
 5521SOL     OW28198   0.677   4.287   5.036 -0.4409 -0.8506  0.4015
 5521SOL    HW128199   0.638   4.365   4.996 -1.4741 -1.3059  0.4940
 5521SOL    HW228200   0.601   4.236   5.064 -0.7377  0.2289  1.5835
 5522SOL     OW28201   4.097   2.965  12.277 -0.1278 -0.4843  0.1042
 5522SOL    HW128202   4.080   2.989  12.186  1.7766  0.1378 -0.0912
 5522SOL    HW228203   4.070   2.874  12.285  1.2025 -0.9996 -1.3789
 5523SOL     OW28204   2.242   1.458  14.264 -0.0715  0.2759  0.6280
 5523SOL    HW128205   2.189   1.524  14.221  1.2887  0.1623 -1.2168
 5523SOL    HW228206   2.330   1.484  14.235 -0.7935  0.3439 -1.4948
 5524SOL     OW28207   3.634   2.559   6.644  0.2804 -0.1763 -0.0392
 5524SOL    HW128208   3.636   2.654   6.655  0.8758  0.1204 -2.7473
 5524SOL    HW228209   3.567   2.524   6.702 -0.4170 -0.7357 -1.1972
 5525SOL     OW28210   2.564   2.574   3.971  0.2117 -0.6911 -0.4880
 5525SOL    HW128211   2.557   2.669   3.981 -1.1994 -0.5717 -2.7369
 5525SOL    HW228212   2.604   2.563   3.885 -1.0284  0.3913 -1.1963
 5526SOL     OW28213   4.554   3.968   5.110 -0.1914 -0.6787  0.7389
 5526SOL    HW128214   4.599   3.913   5.174  1.3107  1.2453  1.3442
 5526SOL    HW228215   4.566   3.918   5.029 -0.4421  2.2747 -1.1598
 5527SOL     OW28216   3.299   2.779   1.705  0.4454  1.0395 -0.5130
 5527SOL    HW128217   3.313   2.736   1.620 -1.0670 -0.5647  0.0579
 5527SOL    HW228218   3.208   2.777   1.735  0.5267  1.6597 -0.2180
 5528SOL     OW28219   0.830   4.703   9.234 -0.6371 -0.0930 -0.3890
 5528SOL    HW128220   0.852   4.623   9.186 -0.0063  0.5695 -1.2054
 5528SOL    HW228221   0.921   4.730   9.248 -1.1158  0.4266  1.7606
 5529SOL     OW28222   1.362   1.741  15.666 -0.1621  0.0467  0.1457
 5529SOL    HW128223   1.269   1.760  15.678 -0.4518 -1.8688  0.9381
 5529SOL    HW228224   1.384   1.763  15.575  0.1938 -0.0445  0.2109
 5530SOL     OW28225   4.454   4.412  16.173 -0.0056  0.3356 -0.1459
 5530SOL    HW128226   4.471   4.378  16.261  1.4551 -0.3698 -0.6950
 5530SOL    HW228227   4.441   4.504  16.194  3.1195  0.4105  1.4354
 5531SOL     OW28228   0.475   4.177   1.696  0.0434  0.1188  0.3868
 5531SOL    HW128229   0.543   4.115   1.722 -1.4927 -2.5864 -2.0756
 5531SOL    HW228230   0.522   4.224   1.627 -0.2627  1.2253  0.9314
 5532SOL     OW28231   3.322   1.531   3.188 -0.1237 -0.2878 -0.0609
 5532SOL    HW128232   3.256   1.506   3.253 -1.0855 -0.7057 -1.2014
 5532SOL    HW228233   3.342   1.452   3.138  1.5299  0.2863 -0.3040
 5533SOL     OW28234   0.848   0.847   5.923  0.4868 -0.3369  0.3070
 5533SOL    HW128235   0.754   0.832   5.918  0.2935 -0.4479  4.2342
 5533SOL    HW228236   0.891   0.862   5.839 -0.1830 -0.5266 -0.0690
 5534SOL     OW28237   0.340   3.299  10.008 -0.0104 -0.1074  0.0344
 5534SOL    HW128238   0.304   3.236   9.946  0.3510 -1.1406  0.8743
 5534SOL    HW228239   0.263   3.352  10.029  1.0968  1.1241  1.0269
 5535SOL     OW28240   0.457   1.615  11.736  0.9222 -0.3355  0.3818
 5535SOL    HW128241   0.520   1.651  11.673 -1.0899 -2.9429 -3.1424
 5535SOL    HW228242   0.382   1.659  11.695  0.6805 -1.0172  0.0913
 5536SOL     OW28243   4.303   4.486  15.911 -0.0238 -0.0419  0.0142
 5536SOL    HW128244   4.315   4.400  15.949 -1.3980 -0.7660 -1.1798
 5536SOL    HW228245   4.257   4.460  15.831  2.3199  2.4583 -2.1608
 5537SOL     OW28246   0.618   2.228   4.641 -0.2739  0.1819 -0.1574
 5537SOL    HW128247   0.657   2.142   4.656  0.8086  0.6426 -0.3207
 5537SOL    HW228248   0.586   2.257   4.727  1.0784 -1.5176  0.9345
 5538SOL     OW28249   2.681   1.342   7.341  0.2259 -0.0550 -0.2250
 5538SOL    HW128250   2.768   1.343   7.382  0.0090  1.7758  0.1877
 5538SOL    HW228251   2.647   1.264   7.385  2.0203  0.2519  1.6929
 5539SOL     OW28252   1.026   0.517   5.472 -0.1344  0.0568  0.0620
 5539SOL    HW128253   0.949   0.461   5.463 -1.0324  1.4699 -1.1690
 5539SOL    HW228254   1.031   0.533   5.566  0.2118  1.7320 -0.2393
 5540SOL     OW28255   2.709   2.574   3.714  0.5938  0.0772 -0.0267
 5540SOL    HW128256   2.710   2.564   3.619  0.6065  0.0770 -0.0266
 5540SOL    HW228257   2.803   2.571   3.729  1.0123 -0.1466 -2.6362
 5541SOL     OW28258   3.129   3.256   2.012  0.5618 -0.2092  0.0224
 5541SOL    HW128259   3.049   3.303   1.990  1.1972  0.2237 -1.3093
 5541SOL    HW228260   3.179   3.292   1.939 -0.3883 -0.4484 -0.7339
 5542SOL     OW28261   1.712   0.003  14.335  0.8605  0.3783  0.4065
 5542SOL    HW128262   1.738   0.048  14.416  2.3375 -0.1801  0.2348
 5542SOL    HW228263   1.781   4.673  14.326 -1.2691 -1.5349 -1.7041
 5543SOL     OW28264   0.711   4.419  17.185  0.1056 -0.1015  0.1957
 5543SOL    HW128265   0.741   4.509  17.173 -1.1243  0.3990  0.9302
 5543SOL    HW228266   0.639   4.406  17.124  1.0175  0.0241 -0.9038
 5544SOL     OW28267   0.546   2.656   2.604 -0.4390 -0.0644 -0.7395
 5544SOL    HW128268   0.473   2.620   2.553 -1.3895  1.2536 -0.3269
 5544SOL    HW228269   0.541   2.745   2.569  2.4094  0.4061  0.0842
 5545SOL     OW28270   3.568   2.633   6.067  0.2177  0.3847  0.6771
 5545SOL    HW128271   3.524   2.549   6.050 -0.6442  1.2963 -1.6230
 5545SOL    HW228272   3.630   2.599   6.131 -2.2717 -1.6281  2.0512
 5546SOL     OW28273   0.591   0.509   0.003  0.0707 -0.1460 -0.0516
 5546SOL    HW128274   0.594   0.585  17.688  0.8059  0.4340  0.7381
 5546SOL    HW228275   0.556   0.440  17.689 -0.7178 -1.4187  1.9740
 5547SOL     OW28276   4.384   2.999   7.647  1.0210  0.0448 -0.1056
 5547SOL    HW128277   4.375   2.931   7.714 -3.6943  0.0948 -0.7469
 5547SOL    HW228278   4.328   2.962   7.579 -0.1802 -0.1572  0.9940
 5548SOL     OW28279   2.233   0.966  16.626 -0.3856 -0.2165  0.1177
 5548SOL    HW128280   2.149   0.970  16.672  0.0615 -2.3642  1.1082
 5548SOL    HW228281   2.245   0.873  16.644  1.6736  0.3246  1.4522
 5549SOL     OW28282   2.757   3.183   4.289  0.1189  0.4863 -0.2408
 5549SOL    HW128283   2.679   3.189   4.345 -0.2438 -1.8985 -0.5045
 5549SOL    HW228284   2.717   3.201   4.204  0.7023 -0.1310 -0.6394
 5550SOL     OW28285   3.986   1.194   2.310 -0.7453  0.6668 -0.1778
 5550SOL    HW128286   3.926   1.126   2.281 -1.7435  0.6381  2.0035
 5550SOL    HW228287   4.072   1.154   2.300 -0.3342  1.8601 -1.4841
 5551SOL     OW28288   3.515   2.971   5.565  0.5347  0.6396  0.1120
 5551SOL    HW128289   3.534   3.064   5.577 -1.3927  0.5496  3.6930
 5551SOL    HW228290   3.428   2.965   5.605  0.3145  1.5187 -0.2162
 5552SOL     OW28291   4.544   1.522   5.082  0.0163 -0.1210  0.6184
 5552SOL    HW128292   4.571   1.556   5.167 -0.1072 -0.2526  0.7099
 5552SOL    HW228293   4.484   1.591   5.054 -0.1735 -0.8735 -0.8223
 5553SOL     OW28294   0.029   4.233   4.461  0.2923  0.2254 -0.5189
 5553SOL    HW128295   0.106   4.177   4.472  0.8295  0.4528 -3.1873
 5553SOL    HW228296   0.069   4.317   4.484  1.6689 -0.6142  0.1824
 5554SOL     OW28297   1.199   3.908   0.171  0.2602 -0.4479  0.0219
 5554SOL    HW128298   1.249   3.935   0.247 -0.4489 -1.0334  0.6930
 5554SOL    HW228299   1.255   3.928   0.095  0.7469 -2.3862 -0.1086
 5555SOL     OW28300   2.367   1.264   9.876  0.1639  0.4801  0.7661
 5555SOL    HW128301   2.346   1.252   9.969 -0.0729 -2.0298  0.4030
 5555SOL    HW228302   2.444   1.207   9.870  0.3097  0.9010 -1.3471
 5556SOL     OW28303   3.524   1.779   3.513 -0.9228 -0.0629 -0.4033
 5556SOL    HW128304   3.601   1.834   3.497  0.3407 -1.1935  1.8004
 5556SOL    HW228305   3.480   1.826   3.584 -0.7527  1.1291 -1.0917
 5557SOL     OW28306   3.846   0.134   4.934  0.1288  0.3929 -0.8282
 5557SOL    HW128307   3.855   0.219   4.979 -1.0263 -0.0076  0.1580
 5557SOL    HW228308   3.751   0.137   4.926  0.1728  2.5316 -0.5309
 5558SOL     OW28309   2.969   3.426   3.485 -0.2199  0.2825  0.3471
 5558SOL    HW128310   2.975   3.437   3.580  3.8017  1.9760 -0.1388
 5558SOL    HW228311   3.010   3.341   3.470 -0.9106  0.0172 -0.0601
 5559SOL     OW28312   3.374   4.202   6.676 -0.1005  0.2092 -0.1824
 5559SOL    HW128313   3.335   4.283   6.709  0.6655  1.5503 -2.5330
 5559SOL    HW228314   3.466   4.216   6.701 -0.1836  1.2790 -0.4749
 5560SOL     OW28315   1.141   0.433  13.558  0.9385 -0.5260 -0.1343
 5560SOL    HW128316   1.210   0.432  13.625 -0.2161  2.8344  1.1216
 5560SOL    HW228317   1.062   0.435  13.612  1.8313  1.0411  1.1189
 5561SOL     OW28318   4.714   3.524   3.379  0.7201 -0.7205  0.2603
 5561SOL    HW128319   0.052   3.575   3.411  0.4167 -0.7147  0.9612
 5561SOL    HW228320   0.000   3.433   3.398  0.5482 -0.6786  0.6692
 5562SOL     OW28321   4.126   1.381  16.451  0.0428 -0.4390 -0.5949
 5562SOL    HW128322   4.156   1.460  16.406 -1.7093  1.1260  0.9996
 5562SOL    HW228323   4.111   1.418  16.538 -1.3643 -0.8426 -0.6632
 5563SOL     OW28324   0.707   1.371  17.159 -0.3389  0.6274  0.2049
 5563SOL    HW128325   0.665   1.457  17.165  0.9490  1.3509 -1.0958
 5563SOL    HW228326   0.701   1.341  17.250  0.4600 -0.5477 -0.1359
 5564SOL     OW28327   1.095   1.161   4.049  0.1607 -0.2318 -0.1927
 5564SOL    HW128328   1.048   1.122   4.123  1.0197  0.2053  0.5828
 5564SOL    HW228329   1.182   1.148   4.087 -0.2452 -0.5967  0.6172
 5565SOL     OW28330   0.704   3.317   5.095  0.5572  0.0658 -0.4727
 5565SOL    HW128331   0.705   3.332   5.190 -0.5716  3.4985 -1.0067
 5565SOL    HW228332   0.660   3.396   5.063  0.5907  0.9592  1.6553
 5566SOL     OW28333   3.672   4.487   3.980  0.0160 -0.1497  0.1603
 5566SOL    HW128334   3.663   4.449   4.067  2.5777  2.3448  1.5092
 5566SOL    HW228335   3.727   4.426   3.929  0.0664 -0.3168  0.4161
 5567SOL     OW28336   2.333   0.883   6.230  0.8875 -0.1631  0.1720
 5567SOL    HW128337   2.253   0.936   6.237 -0.7720 -1.9730 -5.2115
 5567SOL    HW228338   2.328   0.857   6.138  1.7550 -2.3410  0.7693
 5568SOL     OW28339   2.729   2.437  11.842  0.3388 -0.1293  0.4468
 5568SOL    HW128340   2.698   2.423  11.753  0.8130  0.0007  0.2621
 5568SOL    HW228341   2.713   2.529  11.865 -0.8148 -0.6701  1.8165
 5569SOL     OW28342   0.121   2.436   5.503  0.1570  0.7406 -0.5562
 5569SOL    HW128343   0.147   2.403   5.418 -2.3981  0.4800 -1.2559
 5569SOL    HW228344   0.192   2.405   5.558  0.0640  0.8865 -0.3534
 5570SOL     OW28345   4.381   2.960   3.730 -0.1040  0.2047 -0.3333
 5570SOL    HW128346   4.407   2.928   3.644 -0.5814 -1.1843  0.0271
 5570SOL    HW228347   4.464   2.952   3.777  0.2712 -1.4900 -1.2925
 5571SOL     OW28348   2.375   0.638   5.042 -0.3233  0.0409 -0.5329
 5571SOL    HW128349   2.441   0.589   4.992 -1.8989 -0.3427 -2.2541
 5571SOL    HW228350   2.392   0.614   5.133 -1.2937  1.0186 -0.0934
 5572SOL     OW28351   2.146   4.240   1.448 -0.5880  0.1982  0.3270
 5572SOL    HW128352   2.154   4.161   1.502  0.4085  0.0442 -0.0581
 5572SOL    HW228353   2.083   4.207   1.385 -0.5588 -0.6162  0.7189
 5573SOL     OW28354   2.106   3.433   0.962  0.6033 -0.4471 -0.5985
 5573SOL    HW128355   2.033   3.375   0.986 -0.0246  0.6685  0.2114
 5573SOL    HW228356   2.069   3.508   0.916 -0.9933 -1.3115 -0.7376
 5574SOL     OW28357   0.047   2.519  16.235 -0.2964  0.2013 -0.2498
 5574SOL    HW128358   0.076   2.438  16.194  2.2054  0.0724  1.7603
 5574SOL    HW228359   0.128   2.554  16.273 -0.6433 -0.5130  1.1509
 5575SOL     OW28360   0.427   1.360   0.106  0.0026 -0.1714  0.1012
 5575SOL    HW128361   0.368   1.325   0.040  1.3440 -3.0491  0.4163
 5575SOL    HW228362   0.365   1.402   0.165  0.1105  0.7174 -0.4205
 5576SOL     OW28363   1.698   0.992   8.826  0.2940  0.3086 -0.1931
 5576SOL    HW128364   1.785   0.982   8.864  0.6315 -0.8877 -1.2688
 5576SOL    HW228365   1.708   0.961   8.736  1.7732  0.2117  0.0124
 5577SOL     OW28366   0.290   1.312  13.685  0.0854 -0.0538  0.3270
 5577SOL    HW128367   0.276   1.392  13.736  0.0588  0.8274 -1.0570
 5577SOL    HW228368   0.209   1.292  13.638 -0.0984 -1.2778  1.1737
 5578SOL     OW28369   0.660   3.244   4.751 -0.5445  0.6938 -0.0705
 5578SOL    HW128370   0.702   3.166   4.715  0.2489  0.4308  1.4462
 5578SOL    HW228371   0.624   3.219   4.836 -0.5004 -0.5058 -0.4002
 5579SOL     OW28372   2.936   4.341  16.232 -0.6725 -0.6593  0.3211
 5579SOL    HW128373   2.942   4.436  16.244 -0.9865 -0.4114 -1.4424
 5579SOL    HW228374   2.936   4.324  16.137  2.4776  0.7546  0.0411
 5580SOL     OW28375   0.142   0.575   8.613 -0.0090 -0.1839  0.2174
 5580SOL    HW128376   0.180   0.651   8.569  1.1904 -0.7262  0.3332
 5580SOL    HW228377   0.049   0.599   8.610 -0.5068 -2.2955 -1.2777
 5581SOL     OW28378   4.075   3.539  11.415  0.0590  0.3176  0.1330
 5581SOL    HW128379   4.068   3.586  11.498  2.0756  0.6046  0.1472
 5581SOL    HW228380   4.067   3.451  11.453 -0.6939  0.7544  0.9874
 5582SOL     OW28381   3.877   3.775   6.814 -0.2658 -0.2698 -0.7411
 5582SOL    HW128382   3.918   3.722   6.745 -0.8400 -1.4725 -0.1555
 5582SOL    HW228383   3.800   3.723   6.835 -1.2494  1.0186 -1.2209
 5583SOL     OW28384   0.232   1.591   3.790  0.3697  0.4785 -0.1338
 5583SOL    HW128385   0.315   1.608   3.746 -1.0849 -1.0118 -3.3900
 5583SOL    HW228386   0.185   1.533   3.731 -1.8686  1.0814  1.0634
 5584SOL     OW28387   2.082   1.896  10.729  0.1911 -0.0304 -0.1738
 5584SOL    HW128388   2.175   1.917  10.717  0.4309 -1.1621 -0.3074
 5584SOL    HW228389   2.046   1.976  10.691 -2.4538 -0.7236  0.8335
 5585SOL     OW28390   3.386   4.110   5.425  0.0828  0.1827  0.1194
 5585SOL    HW128391   3.300   4.070   5.439 -0.0324  0.6955  0.9203
 5585SOL    HW228392   3.427   4.084   5.508  0.8215 -0.4879 -0.4619
 5586SOL     OW28393   0.342   3.024   1.819  0.5096  0.4571 -0.1127
 5586SOL    HW128394   0.341   3.076   1.738  1.0314  0.7820  0.0875
 5586SOL    HW228395   0.418   3.060   1.864  0.6173  2.0680 -1.5949
 5587SOL     OW28396   4.290   1.277  14.650 -0.5839  0.0344 -0.2768
 5587SOL    HW128397   4.363   1.222  14.677 -0.0804  0.6386 -0.4165
 5587SOL    HW228398   4.239   1.291  14.730  0.3034  0.7120  0.1724
 5588SOL     OW28399   0.668   3.342   6.730  0.1092 -0.7278  0.2429
 5588SOL    HW128400   0.706   3.271   6.677  0.8070  0.7351 -1.2388
 5588SOL    HW228401   0.701   3.328   6.818 -1.9017 -0.8079  0.9670
 5589SOL     OW28402   0.377   1.168   8.351 -0.4126  0.3360  0.1111
 5589SOL    HW128403   0.463   1.208   8.366  0.5653 -1.8842  0.5511
 5589SOL    HW228404   0.345   1.240   8.298  0.5319 -0.6079 -1.7637
 5590SOL     OW28405   4.344   3.519   7.206 -0.0194 -0.1689 -0.1461
 5590SOL    HW128406   4.351   3.449   7.271 -0.8491  0.3099  0.4568
 5590SOL    HW228407   4.379   3.470   7.131  1.1025 -0.1702  0.3758
 5591SOL     OW28408   2.575   1.806   1.692  0.4927 -0.3347 -0.1053
 5591SOL    HW128409   2.585   1.825   1.599 -2.6184 -0.8924 -0.5846
 5591SOL    HW228410   2.594   1.714   1.708 -0.3438 -0.6869 -1.1931
 5592SOL     OW28411   3.773   0.800  10.045  0.3629 -0.2559  0.0149
 5592SOL    HW128412   3.755   0.880   9.996 -1.5512 -1.4352 -1.2028
 5592SOL    HW228413   3.690   0.753  10.035 -1.2009  2.5210  0.0386
 5593SOL     OW28414   3.245   2.565  10.725 -0.3680  0.3993 -0.3472
 5593SOL    HW128415   3.337   2.539  10.727  0.3217  2.9424  1.4342
 5593SOL    HW228416   3.228   2.550  10.818  0.9261  0.5506 -0.0808
 5594SOL     OW28417   0.832   3.702   0.259 -0.3879  0.0352  0.5755
 5594SOL    HW128418   0.867   3.668   0.341  1.4047 -1.0857 -0.6652
 5594SOL    HW228419   0.783   3.628   0.221 -2.3787  1.3975  0.5148
 5595SOL     OW28420   4.121   2.491   8.440  0.1522  0.4661  0.5825
 5595SOL    HW128421   4.213   2.514   8.452  0.1568  1.3833 -1.3401
 5595SOL    HW228422   4.106   2.415   8.497  2.3593  0.5476  1.2450
 5596SOL     OW28423   4.168   1.829   3.408  0.3918 -0.3648 -0.4613
 5596SOL    HW128424   4.130   1.756   3.457  1.1146 -0.7415 -0.4577
 5596SOL    HW228425   4.113   1.897   3.447  2.1968  1.2132 -0.6398
 5597SOL     OW28426   2.473   3.202   3.993 -0.5758 -0.1237 -0.0235
 5597SOL    HW128427   2.531   3.193   3.917 -0.1279  0.9006  0.1972
 5597SOL    HW228428   2.386   3.198   3.953 -1.0287  3.1118  0.6298
 5598SOL     OW28429   4.387   4.278   5.801  0.4124  0.0204  0.0355
 5598SOL    HW128430   4.411   4.301   5.891 -1.7517 -2.1190  1.1606
 5598SOL    HW228431   4.345   4.359   5.772  1.1489 -0.1456 -1.4940
 5599SOL     OW28432   0.431   3.470  15.960  0.3012  0.4143  0.7544
 5599SOL    HW128433   0.430   3.562  15.931 -3.8654  0.2636  0.3774
 5599SOL    HW228434   0.368   3.468  16.032  0.1573 -2.1408  0.5510
 5600SOL     OW28435   0.894   3.386   4.609 -0.2684 -0.5043  0.0574
 5600SOL    HW128436   0.835   3.455   4.579  2.8824  2.9806  1.8507
 5600SOL    HW228437   0.839   3.314   4.638  0.4391 -1.7603 -1.7617
 5601SOL     OW28438   3.392   1.851   4.900  0.4226  0.0579  0.1213
 5601SOL    HW128439   3.462   1.903   4.940  0.1445  0.4354  0.1153
 5601SOL    HW228440   3.402   1.867   4.806  1.3665 -2.5791 -0.2054
 5602SOL     OW28441   2.684   4.221   4.251  0.0262  0.0177 -0.3483
 5602SOL    HW128442   2.752   4.285   4.231  1.3909 -0.8478  1.5278
 5602SOL    HW228443   2.616   4.274   4.292  0.8265 -0.0988  1.1016
 5603SOL     OW28444   3.987   2.117   8.198  0.5297 -0.0188  0.0905
 5603SOL    HW128445   4.064   2.169   8.175  1.7539 -0.3161  3.4832
 5603SOL    HW228446   4.010   2.045   8.139 -0.3540 -0.6993  0.5827
 5604SOL     OW28447   3.888   0.349  14.369 -0.1689  0.4161  0.4293
 5604SOL    HW128448   3.819   0.404  14.332 -0.8666 -0.6256  0.2008
 5604SOL    HW228449   3.963   0.361  14.311 -0.7642  0.7274 -0.2688
 5605SOL     OW28450   2.614   2.864   3.706 -0.4973 -0.0598 -0.3697
 5605SOL    HW128451   2.520   2.867   3.721  0.0641  0.4350  3.0833
 5605SOL    HW228452   2.629   2.775   3.674  1.8173  0.8783 -1.9032
 5606SOL     OW28453   0.216   3.321   2.027 -0.8230  0.4789 -0.0696
 5606SOL    HW128454   0.147   3.356   2.084 -0.0080  1.4291  0.3328
 5606SOL    HW228455   0.288   3.379   2.052 -1.9390  0.9714  1.9990
 5607SOL     OW28456   4.725   3.380  11.557  0.3320 -0.3344  0.1907
 5607SOL    HW128457   4.715   3.469  11.591  0.7906 -0.1482 -0.1549
 5607SOL    HW228458   4.709   3.333  11.639  1.5473  1.7773  1.6554
 5608SOL     OW28459   2.069   1.414  11.341  0.3722  0.0025  0.1988
 5608SOL    HW128460   1.980   1.435  11.368 -0.2598 -2.1210 -0.2211
 5608SOL    HW228461   2.102   1.366  11.417 -1.5923  2.3866  2.5630
 5609SOL     OW28462   4.114   1.730  10.922 -0.0701  0.6171 -0.2162
 5609SOL    HW128463   4.053   1.686  10.982  0.1416  2.3554  1.2988
 5609SOL    HW228464   4.186   1.674  10.951  3.9282  4.5414 -2.6532
 5610SOL     OW28465   0.512   2.473   2.794 -0.7054  0.1467 -0.2324
 5610SOL    HW128466   0.532   2.522   2.714 -0.8267 -1.3318 -1.1631
 5610SOL    HW228467   0.592   2.430   2.823 -1.8126 -2.2311 -0.6786
 5611SOL     OW28468   3.010   3.215   9.750  0.3130 -0.7004 -0.4906
 5611SOL    HW128469   2.927   3.253   9.722 -1.0990 -2.3087  1.4565
 5611SOL    HW228470   3.038   3.277   9.817  3.5227 -0.1993 -2.2961
 5612SOL     OW28471   0.029   0.683   5.057  0.1256  0.0376  0.4611
 5612SOL    HW128472   4.706   0.719   4.991  1.4509 -2.0732 -1.8676
 5612SOL    HW228473   4.721   0.723   5.132 -0.0870 -0.4924  0.6247
 5613SOL     OW28474   1.618   1.010   4.128 -0.3419 -0.2708  0.3438
 5613SOL    HW128475   1.562   0.994   4.052 -1.5515 -0.1419  1.2074
 5613SOL    HW228476   1.678   0.936   4.116  0.1557  0.3166 -0.7903
 5614SOL     OW28477   3.368   0.456   7.745 -0.2626 -0.3108 -0.0616
 5614SOL    HW128478   3.283   0.426   7.714  0.1534 -1.7738  0.2396
 5614SOL    HW228479   3.346   0.475   7.836  0.1472  1.5282 -0.3420
 5615SOL     OW28480   3.911   1.877   3.014  0.5209 -0.4403 -0.3286
 5615SOL    HW128481   3.824   1.850   3.045  0.3003 -0.1165 -0.6700
 5615SOL    HW228482   3.919   1.971   3.033 -0.8369 -0.4391  0.2916
 5616SOL     OW28483   4.212   0.453   0.116 -0.0926  0.1700  0.0873
 5616SOL    HW128484   4.282   0.440   0.052  0.0409  1.8985 -0.1275
 5616SOL    HW228485   4.137   0.482   0.064  0.3826 -1.1565 -1.3390
 5617SOL     OW28486   2.704   3.583  14.408  0.1832 -0.2558  0.0077
 5617SOL    HW128487   2.619   3.572  14.366  0.3557 -1.6169 -0.0004
 5617SOL    HW228488   2.692   3.665  14.456  1.8187  0.3528 -0.6113
 5618SOL     OW28489   3.206   3.556   9.427  0.0273 -0.1998 -0.0232
 5618SOL    HW128490   3.122   3.601   9.417  1.8097  2.4687 -2.8755
 5618SOL    HW228491   3.213   3.523   9.338 -0.8960 -1.9833  0.5695
 5619SOL     OW28492   4.736   1.545  11.687  0.7531  0.5400  0.3446
 5619SOL    HW128493   4.730   1.630  11.643 -0.4154  1.1925  1.7595
 5619SOL    HW228494   4.679   1.498  11.627  1.3532  0.9846 -0.5758
 5620SOL     OW28495   4.206   3.074   1.699  0.4484  0.0138 -0.1886
 5620SOL    HW128496   4.296   3.050   1.721  0.1174 -0.6956  0.3819
 5620SOL    HW228497   4.218   3.169   1.686  1.7098 -0.0036  0.7855
 5621SOL     OW28498   0.930   2.479  12.509  0.0968  0.4368 -0.1781
 5621SOL    HW128499   0.927   2.549  12.443 -1.8760  0.5568  0.0547
 5621SOL    HW228500   0.993   2.421  12.466  0.7115 -0.7155  2.3021
 5622SOL     OW28501   0.090   1.605   7.722  0.2481 -0.3088  0.5003
 5622SOL    HW128502   0.096   1.568   7.811  2.1919 -0.6993  0.1937
 5622SOL    HW228503   0.170   1.571   7.683 -0.2787 -0.2664 -0.6198
 5623SOL     OW28504   1.328   0.326   9.292 -0.4468  0.2395  0.7621
 5623SOL    HW128505   1.287   0.409   9.315  0.9026  1.0832  0.1248
 5623SOL    HW228506   1.415   0.346   9.329 -1.1795  0.2595  2.4916
 5624SOL     OW28507   0.256   4.508   5.199 -0.3876 -0.0921 -0.3414
 5624SOL    HW128508   0.170   4.545   5.216 -0.4088 -0.2246 -0.1664
 5624SOL    HW228509   0.286   4.563   5.126 -1.4570  2.1393  0.9289
 5625SOL     OW28510   4.255   3.257   6.225 -0.4456 -0.2704  0.1961
 5625SOL    HW128511   4.306   3.236   6.147  0.7002  3.9833 -0.2233
 5625SOL    HW228512   4.327   3.294   6.276 -1.2186  0.3017  0.8653
 5626SOL     OW28513   1.895   3.790   3.722 -0.1999 -0.5697  0.4867
 5626SOL    HW128514   1.974   3.776   3.775  0.9402  1.2264 -0.7447
 5626SOL    HW228515   1.826   3.800   3.787  0.1808 -0.9318  0.9451
 5627SOL     OW28516   4.580   2.377   5.951  0.2576 -0.1307  0.2588
 5627SOL    HW128517   4.614   2.363   5.863  0.3505  2.7952 -0.1878
 5627SOL    HW228518   4.595   2.471   5.966 -1.0243 -0.0816  1.2565
 5628SOL     OW28519   1.510   3.859  10.133 -0.1438 -0.0044 -0.6214
 5628SOL    HW128520   1.533   3.793  10.199  0.4605  0.2949 -0.5312
 5628SOL    HW228521   1.581   3.920  10.153 -1.3294  1.3400 -0.6014
 5629SOL     OW28522   4.005   1.713   6.696  0.1888  0.4700 -0.1289
 5629SOL    HW128523   4.020   1.793   6.747 -3.0666  1.4905 -0.7453
 5629SOL    HW228524   3.995   1.744   6.606 -0.5349 -0.0144 -0.2136
 5630SOL     OW28525   4.251   4.479   2.113  0.0021 -0.1835 -0.9120
 5630SOL    HW128526   4.178   4.520   2.065 -0.2866  0.5487  0.1483
 5630SOL    HW228527   4.226   4.387   2.110  0.8389 -0.3816 -1.4633
 5631SOL     OW28528   2.295   1.333   6.965 -0.2796 -0.3034  0.6260
 5631SOL    HW128529   2.326   1.409   7.015 -1.1888  1.4080 -1.4411
 5631SOL    HW228530   2.299   1.268   7.035  0.3077 -1.2570 -0.2939
 5632SOL     OW28531   3.089   2.142   4.995  0.0139  0.4033 -0.7370
 5632SOL    HW128532   3.063   2.054   4.970  1.2832 -1.0620  3.1136
 5632SOL    HW228533   3.011   2.189   4.962 -1.3957 -1.7436 -0.4412
 5633SOL     OW28534   3.954   1.570  11.093  0.1327 -0.6822 -0.2707
 5633SOL    HW128535   4.014   1.603  11.160 -0.9994 -0.0983  0.4662
 5633SOL    HW228536   3.906   1.501  11.140 -0.3541 -1.4765 -1.9548
 5634SOL     OW28537   3.987   2.118   6.478  0.1085 -0.0269 -0.3855
 5634SOL    HW128538   4.028   2.196   6.440 -1.1097  0.4701 -0.6826
 5634SOL    HW228539   4.060   2.058   6.464 -0.0998 -0.3509 -0.0907
 5635SOL     OW28540   0.580   0.112   9.886  0.0065 -0.5215 -0.2033
 5635SOL    HW128541   0.601   0.139   9.797  1.1041 -1.5831 -0.2668
 5635SOL    HW228542   0.558   0.201   9.912  2.6945  0.5472 -1.5599
 5636SOL     OW28543   1.078   1.758  10.497  0.4058  0.4393 -0.1408
 5636SOL    HW128544   1.040   1.799  10.419 -0.4911  1.7105  0.9663
 5636SOL    HW228545   1.152   1.718  10.452 -0.9656 -1.5519 -0.6505
 5637SOL     OW28546   0.886   3.050   3.321 -0.3026  0.1999  0.3693
 5637SOL    HW128547   0.816   3.048   3.386  0.1902 -0.1746  0.8851
 5637SOL    HW228548   0.922   3.136   3.342 -0.7335  0.4340  0.1616
 5638SOL     OW28549   4.537   1.121   5.342  0.8500 -0.1160  0.3880
 5638SOL    HW128550   4.617   1.149   5.298  0.4149 -1.5322 -1.3207
 5638SOL    HW228551   4.536   1.164   5.428 -0.5100  0.3684  0.1286
 5639SOL     OW28552   0.277   1.933   4.696  0.1058 -0.3300  0.1026
 5639SOL    HW128553   0.296   1.989   4.771  0.0768  1.0660 -0.9231
 5639SOL    HW228554   0.324   1.965   4.619 -0.2655 -1.5044 -0.6134
 5640SOL     OW28555   0.155   1.690   4.587 -0.5079 -0.0930 -0.0329
 5640SOL    HW128556   0.216   1.760   4.612  1.4926 -2.2411  1.0534
 5640SOL    HW228557   0.215   1.639   4.532 -0.4246 -0.2770  0.2298
 5641SOL     OW28558   0.831   0.224   2.822 -0.1865 -0.2235  0.3242
 5641SOL    HW128559   0.849   0.242   2.914  2.3327  0.6143 -0.3293
 5641SOL    HW228560   0.744   0.184   2.831 -0.2037 -1.1910 -3.6899
 5642SOL     OW28561   0.996   2.210   1.514  0.4410  0.5066  0.1095
 5642SOL    HW128562   1.085   2.182   1.533  0.0078 -0.9621 -0.0662
 5642SOL    HW228563   1.018   2.299   1.487  0.7912 -0.4409 -2.7080
 5643SOL     OW28564   0.582   1.650   9.840 -0.0510 -0.2467 -0.0871
 5643SOL    HW128565   0.502   1.631   9.889  0.1640  2.2694  1.2576
 5643SOL    HW228566   0.615   1.726   9.888 -1.7100  0.4398 -0.0544
 5644SOL     OW28567   0.854   0.351   8.794 -0.2354 -0.7099 -0.6700
 5644SOL    HW128568   0.916   0.415   8.828 -1.1577  0.0572 -0.4309
 5644SOL    HW228569   0.876   0.284   8.859  0.5300  0.1315 -0.0505
 5645SOL     OW28570   2.405   0.659   8.197 -0.3688 -0.4546 -0.3868
 5645SOL    HW128571   2.451   0.724   8.250  1.4464 -0.0164 -2.5597
 5645SOL    HW228572   2.333   0.658   8.261  0.4506  0.2664  0.5295
 5646SOL     OW28573   3.386   1.876   6.190 -0.1538 -0.1754 -0.4567
 5646SOL    HW128574   3.392   1.816   6.115 -0.7020 -0.4112 -0.3127
 5646SOL    HW228575   3.385   1.815   6.263  1.7775 -0.6176 -0.7924
 5647SOL     OW28576   1.265   0.884  16.879 -0.4218 -0.2127  0.3254
 5647SOL    HW128577   1.290   0.908  16.790 -1.9512 -2.1117 -0.6243
 5647SOL    HW228578   1.339   0.901  16.937  1.2103 -0.6854 -1.6471
 5648SOL     OW28579   0.254   3.420   7.053  0.1750 -0.1440  0.6494
 5648SOL    HW128580   0.247   3.375   7.137  2.5798  0.3406  1.1240
 5648SOL    HW228581   0.290   3.507   7.068  3.4521 -1.5577  1.0964
 5649SOL     OW28582   1.752   0.585   4.597  0.3332  0.1243 -0.6358
 5649SOL    HW128583   1.715   0.517   4.541  0.2457 -0.6866  0.4108
 5649SOL    HW228584   1.798   0.631   4.526 -1.6823  0.9674 -1.4050
 5650SOL     OW28585   2.487   0.900   3.466  0.3143 -0.3287 -0.2044
 5650SOL    HW128586   2.434   0.830   3.426 -0.2934  0.5488 -0.9194
 5650SOL    HW228587   2.417   0.956   3.500  0.6769  0.2554 -0.4424
 5651SOL     OW28588   2.093   0.468   1.924  0.4179  0.1392  0.2457
 5651SOL    HW128589   2.184   0.447   1.947  0.9669  0.7267 -1.3581
 5651SOL    HW228590   2.090   0.461   1.828 -0.0082 -0.1470  0.2801
 5652SOL     OW28591   2.648   3.581   7.276 -0.7271 -0.4591  0.3963
 5652SOL    HW128592   2.611   3.607   7.360 -0.3583  0.5220  0.2538
 5652SOL    HW228593   2.577   3.546   7.222 -0.3019  0.3062 -0.6649
 5653SOL     OW28594   4.233   3.780   1.642  0.8876  0.2186  0.0510
 5653SOL    HW128595   4.312   3.750   1.598  0.2532 -0.1172 -0.8595
 5653SOL    HW228596   4.165   3.738   1.589  0.8656 -1.3476  1.3202
 5654SOL     OW28597   3.551   0.751   1.600  0.3041 -0.4628 -0.2930
 5654SOL    HW128598   3.476   0.783   1.651 -0.0082 -0.0541 -1.0068
 5654SOL    HW228599   3.514   0.701   1.527  2.1777  0.2989 -1.7630
 5655SOL     OW28600   0.078   2.439   4.924  0.1997  0.3649  0.3226
 5655SOL    HW128601   0.153   2.406   4.874 -1.6029  1.3204 -2.9456
 5655SOL    HW228602   0.003   2.416   4.870  1.1773  1.6410 -1.5997
 5656SOL     OW28603   2.483   4.072   7.739  0.0777  0.3678  0.3436
 5656SOL    HW128604   2.531   4.105   7.815 -0.2041  0.7991  0.3374
 5656SOL    HW228605   2.479   4.151   7.686  1.4047 -0.3207 -0.7571
 5657SOL     OW28606   1.542   1.328   4.505 -0.3142 -0.4028  0.0230
 5657SOL    HW128607   1.569   1.385   4.432  0.9787 -1.7195 -0.5231
 5657SOL    HW228608   1.571   1.241   4.478  1.8906  0.5542 -0.6707
 5658SOL     OW28609   0.603   4.229   7.884 -0.0702 -0.3653 -0.2649
 5658SOL    HW128610   0.592   4.223   7.789  2.5957  1.0271 -0.6589
 5658SOL    HW228611   0.655   4.149   7.889  0.4535  0.0091  0.3029
 5659SOL     OW28612   2.790   3.313   2.102 -0.0177  0.2125  0.2900
 5659SOL    HW128613   2.856   3.335   2.168 -1.0512  2.5720  0.5253
 5659SOL    HW228614   2.834   3.356   2.029 -2.5469 -0.1786 -1.4583
 5660SOL     OW28615   4.633   0.969   3.388 -0.5831 -0.0346 -0.1385
 5660SOL    HW128616   4.567   1.037   3.403 -0.9147 -0.1032 -1.2451
 5660SOL    HW228617   4.681   0.965   3.470 -1.1584 -0.8110  0.1616
 5661SOL     OW28618   1.505   2.444   9.197 -0.0706  0.2739  0.7112
 5661SOL    HW128619   1.543   2.528   9.222 -0.1669  0.2266  1.0303
 5661SOL    HW228620   1.522   2.440   9.103 -1.7564 -0.0276  0.4077
 5662SOL     OW28621   3.035   1.589   2.380  0.0281  0.8976  0.1321
 5662SOL    HW128622   3.061   1.503   2.412 -2.1899  0.1685 -0.0390
 5662SOL    HW228623   2.977   1.628   2.446  0.5698 -3.1671  3.0426
 5663SOL     OW28624   2.375   1.113  14.886 -0.1631 -0.2480 -0.2262
 5663SOL    HW128625   2.325   1.067  14.954 -0.2865  0.2239  0.0052
 5663SOL    HW228626   2.354   1.051  14.817 -0.5511 -1.1993  0.7480
 5664SOL     OW28627   3.385   4.720   5.354  0.2002  0.7238 -0.0790
 5664SOL    HW128628   3.381   4.626   5.337 -0.2803  0.8432 -0.5995
 5664SOL    HW228629   3.348   0.023   5.276 -1.8760  0.1220  0.6026
 5665SOL     OW28630   3.075   1.285   3.154  0.0834  0.7518  0.2191
 5665SOL    HW128631   3.016   1.230   3.204 -0.0390  0.2345 -0.4906
 5665SOL    HW228632   3.124   1.327   3.225  1.2452  1.1935 -0.8328
 5666SOL     OW28633   2.997   4.171   6.991  0.2862  0.3744  0.5231
 5666SOL    HW128634   3.064   4.238   7.004  0.5466  0.4163 -1.0119
 5666SOL    HW228635   2.929   4.226   6.951 -0.0182  0.6036  1.3675
 5667SOL     OW28636   1.937   0.722   4.438 -0.1774 -0.5376  0.3762
 5667SOL    HW128637   2.030   0.704   4.446 -0.0889  0.4718  1.5587
 5667SOL    HW228638   1.925   0.814   4.413 -0.6652 -0.5749  0.4606
 5668SOL     OW28639   1.226   3.461   6.091  0.1965  0.1232  0.3299
 5668SOL    HW128640   1.283   3.407   6.146 -0.0030 -1.9167 -1.4407
 5668SOL    HW228641   1.211   3.417   6.007  3.8122 -0.5522  0.0451
 5669SOL     OW28642   1.072   3.694   4.797  0.0383  0.4090 -0.5324
 5669SOL    HW128643   1.094   3.783   4.772  1.8149  0.1420  0.1050
 5669SOL    HW228644   1.051   3.701   4.890  1.5037 -0.2145 -0.1508
 5670SOL     OW28645   3.337   4.642   5.629  0.1174 -0.1050  0.5572
 5670SOL    HW128646   3.366   4.667   5.542  0.1331  1.0273  0.8842
 5670SOL    HW228647   3.366   4.551   5.638 -0.0993 -0.2250  0.0376
 5671SOL     OW28648   1.821   2.307   6.211 -0.5516 -0.0012  0.3095
 5671SOL    HW128649   1.776   2.391   6.201 -0.8316 -0.0844  0.8738
 5671SOL    HW228650   1.764   2.268   6.277 -0.8556  2.9840  1.7935
 5672SOL     OW28651   2.679   1.172   3.040  0.3132 -0.4563 -0.3842
 5672SOL    HW128652   2.586   1.168   3.065  0.8091 -0.8779  1.4350
 5672SOL    HW228653   2.691   1.082   3.012 -0.0590 -0.1364 -1.5514
 5673SOL     OW28654   3.734   2.725  16.075 -0.3410 -0.4115  0.4187
 5673SOL    HW128655   3.701   2.673  16.002 -1.6194  0.3236  0.4675
 5673SOL    HW228656   3.660   2.784  16.090 -0.3824 -0.0270 -1.3900
 5674SOL     OW28657   0.212   2.851   3.313 -0.8745  0.2203  0.7394
 5674SOL    HW128658   0.300   2.813   3.321  0.0805  2.1813 -0.4073
 5674SOL    HW228659   0.169   2.785   3.366 -1.2204  0.5707  0.8868
 5675SOL     OW28660   2.516   1.692   3.105 -0.2622  0.1595 -0.1756
 5675SOL    HW128661   2.530   1.690   3.010 -0.9734  2.1509 -0.3210
 5675SOL    HW228662   2.607   1.718   3.120 -0.8912  1.9411  0.4311
 5676SOL     OW28663   0.997   0.331   0.348  0.1334  0.7325 -0.2936
 5676SOL    HW128664   0.906   0.358   0.360 -0.9277 -2.7184 -0.7969
 5676SOL    HW228665   0.983   0.238   0.329 -1.8961  1.3706 -1.9842
 5677SOL     OW28666   1.463   3.380   9.948  0.1465  0.4262  0.1278
 5677SOL    HW128667   1.387   3.327   9.975  0.2096  0.3884  0.2309
 5677SOL    HW228668   1.437   3.468   9.977  0.0679  0.8153 -1.1202
 5678SOL     OW28669   3.396   0.864   3.846  0.3098 -0.9287 -0.0385
 5678SOL    HW128670   3.388   0.819   3.762 -1.6891 -1.6504  0.5307
 5678SOL    HW228671   3.410   0.792   3.907  2.0519 -0.8965 -0.4002
 5679SOL     OW28672   2.534   1.004   6.799  0.2627  0.1779 -0.6101
 5679SOL    HW128673   2.582   1.041   6.725  1.6741 -0.8125 -0.2020
 5679SOL    HW228674   2.510   0.915   6.776  0.0790  0.5069 -1.6742
 5680SOL     OW28675   4.603   4.395   8.528  0.4853 -0.4052  1.2889
 5680SOL    HW128676   4.514   4.386   8.563 -0.0439  2.0803  0.5711
 5680SOL    HW228677   4.618   4.309   8.489 -0.8142 -0.6539  1.3194
 5681SOL     OW28678   2.473   2.305   4.014  0.1477  0.0857  0.6379
 5681SOL    HW128679   2.474   2.400   4.023  1.3305 -0.1061  2.6319
 5681SOL    HW228680   2.558   2.286   4.055  0.6814 -1.1809 -1.0835
 5682SOL     OW28681   3.463   2.093   2.011  0.3249 -0.4780  0.2934
 5682SOL    HW128682   3.391   2.134   1.964 -0.2636 -0.7219  0.9811
 5682SOL    HW228683   3.448   2.097   2.106 -2.6029 -0.4242 -0.1912
 5683SOL     OW28684   4.074   0.061   4.589 -0.2501 -0.7987 -0.0562
 5683SOL    HW128685   4.038   0.122   4.653  1.3486  1.1804 -1.0429
 5683SOL    HW228686   4.159   0.029   4.621  0.6966  1.8111  0.0740
 5684SOL     OW28687   2.235   1.447   2.276  0.3031 -0.3590 -0.6256
 5684SOL    HW128688   2.224   1.356   2.304  0.2973  0.4799  2.1423
 5684SOL    HW228689   2.289   1.441   2.197 -2.0607  0.2338 -2.2656
 5685SOL     OW28690   0.653   0.635  10.651  0.0471 -0.2303 -0.2686
 5685SOL    HW128691   0.728   0.612  10.706 -1.8227 -2.8445  1.2028
 5685SOL    HW228692   0.686   0.722  10.629 -0.5383  0.1024  0.1687
 5686SOL     OW28693   4.390   0.868   3.554 -0.3908  0.6182  0.1622
 5686SOL    HW128694   4.371   0.786   3.509 -0.3895  0.1537  1.0061
 5686SOL    HW228695   4.349   0.927   3.490  0.4682 -1.1921 -2.0277
 5687SOL     OW28696   1.208   3.685   5.120  0.0272 -0.6931 -0.7737
 5687SOL    HW128697   1.263   3.610   5.096  1.7325  0.1913  0.3213
 5687SOL    HW228698   1.262   3.757   5.086 -0.8802  0.2640 -0.1550
 5688SOL     OW28699   1.978   4.509  16.278  0.0561 -0.4071  0.2006
 5688SOL    HW128700   1.925   4.560  16.216 -1.3855 -1.8472  0.2670
 5688SOL    HW228701   1.935   4.542  16.357  0.0862 -1.0906  0.5026
 5689SOL     OW28702   3.322   3.671  16.113  0.4100 -0.0555  1.0079
 5689SOL    HW128703   3.248   3.713  16.156  1.1828  0.3039  1.9758
 5689SOL    HW228704   3.317   3.699  16.022 -1.2728 -2.0430  0.4891
 5690SOL     OW28705   2.250   0.765   6.700  0.3993  0.2466  0.1272
 5690SOL    HW128706   2.295   0.763   6.616 -3.1571 -1.9146 -1.7142
 5690SOL    HW228707   2.315   0.742   6.767  0.8034 -0.2799 -0.4431
 5691SOL     OW28708   2.952   2.203   7.055 -0.1293 -0.1261  0.6587
 5691SOL    HW128709   3.001   2.219   6.975  0.4468 -0.7276  0.8930
 5691SOL    HW228710   2.974   2.275   7.113 -4.1640  1.1431  0.6619
 5692SOL     OW28711   3.576   2.212   2.315  0.0469 -0.3233 -0.2690
 5692SOL    HW128712   3.562   2.231   2.408 -2.5056  0.7772 -0.8777
 5692SOL    HW228713   3.534   2.289   2.275 -0.4690 -0.3547  0.2185
 5693SOL     OW28714   3.078   0.937  17.532  0.3476  0.5465 -0.0791
 5693SOL    HW128715   3.171   0.951  17.548  0.4508  0.7195 -0.8361
 5693SOL    HW228716   3.069   0.948  17.438  0.7193  1.0824 -0.0508
 5694SOL     OW28717   1.391   2.733   7.235  0.1693 -0.5800 -0.6477
 5694SOL    HW128718   1.389   2.812   7.181 -2.4274 -1.2863 -1.5570
 5694SOL    HW228719   1.396   2.662   7.171 -2.2777  0.2563 -1.7694
 5695SOL     OW28720   1.853   2.280   8.154 -0.2844  0.3057 -0.4369
 5695SOL    HW128721   1.767   2.317   8.135 -0.7703 -1.8197 -2.4973
 5695SOL    HW228722   1.874   2.244   8.067  0.3514  0.1733 -0.2261
 5696SOL     OW28723   2.492   3.315   3.196  0.6373  0.1368 -0.0888
 5696SOL    HW128724   2.452   3.349   3.116  1.0938 -2.2768 -1.3286
 5696SOL    HW228725   2.417   3.304   3.253 -0.0345 -1.1742 -1.2133
 5697SOL     OW28726   4.058   2.671   8.006 -0.3794  1.1560  0.1293
 5697SOL    HW128727   4.123   2.714   8.061  1.2352 -1.5961  0.3672
 5697SOL    HW228728   4.054   2.719   7.923  1.1188  1.6837  0.3740
 5698SOL     OW28729   3.278   1.276   6.460  0.3905 -0.0082  0.3554
 5698SOL    HW128730   3.271   1.261   6.554 -0.9540 -1.5100  0.0097
 5698SOL    HW228731   3.186   1.293   6.440  0.4337  0.3315  0.4387
 5699SOL     OW28732   1.493   0.933   5.642  0.7957  0.1433 -0.6196
 5699SOL    HW128733   1.403   0.941   5.674  1.5405  1.3617  1.1285
 5699SOL    HW228734   1.489   0.980   5.559  0.1775 -1.9506 -1.7840
 5700SOL     OW28735   3.453   2.074  14.375 -0.0486  0.3170 -0.2950
 5700SOL    HW128736   3.504   2.124  14.310  0.9621  0.6934  0.7897
 5700SOL    HW228737   3.394   2.023  14.320 -0.3206  1.7446 -1.3514
 5701SOL     OW28738   0.044   2.850   0.881  0.1741 -0.7835  0.3162
 5701SOL    HW128739   0.032   2.864   0.787 -0.2607 -0.0202  0.4893
 5701SOL    HW228740   0.099   2.772   0.878  1.3934  0.0626  0.6799
 5702SOL     OW28741   4.324   2.757  14.086  0.6569  0.1297 -0.0279
 5702SOL    HW128742   4.231   2.737  14.095  0.9585 -0.7943  1.1034
 5702SOL    HW228743   4.371   2.691  14.137  2.2739  2.1297  1.0481
 5703SOL     OW28744   4.580   3.030   3.162  0.0176  0.4579 -0.1880
 5703SOL    HW128745   4.583   2.957   3.224 -0.0388  0.7299  0.1336
 5703SOL    HW228746   4.671   3.032   3.131  0.0681  2.3765  0.0730
 5704SOL     OW28747   2.513   0.559   9.965  1.2734  0.0398  0.1759
 5704SOL    HW128748   2.512   0.533  10.058  0.8606 -2.4629 -0.5244
 5704SOL    HW228749   2.592   0.613   9.962  0.7900  0.8251  1.4493
 5705SOL     OW28750   4.604   1.371  13.014  0.0856 -0.4665  0.3564
 5705SOL    HW128751   4.637   1.304  12.954  0.5784  0.1518 -0.0600
 5705SOL    HW228752   4.689   1.400  13.048 -0.0902 -1.0465  1.2853
 5706SOL     OW28753   2.511   0.602   2.141  0.2654 -0.5123 -0.2815
 5706SOL    HW128754   2.472   0.677   2.096 -0.0512 -1.3657 -1.4208
 5706SOL    HW228755   2.439   0.580   2.199  0.6612  0.5235  0.5995
 5707SOL     OW28756   2.516   2.296  15.616 -0.1651 -0.3864  0.3431
 5707SOL    HW128757   2.459   2.272  15.689 -0.5341  0.3833  0.3095
 5707SOL    HW228758   2.518   2.391  15.626  0.1227 -0.6495  2.9087
 5708SOL     OW28759   0.373   4.087   3.909 -0.0770  0.0368  0.3411
 5708SOL    HW128760   0.406   4.162   3.860 -3.4978  1.0721 -0.4045
 5708SOL    HW228761   0.298   4.058   3.858 -0.7268 -0.0907  1.3654
 5709SOL     OW28762   1.325   1.298   3.631 -0.4970 -0.2369  0.3499
 5709SOL    HW128763   1.413   1.322   3.604  0.0147 -1.1789  1.2229
 5709SOL    HW228764   1.294   1.251   3.553  0.6001 -0.7766  0.2460
 5710SOL     OW28765   3.896   0.132   2.954 -0.6971 -0.2859 -0.2326
 5710SOL    HW128766   3.953   0.149   2.878 -1.3227  0.6264 -0.4960
 5710SOL    HW228767   3.896   0.216   3.000  2.1884 -0.9364  0.9523
 5711SOL     OW28768   1.272   3.111   4.199  0.2428 -0.3429 -0.6744
 5711SOL    HW128769   1.234   3.199   4.187 -1.2769 -0.9310 -0.1583
 5711SOL    HW228770   1.219   3.064   4.135  0.3619  0.7143 -1.5487
 5712SOL     OW28771   2.140   2.856   8.595  0.4755 -1.5419 -0.3782
 5712SOL    HW128772   2.147   2.884   8.504  2.7991  1.5138  0.7087
 5712SOL    HW228773   2.229   2.864   8.630  1.2840  2.4919 -3.3178
 5713SOL     OW28774   4.504   2.507  16.297  0.1610 -0.4244  0.0531
 5713SOL    HW128775   4.578   2.454  16.269  1.0491  0.3201  1.0077
 5713SOL    HW228776   4.492   2.557  16.216  1.7119 -0.5893 -0.2820
 5714SOL     OW28777   2.822   0.017   7.745  0.3867  0.3972 -0.6961
 5714SOL    HW128778   2.854   0.104   7.720  2.7142  0.0372  0.9766
 5714SOL    HW228779   2.825   4.710   7.660  0.4708 -0.9712 -0.0068
 5715SOL     OW28780   4.707   2.790   8.154 -0.2059 -0.7894 -0.7073
 5715SOL    HW128781   4.718   2.701   8.119  0.7765 -0.5910 -0.9184
 5715SOL    HW228782   4.694   2.761   8.245 -1.3869 -0.3599 -0.7500
 5716SOL     OW28783   2.312   2.190   3.812  0.7410  0.0796  0.1990
 5716SOL    HW128784   2.354   2.239   3.883 -0.4381 -1.2089  1.7945
 5716SOL    HW228785   2.229   2.238   3.805 -0.2143 -1.4048  1.2343
 5717SOL     OW28786   3.626   4.011  14.540 -0.2559  0.0283 -0.1243
 5717SOL    HW128787   3.579   3.939  14.498  0.5554  0.7125 -2.2392
 5717SOL    HW228788   3.711   4.008  14.494  0.0582  2.2270  0.2975
 5718SOL     OW28789   3.325   2.717   5.331  0.3367  0.2841  0.0595
 5718SOL    HW128790   3.315   2.685   5.421  1.5089  0.2564  0.1751
 5718SOL    HW228791   3.236   2.691   5.306 -0.3537  0.6329  2.0722
 5719SOL     OW28792   1.753   0.478   7.875  0.3636  0.3457 -0.0527
 5719SOL    HW128793   1.742   0.555   7.820 -3.0558  0.1375  0.3272
 5719SOL    HW228794   1.672   0.429   7.862  0.3487  0.2606  0.3684
 5720SOL     OW28795   2.529   0.942   7.212 -0.3386  0.6728 -0.0282
 5720SOL    HW128796   2.463   0.987   7.160 -0.0663  0.0124 -0.9488
 5720SOL    HW228797   2.481   0.861   7.230  0.9908 -0.3128 -0.8547
 5721SOL     OW28798   3.164   3.591   4.581 -0.0239  0.0752  0.5599
 5721SOL    HW128799   3.202   3.528   4.642  0.3786  0.2863  0.5298
 5721SOL    HW228800   3.243   3.642   4.563 -0.5373  0.8685  0.5849
 5722SOL     OW28801   1.743   0.903   0.087  0.2291  0.6546  0.2077
 5722SOL    HW128802   1.819   0.849   0.106 -3.0071 -2.9636  2.8706
 5722SOL    HW228803   1.679   0.832   0.085 -0.0513  0.9671 -1.5112
 5723SOL     OW28804   2.932   4.471   5.901 -0.6587  0.0951  0.4809
 5723SOL    HW128805   2.946   4.479   5.806  1.2414  1.6466  0.9031
 5723SOL    HW228806   2.903   4.380   5.912 -1.1646  0.3650  1.3885
 5724SOL     OW28807   1.999   1.802  12.606 -0.4101  0.0940 -0.0001
 5724SOL    HW128808   2.090   1.774  12.594 -0.4011 -0.2154  0.7528
 5724SOL    HW228809   1.966   1.751  12.681 -1.2522 -1.3843 -1.3743
 5725SOL     OW28810   4.404   1.318   0.962 -0.3504 -0.3004 -0.1547
 5725SOL    HW128811   4.407   1.360   0.876  2.1935  1.2549  0.7286
 5725SOL    HW228812   4.488   1.275   0.975  0.9000  2.3914  0.4932
 5726SOL     OW28813   0.934   0.114  14.896  0.2584  0.3785  0.3096
 5726SOL    HW128814   0.977   0.196  14.872  1.1176 -0.1015  0.2502
 5726SOL    HW228815   0.981   0.097  14.978 -0.6858 -1.2336  0.5126
 5727SOL     OW28816   1.034   2.171   2.344 -0.2113 -0.1449 -0.0242
 5727SOL    HW128817   0.992   2.219   2.272 -0.7273  1.3067  1.2476
 5727SOL    HW228818   0.961   2.115   2.371  0.6364 -1.2010  0.0767
 5728SOL     OW28819   3.853   2.910  11.375 -1.0886  0.0399 -0.6212
 5728SOL    HW128820   3.816   2.953  11.298 -1.1600  0.9947 -0.0565
 5728SOL    HW228821   3.765   2.885  11.406 -2.1484  3.3398 -0.9249
 5729SOL     OW28822   4.678   1.952   5.206  0.0923  0.0762 -0.2809
 5729SOL    HW128823   4.584   1.934   5.217  0.1719 -1.0133 -1.4120
 5729SOL    HW228824   4.689   1.972   5.113  1.5431 -0.4578 -0.2170
 5730SOL     OW28825   0.684   2.669  13.272  0.5350 -0.3962 -0.1420
 5730SOL    HW128826   0.698   2.605  13.202  1.1485 -0.5220  0.0997
 5730SOL    HW228827   0.667   2.755  13.232 -0.5544 -1.0340 -1.0528
 5731SOL     OW28828   2.732   2.506  16.932 -0.1756 -0.4289 -0.6091
 5731SOL    HW128829   2.681   2.437  16.889 -1.6084  0.6440 -0.6476
 5731SOL    HW228830   2.732   2.571  16.862 -3.1150  0.3601  0.1143
 5732SOL     OW28831   3.516   2.897   5.235 -0.0001  0.5330  0.4084
 5732SOL    HW128832   3.467   2.932   5.310  1.9649  1.3751  1.3027
 5732SOL    HW228833   3.479   2.809   5.242 -1.0868  1.0855  1.6180
 5733SOL     OW28834   1.282   2.144  14.279 -0.1961  0.2799 -1.0214
 5733SOL    HW128835   1.267   2.116  14.369 -1.2657 -0.9068 -1.5825
 5733SOL    HW228836   1.277   2.238  14.300 -0.6292 -0.1690  0.9100
 5734SOL     OW28837   4.065   1.619  16.325  0.0843  0.0249  0.1710
 5734SOL    HW128838   3.999   1.550  16.333  2.7436 -2.2217  2.5827
 5734SOL    HW228839   4.086   1.619  16.231 -0.6738  2.8312 -0.0011
 5735SOL     OW28840   4.653   2.072   8.066  0.1446  0.2425 -0.0550
 5735SOL    HW128841   4.695   2.155   8.091 -0.7313  0.5849  0.2688
 5735SOL    HW228842   4.638   2.038   8.154  0.0583 -1.1784 -0.6132
 5736SOL     OW28843   0.491   4.387  16.640 -0.0786 -0.1745  0.7677
 5736SOL    HW128844   0.545   4.367  16.563  2.0257  2.3460  1.6043
 5736SOL    HW228845   0.404   4.368  16.605  0.8050  0.5863 -1.8568
 5737SOL     OW28846   3.874   3.959   8.846  0.1050 -0.4799 -0.6547
 5737SOL    HW128847   3.920   3.901   8.786  0.1819 -1.1370  0.0464
 5737SOL    HW228848   3.887   3.905   8.924  0.2834  0.5745  0.0400
 5738SOL     OW28849   1.874   1.810   7.119 -0.5162  0.6961 -0.0081
 5738SOL    HW128850   1.810   1.744   7.146 -0.7777  0.4902 -1.1085
 5738SOL    HW228851   1.859   1.868   7.193  0.3575  1.0815 -0.1341
 5739SOL     OW28852   3.928   1.132   2.708 -0.0994  0.0593 -0.0472
 5739SOL    HW128853   3.904   1.209   2.656  1.1453  1.2986  1.2077
 5739SOL    HW228854   4.019   1.118   2.680 -0.2255 -0.9522  0.0539
 5740SOL     OW28855   0.271   3.700  17.640  0.1881  0.0225  0.1703
 5740SOL    HW128856   0.348   3.661  17.599  0.1106 -1.2142  1.2210
 5740SOL    HW228857   0.213   3.671  17.569  0.4729  2.7961 -1.1823
 5741SOL     OW28858   0.135   2.402  16.632  0.4995 -0.2546 -0.0445
 5741SOL    HW128859   0.057   2.456  16.622 -0.8561 -1.7754  2.2585
 5741SOL    HW228860   0.123   2.351  16.551 -0.7127  0.2943 -0.2138
 5742SOL     OW28861   0.025   4.484   8.737  0.4397 -0.2948  0.2067
 5742SOL    HW128862   4.714   4.463   8.657  0.9300 -0.7383  0.0324
 5742SOL    HW228863   0.112   4.483   8.696  0.7870  0.5561  0.9124
 5743SOL     OW28864   3.758   0.728  13.498 -0.3446  0.2385 -0.2783
 5743SOL    HW128865   3.845   0.768  13.492 -1.0268  2.0477  2.1650
 5743SOL    HW228866   3.754   0.685  13.584 -2.5989  2.0800  0.5368
 5744SOL     OW28867   3.002   0.405   1.373 -0.3698 -0.0723  0.6008
 5744SOL    HW128868   3.011   0.320   1.416 -1.8220 -0.7302 -0.4303
 5744SOL    HW228869   3.032   0.470   1.438  0.7847 -2.1830  2.1685
 5745SOL     OW28870   4.033   2.530   0.753 -0.1431  0.8810  0.0120
 5745SOL    HW128871   4.096   2.478   0.703  0.5179  0.0879  1.6708
 5745SOL    HW228872   4.098   2.561   0.815 -1.4614  1.8850  0.8799
 5746SOL     OW28873   3.272   4.412  10.134 -0.2094  0.1939  0.0615
 5746SOL    HW128874   3.207   4.435  10.067 -1.3217  1.4208  1.5451
 5746SOL    HW228875   3.217   4.373  10.203 -0.7869  2.4224  0.8851
 5747SOL     OW28876   3.795   1.131  11.975 -0.0666 -0.5079 -0.0787
 5747SOL    HW128877   3.805   1.123  12.070  1.3176  1.7915 -0.0237
 5747SOL    HW228878   3.703   1.149  11.958  0.2370  2.0951  0.9376
 5748SOL     OW28879   1.055   4.226  14.004  0.1127 -0.1572 -0.3274
 5748SOL    HW128880   0.967   4.259  14.023 -0.1615 -0.1959 -1.5809
 5748SOL    HW228881   1.106   4.238  14.085 -0.6653  0.8721  0.0117
 5749SOL     OW28882   1.052   1.125   8.465 -0.4074 -0.1931 -0.1157
 5749SOL    HW128883   0.971   1.084   8.436  0.2887 -1.6468  0.0195
 5749SOL    HW228884   1.075   1.071   8.540 -0.1367  0.9156  0.6108
 5750SOL     OW28885   4.531   4.256   4.920  0.4043  0.2839  0.0461
 5750SOL    HW128886   4.575   4.173   4.901 -0.8643 -0.6596  1.1613
 5750SOL    HW228887   4.534   4.266   5.015  0.2346  1.9077 -0.1227
 5751SOL     OW28888   2.524   2.531  14.474  0.1597 -0.0624  0.0746
 5751SOL    HW128889   2.461   2.589  14.518 -0.2023 -1.3911  1.3265
 5751SOL    HW228890   2.603   2.545  14.526 -0.2796  0.2508  0.6543
 5752SOL     OW28891   1.897   3.488   4.515  0.1402  0.2409  0.4990
 5752SOL    HW128892   1.848   3.554   4.465  0.7907 -0.0544 -0.5092
 5752SOL    HW228893   1.862   3.405   4.481  1.1559  0.0808 -0.1341
 5753SOL     OW28894   0.139   4.732   2.782 -0.3417  0.2083 -0.4707
 5753SOL    HW128895   0.065   4.675   2.801 -0.8882  0.8725 -0.6054
 5753SOL    HW228896   0.198   4.713   2.855  0.0673  2.0618 -0.3014
 5754SOL     OW28897   1.595   4.426   2.291 -0.4345  0.1640  0.0358
 5754SOL    HW128898   1.505   4.421   2.260 -0.6619  1.4150  0.4830
 5754SOL    HW228899   1.572   4.415   2.383  1.4176 -0.8465  0.3786
 5755SOL     OW28900   1.035   0.999   4.972  0.2590 -0.3867 -0.0928
 5755SOL    HW128901   1.017   1.033   5.060 -0.0383 -0.5158 -0.1057
 5755SOL    HW228902   1.119   1.042   4.956  0.3486 -0.0720  1.2023
 5756SOL     OW28903   2.181   4.461   3.599 -0.6077 -0.1405  0.2552
 5756SOL    HW128904   2.169   4.550   3.566 -1.3482 -0.1355  0.5376
 5756SOL    HW228905   2.273   4.447   3.576 -0.7108 -0.9705  0.3397
 5757SOL     OW28906   2.097   0.963   6.991  0.2322 -0.3356  0.1229
 5757SOL    HW128907   2.042   0.906   7.045  0.0349 -0.6782 -0.4514
 5757SOL    HW228908   2.074   0.942   6.901 -3.3611  0.9853  0.7435
 5758SOL     OW28909   2.179   4.235  12.623 -0.8776  0.1761 -0.3235
 5758SOL    HW128910   2.181   4.265  12.533  1.0492  1.0009 -0.0102
 5758SOL    HW228911   2.136   4.312  12.661 -0.4882 -0.0709  0.6260
 5759SOL     OW28912   1.219   2.271   6.024 -0.2935 -0.3054 -0.6799
 5759SOL    HW128913   1.187   2.356   5.996 -0.4989  0.7585  2.8061
 5759SOL    HW228914   1.257   2.234   5.944 -0.3621  0.8894 -1.2559
 5760SOL     OW28915   1.026   2.982   6.490  0.4149 -0.4867 -0.2734
 5760SOL    HW128916   0.997   2.918   6.555 -1.4864 -0.6673 -1.3128
 5760SOL    HW228917   1.073   2.917   6.436 -0.8256 -1.1807 -0.5129
 5761SOL     OW28918   3.772   2.138   9.136  0.2444  0.4833 -0.1580
 5761SOL    HW128919   3.827   2.184   9.073 -0.2984 -0.3674 -1.2651
 5761SOL    HW228920   3.828   2.075   9.182 -0.2514  0.2498  0.1273
 5762SOL     OW28921   1.221   2.320   3.004 -0.2494  0.4147 -0.5986
 5762SOL    HW128922   1.216   2.333   3.099  2.5510 -3.2952  0.0765
 5762SOL    HW228923   1.176   2.235   3.000 -0.6323  0.6114 -0.4509
 5763SOL     OW28924   0.673   2.530  13.043  0.7576 -0.3770 -0.1267
 5763SOL    HW128925   0.580   2.544  13.060  0.5180  0.0288 -1.7910
 5763SOL    HW228926   0.666   2.558  12.951 -1.1147  0.5210  0.2937
 5764SOL     OW28927   3.847   2.024   3.298 -0.1590  0.8639 -0.6962
 5764SOL    HW128928   3.908   2.038   3.226  0.2600 -0.5239 -0.6044
 5764SOL    HW228929   3.816   1.936   3.279  1.8469 -0.3756  1.6930
 5765SOL     OW28930   3.223   4.636  16.286 -0.0276  0.5291 -0.2944
 5765SOL    HW128931   3.304   4.595  16.258 -2.0089 -1.0950 -3.6324
 5765SOL    HW228932   3.167   4.633  16.209  0.0354 -0.3924 -0.3008
 5766SOL     OW28933   4.276   0.177  16.628 -0.3336  0.1936 -0.0747
 5766SOL    HW128934   4.302   0.225  16.549 -2.2553  0.5202 -0.4979
 5766SOL    HW228935   4.183   0.179  16.605  0.1258  0.4523 -1.9110
 5767SOL     OW28936   4.171   3.897   5.053 -0.3375 -0.2463 -0.4902
 5767SOL    HW128937   4.105   3.828   5.062  0.6936 -1.2241 -0.3234
 5767SOL    HW228938   4.241   3.851   5.099 -1.5460 -2.0936 -0.4831
 5768SOL     OW28939   3.570   1.072   7.627 -0.4109 -0.0384  0.5129
 5768SOL    HW128940   3.576   1.061   7.722 -0.3857  0.3902  0.5631
 5768SOL    HW228941   3.639   1.132   7.600 -0.8539  0.6986  1.0195
 5769SOL     OW28942   0.749   1.612  13.858 -0.3695  0.3106  0.7206
 5769SOL    HW128943   0.710   1.531  13.891  0.0850 -0.2063 -0.0104
 5769SOL    HW228944   0.680   1.650  13.804 -0.4728 -0.8458  0.0301
 5770SOL     OW28945   1.445   4.685   4.268  0.5526  0.8117 -0.1267
 5770SOL    HW128946   1.493   4.642   4.339  0.5497  0.6162 -0.2410
 5770SOL    HW228947   1.364   4.633   4.274  1.5066 -0.5222  1.2942
 5771SOL     OW28948   3.232   3.800   4.269  0.1939 -0.2263  0.0583
 5771SOL    HW128949   3.283   3.762   4.198 -0.5327  0.0811 -0.6260
 5771SOL    HW228950   3.208   3.712   4.299 -0.6709  0.2819  0.8519
 5772SOL     OW28951   0.906   0.244  13.629  0.5840  0.2714  0.2898
 5772SOL    HW128952   0.913   0.323  13.682  1.0606 -0.9326  2.0272
 5772SOL    HW228953   0.995   0.211  13.618  1.6973  2.7297  1.9218
 5773SOL     OW28954   0.284   3.478   9.141 -0.6693 -0.1858  0.0227
 5773SOL    HW128955   0.283   3.390   9.180  0.5320  0.4753  1.5750
 5773SOL    HW228956   0.371   3.470   9.103 -1.4225  2.4058 -2.1926
 5774SOL     OW28957   2.723   3.081   5.054 -0.0566  0.5204 -0.1913
 5774SOL    HW128958   2.696   3.146   4.988 -0.9512 -0.5737 -0.9021
 5774SOL    HW228959   2.668   3.093   5.131 -1.8989 -1.6740 -1.1865
 5775SOL     OW28960   2.561   4.151  16.647  0.0316 -0.0268  0.5124
 5775SOL    HW128961   2.613   4.072  16.630 -1.4329 -0.8092 -0.2755
 5775SOL    HW228962   2.616   4.217  16.606 -0.3026 -0.1940 -0.1993
 5776SOL     OW28963   0.407   1.779   4.943 -0.1407 -0.0147  0.3253
 5776SOL    HW128964   0.375   1.851   4.888  1.0056  0.7540  0.6639
 5776SOL    HW228965   0.337   1.713   4.949  0.1306 -0.5261 -2.3680
 5777SOL     OW28966   3.870   0.901   3.904 -0.2967 -0.0039  0.7135
 5777SOL    HW128967   3.809   0.958   3.857  0.9235  1.4264  0.8612
 5777SOL    HW228968   3.928   0.874   3.833 -1.8875  0.3206 -0.6969
 5778SOL     OW28969   0.215   1.137   5.026 -0.1168 -0.2190  0.5157
 5778SOL    HW128970   0.131   1.097   5.049 -0.0573 -1.3611 -1.2579
 5778SOL    HW228971   0.277   1.073   5.059 -0.6507 -1.1530 -0.3076
 5779SOL     OW28972   0.002   0.285   8.346  0.4219  0.0002  0.5209
 5779SOL    HW128973   0.038   0.289   8.435 -0.5060  0.6092  0.8644
 5779SOL    HW228974   0.061   0.224   8.303 -1.7099 -0.2423 -2.0284
 5780SOL     OW28975   1.286   2.621   5.915  0.7864 -0.4423  0.0048
 5780SOL    HW128976   1.358   2.557   5.920  0.0906 -1.3713 -1.6945
 5780SOL    HW228977   1.284   2.645   6.008  1.0780  0.4985 -0.2321
 5781SOL     OW28978   3.883   1.592  14.509  0.6470  0.3973  0.0377
 5781SOL    HW128979   3.864   1.501  14.486  3.0789 -0.1067  0.0187
 5781SOL    HW228980   3.814   1.613  14.573  1.0299  1.6482  0.0273
 5782SOL     OW28981   4.047   4.129   2.879 -0.0612  0.2040  0.5017
 5782SOL    HW128982   4.039   4.045   2.924  0.0388 -0.4950 -0.7850
 5782SOL    HW228983   3.976   4.179   2.921  0.2896  0.5400  0.6938
 5783SOL     OW28984   3.544   0.524   0.320  0.3645  0.2961 -0.3620
 5783SOL    HW128985   3.546   0.471   0.240 -0.9037 -0.6460  0.2283
 5783SOL    HW228986   3.556   0.454   0.384 -3.5021  0.8133  0.9211
 5784SOL     OW28987   1.958   0.305   3.162 -0.2097 -0.0217 -0.1454
 5784SOL    HW128988   1.986   0.218   3.133 -0.8733 -0.6682  1.1655
 5784SOL    HW228989   1.913   0.290   3.245 -1.5947  0.7763 -0.7551
 5785SOL     OW28990   1.932   0.973   7.725  0.2986  0.3536 -0.4282
 5785SOL    HW128991   1.888   0.999   7.644  0.4120 -1.6717 -1.1568
 5785SOL    HW228992   2.021   0.952   7.696  0.6226  0.2148  0.6611
 5786SOL     OW28993   1.015   3.570   7.452 -0.5289  0.5976 -0.3590
 5786SOL    HW128994   1.090   3.589   7.395 -0.7197  2.7043  0.1029
 5786SOL    HW228995   0.966   3.649   7.430  1.9692  2.1830 -0.2259
 5787SOL     OW28996   0.660   0.464   7.715  0.4222  0.0651  0.2589
 5787SOL    HW128997   0.689   0.396   7.776 -0.8938 -1.1005 -0.3991
 5787SOL    HW228998   0.605   0.516   7.773  0.2171  0.1769 -0.0361
 5788SOL     OW28999   2.949   1.316   5.852 -0.0190  0.1150  0.3205
 5788SOL    HW129000   2.974   1.249   5.916  1.2572 -0.0879 -0.4023
 5788SOL    HW229001   2.962   1.391   5.910 -0.2533 -0.0323  0.5660
 5789SOL     OW29002   4.443   4.464   1.736 -0.1141  0.0777  0.1011
 5789SOL    HW129003   4.363   4.459   1.683 -0.9868  1.6032  1.2716
 5789SOL    HW229004   4.415   4.394   1.796  2.1592 -1.4621 -0.6168
 5790SOL     OW29005   4.087   0.247  14.544  0.8813  0.0625 -0.2269
 5790SOL    HW129006   4.009   0.274  14.495 -0.7246 -3.1221  0.5805
 5790SOL    HW229007   4.093   0.155  14.519 -1.2299 -0.6488  1.8686
 5791SOL     OW29008   1.142   2.122   5.541  0.1040 -0.4658 -0.1044
 5791SOL    HW129009   1.237   2.111   5.539  0.1205 -0.5312  0.8686
 5791SOL    HW229010   1.108   2.058   5.603 -0.4276  0.0143  0.0976
 5792SOL     OW29011   2.503   1.231   4.198 -0.2233  0.0396  0.3436
 5792SOL    HW129012   2.569   1.165   4.216  1.9999  1.3587 -3.0353
 5792SOL    HW229013   2.542   1.292   4.135 -1.3836 -0.9167 -1.3075
 5793SOL     OW29014   0.358   1.169  15.576 -0.1934  0.2471  0.2038
 5793SOL    HW129015   0.282   1.129  15.535  0.6079 -0.4163 -0.6205
 5793SOL    HW229016   0.375   1.106  15.646 -0.0867 -0.2693 -0.2951
 5794SOL     OW29017   4.200   0.985   2.839  0.2678 -0.2785 -0.3308
 5794SOL    HW129018   4.206   1.075   2.868 -1.0348 -0.7387  1.3027
 5794SOL    HW229019   4.152   0.951   2.914  0.1980 -0.3211 -0.3948
 5795SOL     OW29020   4.581   0.264   6.917 -0.1307  0.3777  0.0210
 5795SOL    HW129021   4.491   0.233   6.920 -0.1558  0.5164  0.7937
 5795SOL    HW229022   4.606   0.234   6.830 -0.1297 -0.7405  0.4130
 5796SOL     OW29023   4.704   2.225   5.346 -0.0758  0.0367 -0.1164
 5796SOL    HW129024   0.028   2.179   5.405  0.2164 -0.0839 -0.5077
 5796SOL    HW229025   4.696   2.158   5.278 -3.0705 -0.3170  0.5764
 5797SOL     OW29026   0.671   0.204   5.139  0.0707 -0.5307 -0.1332
 5797SOL    HW129027   0.703   0.283   5.097 -0.3488 -0.4099 -0.2262
 5797SOL    HW229028   0.596   0.237   5.187 -1.9924 -0.8639 -3.1219
 5798SOL     OW29029   2.587   2.080   0.223  0.0432 -0.0546  0.0121
 5798SOL    HW129030   2.617   2.029   0.298  0.8790 -1.8241 -1.5471
 5798SOL    HW229031   2.605   2.170   0.252  2.1243 -1.0280  1.6736
 5799SOL     OW29032   0.074   1.539  16.118 -0.5659  0.1196  0.0794
 5799SOL    HW129033   0.082   1.460  16.065  1.3237  0.0721  0.4225
 5799SOL    HW229034   0.133   1.597  16.069  2.1402 -0.7103  2.3650
 5800SOL     OW29035   3.566   3.779   7.141 -0.2418 -0.3101 -0.5334
 5800SOL    HW129036   3.616   3.758   7.219  2.5889  0.5515 -2.0908
 5800SOL    HW229037   3.476   3.784   7.172 -0.3490 -2.1055 -0.5813
 5801SOL     OW29038   1.738   0.794   9.624  0.0995 -0.0808 -0.0035
 5801SOL    HW129039   1.733   0.830   9.712  2.3188 -3.2486  1.4495
 5801SOL    HW229040   1.647   0.764   9.618  0.6641 -1.7821 -0.0895
 5802SOL     OW29041   3.990   0.243  15.456  0.3542  0.1041  0.3665
 5802SOL    HW129042   3.894   0.246  15.465  0.1603 -2.6272 -0.9185
 5802SOL    HW229043   4.015   0.249  15.548 -2.4694  2.5880  0.9961
 5803SOL     OW29044   2.585   3.259   1.583  0.0035 -0.0994 -0.2515
 5803SOL    HW129045   2.590   3.194   1.512 -0.9581  1.3420 -1.6417
 5803SOL    HW229046   2.506   3.223   1.622  0.5713 -1.6979 -0.5658
 5804SOL     OW29047   0.965   4.538   1.756 -0.5597 -0.3535  0.0682
 5804SOL    HW129048   0.914   4.591   1.817  0.0599  1.1638 -0.7317
 5804SOL    HW229049   1.051   4.533   1.797 -0.4033 -1.6671 -0.3954
 5805SOL     OW29050   2.157   4.513   6.729  0.2084 -1.0187 -0.1134
 5805SOL    HW129051   2.234   4.570   6.718  1.1512 -2.2086  0.3338
 5805SOL    HW229052   2.078   4.562   6.708  0.2544 -1.0443 -0.3414
 5806SOL     OW29053   0.217   3.361  16.449 -0.6220  0.1679  0.5351
 5806SOL    HW129054   0.234   3.267  16.447  0.3088  0.3255  1.2858
 5806SOL    HW229055   0.134   3.363  16.400  1.0941 -2.2938 -2.5246
 5807SOL     OW29056   0.001   3.763   7.657 -0.2212 -0.1863  0.0673
 5807SOL    HW129057   0.039   3.800   7.577 -0.8703 -0.3900 -0.3329
 5807SOL    HW229058   4.672   3.827   7.685  1.6597  2.2584 -1.1639
 5808SOL     OW29059   4.700   2.846   8.906  0.2084  0.2040 -0.3114
 5808SOL    HW129060   0.052   2.884   8.914 -0.5144  1.3660  1.9832
 5808SOL    HW229061   4.652   2.923   8.935  0.4055  0.7567 -1.4433
 5809SOL     OW29062   0.902   1.598   0.930  0.5833  0.3274 -0.2861
 5809SOL    HW129063   0.873   1.594   0.839 -2.4423 -1.0335  0.7522
 5809SOL    HW229064   0.956   1.677   0.925 -1.8466  2.0391  0.4980
 5810SOL     OW29065   1.897   4.241   5.872  0.1459 -0.2299 -0.0404
 5810SOL    HW129066   1.982   4.199   5.858  0.6774  0.4199  1.2036
 5810SOL    HW229067   1.837   4.195   5.814  0.9679 -1.4751  0.1088
 5811SOL     OW29068   2.798   2.436  14.917 -0.7014 -0.4223  0.0160
 5811SOL    HW129069   2.840   2.519  14.940 -0.0831 -0.3589 -1.3524
 5811SOL    HW229070   2.857   2.377  14.964 -0.0726  0.0021 -0.2399
 5812SOL     OW29071   1.206   0.512   6.240  0.1339  0.5086  0.1870
 5812SOL    HW129072   1.157   0.575   6.187  1.0850  0.1352 -1.1387
 5812SOL    HW229073   1.152   0.434   6.228 -1.0713  1.3882 -0.1429
 5813SOL     OW29074   2.472   4.016   0.936  0.2565  0.5441 -0.5123
 5813SOL    HW129075   2.513   3.947   0.883 -0.9827 -1.2627  0.8579
 5813SOL    HW229076   2.549   4.062   0.969  1.0017 -2.0761  1.4434
 5814SOL     OW29077   4.278   1.844   5.666 -0.0017  0.1574 -0.0918
 5814SOL    HW129078   4.346   1.790   5.626 -0.1537 -0.1237  0.0358
 5814SOL    HW229079   4.325   1.927   5.657 -1.1422  0.8535  0.4187
 5815SOL     OW29080   0.871   4.445   9.180 -0.6046 -0.0284 -0.3777
 5815SOL    HW129081   0.922   4.364   9.179 -1.4931 -0.5826 -0.3306
 5815SOL    HW229082   0.813   4.418   9.251  4.0909 -2.0729  2.6987
 5816SOL     OW29083   4.491   4.206   4.505  0.7077 -0.4286 -0.1279
 5816SOL    HW129084   4.585   4.188   4.499  1.6195  2.9335  4.2713
 5816SOL    HW229085   4.472   4.189   4.597 -1.0799  0.1881 -0.3777
 5817SOL     OW29086   1.595   0.349   3.205  0.2715  0.3977  0.2532
 5817SOL    HW129087   1.631   0.336   3.117 -3.5567  2.6338 -1.6453
 5817SOL    HW229088   1.613   0.264   3.244 -1.6934  0.3694  1.1121
 5818SOL     OW29089   3.841   3.195   7.087 -0.0123 -0.5249  0.4108
 5818SOL    HW129090   3.899   3.190   7.012  1.1778 -0.3248  1.3120
 5818SOL    HW229091   3.816   3.288   7.083  2.2260 -0.0237 -1.4627
 5819SOL     OW29092   4.552   0.028   2.643  0.6805  0.1345  0.2148
 5819SOL    HW129093   4.473   0.079   2.661  1.3917  0.9605  0.9741
 5819SOL    HW229094   4.585   0.073   2.565  2.5615 -0.2344  0.7820
 5820SOL     OW29095   1.873   1.165   2.470 -0.1842  0.0085 -0.3699
 5820SOL    HW129096   1.823   1.242   2.498 -0.1242  0.7528 -2.2806
 5820SOL    HW229097   1.923   1.147   2.550 -0.7522  0.3773  0.0676
 5821SOL     OW29098   1.297   2.612  12.223  0.2228 -0.1714 -0.6887
 5821SOL    HW129099   1.272   2.520  12.224 -2.5242  0.5930  0.8399
 5821SOL    HW229100   1.381   2.595  12.179 -0.6863 -1.6837 -1.8597
 5822SOL     OW29101   3.925   3.574   4.500 -0.5913 -0.2799 -0.1157
 5822SOL    HW129102   3.986   3.500   4.499  1.2256  1.2381 -0.9879
 5822SOL    HW229103   3.851   3.517   4.522 -0.8067 -0.5944 -1.6877
 5823SOL     OW29104   1.985   3.256   7.546  0.3857  0.8794  0.2765
 5823SOL    HW129105   2.058   3.228   7.600 -0.7762  0.0693  1.4249
 5823SOL    HW229106   2.019   3.195   7.480 -2.3300 -0.7375  0.3500
 5824SOL     OW29107   2.957   1.036   5.337 -0.5587  0.6609  0.6076
 5824SOL    HW129108   3.004   1.089   5.401 -0.4699  2.0933 -0.6516
 5824SOL    HW229109   2.973   1.088   5.258  0.1938 -0.6006 -0.0744
 5825SOL     OW29110   0.849   2.511   4.352 -0.3945 -0.0380  0.6574
 5825SOL    HW129111   0.780   2.554   4.402  0.0683  0.0055  1.2545
 5825SOL    HW229112   0.797   2.434   4.328 -1.6810  1.0661 -0.0940
 5826SOL     OW29113   1.208   1.564   7.519  0.1322 -0.3026 -0.3999
 5826SOL    HW129114   1.284   1.579   7.575  0.8873  0.7138 -1.7220
 5826SOL    HW229115   1.199   1.651   7.482  0.2989 -1.1829 -2.4849
 5827SOL     OW29116   3.226   3.816  11.415  0.4180 -0.5414 -0.5745
 5827SOL    HW129117   3.195   3.815  11.324 -0.4821 -0.1483 -0.2748
 5827SOL    HW229118   3.320   3.801  11.405  0.6933  0.3203  0.6750
 5828SOL     OW29119   1.462   0.037   2.491 -0.0497 -0.1704  0.4622
 5828SOL    HW129120   1.466   0.032   2.396  1.2384 -4.2985  0.7259
 5828SOL    HW229121   1.369   0.049   2.510  0.1569  2.0588  0.0236
 5829SOL     OW29122   2.030   0.514   9.120  0.2450  0.4547 -0.7717
 5829SOL    HW129123   1.957   0.548   9.067 -1.4289 -1.2957  0.4082
 5829SOL    HW229124   2.097   0.580   9.106  0.9842  0.0156  0.6895
 5830SOL     OW29125   0.434   0.465  16.919  0.2434  0.4845 -0.1710
 5830SOL    HW129126   0.368   0.470  16.988 -0.5013 -0.0899 -0.8500
 5830SOL    HW229127   0.375   0.498  16.851 -1.1559  0.6868  1.1645
 5831SOL     OW29128   1.450   4.015   9.454 -0.0435  0.0368  0.1924
 5831SOL    HW129129   1.479   4.024   9.544 -1.0739  1.2392  0.4072
 5831SOL    HW229130   1.405   3.930   9.452  2.0318 -1.1097  1.7984
 5832SOL     OW29131   1.861   3.944  13.354 -0.1516 -0.0803  0.0144
 5832SOL    HW129132   1.865   3.900  13.269  1.3203  0.5311 -0.2250
 5832SOL    HW229133   1.806   3.887  13.408 -0.0423  0.5986  0.8486
 5833SOL     OW29134   2.308   1.363   6.414 -0.0330 -0.1586  0.5885
 5833SOL    HW129135   2.286   1.345   6.505  0.1499  3.5305  1.3640
 5833SOL    HW229136   2.368   1.438   6.415 -0.4739  0.2143 -0.3246
 5834SOL     OW29137   1.616   2.024   5.667 -0.1231 -0.6059  0.8679
 5834SOL    HW129138   1.605   2.053   5.757  0.4904 -1.3055  1.1729
 5834SOL    HW229139   1.703   1.985   5.674 -0.2871 -1.1213  0.1044
 5835SOL     OW29140   1.175   0.558   6.697 -0.1067 -0.5138 -0.3179
 5835SOL    HW129141   1.090   0.571   6.656 -2.1246  0.4819  4.1855
 5835SOL    HW229142   1.158   0.475   6.742 -2.2588  1.1498  1.8593
 5836SOL     OW29143   3.586   1.178   1.473  0.2888  0.1998  0.4807
 5836SOL    HW129144   3.565   1.242   1.541  1.6837  0.0937  1.0046
 5836SOL    HW229145   3.598   1.109   1.538 -0.1014  1.1860  1.6100
 5837SOL     OW29146   4.418   2.591   1.363  0.1921 -0.1295 -0.2105
 5837SOL    HW129147   4.514   2.594   1.361  0.3022 -2.7762  0.3798
 5837SOL    HW229148   4.404   2.504   1.400  0.4811  0.6238  1.6938
 5838SOL     OW29149   2.476   2.875   7.568 -0.3862 -0.2723  0.0589
 5838SOL    HW129150   2.481   2.944   7.502  1.8302 -0.9601 -0.4927
 5838SOL    HW229151   2.454   2.927   7.645 -1.7452 -1.3635  0.4129
 5839SOL     OW29152   0.241   3.484   2.882 -0.0737 -0.2098  0.6813
 5839SOL    HW129153   0.250   3.388   2.881 -1.6492 -0.3530 -0.3250
 5839SOL    HW229154   0.199   3.492   2.968 -1.8293 -0.4574 -0.1377
 5840SOL     OW29155   2.138   4.527  15.999  0.3320  0.5984  0.0008
 5840SOL    HW129156   2.112   4.618  16.011  0.6983  0.5991  0.7549
 5840SOL    HW229157   2.077   4.496  15.932 -0.5817  2.2620  0.0673
 5841SOL     OW29158   2.009   0.981  16.795 -0.5019 -0.1643  0.9115
 5841SOL    HW129159   1.980   1.061  16.840  1.8727  0.8256  0.6995
 5841SOL    HW229160   1.986   0.914  16.859 -2.0328 -0.8038 -0.3215
 5842SOL     OW29161   4.144   3.606  17.628 -0.2360 -0.4872 -0.6536
 5842SOL    HW129162   4.158   3.649  17.543 -1.6356 -0.6146 -0.9473
 5842SOL    HW229163   4.049   3.614  17.638 -0.1892  2.0247 -2.0826
 5843SOL     OW29164   3.585   0.594  10.279  0.4102  0.2241  0.1436
 5843SOL    HW129165   3.602   0.595  10.373  1.0909  0.7082  0.0160
 5843SOL    HW229166   3.670   0.560  10.250  0.3003 -0.7830  0.9904
 5844SOL     OW29167   1.032   2.118  16.528 -0.3385 -1.2349 -0.2371
 5844SOL    HW129168   0.988   2.091  16.609  2.1461 -0.4428  1.3784
 5844SOL    HW229169   1.125   2.102  16.543 -0.6127  0.0118  2.9237
 5845SOL     OW29170   4.588   2.719   0.413  0.5969  0.4756  0.6611
 5845SOL    HW129171   4.506   2.751   0.451  0.7572  2.3919 -0.6540
 5845SOL    HW229172   4.630   2.805   0.413  0.0822  0.7252 -0.5003
 5846SOL     OW29173   2.459   1.662   4.953 -0.2219  0.5779  0.4162
 5846SOL    HW129174   2.473   1.618   4.870 -3.0700  1.2450 -0.4264
 5846SOL    HW229175   2.419   1.590   5.002  1.9247 -0.7325  0.2307
 5847SOL     OW29176   2.827   2.153   5.618  0.4472 -0.0448  0.2454
 5847SOL    HW129177   2.833   2.125   5.526  0.8518 -0.3798  0.3760
 5847SOL    HW229178   2.741   2.197   5.623  0.7723  0.6566 -0.2344
 5848SOL     OW29179   3.600   1.004   1.682 -0.3081  0.0951 -0.1779
 5848SOL    HW129180   3.680   1.020   1.731 -1.2570 -0.0216  1.4088
 5848SOL    HW229181   3.620   0.912   1.664 -0.5944  0.5464 -2.9111
 5849SOL     OW29182   1.099   4.146  13.422  0.4346  0.5263  0.3519
 5849SOL    HW129183   1.147   4.210  13.369  2.8223 -0.5021  1.2532
 5849SOL    HW229184   1.073   4.079  13.359  0.3619  1.0777 -0.2046
 5850SOL     OW29185   2.317   4.604   5.979  0.6701 -0.2347  0.4774
 5850SOL    HW129186   2.369   4.684   5.992 -0.5683  0.7207 -0.4922
 5850SOL    HW229187   2.227   4.631   5.962  0.6429  0.0502  1.0641
 5851SOL     OW29188   2.478   3.530   6.538  0.0983  0.8013 -0.3457
 5851SOL    HW129189   2.400   3.503   6.489 -0.4930 -0.3050  1.1969
 5851SOL    HW229190   2.449   3.498   6.624 -2.2890  1.9684 -0.7246
 5852SOL     OW29191   3.194   1.386  17.146 -0.4897 -0.2748 -0.2614
 5852SOL    HW129192   3.244   1.305  17.141  1.0079  0.6184  0.4449
 5852SOL    HW229193   3.116   1.349  17.188  0.0290 -1.6563 -0.5301
 5853SOL     OW29194   2.709   3.791   2.799 -0.2295  0.6585  0.2290
 5853SOL    HW129195   2.788   3.825   2.841  0.6024  0.0794 -0.8710
 5853SOL    HW229196   2.720   3.826   2.711  0.4648  0.8642  0.3971
 5854SOL     OW29197   2.815   0.712   0.768 -0.2521  0.1540 -0.1727
 5854SOL    HW129198   2.838   0.651   0.838 -2.2542 -0.1545  0.2022
 5854SOL    HW229199   2.850   0.793   0.805 -2.5326 -0.0845  2.5123
 5855SOL     OW29200   2.304   4.063  11.025 -0.3950 -0.3951 -0.5419
 5855SOL    HW129201   2.313   3.981  11.073 -0.8248  0.0471  0.2952
 5855SOL    HW229202   2.213   4.090  11.036 -0.0819  0.4111  0.0389
 5856SOL     OW29203   3.824   1.750  12.949 -0.3938  0.1445  0.0295
 5856SOL    HW129204   3.734   1.728  12.975 -0.5138 -0.5894 -0.9955
 5856SOL    HW229205   3.857   1.743  13.039 -2.0122  0.6084  0.6606
 5857SOL     OW29206   1.157   3.339  11.151 -0.6963  0.4096 -0.4599
 5857SOL    HW129207   1.218   3.377  11.088  1.0569  0.6303  1.3601
 5857SOL    HW229208   1.219   3.298  11.212 -0.2608  0.2697 -0.9937
 5858SOL     OW29209   1.937   0.907   9.505 -0.3909 -0.0792 -1.1113
 5858SOL    HW129210   1.991   0.833   9.533 -2.0523 -0.9543 -0.1815
 5858SOL    HW229211   1.856   0.893   9.554 -0.0161 -2.6867 -1.2132
 5859SOL     OW29212   1.480   1.512   2.850 -0.0581 -0.6180  0.0466
 5859SOL    HW129213   1.477   1.584   2.787 -1.0596  1.1449  2.1146
 5859SOL    HW229214   1.449   1.560   2.927  0.5757  0.3716 -0.3127
 5860SOL     OW29215   0.181   1.430  16.770  0.3108  0.8512 -0.1855
 5860SOL    HW129216   0.186   1.363  16.702 -1.2680  0.3819  0.1423
 5860SOL    HW229217   0.182   1.509  16.718  2.1112  1.2335  0.4211
 5861SOL     OW29218   2.836   0.729   2.024 -0.2109 -0.6978  0.1294
 5861SOL    HW129219   2.892   0.722   2.102 -1.5722  1.3249  1.3025
 5861SOL    HW229220   2.746   0.721   2.057 -0.9066 -0.4807 -1.7522
 5862SOL     OW29221   1.255   1.654  17.197  0.1431  0.2229  0.6627
 5862SOL    HW129222   1.181   1.616  17.150 -0.1683  0.1891  1.1736
 5862SOL    HW229223   1.320   1.655  17.127 -0.7603  2.7973 -0.1209
 5863SOL     OW29224   2.056   0.710  16.655 -0.1066  0.4562  0.3401
 5863SOL    HW129225   1.982   0.650  16.645  0.4198 -0.3207  1.0859
 5863SOL    HW229226   2.022   0.756  16.731  1.1923 -0.2205  1.3396
 5864SOL     OW29227   2.581   3.574   7.861  0.6436 -0.2519 -0.2244
 5864SOL    HW129228   2.633   3.573   7.781  1.6547  0.6460  0.4143
 5864SOL    HW229229   2.639   3.602   7.932  0.2577  0.2700 -0.1125
 5865SOL     OW29230   2.598   4.616   4.036 -0.3014  0.5163 -0.1222
 5865SOL    HW129231   2.606   4.673   4.113 -2.2766  1.5471 -0.6838
 5865SOL    HW229232   2.668   4.649   3.980  0.2059 -2.2017 -1.0693
 5866SOL     OW29233   3.671   1.506   8.417 -0.3327  0.5444 -0.4933
 5866SOL    HW129234   3.695   1.417   8.443 -0.4261  0.9133  0.8504
 5866SOL    HW229235   3.612   1.527   8.490  0.8910 -0.4304  0.7796
 5867SOL     OW29236   4.453   1.571   8.891  0.1407 -0.3795 -0.4160
 5867SOL    HW129237   4.379   1.511   8.893 -0.4524  0.3094 -1.3651
 5867SOL    HW229238   4.490   1.543   8.975  1.3984 -0.5082 -1.0156
 5868SOL     OW29239   0.030   1.132   1.699 -0.0583  0.3139 -0.1652
 5868SOL    HW129240   4.680   1.153   1.663 -0.7515  0.6407  1.6669
 5868SOL    HW229241   0.081   1.197   1.652  0.1212  0.9853  0.9548
 5869SOL     OW29242   3.387   0.726   2.424 -0.3916  0.0539 -0.0997
 5869SOL    HW129243   3.450   0.663   2.388  0.0151 -0.0314  0.7542
 5869SOL    HW229244   3.343   0.761   2.347 -0.0567 -0.1217 -0.3699
 5870SOL     OW29245   0.246   1.990   2.300 -0.3464  0.7075 -0.3653
 5870SOL    HW129246   0.208   2.077   2.287 -1.4413  0.1734 -0.6964
 5870SOL    HW229247   0.195   1.971   2.378  0.0352  1.3038  0.0311
 5871SOL     OW29248   2.756   3.773   5.826  0.1079 -0.0819 -0.1024
 5871SOL    HW129249   2.850   3.776   5.808  0.5235 -1.9472  1.7226
 5871SOL    HW229250   2.727   3.855   5.786  0.5252  1.0139  1.8264
 5872SOL     OW29251   1.195   3.240   9.403 -0.7968 -0.2823  0.2221
 5872SOL    HW129252   1.234   3.239   9.490  0.6123  0.7184 -0.4090
 5872SOL    HW229253   1.215   3.320   9.354  0.6785 -0.4943  0.4828
 5873SOL     OW29254   0.119   2.876   4.023 -0.4052  0.4713  0.1425
 5873SOL    HW129255   0.088   2.820   3.952  0.3841  0.0610  0.1247
 5873SOL    HW229256   0.042   2.886   4.080 -1.5544  1.9511 -1.6452
 5874SOL     OW29257   3.918   0.576   3.681 -0.0902 -0.2744 -0.1882
 5874SOL    HW129258   3.870   0.554   3.760  0.8436  1.1366  0.7709
 5874SOL    HW229259   3.993   0.620   3.721  1.3662 -2.2579 -0.7114
 5875SOL     OW29260   2.382   0.707  15.627  0.8200  0.2846  0.2413
 5875SOL    HW129261   2.361   0.778  15.687  1.0586 -0.0297  0.7050
 5875SOL    HW229262   2.315   0.715  15.560 -1.2539 -0.3865  2.2289
 5876SOL     OW29263   0.563   4.136   5.867 -0.2568  0.2632 -0.0760
 5876SOL    HW129264   0.561   4.099   5.779 -0.0413  1.0518 -0.4155
 5876SOL    HW229265   0.580   4.057   5.918 -1.2864  0.4291  0.5403
 5877SOL     OW29266   1.606   4.312  10.243  0.0233 -0.8817  0.1440
 5877SOL    HW129267   1.674   4.363  10.198  0.0214  1.3324  2.6418
 5877SOL    HW229268   1.613   4.333  10.336 -1.0061 -0.5223  0.1349
 5878SOL     OW29269   3.409   0.293  10.598  0.4100 -0.5923 -0.2398
 5878SOL    HW129270   3.460   0.306  10.518  0.9397  0.0702  0.2067
 5878SOL    HW229271   3.449   0.351  10.664 -2.3072 -0.4447  1.2906
 5879SOL     OW29272   3.436   1.524   3.591 -0.0434  0.5656 -0.1960
 5879SOL    HW129273   3.356   1.521   3.539 -0.4766  0.3944  0.4920
 5879SOL    HW229274   3.480   1.603   3.559 -0.7070  1.3448  0.8423
 5880SOL     OW29275   2.132   3.100   1.651 -0.0734 -0.0801 -0.3268
 5880SOL    HW129276   2.215   3.127   1.611  0.2415 -0.4062  0.1088
 5880SOL    HW229277   2.161   3.104   1.742  0.6102 -0.3402 -0.5384
 5881SOL     OW29278   4.183   0.474   2.668  0.6501 -0.1848  0.7040
 5881SOL    HW129279   4.228   0.453   2.587 -2.2893 -1.7918 -0.5421
 5881SOL    HW229280   4.108   0.414   2.666  0.3954  0.1681 -0.4542
 5882SOL     OW29281   3.688   3.202   4.738  0.1908 -0.0462 -0.3242
 5882SOL    HW129282   3.726   3.189   4.651  0.8448 -2.4929  0.3204
 5882SOL    HW229283   3.657   3.113   4.752 -2.8944  1.2980  1.4075
 5883SOL     OW29284   1.981   2.187   4.979 -0.1644 -0.4462 -0.1170
 5883SOL    HW129285   1.933   2.215   4.902  1.7970 -0.5400 -1.3854
 5883SOL    HW229286   1.959   2.094   4.977  1.1883 -0.7385 -1.4242
 5884SOL     OW29287   4.422   4.402   9.079  0.1169 -0.0212 -0.0752
 5884SOL    HW129288   4.455   4.316   9.050  0.1994 -0.2408  0.6746
 5884SOL    HW229289   4.431   4.457   9.001  1.8704 -0.4176 -0.1476
 5885SOL     OW29290   3.881   2.438   0.522 -0.2508  0.6387 -0.1847
 5885SOL    HW129291   3.864   2.487   0.602  3.0792  0.7444  0.4767
 5885SOL    HW229292   3.819   2.468   0.455  0.6397 -0.9623 -1.7147
 5886SOL     OW29293   4.669   3.840   6.792 -0.5973  0.2439  0.0022
 5886SOL    HW129294   4.706   3.833   6.704 -1.2793  1.9942 -0.4285
 5886SOL    HW229295   4.720   3.915   6.822  0.5498 -0.6293  0.2310
 5887SOL     OW29296   0.065   4.026   9.370 -0.3627  0.8841  0.3145
 5887SOL    HW129297   0.077   4.105   9.317  2.0439 -0.1062 -0.6199
 5887SOL    HW229298   4.716   4.036   9.411  0.7014  1.8588  2.2949
 5888SOL     OW29299   1.358   4.129  10.290  0.2504  0.2530 -0.1435
 5888SOL    HW129300   1.419   4.199  10.314 -0.8271  1.1479 -0.0384
 5888SOL    HW229301   1.279   4.180  10.275 -0.6087 -0.9852  0.2353
 5889SOL     OW29302   1.683   4.018   0.069  0.7697  0.1880 -0.3387
 5889SOL    HW129303   1.613   4.077   0.098 -1.7030 -2.5256 -0.8283
 5889SOL    HW229304   1.671   3.946   0.130 -1.2323 -0.1333 -1.1024
 5890SOL     OW29305   4.012   1.889   3.998  0.0072  0.0689 -0.1878
 5890SOL    HW129306   3.959   1.928   4.067 -0.9440 -1.9680  0.2531
 5890SOL    HW229307   4.075   1.956   3.972 -0.3806  0.9270  1.1082
 5891SOL     OW29308   1.078   2.654   3.977  0.4270  0.2115  0.4807
 5891SOL    HW129309   1.092   2.748   3.968 -2.9270  0.6084 -0.9616
 5891SOL    HW229310   1.099   2.656   4.070 -1.8750 -0.9537  1.0440
 5892SOL     OW29311   1.969   0.825   8.870 -0.0808 -0.3763  0.3616
 5892SOL    HW129312   1.998   0.896   8.812  2.8478 -1.1975  0.8181
 5892SOL    HW229313   2.047   0.785   8.908  0.1982  1.4234  1.6843
 5893SOL     OW29314   4.488   3.689   8.444 -0.2328  0.0457  0.4725
 5893SOL    HW129315   4.474   3.636   8.366 -0.0581  0.5783  0.0853
 5893SOL    HW229316   4.567   3.740   8.428 -0.4400 -0.0685 -0.8731
 5894SOL     OW29317   4.096   4.706   9.298 -0.5358  0.0558 -0.9340
 5894SOL    HW129318   4.131   0.040   9.353  0.8919 -0.0536 -1.7001
 5894SOL    HW229319   4.178   4.671   9.263 -0.7041 -0.9032 -0.3860
 5895SOL     OW29320   0.572   1.117   7.409  0.2808 -0.3578 -0.7403
 5895SOL    HW129321   0.546   1.044   7.465 -1.3175 -0.1677 -1.2255
 5895SOL    HW229322   0.492   1.168   7.393  1.8692  2.2684 -0.3147
 5896SOL     OW29323   3.072   0.706   9.004  0.2694  0.3245  0.0658
 5896SOL    HW129324   3.070   0.715   9.100 -0.2429  1.7558 -0.0836
 5896SOL    HW229325   2.980   0.730   8.987  0.1541 -2.1668 -2.6771
 5897SOL     OW29326   3.628   2.928  15.813  0.3572  0.0554 -0.0578
 5897SOL    HW129327   3.619   2.862  15.745  1.2583  0.2641 -0.3878
 5897SOL    HW229328   3.704   2.979  15.783  3.3838 -3.3377  1.8273
 5898SOL     OW29329   4.321   0.818   1.633  0.1211 -0.2479 -0.4908
 5898SOL    HW129330   4.410   0.829   1.599  0.8951 -0.6897  1.3634
 5898SOL    HW229331   4.289   0.768   1.559  0.1422 -2.1728  0.7934
 5899SOL     OW29332   1.850   3.327   1.409  0.0031  0.0778 -0.7703
 5899SOL    HW129333   1.825   3.377   1.331  0.7956 -0.0907 -1.1345
 5899SOL    HW229334   1.776   3.267   1.417 -0.4446  0.9631  1.8023
 5900SOL     OW29335   2.519   0.968  17.317  0.1489  0.0512  0.4290
 5900SOL    HW129336   2.448   1.029  17.297 -1.6432 -2.8592 -2.1575
 5900SOL    HW229337   2.559   0.963  17.230 -2.9990 -4.3162 -0.7759
 5901SOL     OW29338   1.669   4.004   8.743 -0.6674 -0.2682  0.3081
 5901SOL    HW129339   1.608   4.070   8.775  2.3034  2.3874  0.4749
 5901SOL    HW229340   1.742   4.035   8.796 -0.5371  0.4110 -0.2642
 5902SOL     OW29341   1.106   4.107   6.100 -0.2966  0.9028 -0.3307
 5902SOL    HW129342   1.018   4.107   6.062 -0.5814  0.7456  0.3123
 5902SOL    HW229343   1.152   4.080   6.021 -2.3596  0.9155 -1.5167
 5903SOL     OW29344   0.345   2.393  16.800  0.0282  0.3117 -0.3510
 5903SOL    HW129345   0.271   2.401  16.739  0.6418  2.2008 -0.8657
 5903SOL    HW229346   0.346   2.298  16.800 -1.1926  0.2986 -0.6667
 5904SOL     OW29347   1.084   4.237   9.283  0.2304  0.2578 -0.7675
 5904SOL    HW129348   1.144   4.219   9.211  0.7956 -4.2323  0.8253
 5904SOL    HW229349   1.025   4.161   9.279  1.2415 -0.5932  0.4325
 5905SOL     OW29350   3.040   0.052  16.793  0.2282 -0.0857  0.0402
 5905SOL    HW129351   3.131   0.062  16.822 -0.2000 -0.0314  1.3902
 5905SOL    HW229352   3.042   0.103  16.712  0.3631 -1.2477 -0.6827
 5906SOL     OW29353   3.207   0.428   3.361  0.0227  0.1308  0.5015
 5906SOL    HW129354   3.178   0.343   3.392 -0.9696  0.6905  1.1297
 5906SOL    HW229355   3.266   0.403   3.291  0.0048 -1.5779  1.0998
 5907SOL     OW29356   4.231   3.188   8.401  0.1240  0.3924  0.2181
 5907SOL    HW129357   4.184   3.267   8.376  0.6355  0.7103  0.2684
 5907SOL    HW229358   4.161   3.152   8.456  0.0933 -0.6039 -0.4807
 5908SOL     OW29359   1.851   3.508   2.731 -0.3330  0.3708 -0.2469
 5908SOL    HW129360   1.809   3.499   2.645 -2.2204  2.3054  0.4634
 5908SOL    HW229361   1.787   3.460   2.785 -0.2610  0.1095 -0.3914
 5909SOL     OW29362   2.024   2.815  16.592  0.0517 -0.3353 -0.6238
 5909SOL    HW129363   1.951   2.837  16.534  1.0443  2.5551 -0.8082
 5909SOL    HW229364   2.010   2.721  16.600  2.4824 -0.5009  1.7310
 5910SOL     OW29365   3.333   1.130   2.405  0.2069 -0.4859  0.0207
 5910SOL    HW129366   3.340   1.079   2.486 -0.1666  0.6629  0.7771
 5910SOL    HW229367   3.336   1.069   2.331 -0.7741  0.3336 -0.6970
 5911SOL     OW29368   2.775   2.778  10.607 -0.6307  0.4632  0.1308
 5911SOL    HW129369   2.775   2.698  10.554  4.3071  0.7589 -0.2761
 5911SOL    HW229370   2.845   2.760  10.669  1.4489 -0.4474 -2.5023
 5912SOL     OW29371   4.135   3.833   6.579 -0.1482 -0.3890  0.0454
 5912SOL    HW129372   4.182   3.801   6.657  1.6649 -1.1037 -1.3433
 5912SOL    HW229373   4.158   3.926   6.585  0.1267 -0.3989 -0.8874
 5913SOL     OW29374   1.018   0.918   6.432 -0.1161 -0.1007  0.5076
 5913SOL    HW129375   1.018   1.013   6.431 -1.4083 -0.0768  1.7165
 5913SOL    HW229376   1.106   0.898   6.401 -0.6349  0.9359 -1.6043
 5914SOL     OW29377   0.815   2.833   4.483  0.0243  0.1776  0.0954
 5914SOL    HW129378   0.762   2.772   4.431  1.2118 -1.2391  0.5333
 5914SOL    HW229379   0.752   2.868   4.545 -0.2712  0.0181 -0.1129
 5915SOL     OW29380   0.241   2.810   6.743 -0.2540  0.6666 -0.3594
 5915SOL    HW129381   0.202   2.807   6.830 -0.0830  0.0889 -0.3038
 5915SOL    HW229382   0.188   2.873   6.694 -0.7445 -0.0103 -0.6946
 5916SOL     OW29383   0.905   2.431  14.762 -0.0320  0.4415  0.0746
 5916SOL    HW129384   0.980   2.374  14.750 -0.9623 -1.0607  1.3012
 5916SOL    HW229385   0.881   2.449  14.671 -0.8046  0.5886  0.3012
 5917SOL     OW29386   1.498   4.428   6.572  0.1132  0.2786  0.3997
 5917SOL    HW129387   1.566   4.379   6.618 -2.1127 -1.0960  2.2245
 5917SOL    HW229388   1.425   4.423   6.634  0.2401  0.5284  0.5725
 5918SOL     OW29389   0.269   4.145  16.770  0.1021  0.1625  0.5910
 5918SOL    HW129390   0.266   4.201  16.692  1.1705 -0.7593 -0.1205
 5918SOL    HW229391   0.227   4.064  16.741  0.1422  0.0205  0.9312
 5919SOL     OW29392   0.009   1.520   7.422 -0.3079 -0.1665  0.5236
 5919SOL    HW129393   4.681   1.591   7.414  1.3138  1.5352  2.7686
 5919SOL    HW229394   4.727   1.517   7.516  2.4915  0.0555  1.0639
 5920SOL     OW29395   3.368   2.935   7.204 -0.4731 -0.5891  0.2033
 5920SOL    HW129396   3.403   2.854   7.241  0.6055 -0.3750 -0.3293
 5920SOL    HW229397   3.401   2.926   7.115 -2.1482  0.2038 -0.5041
 5921SOL     OW29398   2.839   0.841  13.107 -0.0315  0.6200  0.0289
 5921SOL    HW129399   2.870   0.917  13.058  1.4180 -1.2214 -1.9005
 5921SOL    HW229400   2.866   0.861  13.197 -2.6705 -1.3677  1.2576
 5922SOL     OW29401   0.642   1.145   6.582 -0.6900  0.0339 -0.1574
 5922SOL    HW129402   0.569   1.206   6.576  0.2536  1.1234 -0.7276
 5922SOL    HW229403   0.607   1.056   6.576  0.9385 -0.7385  1.7741
 5923SOL     OW29404   3.393   0.616  13.594  0.1339 -0.0483  1.1338
 5923SOL    HW129405   3.308   0.584  13.624 -0.3055  0.1416  0.0867
 5923SOL    HW229406   3.402   0.549  13.526  0.5278  1.0885  0.0766
 5924SOL     OW29407   0.278   0.790   9.457 -0.0206  0.5657  0.0281
 5924SOL    HW129408   0.237   0.704   9.445  0.6616  0.6444 -2.7188
 5924SOL    HW229409   0.250   0.802   9.548  1.2112 -0.4456  0.5530
 5925SOL     OW29410   4.576   3.696   7.210 -0.4816 -0.1215 -0.4125
 5925SOL    HW129411   4.494   3.649   7.226  1.1928 -2.6368  0.7983
 5925SOL    HW229412   4.559   3.788   7.230 -1.0433  0.0895 -1.8191
 5926SOL     OW29413   0.651   0.860   2.878  0.1730 -0.1780 -0.3506
 5926SOL    HW129414   0.568   0.846   2.924  0.4896  1.7324  0.8474
 5926SOL    HW229415   0.655   0.954   2.897 -0.2264  0.1827 -2.1037
 5927SOL     OW29416   3.422   0.687   5.356 -1.0597 -0.6278  0.2584
 5927SOL    HW129417   3.398   0.769   5.312  2.2860 -0.1188 -0.6245
 5927SOL    HW229418   3.517   0.702   5.362 -1.1582 -0.7513  2.3505
 5928SOL     OW29419   3.139   1.357   1.376 -0.6311 -0.6224 -0.4519
 5928SOL    HW129420   3.121   1.289   1.441 -0.9381 -1.5129 -1.4691
 5928SOL    HW229421   3.065   1.325   1.324  0.0832 -0.6575 -1.4374
 5929SOL     OW29422   1.117   2.223  15.519  0.2802  0.1725 -0.4953
 5929SOL    HW129423   1.057   2.250  15.449  1.3841 -1.0957 -1.9450
 5929SOL    HW229424   1.162   2.148  15.480  1.5771  0.2500  0.8753
 5930SOL     OW29425   1.074   0.364   1.953  0.0898  0.3696  0.2929
 5930SOL    HW129426   0.994   0.403   1.917  1.6028  1.3214 -2.0734
 5930SOL    HW229427   1.133   0.383   1.880  4.1032 -1.4127  3.1265
 5931SOL     OW29428   4.706   2.496   7.542  0.1621  0.3762  0.8059
 5931SOL    HW129429   4.621   2.533   7.565 -0.4388 -1.0829  0.9166
 5931SOL    HW229430   4.711   2.541   7.458  1.3804 -0.1681  0.5789
 5932SOL     OW29431   3.483   0.553  16.584 -0.5965  0.0556  0.3916
 5932SOL    HW129432   3.491   0.615  16.511 -2.1796  0.7682  0.8383
 5932SOL    HW229433   3.566   0.505  16.580 -1.1720 -0.9393  0.2556
 5933SOL     OW29434   1.260   1.503   6.437 -0.2191  0.2938  0.4827
 5933SOL    HW129435   1.193   1.569   6.420  1.0030  1.6785  0.9164
 5933SOL    HW229436   1.249   1.449   6.359  1.2191 -0.7657  1.0209
 5934SOL     OW29437   4.164   1.624  11.302  0.0459  0.2184 -0.5660
 5934SOL    HW129438   4.237   1.568  11.277 -1.1881 -1.4839 -0.3550
 5934SOL    HW229439   4.198   1.676  11.375  1.1283  0.6333 -1.3702
 5935SOL     OW29440   1.595   1.107   4.385 -0.0029  0.7032  0.3833
 5935SOL    HW129441   1.686   1.086   4.403  0.5155  1.5413 -1.2190
 5935SOL    HW229442   1.597   1.073   4.295 -1.2642  0.3398  0.4947
 5936SOL     OW29443   1.442   4.636   1.844  0.5830 -0.0783  0.2675
 5936SOL    HW129444   1.376   4.693   1.805  0.4029  0.5240  1.4519
 5936SOL    HW229445   1.515   4.697   1.853  0.1328  0.7309 -1.5452
 5937SOL     OW29446   3.122   0.961  17.277 -0.6799 -0.9806 -0.0744
 5937SOL    HW129447   3.163   1.036  17.234  0.7896 -1.5364  0.3655
 5937SOL    HW229448   3.050   0.942  17.216 -1.2772 -0.2604  0.4000
 5938SOL     OW29449   2.633   1.330   2.813 -0.3005  0.0072  0.2234
 5938SOL    HW129450   2.683   1.296   2.887 -1.0372 -1.9523 -0.1622
 5938SOL    HW229451   2.682   1.400   2.771  1.8587 -2.8492 -2.0555
 5939SOL     OW29452   2.672   1.229   0.214  0.0640 -0.5212 -0.2873
 5939SOL    HW129453   2.593   1.244   0.162  0.8726  0.8001 -1.1379
 5939SOL    HW229454   2.744   1.254   0.156  0.3284  0.8538  0.6294
 5940SOL     OW29455   4.375   2.252  14.341 -0.7671 -0.2141 -0.9707
 5940SOL    HW129456   4.386   2.312  14.415 -1.0925 -2.8883  1.2295
 5940SOL    HW229457   4.279   2.249  14.334 -0.9922  0.5101  1.6448
 5941SOL     OW29458   1.475   2.827   5.290  0.3666 -0.2717  0.2865
 5941SOL    HW129459   1.443   2.759   5.231 -0.4112 -0.2792  0.7124
 5941SOL    HW229460   1.556   2.797   5.329  0.0602  0.8945  1.7936
 5942SOL     OW29461   4.151   1.926  15.151 -0.6473  0.6199  0.1544
 5942SOL    HW129462   4.085   1.958  15.213  0.0306  2.1277  0.1034
 5942SOL    HW229463   4.103   1.941  15.070  1.7280  1.5802 -1.0644
 5943SOL     OW29464   0.160   2.722   5.467 -0.6072  0.0094  0.2060
 5943SOL    HW129465   0.120   2.637   5.486  0.4718 -0.2314  1.4719
 5943SOL    HW229466   0.216   2.701   5.392  1.7100  2.8183  1.1421
 5944SOL     OW29467   0.573   2.091   9.759 -0.1504  0.0070 -0.0934
 5944SOL    HW129468   0.608   2.171   9.798  1.9569 -0.7593 -0.4403
 5944SOL    HW229469   0.538   2.135   9.681 -2.0038 -0.1140  0.6757
 5945SOL     OW29470   4.327   4.360   6.736 -0.0411 -0.0238  0.0884
 5945SOL    HW129471   4.313   4.414   6.814  0.3492 -1.1566  0.9400
 5945SOL    HW229472   4.421   4.344   6.749 -0.0254  0.2731  0.3540
 5946SOL     OW29473   3.292   0.790   5.924 -0.6312  0.3485 -0.0148
 5946SOL    HW129474   3.353   0.763   5.855  0.4983  0.6346  0.8741
 5946SOL    HW229475   3.310   0.883   5.909  0.8773  0.3192  1.5620
 5947SOL     OW29476   4.612   0.410   8.137  0.5927 -0.0528 -0.3593
 5947SOL    HW129477   4.610   0.504   8.150  1.7637 -0.5425  3.4609
 5947SOL    HW229478   4.651   0.386   8.221  0.2979  0.9637  0.0650
 5948SOL     OW29479   3.712   0.507   8.034 -0.4954 -0.0936 -0.1211
 5948SOL    HW129480   3.677   0.567   8.100  1.4978 -0.7389  1.5044
 5948SOL    HW229481   3.803   0.533   8.025 -0.0350 -1.9683 -0.8059
 5949SOL     OW29482   4.072   1.281  15.117 -0.3652 -0.1525 -0.1028
 5949SOL    HW129483   4.020   1.286  15.197 -0.7559 -1.0579 -0.2951
 5949SOL    HW229484   4.030   1.205  15.076  1.5361 -1.4756  0.4217
 5950SOL     OW29485   4.387   3.816  10.915  0.6351  0.3859  0.1425
 5950SOL    HW129486   4.416   3.766  10.991  2.1341 -0.4717 -0.9836
 5950SOL    HW229487   4.380   3.749  10.847 -0.5582 -1.8409  2.4839
 5951SOL     OW29488   1.583   0.312   9.943 -0.4508 -0.0751 -0.1265
 5951SOL    HW129489   1.646   0.374   9.905 -0.1343  0.1081  0.7040
 5951SOL    HW229490   1.627   0.227   9.949 -1.1687 -0.5810 -2.0455
 5952SOL     OW29491   3.502   0.534  10.805  0.4635 -0.2951 -0.1621
 5952SOL    HW129492   3.472   0.466  10.865 -0.3738  3.5593  3.8573
 5952SOL    HW229493   3.502   0.604  10.870 -1.2670 -0.3738 -0.0854
 5953SOL     OW29494   1.469   0.143  15.994  0.3246  0.2401 -0.1688
 5953SOL    HW129495   1.418   0.084  16.049 -0.3197 -1.9814 -3.1500
 5953SOL    HW229496   1.484   0.215  16.057  0.9655  0.3654 -0.4669
 5954SOL     OW29497   2.181   0.768   3.261 -0.2085  0.2372 -0.0174
 5954SOL    HW129498   2.151   0.721   3.183 -0.8349 -0.1280  0.4438
 5954SOL    HW229499   2.270   0.733   3.262 -0.9609 -1.6231  2.0072
 5955SOL     OW29500   2.550   1.416  14.214  0.0845  0.7009 -0.3320
 5955SOL    HW129501   2.530   1.438  14.305 -0.7618  0.4895 -0.4663
 5955SOL    HW229502   2.644   1.433  14.210 -0.0686  2.2470  2.6326
 5956SOL     OW29503   4.289   1.220   8.142  1.0744  0.1486  0.1358
 5956SOL    HW129504   4.325   1.272   8.070 -1.5974  1.7463 -0.0382
 5956SOL    HW229505   4.362   1.159   8.155  0.0510 -1.0975 -0.0087
 5957SOL     OW29506   2.615   0.785  12.966 -0.3327 -0.6333 -0.0814
 5957SOL    HW129507   2.617   0.690  12.955  0.9057 -0.5366 -0.7380
 5957SOL    HW229508   2.688   0.803  13.026 -1.4172 -1.6040  1.5171
 5958SOL     OW29509   4.179   1.119  17.335 -0.3376 -0.1544 -0.4478
 5958SOL    HW129510   4.117   1.072  17.391 -0.3244 -0.3936 -0.6290
 5958SOL    HW229511   4.256   1.121  17.391 -0.5634  1.3176 -0.2006
 5959SOL     OW29512   2.768   3.594   1.366  0.4874  0.1079  0.3455
 5959SOL    HW129513   2.677   3.599   1.336  1.3520  1.7323 -2.0446
 5959SOL    HW229514   2.778   3.683   1.398  0.2305  0.4025 -0.3771
 5960SOL     OW29515   4.011   0.703   7.656  0.0162 -0.0978 -0.0507
 5960SOL    HW129516   3.976   0.614   7.653 -0.1393 -0.0638  0.8380
 5960SOL    HW229517   4.101   0.674   7.672  0.0656 -0.9609 -1.8741
 5961SOL     OW29518   4.270   0.651   6.033 -0.0957  0.3119 -0.1750
 5961SOL    HW129519   4.352   0.645   5.984 -0.3715 -0.4121 -0.5548
 5961SOL    HW229520   4.224   0.716   5.980 -1.7198 -0.8828 -0.2366
 5962SOL     OW29521   2.585   2.020   2.143  0.2999  0.2086  0.7317
 5962SOL    HW129522   2.635   2.036   2.062 -1.0799 -1.5626 -0.4892
 5962SOL    HW229523   2.647   2.050   2.209  1.3541  0.7637 -0.5055
 5963SOL     OW29524   1.127   1.152   9.400  0.1469  0.4381  0.5345
 5963SOL    HW129525   1.146   1.111   9.316 -2.4581  1.1237 -0.4043
 5963SOL    HW229526   1.165   1.240   9.408  0.2162  0.4481  0.0483
 5964SOL     OW29527   1.897   2.851   1.614  0.1412  0.0707  0.2806
 5964SOL    HW129528   1.986   2.885   1.607  0.4105 -0.7975 -0.5183
 5964SOL    HW229529   1.921   2.793   1.687 -3.5363 -3.8057 -1.6285
 5965SOL     OW29530   3.670   1.415   5.186  0.1919  0.8268 -0.2857
 5965SOL    HW129531   3.737   1.347   5.193 -2.2073 -1.2488  2.3626
 5965SOL    HW229532   3.613   1.361   5.133 -0.5889 -0.6537  2.0490
 5966SOL     OW29533   0.072   0.198   3.974  0.3750 -0.0090  0.0651
 5966SOL    HW129534   0.088   0.213   4.067 -2.0452  1.9062  0.1626
 5966SOL    HW229535   0.070   0.102   3.978  0.4613 -0.2076 -4.2266
 5967SOL     OW29536   3.915   0.478   6.236 -0.3919  0.3064 -0.8709
 5967SOL    HW129537   3.890   0.386   6.223  0.8457  0.0409 -1.3042
 5967SOL    HW229538   3.935   0.484   6.330 -1.9271  1.7155 -0.6404
 5968SOL     OW29539   3.164   4.345  15.946  0.3469 -0.7310 -0.5122
 5968SOL    HW129540   3.257   4.365  15.959 -0.4164  2.0731  0.7008
 5968SOL    HW229541   3.161   4.255  15.915  1.4774 -1.3617  1.1953
 5969SOL     OW29542   1.197   4.243  16.626 -0.1283  0.3759 -0.2540
 5969SOL    HW129543   1.109   4.248  16.589 -0.2229 -1.9374 -0.3259
 5969SOL    HW229544   1.212   4.150  16.639 -0.8263  0.1892 -0.7857
 5970SOL     OW29545   4.454   3.843  13.275 -0.0082  0.5782 -0.0011
 5970SOL    HW129546   4.418   3.919  13.229 -2.1644  0.0063  0.7472
 5970SOL    HW229547   4.542   3.877  13.287  0.2671  0.5633 -1.9047
 5971SOL     OW29548   2.001   4.042   1.296 -0.1886  0.4983 -0.1374
 5971SOL    HW129549   1.914   4.006   1.311  0.3553  0.0812  1.8960
 5971SOL    HW229550   2.044   3.971   1.248 -0.7120 -1.2105  1.9784
 5972SOL     OW29551   1.920   3.055   8.496 -0.0116 -0.4650 -0.0725
 5972SOL    HW129552   1.940   2.984   8.436 -0.0782 -1.7413  1.4192
 5972SOL    HW229553   1.986   3.115   8.460 -0.9555  0.2513 -0.6276
 5973SOL     OW29554   4.559   3.642  16.549 -0.1790  0.1930  0.6309
 5973SOL    HW129555   4.483   3.673  16.500  0.6648  2.8171  0.9561
 5973SOL    HW229556   4.621   3.668  16.481 -0.6360  1.6755  0.7822
 5974SOL     OW29557   0.402   3.551   1.598  0.2268 -0.4762 -0.3407
 5974SOL    HW129558   0.358   3.492   1.658 -0.6473 -2.1031 -2.5680
 5974SOL    HW229559   0.337   3.569   1.530 -1.3594  0.8427  1.5467
 5975SOL     OW29560   0.289   3.165   7.508  0.7341 -0.4799 -0.1589
 5975SOL    HW129561   0.328   3.145   7.423  4.4710  1.4303  1.1003
 5975SOL    HW229562   0.315   3.256   7.524 -2.8131  0.8139 -1.7764
 5976SOL     OW29563   1.142   4.028   6.524  0.5196  0.6893 -0.1175
 5976SOL    HW129564   1.135   4.097   6.458 -2.3665 -0.9515 -1.5263
 5976SOL    HW229565   1.135   3.950   6.470  2.6732  0.9571 -0.7658
 5977SOL     OW29566   1.615   1.329   4.759  0.2684  0.2550 -0.3739
 5977SOL    HW129567   1.698   1.321   4.711  1.2547  2.0376  1.0427
 5977SOL    HW229568   1.561   1.340   4.681  2.4824  0.1354 -1.9399
 5978SOL     OW29569   1.704   4.293   5.418  0.2554 -0.1308  0.6620
 5978SOL    HW129570   1.751   4.214   5.391 -1.4800 -0.2733 -1.9410
 5978SOL    HW229571   1.711   4.333   5.331 -1.0121 -2.5209 -0.5590
 5979SOL     OW29572   0.341   3.494   8.723  0.2067 -0.2403  0.0941
 5979SOL    HW129573   0.267   3.434   8.729 -1.9995  2.7673  2.6348
 5979SOL    HW229574   0.344   3.507   8.628 -0.1205 -1.6046 -0.1023
 5980SOL     OW29575   3.161   1.367  17.493  0.1199  0.5127  0.7340
 5980SOL    HW129576   3.123   1.419  17.423  0.6931 -0.8947 -0.6148
 5980SOL    HW229577   3.112   1.288  17.471 -0.8634  0.8999  1.5211
 5981SOL     OW29578   4.623   0.945   4.350  0.3920 -0.5708  0.0289
 5981SOL    HW129579   4.701   0.998   4.334 -2.8408  4.5818  1.2404
 5981SOL    HW229580   4.571   0.972   4.274 -1.3720  0.8731  1.7556
 5982SOL     OW29581   1.356   0.403  15.283  0.3838 -0.0902 -0.4573
 5982SOL    HW129582   1.451   0.404  15.274  0.6671  0.7453  2.4886
 5982SOL    HW229583   1.343   0.493  15.253  1.2824 -0.4265 -1.8212
 5983SOL     OW29584   2.012   2.547  16.606 -0.0861 -0.2107  0.2962
 5983SOL    HW129585   2.098   2.507  16.596 -0.0317 -0.1717  0.6267
 5983SOL    HW229586   1.975   2.509  16.526  1.0380 -0.0659 -0.2925
 5984SOL     OW29587   2.779   3.406   8.590 -0.4451  0.1966  0.0891
 5984SOL    HW129588   2.782   3.355   8.509  0.3183  0.7559 -0.2264
 5984SOL    HW229589   2.817   3.347   8.656  0.7053  0.0854 -0.6735
 5985SOL     OW29590   1.315   1.830   9.086 -0.2291  0.3775 -0.3547
 5985SOL    HW129591   1.273   1.791   9.163 -0.1730 -0.4558 -0.7449
 5985SOL    HW229592   1.251   1.833   9.015 -0.6463  2.6915  0.1043
 5986SOL     OW29593   3.150   0.267   6.791  0.4322 -0.1192  0.8199
 5986SOL    HW129594   3.199   0.276   6.709 -0.4806  0.7628  0.3571
 5986SOL    HW229595   3.121   0.358   6.802 -0.1608 -0.2266  0.1757
 5987SOL     OW29596   2.553   3.516   5.700  0.4326 -0.1230  0.0604
 5987SOL    HW129597   2.584   3.526   5.790  0.8754 -2.5958  0.1892
 5987SOL    HW229598   2.493   3.588   5.686  1.2447  0.4503 -0.4667
 5988SOL     OW29599   4.347   1.627  12.631  0.1892  0.1577  0.0261
 5988SOL    HW129600   4.381   1.606  12.718  0.2016 -0.0854 -0.0356
 5988SOL    HW229601   4.278   1.562  12.619 -1.3996  1.5520  1.6892
 5989SOL     OW29602   3.237   1.785   3.965 -0.3310 -0.1260 -0.5382
 5989SOL    HW129603   3.152   1.761   4.001 -0.5849  0.7598 -0.5485
 5989SOL    HW229604   3.287   1.713   4.005  0.6888 -1.0078 -3.4470
 5990SOL     OW29605   4.029   3.611   2.197  0.3413 -0.2275  0.3353
 5990SOL    HW129606   4.072   3.613   2.111  2.4158  1.5524  1.4041
 5990SOL    HW229607   4.100   3.629   2.258  0.3249  2.8694 -0.5541
 5991SOL     OW29608   4.183   4.330   4.484 -0.1223  0.3012 -0.0744
 5991SOL    HW129609   4.105   4.383   4.465 -0.1004 -0.3167 -1.8641
 5991SOL    HW229610   4.175   4.313   4.578 -2.2519  1.3618 -0.0525
 5992SOL     OW29611   3.175   3.968   1.854  0.2232  0.5021 -0.0143
 5992SOL    HW129612   3.161   4.060   1.876 -0.3302  0.2564  0.6323
 5992SOL    HW229613   3.198   3.984   1.762  1.0659  2.6855  0.5589
 5993SOL     OW29614   2.224   3.110   7.677  0.2820  0.2017 -0.8147
 5993SOL    HW129615   2.305   3.072   7.711 -0.6820  2.5353  4.1769
 5993SOL    HW229616   2.199   3.038   7.620 -0.3727  0.7879 -1.2759
 5994SOL     OW29617   0.998   3.567   9.375  0.5710  0.0357  0.0905
 5994SOL    HW129618   1.008   3.656   9.343 -0.7133 -0.8437 -2.8377
 5994SOL    HW229619   1.047   3.512   9.313  1.2732  2.2062 -1.2468
 5995SOL     OW29620   2.355   3.148   1.504 -0.1371 -0.1161 -0.2469
 5995SOL    HW129621   2.362   3.230   1.455  2.3306  0.3096  0.8170
 5995SOL    HW229622   2.362   3.088   1.430  1.6480 -0.9877  0.6269
 5996SOL     OW29623   3.335   4.084   4.290 -0.5666 -0.2149  0.4556
 5996SOL    HW129624   3.327   4.000   4.335 -0.6936  0.2669  1.3498
 5996SOL    HW229625   3.255   4.122   4.326 -1.6712 -2.2626  0.1745
 5997SOL     OW29626   2.416   4.237   5.913 -0.1714  0.0907  0.3842
 5997SOL    HW129627   2.329   4.222   5.877  0.5782  0.4019 -1.5689
 5997SOL    HW229628   2.426   4.155   5.961 -0.1903 -0.5411 -0.7023
 5998SOL     OW29629   1.861   0.720   9.285 -0.1628  0.3430 -0.2944
 5998SOL    HW129630   1.857   0.774   9.363 -0.8962  1.6564 -1.2412
 5998SOL    HW229631   1.785   0.750   9.234 -0.0420 -0.5931 -1.0370
 5999SOL     OW29632   1.254   3.758   1.161  0.0005  0.2323 -0.2357
 5999SOL    HW129633   1.262   3.814   1.084 -0.4767 -0.3082 -0.6822
 5999SOL    HW229634   1.161   3.736   1.159 -0.6899  3.2140 -1.2003
 6000SOL     OW29635   1.716   4.614   7.103  0.2220  0.1200  0.3101
 6000SOL    HW129636   1.632   4.606   7.057 -0.9409  4.2160  1.7285
 6000SOL    HW229637   1.779   4.600   7.032 -1.4469  1.2990 -1.4398
 6001SOL     OW29638   3.754   2.622  13.045  0.1914  0.4844 -0.0747
 6001SOL    HW129639   3.758   2.677  13.123 -0.4599  1.7670 -0.9469
 6001SOL    HW229640   3.745   2.689  12.977 -1.0492  0.3437 -0.0444
 6002SOL     OW29641   0.651   1.907   9.945  0.6386 -0.5204  0.1317
 6002SOL    HW129642   0.613   1.951   9.868  1.2467 -0.7453 -0.3006
 6002SOL    HW229643   0.659   1.984  10.001 -1.9462  0.9238 -1.4707
 6003SOL     OW29644   2.094   0.440   5.860 -0.8558  0.0913  0.1825
 6003SOL    HW129645   2.081   0.534   5.843  0.0461  0.4036  1.2338
 6003SOL    HW229646   2.115   0.408   5.772 -2.6722 -0.8178  0.0801
 6004SOL     OW29647   3.579   0.325   6.443  0.1989 -0.4791 -0.2327
 6004SOL    HW129648   3.586   0.237   6.479 -2.2939 -0.9063 -0.8411
 6004SOL    HW229649   3.604   0.312   6.351 -0.0998  2.1125 -0.6799
 6005SOL     OW29650   1.397   1.289   6.553 -0.4163  0.3494  0.5204
 6005SOL    HW129651   1.473   1.262   6.501  0.1797 -0.4228  1.7970
 6005SOL    HW229652   1.358   1.352   6.492  1.9654  0.1061 -1.2694
 6006SOL     OW29653   3.173   4.624   9.432 -0.0723  0.3896  0.4357
 6006SOL    HW129654   3.264   4.624   9.403 -0.0287  0.9784  0.5740
 6006SOL    HW229655   3.153   4.717   9.437  0.8930  0.7424 -2.2238
 6007SOL     OW29656   0.965   2.277   8.215 -0.3181 -0.1939 -0.5340
 6007SOL    HW129657   1.053   2.242   8.231 -0.7299 -0.6837  0.6320
 6007SOL    HW229658   0.976   2.350   8.275  1.8354 -0.9945  0.0649
 6008SOL     OW29659   1.021   4.148   1.014 -0.4282  0.1937  0.2854
 6008SOL    HW129660   1.015   4.075   0.953 -2.7412 -0.6573  1.5323
 6008SOL    HW229661   1.092   4.122   1.072 -0.5190 -0.1770  0.2279
 6009SOL     OW29662   1.187   4.334  15.380  0.2135  0.0777  0.2490
 6009SOL    HW129663   1.216   4.363  15.294  0.8266 -3.9861 -0.9332
 6009SOL    HW229664   1.095   4.359  15.384  0.5533  1.3273  0.0353
 6010SOL     OW29665   2.007   2.984  10.004  0.0691 -0.0094 -0.1300
 6010SOL    HW129666   1.999   3.079  10.008  0.9230  0.1404 -1.9480
 6010SOL    HW229667   2.088   2.977  10.054  0.2060  2.8664  0.0215
 6011SOL     OW29668   2.283   1.036   5.192 -0.0109  0.2934  0.3814
 6011SOL    HW129669   2.375   1.054   5.207  0.0382  2.7695 -2.8745
 6011SOL    HW229670   2.247   1.121   5.217  0.1775  0.5258 -0.1378
 6012SOL     OW29671   0.277   1.246   5.653  0.0464  0.6257 -0.4871
 6012SOL    HW129672   0.201   1.304   5.664 -0.5561  0.0839 -1.8486
 6012SOL    HW229673   0.278   1.200   5.737 -3.9946 -0.6899 -1.1361
 6013SOL     OW29674   0.023   1.214   4.323 -0.3175 -0.2830 -0.0403
 6013SOL    HW129675   0.022   1.260   4.407  1.7990 -1.3003  0.5267
 6013SOL    HW229676   0.063   1.276   4.262 -1.4471 -0.6398 -1.1563
 6014SOL     OW29677   1.945   2.214   7.901 -0.1298  0.9659 -0.4516
 6014SOL    HW129678   1.901   2.237   7.819  0.6156  0.0920 -1.0821
 6014SOL    HW229679   1.978   2.129   7.876 -0.2174  1.4644 -2.2368
 6015SOL     OW29680   1.087   2.850   5.417 -0.2348 -0.8344 -0.1623
 6015SOL    HW129681   1.179   2.876   5.418 -0.7851  1.1603  0.3151
 6015SOL    HW229682   1.040   2.934   5.427 -0.0362 -0.7354 -0.0590
 6016SOL     OW29683   2.615   1.901  15.854 -0.2325  0.1922 -0.0490
 6016SOL    HW129684   2.667   1.956  15.795  0.1643 -0.3273 -0.1801
 6016SOL    HW229685   2.532   1.878  15.811 -0.8019  0.1075  1.1102
 6017SOL     OW29686   0.108   1.960   5.863 -0.1041  0.8546  0.0458
 6017SOL    HW129687   0.157   1.956   5.946 -1.3784 -0.0376  0.7463
 6017SOL    HW229688   0.162   1.916   5.797 -0.4592  0.5280 -0.0246
 6018SOL     OW29689   3.159   2.065   7.746 -0.4264 -0.5138 -0.1132
 6018SOL    HW129690   3.180   1.976   7.775 -1.3284 -0.9799 -0.8769
 6018SOL    HW229691   3.171   2.055   7.651  0.9373  1.2114 -0.1131
 6019SOL     OW29692   3.572   2.965  12.634  0.7388  0.1751  0.5345
 6019SOL    HW129693   3.501   2.944  12.574  0.6738 -0.7729  0.9570
 6019SOL    HW229694   3.530   3.042  12.673  4.5464  2.8888 -0.6340
 6020SOL     OW29695   0.759   2.048  16.218  0.2029 -0.5090 -0.2648
 6020SOL    HW129696   0.831   2.100  16.184  0.7858 -1.0417  0.1479
 6020SOL    HW229697   0.685   2.080  16.166  0.5188 -0.5752 -0.7599
 6021SOL     OW29698   3.266   4.605   2.177 -0.0161 -0.5937  0.0770
 6021SOL    HW129699   3.334   4.655   2.132  0.1199  2.0648  3.2365
 6021SOL    HW229700   3.209   4.568   2.110 -0.4960 -1.3133  0.8772
 6022SOL     OW29701   1.478   4.299  14.036  0.2825 -0.2166 -0.8554
 6022SOL    HW129702   1.435   4.222  14.000 -0.5862 -0.2876  0.3390
 6022SOL    HW229703   1.522   4.332  13.958  1.2242  1.3529  0.3259
 6023SOL     OW29704   2.669   2.553   1.698  0.0613  0.2345  0.8566
 6023SOL    HW129705   2.600   2.567   1.634 -0.8805 -1.5147  1.4854
 6023SOL    HW229706   2.723   2.498   1.642 -1.2602  0.3266 -0.4840
 6024SOL     OW29707   3.962   1.991  10.911  0.7401  0.3872  0.0637
 6024SOL    HW129708   4.055   1.967  10.914  0.1466 -2.1204 -2.2874
 6024SOL    HW229709   3.950   1.994  10.816  0.8468 -0.4380  0.0262
 6025SOL     OW29710   0.984   0.246   8.201  0.1842  0.2561  0.6964
 6025SOL    HW129711   1.025   0.331   8.217  0.4911  0.1104  0.6784
 6025SOL    HW229712   1.021   0.210   8.120 -1.0401  0.1128  0.2030
 6026SOL     OW29713   0.757   2.611   9.811 -0.1365 -0.0388 -0.2403
 6026SOL    HW129714   0.845   2.648   9.806  0.7519 -2.1909 -0.6374
 6026SOL    HW229715   0.771   2.580   9.901 -1.1190  0.4437  0.0739
 6027SOL     OW29716   3.021   0.584  14.621 -0.1094 -0.3846  0.5058
 6027SOL    HW129717   2.969   0.504  14.615 -1.5456  0.6824 -1.4367
 6027SOL    HW229718   2.987   0.627  14.542  1.9903 -2.9001 -1.8028
 6028SOL     OW29719   3.368   0.917  17.542 -0.8454 -0.0325  0.5135
 6028SOL    HW129720   3.448   0.865  17.548  0.3605  1.8789  0.8390
 6028SOL    HW229721   3.380   0.945  17.451 -0.5484 -0.2750  0.4783
 6029SOL     OW29722   2.394   2.089   8.567 -0.0963 -0.2151 -0.3187
 6029SOL    HW129723   2.487   2.073   8.581  0.2743  1.5907 -0.7542
 6029SOL    HW229724   2.364   2.039   8.643  0.3071 -0.4840 -0.3351
 6030SOL     OW29725   0.228   0.868   1.086 -0.5084  0.1685  0.3517
 6030SOL    HW129726   0.162   0.804   1.114 -1.5979  1.3588  0.4686
 6030SOL    HW229727   0.268   0.895   1.169 -0.5028 -0.2074  0.4735
 6031SOL     OW29728   4.659   4.252   5.652 -0.2001  0.0808  0.3583
 6031SOL    HW129729   4.589   4.188   5.667 -2.5181  2.3778 -0.8482
 6031SOL    HW229730   4.642   4.311   5.725  0.1795  1.3266 -0.5675
 6032SOL     OW29731   3.029   0.938   6.613 -0.0815  0.2026 -0.3326
 6032SOL    HW129732   2.986   0.878   6.552 -0.4067 -0.2021  0.2882
 6032SOL    HW229733   2.997   0.913   6.700  1.8399 -1.0311 -0.0005
 6033SOL     OW29734   3.605   4.124  10.100  0.5582  0.9001  0.3231
 6033SOL    HW129735   3.674   4.072  10.141  0.6272  0.4238 -0.3989
 6033SOL    HW229736   3.554   4.153  10.176 -2.3611 -2.6212 -0.3299
 6034SOL     OW29737   4.570   1.095   9.526 -0.5833 -0.3637 -0.4033
 6034SOL    HW129738   4.499   1.039   9.494 -1.8528  0.1375  1.4903
 6034SOL    HW229739   4.625   1.066   9.454 -0.0598  0.2704 -0.2633
 6035SOL     OW29740   1.567   2.706   8.538  0.1850 -0.2715  0.3857
 6035SOL    HW129741   1.525   2.693   8.453  0.4816 -0.6310  0.2920
 6035SOL    HW229742   1.609   2.790   8.519 -2.4686  1.0299  0.3612
 6036SOL     OW29743   2.713   3.980   5.667 -0.5262 -0.1948  0.8463
 6036SOL    HW129744   2.648   4.023   5.611 -0.8777 -1.0971  0.5616
 6036SOL    HW229745   2.749   3.924   5.598  0.8458 -0.0371  1.4423
 6037SOL     OW29746   4.564   3.683   6.101 -0.3225 -0.3485  0.0935
 6037SOL    HW129747   4.471   3.686   6.123 -0.2956 -0.6324  0.2449
 6037SOL    HW229748   4.591   3.766   6.141  0.0573 -1.5486  2.3556
 6038SOL     OW29749   1.270   1.497   2.314  0.1608  0.0666  0.1268
 6038SOL    HW129750   1.282   1.408   2.348 -0.5955  0.1129  0.5095
 6038SOL    HW229751   1.201   1.483   2.250  2.7824 -1.6132 -2.3441
 6039SOL     OW29752   2.345   1.958   9.246  0.0315 -0.7496 -0.1612
 6039SOL    HW129753   2.260   1.980   9.209  0.9716  1.8179 -0.8012
 6039SOL    HW229754   2.393   2.004   9.177 -0.7802 -0.9529 -0.8570
 6040SOL     OW29755   0.766   0.260   2.104 -0.0028 -0.0595 -0.3200
 6040SOL    HW129756   0.800   0.274   2.015  1.7925  0.5319  0.4526
 6040SOL    HW229757   0.717   0.339   2.126  0.4639  0.0318  0.3804
 6041SOL     OW29758   0.410   2.568   5.009 -0.5026 -0.5228  0.2189
 6041SOL    HW129759   0.320   2.555   4.978 -0.8119  0.1972  0.8009
 6041SOL    HW229760   0.450   2.481   5.012 -0.5274 -0.6654 -3.4095
 6042SOL     OW29761   1.238   2.393   5.262 -0.5647 -0.2292 -0.1300
 6042SOL    HW129762   1.202   2.387   5.174 -0.4200  0.3844 -0.2309
 6042SOL    HW229763   1.324   2.430   5.244  0.3291 -1.0853  2.3933
 6043SOL     OW29764   0.290   3.663   9.674 -0.3283 -0.7752 -0.2747
 6043SOL    HW129765   0.277   3.575   9.638  1.0194 -1.0031 -0.1843
 6043SOL    HW229766   0.379   3.663   9.709 -0.0513 -0.5531 -0.9783
 6044SOL     OW29767   1.547   4.160   9.228 -0.1884  0.3013  0.0738
 6044SOL    HW129768   1.500   4.099   9.285  0.8894 -2.1205 -1.6084
 6044SOL    HW229769   1.628   4.108   9.229 -0.3066  0.1247  0.6344
 6045SOL     OW29770   4.729   4.204   3.504 -0.0560 -0.0997 -0.0779
 6045SOL    HW129771   4.689   4.124   3.469  0.0364 -0.4388  0.6010
 6045SOL    HW229772   4.658   4.261   3.536 -2.4748 -2.3642 -1.3882
 6046SOL     OW29773   0.155   3.224   2.916  0.0562 -0.3697  0.0996
 6046SOL    HW129774   0.089   3.159   2.890 -0.6960  0.8654 -1.1057
 6046SOL    HW229775   0.192   3.172   2.987  2.4178 -0.7251 -1.4203
 6047SOL     OW29776   2.880   1.151   0.677  0.0996  0.0283 -0.1157
 6047SOL    HW129777   2.936   1.094   0.625 -0.9538 -1.8391  0.7991
 6047SOL    HW229778   2.815   1.167   0.609  0.2624 -1.7995 -0.6903
 6048SOL     OW29779   0.956   0.200   8.999 -0.0193  0.0087 -0.4565
 6048SOL    HW129780   0.930   0.121   8.952  1.2827 -0.2017 -0.8297
 6048SOL    HW229781   0.969   0.166   9.088 -1.3758  0.1886 -0.1976
 6049SOL     OW29782   4.463   1.710   2.113 -0.1687 -0.1514  0.6926
 6049SOL    HW129783   4.496   1.752   2.033  1.2960 -2.2093  0.2362
 6049SOL    HW229784   4.399   1.653   2.070  1.5351 -0.3090 -1.6496
 6050SOL     OW29785   1.334   4.210  15.871 -0.1605  0.2409 -0.3097
 6050SOL    HW129786   1.287   4.219  15.788  0.2898  0.6661 -0.5161
 6050SOL    HW229787   1.420   4.230  15.835 -0.1338 -0.4385 -0.6403
 6051SOL     OW29788   1.543   3.214   1.291 -0.1609 -0.0066  0.2760
 6051SOL    HW129789   1.468   3.162   1.321 -0.6473  0.9343  0.7063
 6051SOL    HW229790   1.498   3.298   1.280  0.7866  0.4239 -0.3043
 6052SOL     OW29791   4.594   2.085   3.372 -0.0545  0.3671  0.0885
 6052SOL    HW129792   4.503   2.112   3.360  0.1272  0.6202 -0.6751
 6052SOL    HW229793   4.629   2.102   3.285  2.0621  0.3426  0.9461
 6053SOL     OW29794   2.904   1.047   4.945  0.1030  0.0853 -0.2483
 6053SOL    HW129795   2.838   0.995   4.992 -0.0808 -1.0150 -1.7169
 6053SOL    HW229796   2.856   1.116   4.901  0.1404  0.4704  0.3191
 6054SOL     OW29797   3.330   1.075   5.850 -0.1293  0.2096  0.2880
 6054SOL    HW129798   3.381   1.106   5.925 -0.0124  1.0208 -0.1185
 6054SOL    HW229799   3.283   1.153   5.818 -0.8636  0.0040  0.8681
 6055SOL     OW29800   1.858   0.026  14.592  0.3015  0.6778 -0.2035
 6055SOL    HW129801   1.938   4.732  14.634  0.2592 -0.7515 -1.1348
 6055SOL    HW229802   1.893   0.101  14.544 -3.5493  2.0488 -0.8295
 6056SOL     OW29803   3.291   0.894  10.166 -0.6271 -0.4056  0.0174
 6056SOL    HW129804   3.268   0.848  10.247  0.3011  1.0854  1.1185
 6056SOL    HW229805   3.214   0.870  10.114 -0.8193 -0.8280  0.4920
 6057SOL     OW29806   3.164   1.596   8.510 -0.3803 -0.1738 -0.2974
 6057SOL    HW129807   3.188   1.565   8.598  0.5731  0.1021 -0.4683
 6057SOL    HW229808   3.132   1.509   8.486  1.5045 -1.2117  0.9233
 6058SOL     OW29809   4.016   1.274   8.191  0.1188  0.3452 -0.1835
 6058SOL    HW129810   4.012   1.259   8.097  0.5336  3.3882 -0.6817
 6058SOL    HW229811   4.108   1.258   8.212 -0.3887 -0.1643  1.6848
 6059SOL     OW29812   3.063   3.296  17.466  0.2226  0.1559 -0.2754
 6059SOL    HW129813   3.017   3.227  17.514  1.1017 -0.1474  0.1221
 6059SOL    HW229814   3.033   3.372  17.516 -2.5416 -1.1781  0.0968
 6060SOL     OW29815   3.079   1.131   8.595  0.1144 -0.0373  0.1344
 6060SOL    HW129816   3.052   1.205   8.541 -0.2804 -2.1496 -2.5646
 6060SOL    HW229817   3.161   1.110   8.551 -0.4405 -0.7010 -0.5703
 6061SOL     OW29818   1.858   1.247   7.420  0.5406 -0.4883 -1.1644
 6061SOL    HW129819   1.823   1.160   7.440  0.0316  0.3465  1.5356
 6061SOL    HW229820   1.925   1.255   7.487 -1.2307 -0.4589  0.6027
 6062SOL     OW29821   1.464   4.622   5.289  0.4420  0.0334  0.0160
 6062SOL    HW129822   1.464   4.527   5.276 -1.0373  0.1305 -0.8211
 6062SOL    HW229823   1.394   4.649   5.229  0.7499 -1.9950 -1.2760
 6063SOL     OW29824   2.928   3.691   7.441 -0.5130  0.1261 -0.0355
 6063SOL    HW129825   2.921   3.675   7.347  0.2695 -1.7190  0.2250
 6063SOL    HW229826   2.937   3.786   7.445 -0.3279  0.2163 -2.8683
 6064SOL     OW29827   1.715   0.200   2.531  0.3353  0.2262  0.2961
 6064SOL    HW129828   1.620   0.193   2.533  0.4969 -2.2793 -1.1168
 6064SOL    HW229829   1.719   0.210   2.436 -2.7624 -1.0585  0.0266
 6065SOL     OW29830   3.467   3.755  14.697  0.2305  0.2455  0.2758
 6065SOL    HW129831   3.468   3.660  14.684 -1.1508  0.7728 -3.7000
 6065SOL    HW229832   3.560   3.775  14.684  0.3444 -1.1991 -1.2297
 6066SOL     OW29833   1.843   1.210   6.380  0.5048 -0.3111  0.0028
 6066SOL    HW129834   1.923   1.188   6.428  0.4666  0.5515  0.4660
 6066SOL    HW229835   1.841   1.306   6.371  0.8276 -0.2033  1.1466
 6067SOL     OW29836   4.178   0.215   7.365 -0.4160 -0.0334 -0.7720
 6067SOL    HW129837   4.110   0.173   7.418  0.0165 -2.2447 -1.9752
 6067SOL    HW229838   4.165   0.172   7.281  0.0608 -0.8109 -0.4537
 6068SOL     OW29839   2.183   1.315  13.799  0.1450  0.0857 -0.2279
 6068SOL    HW129840   2.238   1.340  13.873  1.0100  0.1525 -0.8867
 6068SOL    HW229841   2.101   1.363  13.809  0.0085  0.2456 -2.1778
 6069SOL     OW29842   0.735   4.372  16.036  0.1908  0.1230 -0.6773
 6069SOL    HW129843   0.795   4.367  16.111 -2.0166 -0.5864  1.0413
 6069SOL    HW229844   0.789   4.417  15.970  0.7182  0.8341  0.2334
 6070SOL     OW29845   4.169   1.516   8.483  0.5378  0.1739 -0.7690
 6070SOL    HW129846   4.092   1.510   8.427 -0.7591 -2.0487  1.2258
 6070SOL    HW229847   4.203   1.602   8.456 -1.5286  0.9581 -0.8795
 6071SOL     OW29848   0.506   1.067   3.705 -0.0598 -0.1146 -0.5726
 6071SOL    HW129849   0.548   0.984   3.727  1.2937  0.9640  0.9534
 6071SOL    HW229850   0.537   1.073   3.615 -1.5110 -0.3416 -1.0823
 6072SOL     OW29851   4.115   0.702   2.276  0.0203 -0.0168 -0.1967
 6072SOL    HW129852   4.136   0.766   2.207 -1.7481 -0.7138 -1.3700
 6072SOL    HW229853   4.027   0.669   2.262  0.4369 -0.6257 -1.3220
 6073SOL     OW29854   3.277   1.946   9.019 -0.0231 -0.7048  0.2374
 6073SOL    HW129855   3.370   1.929   9.037 -0.2605  0.5605  2.7402
 6073SOL    HW229856   3.278   2.028   8.969  1.6795 -1.3034 -0.7046
 6074SOL     OW29857   4.570   1.427   6.253  0.1963 -0.2005  0.2089
 6074SOL    HW129858   4.538   1.510   6.289 -1.0758 -0.3924 -0.4773
 6074SOL    HW229859   4.531   1.370   6.319 -2.9773  0.4583 -1.1038
 6075SOL     OW29860   0.856   4.206   8.393 -0.2248 -0.1051 -0.3462
 6075SOL    HW129861   0.848   4.290   8.349  0.3548  0.5247  0.7645
 6075SOL    HW229862   0.788   4.151   8.353 -0.3078 -0.0303 -0.3081
 6076SOL     OW29863   4.563   0.207   3.053  0.2323 -0.7637 -0.2508
 6076SOL    HW129864   4.489   0.160   3.016  0.4401 -1.3682  0.1024
 6076SOL    HW229865   4.592   0.153   3.126  1.1767  1.4450  1.0175
 6077SOL     OW29866   3.911   3.621  14.971 -0.1800  0.1014  0.4619
 6077SOL    HW129867   3.842   3.587  14.915 -0.6895  1.4545  0.2740
 6077SOL    HW229868   3.885   3.712  14.960  0.1352  0.2122  0.6096
 6078SOL     OW29869   3.566   1.256  13.992  0.4069  0.2619 -0.2506
 6078SOL    HW129870   3.641   1.310  14.016 -1.1657  0.6870  3.6662
 6078SOL    HW229871   3.593   1.170  14.025 -2.4475  0.6286  2.9850
 6079SOL     OW29872   3.580   4.558   3.284  0.1836  0.4400 -0.4477
 6079SOL    HW129873   3.564   4.540   3.191  2.2706 -0.9707 -0.5379
 6079SOL    HW229874   3.630   4.483   3.317 -2.9108 -1.2302  0.3685
 6080SOL     OW29875   2.350   2.014   2.545 -0.2728 -0.1506 -0.4358
 6080SOL    HW129876   2.262   2.046   2.526 -0.9183 -0.6429  1.7153
 6080SOL    HW229877   2.385   1.987   2.460  1.7674 -0.8621  0.6221
 6081SOL     OW29878   2.633   4.338  11.804  0.2228 -0.1684 -0.0305
 6081SOL    HW129879   2.576   4.338  11.880  2.0469  1.5060  1.3246
 6081SOL    HW229880   2.624   4.420  11.757 -0.0331  0.7122  1.5537
 6082SOL     OW29881   1.963   3.323  17.605  0.0198  0.0998 -0.3334
 6082SOL    HW129882   2.054   3.349  17.597  0.7150 -1.7242  1.7223
 6082SOL    HW229883   1.951   3.306  17.512  0.9343 -1.6048 -0.1313
 6083SOL     OW29884   0.819   1.000   8.069 -0.4305  0.2545 -0.3964
 6083SOL    HW129885   0.801   0.933   8.003  2.0988 -0.4282 -0.4088
 6083SOL    HW229886   0.819   0.950   8.151 -0.6323 -1.1918 -1.2748
 6084SOL     OW29887   2.252   0.142   3.577  0.4410 -0.2845 -0.3263
 6084SOL    HW129888   2.206   0.091   3.510 -0.2687  0.4636 -0.4035
 6084SOL    HW229889   2.250   0.073   3.644 -2.0414 -0.4889 -0.5955
 6085SOL     OW29890   0.576   1.504   9.171  0.0088 -0.1171 -0.3819
 6085SOL    HW129891   0.585   1.584   9.223 -1.6934 -0.7047  0.8153
 6085SOL    HW229892   0.660   1.503   9.123  0.3309  0.1839  0.1840
 6086SOL     OW29893   0.297   1.748  13.063 -0.4846  0.4487 -0.1617
 6086SOL    HW129894   0.377   1.776  13.108 -0.6086  0.4597  0.0525
 6086SOL    HW229895   0.315   1.658  13.033 -0.8404 -0.4049  2.1865
 6087SOL     OW29896   1.850   2.210  15.067 -0.2067 -0.7605 -0.4565
 6087SOL    HW129897   1.803   2.256  15.136  1.7060  2.6290 -1.4272
 6087SOL    HW229898   1.908   2.276  15.028  1.3769 -1.5681  0.5146
 6088SOL     OW29899   2.453   3.743   5.605 -0.6631 -0.1041  0.6534
 6088SOL    HW129900   2.459   3.829   5.563 -3.2897  1.4507  3.4922
 6088SOL    HW229901   2.463   3.685   5.530  2.1423  0.0813  0.8784
 6089SOL     OW29902   1.160   1.424   1.857  0.1723 -0.0100  0.3787
 6089SOL    HW129903   1.156   1.330   1.875 -1.7075 -0.5564 -2.8740
 6089SOL    HW229904   1.072   1.437   1.822 -0.1290 -0.1156  1.0895
 6090SOL     OW29905   3.704   1.227  14.574 -0.5797  0.2455 -0.0302
 6090SOL    HW129906   3.751   1.271  14.503  0.2114 -2.3946 -1.1367
 6090SOL    HW229907   3.668   1.150  14.531  0.2344  0.6054 -1.3578
 6091SOL     OW29908   4.291   2.069   2.920 -0.1242  0.4790 -0.3188
 6091SOL    HW129909   4.305   1.981   2.956 -0.8406  0.1274 -0.9198
 6091SOL    HW229910   4.227   2.108   2.979  0.7752 -0.2134  1.1138
 6092SOL     OW29911   3.959   0.037   9.757  0.0858 -0.1295  0.2287
 6092SOL    HW129912   3.968   0.117   9.705  2.3223 -1.4920 -1.5037
 6092SOL    HW229913   3.877   0.053   9.803 -0.4489  1.4452 -1.2511
 6093SOL     OW29914   2.766   2.501   1.090 -0.3621  0.8999  0.3062
 6093SOL    HW129915   2.694   2.499   1.154 -0.0548  0.4004  0.6402
 6093SOL    HW229916   2.718   2.541   1.018 -0.1538 -0.4097 -0.5585
 6094SOL     OW29917   3.461   1.759   3.235  0.0146 -0.2273  0.0149
 6094SOL    HW129918   3.442   1.669   3.208 -0.8076 -0.7487  2.3497
 6094SOL    HW229919   3.488   1.750   3.326  2.0656  1.4200 -0.4460
 6095SOL     OW29920   3.781   3.613   5.659 -0.0725 -0.5714  0.1416
 6095SOL    HW129921   3.846   3.543   5.666  1.8631  1.4367  2.0930
 6095SOL    HW229922   3.768   3.651   5.745 -0.0441  0.9100 -0.5128
 6096SOL     OW29923   1.472   3.419   4.642  0.3302 -0.0385  0.2182
 6096SOL    HW129924   1.378   3.439   4.638  0.0781 -0.7032  2.4413
 6096SOL    HW229925   1.515   3.500   4.668  1.1279 -0.4684  0.2373
 6097SOL     OW29926   4.516   4.708   4.290  0.4828  0.2253  0.1899
 6097SOL    HW129927   4.514   4.621   4.330  1.2210  0.3155  0.4157
 6097SOL    HW229928   4.427   4.732   4.319  0.3112  0.6095 -0.6515
 6098SOL     OW29929   4.017   1.064   5.432  0.0582  0.3121 -0.4339
 6098SOL    HW129930   4.088   1.000   5.424 -0.7870 -0.6414 -0.2734
 6098SOL    HW229931   4.063   1.137   5.473  1.1147 -1.3821  1.4084
 6099SOL     OW29932   1.762   2.591   6.181  0.6851  0.2321  0.2171
 6099SOL    HW129933   1.780   2.615   6.272  2.1789  0.8634 -0.2409
 6099SOL    HW229934   1.833   2.637   6.137  1.4540 -1.5639 -0.4290
 6100SOL     OW29935   1.895   1.242   4.696  0.3265  0.2774  0.3289
 6100SOL    HW129936   1.931   1.291   4.769  2.1958 -1.8569  0.8366
 6100SOL    HW229937   1.957   1.274   4.630  0.4054  1.5055  1.0058
 6101SOL     OW29938   4.386   2.379  12.561 -0.2720  0.1199 -0.4892
 6101SOL    HW129939   4.343   2.307  12.607 -2.2717  3.1744  2.4699
 6101SOL    HW229940   4.476   2.361  12.589  0.8232  4.5453 -1.0944
 6102SOL     OW29941   3.895   3.152   2.358  0.3540 -0.1101  0.4744
 6102SOL    HW129942   3.812   3.161   2.405 -0.3376 -0.6775 -0.6288
 6102SOL    HW229943   3.939   3.236   2.358 -0.5130  0.3477  0.0027
 6103SOL     OW29944   4.542   1.726  11.055 -0.2257  0.0863 -0.2186
 6103SOL    HW129945   4.572   1.777  10.980 -1.4460 -2.2340 -2.2823
 6103SOL    HW229946   4.582   1.639  11.054  0.0885  0.2331 -0.4502
 6104SOL     OW29947   3.262   2.570   9.018  0.4633 -0.7353  0.5911
 6104SOL    HW129948   3.243   2.476   9.007  2.2393 -0.8578 -1.4017
 6104SOL    HW229949   3.255   2.602   8.928  1.0014 -1.1552  0.3970
 6105SOL     OW29950   1.220   3.039  12.066 -0.2168  0.7358 -0.2515
 6105SOL    HW129951   1.225   2.950  12.030 -0.0846  0.3830  0.6294
 6105SOL    HW229952   1.212   3.006  12.156  0.1349  2.1394  0.2885
 6106SOL     OW29953   2.415   2.876   8.668 -0.2910  0.1180 -0.2956
 6106SOL    HW129954   2.474   2.829   8.727 -0.7303 -1.4646 -1.1433
 6106SOL    HW229955   2.382   2.941   8.731 -0.3358  0.9638 -1.1908
 6107SOL     OW29956   0.657   0.830   3.715 -0.1232 -0.2051  0.1143
 6107SOL    HW129957   0.698   0.777   3.784 -0.3622 -1.5734 -0.7957
 6107SOL    HW229958   0.712   0.820   3.638  0.8542 -1.3284  0.9694
 6108SOL     OW29959   4.641   0.536   3.607  0.1913  0.1065 -0.4657
 6108SOL    HW129960   4.656   0.565   3.517  2.4721  0.0805 -0.0965
 6108SOL    HW229961   4.728   0.563   3.637  0.1963 -1.2149  0.6868
 6109SOL     OW29962   4.280   0.072  15.677 -0.7894  0.2768 -0.3286
 6109SOL    HW129963   4.365   0.029  15.690 -1.3832 -1.6830 -2.9136
 6109SOL    HW229964   4.271   0.076  15.582 -3.3035  0.7068 -0.0611
 6110SOL     OW29965   1.791   0.187   3.367  0.2308 -0.3817  0.4921
 6110SOL    HW129966   1.770   0.263   3.422 -1.1409  0.2010 -0.8494
 6110SOL    HW229967   1.785   0.117   3.433  2.9647 -2.2132 -1.1956
 6111SOL     OW29968   2.566   3.818   8.432 -0.9054  0.2673 -0.3668
 6111SOL    HW129969   2.473   3.805   8.412 -1.0537 -0.9619  1.1330
 6111SOL    HW229970   2.573   3.819   8.528  0.2568 -0.4620 -0.4573
 6112SOL     OW29971   3.219   3.323   5.097 -0.4042 -0.4786  0.0557
 6112SOL    HW129972   3.268   3.241   5.099  1.6652  0.7440  0.2032
 6112SOL    HW229973   3.209   3.340   5.003  0.6294  1.4778  0.2841
 6113SOL     OW29974   0.328   0.544   6.490  0.1683 -0.5192  0.2927
 6113SOL    HW129975   0.394   0.510   6.550 -0.9586 -3.0495  0.1389
 6113SOL    HW229976   0.279   0.464   6.468 -0.8845  0.0211  0.6566
 6114SOL     OW29977   2.992   3.166   4.805  0.2715 -0.1868 -0.1123
 6114SOL    HW129978   2.983   3.240   4.865  0.6800  0.0224 -0.3073
 6114SOL    HW229979   3.011   3.204   4.719 -1.1123  0.4021 -0.1505
 6115SOL     OW29980   1.612   2.291   3.668 -0.5508  0.0763 -0.0237
 6115SOL    HW129981   1.666   2.242   3.729 -0.9286  0.3873  0.5591
 6115SOL    HW229982   1.676   2.299   3.597 -0.4328 -0.1039  0.0656
 6116SOL     OW29983   3.753   2.382   2.886 -0.4325  0.2821  0.2816
 6116SOL    HW129984   3.768   2.476   2.872 -0.4595 -0.0079 -1.6888
 6116SOL    HW229985   3.666   2.367   2.850  0.4418 -0.8864 -1.3362
 6117SOL     OW29986   3.692   0.734   2.182  0.0728 -0.3492 -0.1605
 6117SOL    HW129987   3.645   0.781   2.113  1.4687  1.5617  0.1818
 6117SOL    HW229988   3.641   0.653   2.185  1.0472 -0.8954  1.6200
 6118SOL     OW29989   4.173   1.359  14.894 -0.2152  0.0114  0.4588
 6118SOL    HW129990   4.249   1.395  14.939  0.7750 -1.0133 -0.3597
 6118SOL    HW229991   4.127   1.310  14.962 -1.2070 -0.7111 -0.7220
 6119SOL     OW29992   0.760   1.589   6.282 -0.1695  0.1279 -0.1949
 6119SOL    HW129993   0.847   1.622   6.303 -1.4158  2.1350  1.8571
 6119SOL    HW229994   0.734   1.536   6.357  1.3486 -1.3994 -0.7670
 6120SOL     OW29995   4.662   2.737   4.513 -0.5778  0.2681  0.1401
 6120SOL    HW129996   4.699   2.768   4.595  1.2195  0.3141 -0.6641
 6120SOL    HW229997   0.000   2.751   4.454 -1.1262 -0.8844 -0.8475
 6121SOL     OW29998   0.255   1.747   0.973  0.4395  0.3907 -0.5128
 6121SOL    HW129999   0.204   1.787   0.902  1.3480 -0.1929 -1.4862
 6121SOL    HW230000   0.345   1.739   0.944 -0.5428  0.1292 -3.5371
 6122SOL     OW30001   0.724   4.177   4.072  0.0223 -0.6342  0.0747
 6122SOL    HW130002   0.682   4.245   4.020 -0.2272 -1.4364 -0.7750
 6122SOL    HW230003   0.656   4.145   4.131  1.2398 -2.4952  0.4746
 6123SOL     OW30004   3.999   2.952   1.846  0.5258  0.0356 -0.4792
 6123SOL    HW130005   4.052   3.020   1.805  0.3146 -1.6764 -3.5871
 6123SOL    HW230006   4.076   2.896   1.851  0.2362 -0.4990 -2.0032
 6124SOL     OW30007   0.491   2.463  15.130 -0.3303 -0.2103 -0.1436
 6124SOL    HW130008   0.470   2.533  15.068 -0.6508 -0.6069 -0.4831
 6124SOL    HW230009   0.411   2.479  15.179 -0.8354  0.8578 -1.3205
 6125SOL     OW30010   3.421   3.386   1.974 -0.4696 -0.1036  0.3729
 6125SOL    HW130011   3.462   3.304   2.001  1.2151  1.1733  1.6473
 6125SOL    HW230012   3.374   3.361   1.894  1.4834 -0.4520 -0.6654
 6126SOL     OW30013   1.405   0.634   2.005 -0.1703 -0.5647 -0.1255
 6126SOL    HW130014   1.407   0.554   1.953  0.0849  0.5601 -1.8690
 6126SOL    HW230015   1.491   0.635   2.046 -0.0414  0.4583 -0.4231
 6127SOL     OW30016   1.625   2.673  12.199 -0.6081  0.2038  0.3938
 6127SOL    HW130017   1.661   2.683  12.110 -0.2583  1.4809  0.6827
 6127SOL    HW230018   1.649   2.583  12.221  1.1327  1.1445  2.3956
 6128SOL     OW30019   1.441   1.772   0.072 -0.0922  0.5420 -0.1718
 6128SOL    HW130020   1.452   1.719  17.736  0.3693  2.0438 -1.1081
 6128SOL    HW230021   1.415   1.855   0.033 -1.8556 -0.7833 -1.8145
 6129SOL     OW30022   0.307   2.522  16.307  0.1696  0.2379  1.0728
 6129SOL    HW130023   0.391   2.546  16.347  1.1004  0.5117 -1.0383
 6129SOL    HW230024   0.286   2.447  16.362 -0.0867 -0.7465 -0.4037
 6130SOL     OW30025   4.719   0.385  11.622  0.6213 -0.2341  0.7504
 6130SOL    HW130026   0.070   0.372  11.659  1.0252  0.5325  0.0824
 6130SOL    HW230027   4.716   0.481  11.618 -1.8307 -0.4184 -1.4436
 6131SOL     OW30028   3.932   2.652   3.181  0.3352 -0.1539  0.8246
 6131SOL    HW130029   3.981   2.728   3.150 -1.4040  1.1844  1.3468
 6131SOL    HW230030   3.961   2.591   3.113  1.0763  0.2940  0.7373
 6132SOL     OW30031   1.725   3.849   5.472 -0.1706  0.0745  0.1569
 6132SOL    HW130032   1.784   3.791   5.519 -0.5437  1.0165  1.7768
 6132SOL    HW230033   1.644   3.831   5.519  0.4214 -0.5207  0.9504
 6133SOL     OW30034   0.556   2.305   5.084 -0.1370  0.7602  0.6554
 6133SOL    HW130035   0.606   2.261   5.153  0.9370  2.2551  0.8278
 6133SOL    HW230036   0.467   2.273   5.101  0.3524 -1.1784 -0.5022
 6134SOL     OW30037   4.097   0.791  16.853  0.3460 -0.6029 -0.3318
 6134SOL    HW130038   4.016   0.761  16.813 -0.0107 -0.3630  0.2198
 6134SOL    HW230039   4.167   0.761  16.795  0.8234  2.4483 -1.3801
 6135SOL     OW30040   0.681   4.380   1.937  0.1987  0.2498  0.2330
 6135SOL    HW130041   0.736   4.313   1.898 -0.4775 -0.6752  0.8867
 6135SOL    HW230042   0.619   4.324   1.984 -1.1639  2.0278  0.5664
 6136SOL     OW30043   1.506   0.818   0.610 -0.1844 -0.0771 -0.0992
 6136SOL    HW130044   1.545   0.899   0.579 -0.1355  1.5348  4.2888
 6136SOL    HW230045   1.580   0.770   0.647  1.4629  0.6447 -2.4465
 6137SOL     OW30046   0.725   2.397  12.665 -0.6047 -0.2895  0.0610
 6137SOL    HW130047   0.798   2.441  12.622 -2.5950  0.2090 -2.8176
 6137SOL    HW230048   0.740   2.306  12.643 -0.2938 -0.5037  1.1643
 6138SOL     OW30049   3.097   0.865   2.485 -0.0892 -0.0737  0.1823
 6138SOL    HW130050   3.036   0.912   2.541  1.0092 -1.1571  2.2726
 6138SOL    HW230051   3.139   0.815   2.555 -0.7113 -3.0005 -1.5261
 6139SOL     OW30052   0.074   1.373   2.859 -0.4016 -0.2534  0.1312
 6139SOL    HW130053   4.731   1.325   2.836 -0.8647  1.3335 -1.5056
 6139SOL    HW230054   0.120   1.393   2.778 -0.5716  1.9865  0.6029
 6140SOL     OW30055   2.186   2.177  13.109  0.2155  0.2557  0.0985
 6140SOL    HW130056   2.209   2.174  13.017 -0.2108 -2.1127  0.0793
 6140SOL    HW230057   2.131   2.099  13.120  1.4132 -0.7962 -1.5266
 6141SOL     OW30058   2.873   2.764   2.674  0.1975 -0.2324 -0.3941
 6141SOL    HW130059   2.899   2.685   2.722 -0.8226 -0.8240 -0.8009
 6141SOL    HW230060   2.954   2.808   2.649  0.6372 -0.3753  0.8052
 6142SOL     OW30061   4.297   0.889   4.447  0.2257  0.0799  0.3451
 6142SOL    HW130062   4.324   0.890   4.539  0.0535 -0.9492  0.4015
 6142SOL    HW230063   4.364   0.830   4.412 -1.3314 -1.3291 -0.2276
 6143SOL     OW30064   4.469   3.460   7.940  0.1882  0.2345  0.1890
 6143SOL    HW130065   4.451   3.378   7.986 -0.5879  0.0026 -0.5317
 6143SOL    HW230066   4.518   3.413   7.873 -0.2068  0.9714 -0.6073
 6144SOL     OW30067   4.451   1.481   2.385  0.0981  0.4040  0.2372
 6144SOL    HW130068   4.454   1.559   2.328  0.2598  0.1268 -0.1311
 6144SOL    HW230069   4.390   1.505   2.455  0.0244 -1.6303  0.8592
 6145SOL     OW30070   4.481   4.490  10.076  0.7268 -0.1815  0.6167
 6145SOL    HW130071   4.531   4.538  10.142  0.0689  1.7239 -0.2648
 6145SOL    HW230072   4.512   4.403  10.099  0.9714 -0.5365 -1.0369
 6146SOL     OW30073   2.641   2.133   7.320  0.9092  0.9201  0.4778
 6146SOL    HW130074   2.630   2.187   7.242 -1.3378 -1.4663 -0.8642
 6146SOL    HW230075   2.597   2.181   7.391  0.1527  0.5691  0.2436
 6147SOL     OW30076   2.407   0.428  16.127  0.6207  0.6640 -0.0011
 6147SOL    HW130077   2.483   0.430  16.069  0.1404  0.5874 -0.6423
 6147SOL    HW230078   2.448   0.405  16.210 -2.2093 -5.3945 -0.3216
 6148SOL     OW30079   3.465   0.014   7.984 -0.5443  0.6838 -0.4280
 6148SOL    HW130080   3.472   0.106   8.006  0.1104  0.1436  1.6430
 6148SOL    HW230081   3.372   4.732   8.000 -0.0606  0.2452  1.9838
 6149SOL     OW30082   1.461   2.161   7.546  0.1297 -0.3604 -0.0536
 6149SOL    HW130083   1.526   2.093   7.530 -0.6582 -0.9365 -0.8008
 6149SOL    HW230084   1.481   2.223   7.476  2.6303 -0.0796  0.9224
 6150SOL     OW30085   3.933   0.919   4.495  0.3427  0.0009 -0.5231
 6150SOL    HW130086   3.888   0.835   4.497  1.6283 -0.6924 -0.2232
 6150SOL    HW230087   3.992   0.910   4.420  1.4237 -0.6682  0.3909
 6151SOL     OW30088   3.433   3.048   2.451  0.4906  0.0129  0.4327
 6151SOL    HW130089   3.488   2.976   2.421 -0.1477 -1.2499  2.2651
 6151SOL    HW230090   3.427   3.103   2.373 -0.8967 -2.7653 -1.4340
 6152SOL     OW30091   4.592   3.991   8.859  0.2232 -0.7467 -0.7226
 6152SOL    HW130092   4.592   4.086   8.841  0.8817 -0.4390  0.9092
 6152SOL    HW230093   4.501   3.975   8.836 -0.3860  0.2927  1.0128
 6153SOL     OW30094   0.067   3.675   1.883 -0.1689 -0.1533 -0.0137
 6153SOL    HW130095   0.035   3.612   1.947  1.1164 -0.7483  0.0357
 6153SOL    HW230096   0.015   3.751   1.910 -0.1783 -0.5419  1.0473
 6154SOL     OW30097   3.167   3.264   7.307  0.3417 -0.0313  0.3431
 6154SOL    HW130098   3.183   3.349   7.346  1.6663 -0.9414  1.7635
 6154SOL    HW230099   3.081   3.250   7.347 -0.3075  1.4893 -0.5024
 6155SOL     OW30100   0.950   2.260   4.092 -0.0633 -0.2563 -0.1530
 6155SOL    HW130101   0.893   2.334   4.072 -1.2211 -0.9720  0.4985
 6155SOL    HW230102   0.942   2.220   4.005 -0.0611 -1.9100  0.5999
 6156SOL     OW30103   1.533   1.281  12.327 -0.1972  0.7502 -0.0589
 6156SOL    HW130104   1.567   1.363  12.293  1.2998  0.1215 -0.0642
 6156SOL    HW230105   1.577   1.225  12.263 -1.7713 -0.2755 -0.2481
 6157SOL     OW30106   2.634   0.677   5.874  0.6698 -0.0431  0.3066
 6157SOL    HW130107   2.617   0.766   5.844  1.2505  0.8789  2.7548
 6157SOL    HW230108   2.661   0.639   5.790 -2.5156  0.1212 -0.7654
 6158SOL     OW30109   3.088   2.732   5.763 -0.5115 -0.0015  0.0319
 6158SOL    HW130110   3.132   2.764   5.842 -0.6207  0.9542 -0.2949
 6158SOL    HW230111   3.017   2.676   5.795 -0.0366  0.4235  1.8613
 6159SOL     OW30112   1.254   2.399  14.373  0.2144 -0.1597 -0.2403
 6159SOL    HW130113   1.202   2.472  14.406 -0.0815 -0.7689  0.6766
 6159SOL    HW230114   1.335   2.405  14.424 -1.6394 -0.0279  2.6973
 6160SOL     OW30115   4.399   0.268   4.594  0.6203  0.4452 -0.2987
 6160SOL    HW130116   4.311   0.304   4.599  0.2662 -0.2253 -1.7777
 6160SOL    HW230117   4.426   0.297   4.682  0.0543  0.4439 -0.1251
 6161SOL     OW30118   4.207   4.422   3.047  1.0502  0.1294 -0.9234
 6161SOL    HW130119   4.263   4.463   2.982 -1.0743  3.0674 -0.8792
 6161SOL    HW230120   4.120   4.445   3.014  0.3115 -1.4074 -0.0668
 6162SOL     OW30121   2.160   1.230  10.853 -0.3977 -0.3690 -0.5292
 6162SOL    HW130122   2.166   1.150  10.906 -2.2042  1.2641  2.1795
 6162SOL    HW230123   2.109   1.278  10.918 -2.2821 -1.0358 -1.5114
 6163SOL     OW30124   0.939   4.470  15.353  0.0037  0.4043 -0.1380
 6163SOL    HW130125   0.855   4.466  15.307 -2.1973  1.1916  3.8027
 6163SOL    HW230126   0.994   4.502  15.282  2.1743 -2.8816  0.0582
 6164SOL     OW30127   0.747   1.391   6.463  0.1940  0.5728 -0.4024
 6164SOL    HW130128   0.705   1.315   6.504 -0.2816  0.1869 -1.6020
 6164SOL    HW230129   0.820   1.350   6.416 -0.1468  0.4270 -0.8000
 6165SOL     OW30130   3.821   2.960   7.881 -0.5790  0.3254 -0.3334
 6165SOL    HW130131   3.794   3.039   7.835 -0.0664  0.1359 -0.9693
 6165SOL    HW230132   3.868   2.997   7.956 -1.3596 -2.0592  1.3079
 6166SOL     OW30133   0.565   0.141   2.214 -0.2880 -0.2588 -0.2085
 6166SOL    HW130134   0.647   0.171   2.174 -0.4245  1.3010  0.6773
 6166SOL    HW230135   0.510   0.132   2.136  1.9857 -2.1438 -1.6107
 6167SOL     OW30136   0.971   3.860   6.820  0.1566 -0.2592 -0.0350
 6167SOL    HW130137   1.053   3.824   6.787  1.0975 -1.5327  3.6767
 6167SOL    HW230138   0.912   3.788   6.794 -1.7580  0.4840  2.2517
 6168SOL     OW30139   1.346   0.897   1.921 -0.0289  0.1283 -0.3520
 6168SOL    HW130140   1.356   0.802   1.931  1.1940  0.4259  1.3239
 6168SOL    HW230141   1.411   0.942   1.975  0.3974 -0.3464 -0.4679
 6169SOL     OW30142   0.769   0.638  12.317 -0.2094  0.8409  0.2317
 6169SOL    HW130143   0.710   0.629  12.391  0.0197 -1.9323  0.0527
 6169SOL    HW230144   0.824   0.561  12.324 -1.0295  0.0698 -1.6751
 6170SOL     OW30145   4.005   4.523  13.262  0.1254 -0.8327 -0.2621
 6170SOL    HW130146   4.032   4.611  13.286 -3.5711 -0.2009  1.5919
 6170SOL    HW230147   4.037   4.511  13.173  2.5539  1.6840  0.2542
 6171SOL     OW30148   2.286   2.860   9.002 -0.0159 -0.6228  0.2019
 6171SOL    HW130149   2.278   2.841   9.095  0.5610 -1.2057  0.1393
 6171SOL    HW230150   2.309   2.952   9.013 -2.8827 -0.0883  1.5543
 6172SOL     OW30151   1.866   4.180  10.895 -0.1351 -0.9376 -0.5103
 6172SOL    HW130152   1.953   4.195  10.931 -0.8172  1.0879  0.2403
 6172SOL    HW230153   1.823   4.136  10.969 -3.3081  1.9358 -0.6390
 6173SOL     OW30154   3.200   1.360   3.387  0.2356  0.4968  0.2210
 6173SOL    HW130155   3.134   1.419   3.424 -0.2367 -0.2729  0.6093
 6173SOL    HW230156   3.196   1.278   3.436  0.7966 -0.9776 -2.2175
 6174SOL     OW30157   4.733   2.123   9.176  0.8869 -0.5831 -0.2574
 6174SOL    HW130158   0.047   2.110   9.257  0.7162 -0.1628 -0.0866
 6174SOL    HW230159   4.717   2.032   9.150  0.7162 -0.1228 -1.7752
 6175SOL     OW30160   1.003   3.769  11.062  0.5661 -0.0512 -0.6436
 6175SOL    HW130161   1.058   3.731  11.130  1.8151  2.5717 -0.1918
 6175SOL    HW230162   1.065   3.826  11.019 -0.6384  1.0268 -0.9612
 6176SOL     OW30163   1.259   3.729   1.757  0.0401 -0.0984  0.1959
 6176SOL    HW130164   1.336   3.702   1.707  1.3835 -0.1034  2.2801
 6176SOL    HW230165   1.204   3.750   1.681  0.1608  0.4392  0.2621
 6177SOL     OW30166   3.229   3.202  13.192 -0.2182 -0.0434 -0.0077
 6177SOL    HW130167   3.208   3.273  13.131  1.1778 -0.7541 -1.3042
 6177SOL    HW230168   3.290   3.149  13.141 -0.0186 -0.3847  0.5828
 6178SOL     OW30169   3.964   1.710   7.817  0.3174  0.1907 -0.1500
 6178SOL    HW130170   3.980   1.778   7.753 -2.4547  0.2926 -0.7259
 6178SOL    HW230171   3.890   1.665   7.777  0.2320 -0.2011  0.4358
 6179SOL     OW30172   3.526   1.597   2.831  0.0924  0.0787 -0.0822
 6179SOL    HW130173   3.438   1.559   2.833  1.6311 -3.4491  0.3800
 6179SOL    HW230174   3.515   1.660   2.759  1.6092  0.4106 -0.0206
 6180SOL     OW30175   2.865   1.255   8.200 -0.6901 -0.1686 -0.6938
 6180SOL    HW130176   2.845   1.222   8.288  0.8448 -0.4719 -0.4532
 6180SOL    HW230177   2.868   1.350   8.208 -0.4961 -0.1645 -0.8186
 6181SOL     OW30178   3.333   1.786   5.928 -0.2468  0.5204 -0.6231
 6181SOL    HW130179   3.289   1.866   5.899 -2.1716 -0.3523 -0.1540
 6181SOL    HW230180   3.426   1.803   5.918 -0.5308  1.9016 -0.8972
 6182SOL     OW30181   2.330   3.401  13.527 -0.1596 -0.5101  0.4084
 6182SOL    HW130182   2.380   3.478  13.554  0.6631 -0.8715 -0.0972
 6182SOL    HW230183   2.249   3.415  13.576 -0.1861 -1.5768  0.6662
 6183SOL     OW30184   4.259   2.826   7.472  0.0921 -0.0671 -0.0211
 6183SOL    HW130185   4.188   2.862   7.419 -0.3579 -1.2312 -0.2046
 6183SOL    HW230186   4.230   2.737   7.490 -0.6860  0.1750 -0.0560
 6184SOL     OW30187   0.286   4.722   9.331  0.2915  0.0415 -0.0778
 6184SOL    HW130188   0.341   0.044   9.384 -0.2919  0.5845 -0.0724
 6184SOL    HW230189   0.274   4.658   9.402 -0.0599  0.6406  0.3987
 6185SOL     OW30190   1.305   1.644   8.470  0.2870  0.1354 -0.0164
 6185SOL    HW130191   1.259   1.568   8.434 -0.9397 -0.2546  2.4324
 6185SOL    HW230192   1.281   1.636   8.562 -1.3770  1.3252 -0.3506
 6186SOL     OW30193   3.520   3.131   8.153  0.4813  0.2123 -0.0660
 6186SOL    HW130194   3.567   3.178   8.222 -1.9853 -0.9533  2.4052
 6186SOL    HW230195   3.568   3.147   8.072 -0.8965  0.3759 -0.8561
 6187SOL     OW30196   2.455   3.815  11.045 -0.9224  0.3093  0.9788
 6187SOL    HW130197   2.390   3.777  10.986  0.6823  2.2659 -2.0612
 6187SOL    HW230198   2.504   3.736  11.069  0.3229  0.0314 -2.3534
 6188SOL     OW30199   1.307   3.884  10.384  0.0490  0.2643  0.0612
 6188SOL    HW130200   1.344   3.968  10.355  2.5943 -0.6823  0.5610
 6188SOL    HW230201   1.364   3.873  10.460  0.7118 -1.2231 -0.6539
 6189SOL     OW30202   4.729   3.306   3.922  0.1434  0.4527  0.1056
 6189SOL    HW130203   4.663   3.308   3.853 -0.3807  2.3308  0.6417
 6189SOL    HW230204   0.037   3.222   3.912 -0.5945  0.1333 -0.4350
 6190SOL     OW30205   3.486   0.728  10.082  0.6975  0.5934  0.2537
 6190SOL    HW130206   3.430   0.782  10.137 -0.6482 -0.8833  0.3186
 6190SOL    HW230207   3.529   0.678  10.151 -0.4897 -0.1766  0.4260
 6191SOL     OW30208   1.822   0.054   8.397  0.1563 -0.0579 -0.0279
 6191SOL    HW130209   1.866   0.128   8.438 -0.7578  0.4918 -0.0457
 6191SOL    HW230210   1.891   4.723   8.404  0.2082 -0.2050 -1.7978
 6192SOL     OW30211   1.184   3.647  11.199 -0.1334  0.2390 -0.7240
 6192SOL    HW130212   1.205   3.646  11.293  0.1842  1.8161 -0.7714
 6192SOL    HW230213   1.256   3.593  11.165  0.8606 -0.3032  2.2138
 6193SOL     OW30214   3.444   4.254   3.030 -0.0989  0.1520  0.2607
 6193SOL    HW130215   3.389   4.325   2.998  0.3501  0.1376 -0.5446
 6193SOL    HW230216   3.381   4.182   3.029  0.1335 -0.0255 -1.9157
 6194SOL     OW30217   3.234   2.969   4.541  0.0546  0.2515 -0.1689
 6194SOL    HW130218   3.286   2.890   4.556  0.4907  0.9466  1.9024
 6194SOL    HW230219   3.242   2.981   4.446 -0.7019 -0.7382 -0.3600
 6195SOL     OW30220   0.992   2.693  17.332  0.2357 -0.5108 -0.2564
 6195SOL    HW130221   0.966   2.614  17.285 -2.3172 -0.1025  0.5011
 6195SOL    HW230222   0.995   2.667  17.424 -0.0930  0.6480  0.0826
 6196SOL     OW30223   3.962   0.517  10.405  0.6457  0.1447 -0.1388
 6196SOL    HW130224   3.917   0.434  10.421 -0.6994  0.5923 -1.5637
 6196SOL    HW230225   4.030   0.518  10.472  0.1553 -3.0357  0.4395
 6197SOL     OW30226   4.194   2.537  12.894  0.0866 -0.2663  0.4623
 6197SOL    HW130227   4.275   2.565  12.936  2.0039 -1.3358 -2.5356
 6197SOL    HW230228   4.211   2.570  12.806  0.3014  0.2336  0.6953
 6198SOL     OW30229   0.818   0.579   9.653  0.4886 -0.5841 -0.1076
 6198SOL    HW130230   0.819   0.599   9.560 -1.0277 -3.4622 -0.7541
 6198SOL    HW230231   0.913   0.573   9.665  0.4890  1.8465  1.0365
 6199SOL     OW30232   4.679   2.114   7.244 -0.3282 -0.2388 -0.3558
 6199SOL    HW130233   0.015   2.106   7.181  1.0766 -1.6614  1.4435
 6199SOL    HW230234   4.600   2.113   7.189 -1.1193  2.1684  0.7259
 6200SOL     OW30235   2.693   2.687  17.146 -0.2817 -0.2248 -0.2517
 6200SOL    HW130236   2.737   2.633  17.212  0.3340 -1.5251 -1.7268
 6200SOL    HW230237   2.701   2.645  17.060  0.2536 -0.2859 -0.1718
 6201SOL     OW30238   2.068   4.670   4.985 -0.0978  0.1441  0.3092
 6201SOL    HW130239   2.037   4.674   5.075  0.2528 -0.5487  0.4612
 6201SOL    HW230240   1.994   4.683   4.926  0.5097  0.3842 -0.4104
 6202SOL     OW30241   0.052   1.439   5.667  0.1095 -0.1966 -0.1550
 6202SOL    HW130242   0.059   1.517   5.612  2.0669 -1.1820 -1.3210
 6202SOL    HW230243   0.056   1.469   5.757  0.0487 -1.5876  0.3154
 6203SOL     OW30244   1.313   3.656  12.855  0.8150 -0.5646 -0.0752
 6203SOL    HW130245   1.377   3.606  12.905  0.0144 -0.0609  1.4531
 6203SOL    HW230246   1.236   3.600  12.861  0.1835  0.5604  2.2104
 6204SOL     OW30247   0.696   2.251   3.419  0.0988 -0.0996 -0.9727
 6204SOL    HW130248   0.735   2.165   3.437 -0.8287 -0.2593  0.2535
 6204SOL    HW230249   0.678   2.244   3.325  3.3278 -0.2922 -1.5907
 6205SOL     OW30250   2.596   0.267   7.046  0.6424  0.1429  0.6524
 6205SOL    HW130251   2.572   0.230   7.131 -0.0214 -1.0684 -0.0635
 6205SOL    HW230252   2.516   0.315   7.026 -0.0978 -1.5870 -0.5250
 6206SOL     OW30253   4.520   1.055   1.979  0.6134  0.0117  0.4080
 6206SOL    HW130254   4.506   1.134   2.031 -2.4005 -0.1407 -0.2218
 6206SOL    HW230255   4.527   1.095   1.892 -0.3953  0.3335  0.4866
 6207SOL     OW30256   1.495   3.212   7.106 -0.2181 -0.6442 -0.5825
 6207SOL    HW130257   1.523   3.251   7.189 -2.2925 -0.2129 -0.0958
 6207SOL    HW230258   1.415   3.261   7.088  1.5176  2.1074 -0.9181
 6208SOL     OW30259   3.118   0.863  12.291 -0.3625 -0.0792  0.4136
 6208SOL    HW130260   3.067   0.940  12.316 -1.0265 -0.1619 -0.7184
 6208SOL    HW230261   3.059   0.787  12.287 -0.6514  0.0052  2.6100
 6209SOL     OW30262   0.470   4.204   6.645  0.5071  0.3465  0.6031
 6209SOL    HW130263   0.532   4.201   6.718 -1.7561 -3.1491  2.3777
 6209SOL    HW230264   0.463   4.299   6.638 -0.9354  0.0910 -1.1728
 6210SOL     OW30265   2.930   0.030  10.716 -0.0468  0.2074 -0.2598
 6210SOL    HW130266   3.021   4.736  10.712 -0.0116  0.4183 -1.0278
 6210SOL    HW230267   2.888   4.681  10.700 -3.5564  2.5101 -3.2965
 6211SOL     OW30268   0.254   3.847   9.325  0.5146  0.4575  0.7515
 6211SOL    HW130269   0.191   3.915   9.348 -1.8643 -1.0086 -1.3728
 6211SOL    HW230270   0.196   3.790   9.274  0.0606  0.9192  0.7570
 6212SOL     OW30271   0.146   0.718   1.554  0.3588  0.1163  0.5869
 6212SOL    HW130272   0.114   0.665   1.628 -0.4246 -0.3265 -0.0664
 6212SOL    HW230273   0.162   0.792   1.612  0.1720 -0.0246  0.8246
 6213SOL     OW30274   1.647   4.568   5.820 -0.0678 -0.6536 -0.5097
 6213SOL    HW130275   1.719   4.556   5.757 -1.6778  0.4821 -2.5888
 6213SOL    HW230276   1.630   4.484   5.862  2.4265 -1.4984 -1.2099
 6214SOL     OW30277   0.382   3.270   4.882  0.0025 -0.0489  0.3053
 6214SOL    HW130278   0.415   3.356   4.908  0.7770 -0.2896  0.1259
 6214SOL    HW230279   0.290   3.279   4.909 -0.1010  2.0823 -0.7686
 6215SOL     OW30280   3.851   4.152   3.117  0.3196  0.3034 -0.2050
 6215SOL    HW130281   3.840   4.218   3.185  1.0703 -0.1937  0.3914
 6215SOL    HW230282   3.877   4.073   3.164  1.1997 -0.4572 -1.9524
 6216SOL     OW30283   4.393   0.957   5.659 -0.1595  0.1073  0.5438
 6216SOL    HW130284   4.341   0.940   5.581 -0.9483  0.7409  0.9370
 6216SOL    HW230285   4.388   1.052   5.671 -1.1896 -0.1213  1.9331
 6217SOL     OW30286   0.117   1.481   0.051 -0.9761  0.1171 -0.4466
 6217SOL    HW130287   0.181   1.458   0.119 -0.8047 -0.4647 -0.8085
 6217SOL    HW230288   0.158   1.432  17.724 -1.8581 -1.1481 -0.0744
 6218SOL     OW30289   2.977   2.621   6.418 -0.1821  0.2099 -0.2711
 6218SOL    HW130290   2.983   2.529   6.446  1.8871 -0.1289 -1.8650
 6218SOL    HW230291   3.036   2.661   6.481 -1.3245 -0.2518  1.1076
 6219SOL     OW30292   2.951   3.458   8.063 -0.4192  0.4172  0.0689
 6219SOL    HW130293   2.900   3.431   7.986  0.3774  0.0293 -0.3204
 6219SOL    HW230294   2.940   3.373   8.106  0.5818  0.6998  0.8768
 6220SOL     OW30295   1.914   0.548  13.863 -0.0583 -0.0346 -0.6152
 6220SOL    HW130296   1.921   0.582  13.952  1.6910 -0.7512 -0.4806
 6220SOL    HW230297   1.930   0.457  13.886  1.1374  0.5844  0.9416
 6221SOL     OW30298   2.845   2.239  15.382 -0.8911  0.0692  0.2476
 6221SOL    HW130299   2.940   2.239  15.371 -1.2686  0.3338 -3.0579
 6221SOL    HW230300   2.841   2.236  15.477 -0.3303 -2.5830  0.2043
 6222SOL     OW30301   2.700   0.430  11.692  0.9831 -0.5452 -0.5449
 6222SOL    HW130302   2.774   0.485  11.664  0.1667  0.9314  0.2291
 6222SOL    HW230303   2.639   0.486  11.739  0.1804 -0.4823 -1.6769
 6223SOL     OW30304   0.535   1.264   9.315 -0.3926 -0.2145 -0.5116
 6223SOL    HW130305   0.543   1.354   9.285 -2.0356  0.5493  1.3659
 6223SOL    HW230306   0.473   1.232   9.250  1.5010 -2.2420 -1.3392
 6224SOL     OW30307   1.292   1.807   8.042 -0.0300  0.4860  0.0635
 6224SOL    HW130308   1.223   1.778   7.984 -0.2419  2.5148 -0.6976
 6224SOL    HW230309   1.363   1.786   7.982  0.3446  1.4890  0.1426
 6225SOL     OW30310   0.860   0.838   1.721  0.3687 -0.0074  0.5857
 6225SOL    HW130311   0.844   0.796   1.805 -2.6303  0.8454  0.4472
 6225SOL    HW230312   0.770   0.844   1.687  0.3835  2.4309  0.9249
 6226SOL     OW30313   0.559   1.844   3.789  0.5014  0.5064  0.3375
 6226SOL    HW130314   0.543   1.749   3.789 -0.8441  0.7352 -0.4619
 6226SOL    HW230315   0.623   1.839   3.860  0.2832  0.4586  0.5317
 6227SOL     OW30316   0.207   3.395  10.289  0.4484 -0.3013  0.2060
 6227SOL    HW130317   0.193   3.457  10.218  0.7047 -1.6082 -0.9738
 6227SOL    HW230318   0.150   3.436  10.355  0.2157 -0.1554 -0.0893
 6228SOL     OW30319   2.105   2.874   6.866 -0.0055 -0.1571  0.1709
 6228SOL    HW130320   2.195   2.875   6.834 -0.8554  0.4766 -2.1874
 6228SOL    HW230321   2.109   2.964   6.900  2.2995 -0.0872 -0.2763
 6229SOL     OW30322   0.435   0.795   8.739 -0.0020  0.5595 -0.2319
 6229SOL    HW130323   0.383   0.765   8.665  0.9488 -0.5788 -0.4306
 6229SOL    HW230324   0.449   0.885   8.709  1.3054 -0.5296 -2.8893
 6230SOL     OW30325   0.560   3.498   6.290 -0.2290 -0.0071  0.0805
 6230SOL    HW130326   0.504   3.567   6.254 -1.3210  0.4001  2.5958
 6230SOL    HW230327   0.554   3.514   6.384 -0.2683 -0.7561  0.2028
 6231SOL     OW30328   2.886   2.854   8.152 -0.5989  0.5148 -0.0363
 6231SOL    HW130329   2.914   2.905   8.228  1.8700  0.1775 -0.7067
 6231SOL    HW230330   2.807   2.804   8.172 -0.6379  0.4804 -0.2682
 6232SOL     OW30331   4.532   3.871  15.902 -0.3693  0.0372  0.4760
 6232SOL    HW130332   4.564   3.957  15.874  0.4263 -1.1015 -2.0624
 6232SOL    HW230333   4.482   3.842  15.826  0.9993 -1.3249  0.0919
 6233SOL     OW30334   1.926   4.647   4.659 -0.3179 -0.0857 -0.1305
 6233SOL    HW130335   1.905   4.657   4.566  2.2393  1.8607 -0.4834
 6233SOL    HW230336   1.951   0.000   4.681 -0.7864 -0.3975  1.7007
 6234SOL     OW30337   2.391   1.958   1.849 -0.2726  0.1043  0.8793
 6234SOL    HW130338   2.461   1.935   1.787 -1.3344  1.4017 -0.8250
 6234SOL    HW230339   2.397   1.879   1.902  1.2120  0.5420  1.3495
 6235SOL     OW30340   1.346   4.595  14.042 -0.6229  0.1182 -0.5320
 6235SOL    HW130341   1.423   4.546  14.013  0.4722  1.1316  0.6396
 6235SOL    HW230342   1.337   4.567  14.134 -0.0673  1.7994  0.0352
 6236SOL     OW30343   2.123   1.493   6.839  0.6493 -0.4596 -0.0509
 6236SOL    HW130344   2.173   1.424   6.884  1.9610  1.2993  1.1818
 6236SOL    HW230345   2.191   1.559   6.853 -2.0675  2.8050 -2.4293
 6237SOL     OW30346   0.980   4.286   4.889  0.1169  0.1419  0.2063
 6237SOL    HW130347   1.069   4.287   4.854  0.4410  0.9777  1.0640
 6237SOL    HW230348   0.976   4.208   4.944  0.5816 -0.1338 -0.1590
 6238SOL     OW30349   1.873   3.976   3.344  0.0200  0.1708  0.1270
 6238SOL    HW130350   1.822   4.029   3.283 -0.6123 -0.9461 -0.3134
 6238SOL    HW230351   1.819   3.995   3.421 -0.5424 -0.1339 -0.1885
 6239SOL     OW30352   0.579   4.395   3.530 -0.0366 -0.0996 -0.1521
 6239SOL    HW130353   0.674   4.391   3.518 -0.0665 -0.7743 -0.1576
 6239SOL    HW230354   0.545   4.385   3.442 -0.8823  1.7725 -0.0457
 6240SOL     OW30355   2.947   0.205   2.873  0.4233 -0.0313  0.2085
 6240SOL    HW130356   2.863   0.197   2.827 -0.5050 -0.9308  2.0510
 6240SOL    HW230357   2.994   0.124   2.856  0.0417 -0.4565  1.1507
 6241SOL     OW30358   3.980   3.857  12.909  0.2724 -0.5333  0.3813
 6241SOL    HW130359   3.970   3.765  12.881  1.7134 -0.6555  0.2692
 6241SOL    HW230360   3.899   3.903  12.886  1.7579  1.4143 -0.9140
 6242SOL     OW30361   1.828   2.974  10.384 -0.2139 -0.0224 -0.1612
 6242SOL    HW130362   1.753   2.972  10.444  1.4970  0.0465  1.9899
 6242SOL    HW230363   1.794   2.937  10.303 -1.6922  0.4165  0.2518
 6243SOL     OW30364   0.910   0.407   3.303  0.7146 -0.0494 -0.1315
 6243SOL    HW130365   0.915   0.502   3.307  1.5169 -0.0339 -1.4448
 6243SOL    HW230366   0.823   0.392   3.267  0.0220 -2.9008  2.7715
 6244SOL     OW30367   2.252   2.762   1.129 -0.0572 -0.4342 -0.2425
 6244SOL    HW130368   2.214   2.744   1.215 -0.6890 -0.8414 -0.6129
 6244SOL    HW230369   2.187   2.818   1.085 -0.5995 -0.9825 -0.1328
 6245SOL     OW30370   0.554   2.064  12.011 -0.4421  0.0725 -0.6273
 6245SOL    HW130371   0.543   2.013  12.091 -0.7513  0.3225 -0.5076
 6245SOL    HW230372   0.575   2.154  12.038  1.6923 -0.2327 -1.2472
 6246SOL     OW30373   1.452   1.365   1.642  0.4906  0.6597  0.3200
 6246SOL    HW130374   1.510   1.435   1.612  0.2415  0.7628  0.0855
 6246SOL    HW230375   1.405   1.338   1.563 -0.9372  1.1402  0.9925
 6247SOL     OW30376   2.373   0.170   4.256  0.1239 -0.2975  0.1993
 6247SOL    HW130377   2.288   0.145   4.294 -0.0083 -1.5678 -0.9204
 6247SOL    HW230378   2.348   0.193   4.166 -1.5305  3.0232  1.5004
 6248SOL     OW30379   1.140   0.648   2.117 -0.0476 -0.6697  0.0800
 6248SOL    HW130380   1.166   0.723   2.170  1.3212 -0.9690 -0.1843
 6248SOL    HW230381   1.211   0.647   2.053  0.8426  1.2642  1.0260
 6249SOL     OW30382   3.362   2.734   1.432 -0.0380 -0.1440  0.5892
 6249SOL    HW130383   3.444   2.783   1.436  0.2227 -0.4003 -1.7573
 6249SOL    HW230384   3.370   2.674   1.358  0.2775  0.1199  0.4138
 6250SOL     OW30385   0.194   3.694  16.390 -0.5159  0.5359  0.3174
 6250SOL    HW130386   0.257   3.715  16.320  0.6190 -1.2715  0.7915
 6250SOL    HW230387   0.234   3.613  16.422 -0.2060  0.9119  0.8783
 6251SOL     OW30388   3.146   4.652   6.318 -0.5966 -0.2715  0.4522
 6251SOL    HW130389   3.133   4.654   6.223 -0.0475  2.4486  0.4457
 6251SOL    HW230390   3.087   4.585   6.352  0.3793 -1.3581 -0.0159
 6252SOL     OW30391   3.973   2.440   5.181  0.5276 -0.1492  0.2543
 6252SOL    HW130392   3.930   2.356   5.165  1.5169 -0.8113  1.0368
 6252SOL    HW230393   4.032   2.439   5.106 -1.1295 -3.0295 -1.0172
 6253SOL     OW30394   1.659   4.382   3.167  0.0440 -0.2906  0.1319
 6253SOL    HW130395   1.590   4.434   3.126  1.1547 -0.0512 -1.4431
 6253SOL    HW230396   1.720   4.406   3.098  1.3318 -1.3123  0.9106
 6254SOL     OW30397   2.384   1.660   6.287 -0.3096 -0.2527  0.0631
 6254SOL    HW130398   2.433   1.635   6.209  0.4243 -0.1011  0.4770
 6254SOL    HW230399   2.430   1.625   6.363 -0.1660  2.9471  1.4648
 6255SOL     OW30400   3.114   3.561   4.318 -0.7093  0.2438  0.2134
 6255SOL    HW130401   3.093   3.563   4.412  0.1675  2.0777  0.3693
 6255SOL    HW230402   3.154   3.475   4.316 -1.3001 -0.0412  0.6788
 6256SOL     OW30403   2.909   4.044   1.898  0.0981  0.2167  0.2335
 6256SOL    HW130404   2.985   4.008   1.854 -0.5821  0.6503 -1.2886
 6256SOL    HW230405   2.908   3.972   1.961 -0.2092  0.5266  0.5891
 6257SOL     OW30406   0.047   3.917   4.332 -0.2024 -0.2517 -0.3205
 6257SOL    HW130407   0.053   3.880   4.420  0.9599  0.0188 -0.2809
 6257SOL    HW230408   0.097   3.996   4.348  0.5561 -0.4159 -1.8211
 6258SOL     OW30409   0.778   0.386   9.216 -0.5506 -0.4431  0.7938
 6258SOL    HW130410   0.706   0.325   9.233 -1.1543  0.5063  1.6934
 6258SOL    HW230411   0.787   0.362   9.124  0.8372  1.2351  0.4996
 6259SOL     OW30412   0.054   1.127   7.959  0.5436  0.2442 -0.1535
 6259SOL    HW130413   0.080   1.035   7.957  2.1040  0.6656  0.8462
 6259SOL    HW230414   0.131   1.169   7.922  0.9095  0.9041  1.3528
 6260SOL     OW30415   4.452   2.748  14.672  0.0866  0.5689  0.2273
 6260SOL    HW130416   4.387   2.818  14.678 -1.1125 -0.5210 -0.0221
 6260SOL    HW230417   4.516   2.770  14.740 -0.3301  0.3307  0.6943
 6261SOL     OW30418   0.698   3.966  16.417  0.2458  0.2684  0.4596
 6261SOL    HW130419   0.672   3.901  16.483 -0.4902  0.7341  0.6274
 6261SOL    HW230420   0.793   3.962  16.422  0.0774 -1.9146  1.9974
 6262SOL     OW30421   1.678   1.352   2.987 -0.4539  0.0670  0.0614
 6262SOL    HW130422   1.630   1.425   2.947 -2.2203 -1.1633 -0.0577
 6262SOL    HW230423   1.691   1.295   2.911  1.0093  2.5768 -1.5735
 6263SOL     OW30424   2.642   4.616  16.383  0.5192 -0.3958  0.5535
 6263SOL    HW130425   2.599   4.554  16.324  1.9514 -2.2911  1.4912
 6263SOL    HW230426   2.615   4.589  16.471  0.0561  0.1754  0.5865
 6264SOL     OW30427   3.322   1.171   4.642  0.1038 -0.1055 -0.8208
 6264SOL    HW130428   3.362   1.088   4.664 -3.6312 -1.4355  0.9764
 6264SOL    HW230429   3.248   1.183   4.701  0.6074  0.0736 -0.2306
 6265SOL     OW30430   1.574   0.414  10.330 -0.1644 -0.0723  0.0664
 6265SOL    HW130431   1.519   0.453  10.262  1.0728 -0.0203 -0.9210
 6265SOL    HW230432   1.515   0.346  10.362 -1.2443  0.7682 -0.1604
 6266SOL     OW30433   1.452   4.072   6.864  0.0986  0.4525 -0.3971
 6266SOL    HW130434   1.425   3.985   6.894  0.5830  1.0950  1.8334
 6266SOL    HW230435   1.435   4.061   6.770  0.2318 -0.3190 -0.3357
 6267SOL     OW30436   0.055   1.719  10.005 -0.3695  0.0374 -0.3600
 6267SOL    HW130437   0.116   1.708   9.932  0.6000 -0.0557  0.4585
 6267SOL    HW230438   0.050   1.631  10.042  0.7802 -0.4255 -1.3117
 6268SOL     OW30439   4.040   4.099  13.090 -0.4427  0.0169 -0.1787
 6268SOL    HW130440   3.956   4.145  13.098  1.1900  2.6179  1.8193
 6268SOL    HW230441   4.044   4.110  12.995  2.8685 -0.1676 -0.0625
 6269SOL     OW30442   4.513   1.253   2.759  0.1938 -0.9023  0.8865
 6269SOL    HW130443   4.537   1.196   2.833 -2.8897 -1.9615  1.0796
 6269SOL    HW230444   4.430   1.213   2.732 -0.3720  1.0267 -0.2362
 6270SOL     OW30445   4.565   3.100   8.365 -0.7085 -0.2629  0.0805
 6270SOL    HW130446   4.619   3.134   8.436  3.0575 -1.1591 -2.3800
 6270SOL    HW230447   4.578   3.167   8.298  0.4067 -0.6862 -0.1135
 6271SOL     OW30448   3.003   2.918  13.778  0.2930 -0.1982 -0.3032
 6271SOL    HW130449   3.078   2.958  13.822 -1.1494  1.7835  0.4168
 6271SOL    HW230450   3.038   2.873  13.702  3.5683  0.9240  0.5109
 6272SOL     OW30451   0.789   3.637   9.106 -0.0698  0.0598 -0.7403
 6272SOL    HW130452   0.851   3.565   9.108 -1.6749 -1.2870  0.2111
 6272SOL    HW230453   0.791   3.675   9.194  0.6300  0.6109 -0.9892
 6273SOL     OW30454   3.167   2.540  11.022  0.8557 -0.4073  0.3483
 6273SOL    HW130455   3.135   2.452  11.041  0.4026 -0.5120 -0.8981
 6273SOL    HW230456   3.091   2.597  11.031  1.4191 -0.5526  5.5939
 6274SOL     OW30457   1.561   4.036   2.948  0.1300  0.5028  0.6083
 6274SOL    HW130458   1.488   4.053   3.009  0.3827  0.9313  0.7899
 6274SOL    HW230459   1.532   4.080   2.868 -2.1973  1.1428  1.7952
 6275SOL     OW30460   3.203   1.316   7.058  0.3355  0.6462 -0.3809
 6275SOL    HW130461   3.133   1.373   7.090  0.4590  0.9405 -0.6389
 6275SOL    HW230462   3.207   1.343   6.966  1.2178 -0.0442 -0.5426
 6276SOL     OW30463   1.588   1.223   6.343  0.2086 -0.0521  0.0442
 6276SOL    HW130464   1.677   1.220   6.379 -0.3109  1.4539  1.4545
 6276SOL    HW230465   1.597   1.293   6.279  0.0103 -0.6812 -0.6705
 6277SOL     OW30466   3.262   1.680   9.651  0.1308 -0.0862 -0.0261
 6277SOL    HW130467   3.355   1.669   9.631  0.2900 -0.2661  0.7869
 6277SOL    HW230468   3.252   1.760   9.601  1.3758 -0.4449 -0.8497
 6278SOL     OW30469   1.983   1.835   4.483  0.2027  0.5026  0.3970
 6278SOL    HW130470   1.945   1.922   4.476 -0.0009  0.2699 -1.2499
 6278SOL    HW230471   2.077   1.845   4.500  0.5057 -1.4732 -0.0652
 6279SOL     OW30472   1.446   3.593   2.439 -0.2752 -0.5034 -0.4748
 6279SOL    HW130473   1.492   3.578   2.522 -1.7070  1.0289  0.6259
 6279SOL    HW230474   1.375   3.654   2.461 -1.7726 -1.6883 -2.0269
 6280SOL     OW30475   1.992   3.222   2.249  0.3024  0.1430  0.3627
 6280SOL    HW130476   2.057   3.218   2.320  0.9871 -2.9331 -0.4378
 6280SOL    HW230477   1.993   3.314   2.226 -0.9653  0.1634  0.3877
 6281SOL     OW30478   2.668   0.828   5.243 -0.0440 -0.0243 -0.0785
 6281SOL    HW130479   2.687   0.767   5.315 -0.1278 -2.1886 -1.8706
 6281SOL    HW230480   2.706   0.781   5.169  0.2232 -0.2419  0.1964
 6282SOL     OW30481   1.939   0.229  14.810 -0.1252  0.1816 -0.0377
 6282SOL    HW130482   1.932   0.228  14.714  0.4679 -2.0822 -0.0463
 6282SOL    HW230483   1.849   0.217  14.839 -0.1962  0.6842 -0.0431
 6283SOL     OW30484   0.071   2.923   0.629 -0.5275 -0.3872 -0.6980
 6283SOL    HW130485   4.731   2.936   0.573  0.0204  2.1631 -0.8771
 6283SOL    HW230486   0.147   2.906   0.573  1.3185 -0.5396  1.8318
 6284SOL     OW30487   0.889   3.974   3.076 -0.1930  0.2344 -0.7872
 6284SOL    HW130488   0.947   3.943   3.146 -0.1449  1.2410 -0.3826
 6284SOL    HW230489   0.809   4.005   3.119  0.6196 -0.2011  1.0804
 6285SOL     OW30490   1.655   2.350  11.353 -0.4245 -0.6628  0.3780
 6285SOL    HW130491   1.626   2.384  11.438  0.4604  0.6348  0.1573
 6285SOL    HW230492   1.721   2.286  11.378  1.2662  0.5547 -0.9557
 6286SOL     OW30493   1.674   4.186   4.749  0.1521 -0.0733 -0.3080
 6286SOL    HW130494   1.677   4.151   4.837 -1.2242  3.1488  1.0131
 6286SOL    HW230495   1.703   4.276   4.768 -0.0792 -0.4299  1.6609
 6287SOL     OW30496   2.775   2.198   2.279 -0.0313  0.0490 -0.5216
 6287SOL    HW130497   2.740   2.287   2.275 -0.1753  0.0149 -0.0631
 6287SOL    HW230498   2.841   2.211   2.211  0.3887  0.5283 -0.0164
 6288SOL     OW30499   3.401   0.650   3.321  0.4285 -0.4734  0.2311
 6288SOL    HW130500   3.315   0.676   3.287  1.3866  0.6077 -1.3862
 6288SOL    HW230501   3.412   0.567   3.275 -1.1123 -2.0048  2.6077
 6289SOL     OW30502   4.484   0.885   5.232  0.0002 -0.6861  0.0555
 6289SOL    HW130503   4.550   0.822   5.260  0.2740  0.4124  1.8616
 6289SOL    HW230504   4.516   0.972   5.258 -1.0972  0.3427 -2.0129
 6290SOL     OW30505   3.018   1.840   5.236  0.0382 -0.0702 -0.1784
 6290SOL    HW130506   3.029   1.903   5.165 -0.9366 -0.2191 -0.4550
 6290SOL    HW230507   2.982   1.903   5.299  1.2587  0.1555  0.2880
 6291SOL     OW30508   1.552   2.427  17.257 -0.0655  0.3699  0.5467
 6291SOL    HW130509   1.565   2.440  17.163 -1.6929 -3.0110 -0.1494
 6291SOL    HW230510   1.632   2.384  17.288 -0.1796  0.9900  1.7323
 6292SOL     OW30511   1.286   1.391  12.073 -0.3000 -0.1194  0.3621
 6292SOL    HW130512   1.376   1.406  12.044  0.4877 -0.4245  2.7124
 6292SOL    HW230513   1.245   1.470  12.036 -1.6640 -0.5423  0.9525
 6293SOL     OW30514   3.598   4.300  13.491  0.5411  0.0668 -0.1610
 6293SOL    HW130515   3.653   4.319  13.415  0.4659 -2.5326 -0.8812
 6293SOL    HW230516   3.615   4.377  13.545 -1.0487  1.3685 -1.5094
 6294SOL     OW30517   2.145   0.741   9.299  0.6074  0.4064  0.2030
 6294SOL    HW130518   2.150   0.703   9.387 -0.2066 -0.9585 -0.3482
 6294SOL    HW230519   2.050   0.745   9.286  0.4704 -1.7814  0.5582
 6295SOL     OW30520   0.358   3.033   7.257 -0.7692 -0.2723 -0.3955
 6295SOL    HW130521   0.378   2.948   7.296  0.0936  0.4384  0.7125
 6295SOL    HW230522   0.370   3.021   7.163  2.9328 -0.7680  0.1205
 6296SOL     OW30523   4.398   2.028   4.537  0.1595  0.3155  0.2089
 6296SOL    HW130524   4.446   1.946   4.528  0.1829  0.1263  2.0620
 6296SOL    HW230525   4.358   2.039   4.451 -2.3579 -2.0791  1.0494
 6297SOL     OW30526   3.786   1.542   2.804 -0.1174 -0.4073 -0.6434
 6297SOL    HW130527   3.811   1.543   2.711  1.0957 -3.7496 -0.3538
 6297SOL    HW230528   3.691   1.530   2.797 -0.6321  1.2939  3.7591
 6298SOL     OW30529   1.471   4.192   0.830  0.6031 -0.2504  0.3428
 6298SOL    HW130530   1.498   4.180   0.921 -1.1042 -0.7317  0.7842
 6298SOL    HW230531   1.490   4.284   0.812 -1.4412  0.1457  0.2953
 6299SOL     OW30532   0.271   2.797   4.580 -0.5860 -0.2100 -0.9316
 6299SOL    HW130533   0.203   2.792   4.648 -1.0336  2.5773 -1.1716
 6299SOL    HW230534   0.340   2.834   4.635  0.2095 -0.2441 -1.9079
 6300SOL     OW30535   0.295   4.568   9.559 -0.1893  0.1219  0.3667
 6300SOL    HW130536   0.385   4.544   9.579 -0.3709 -1.5390 -0.8351
 6300SOL    HW230537   0.251   4.509   9.621 -1.6987  0.6454 -0.1985
 6301SOL     OW30538   0.419   0.653   3.752 -0.3975 -0.1785 -0.5476
 6301SOL    HW130539   0.503   0.690   3.779  0.5322 -1.5768 -1.5415
 6301SOL    HW230540   0.439   0.589   3.685  0.9028 -0.7195  0.3622
 6302SOL     OW30541   3.520   2.172   2.671  0.2704  0.3801  0.0317
 6302SOL    HW130542   3.517   2.247   2.731 -0.4719  0.3872 -0.0223
 6302SOL    HW230543   3.577   2.104   2.706  0.2688  0.3251 -0.0737
 6303SOL     OW30544   3.767   1.216   6.558  0.2381 -0.0297  0.3075
 6303SOL    HW130545   3.717   1.249   6.483  0.9006  1.8035  0.6732
 6303SOL    HW230546   3.755   1.122   6.546  2.2432 -0.0989 -1.0691
 6304SOL     OW30547   1.309   1.458   4.216  0.2625 -0.8909 -0.1605
 6304SOL    HW130548   1.288   1.489   4.304  0.5967  2.0032 -1.0875
 6304SOL    HW230549   1.340   1.544   4.187  1.6436 -1.0667  0.7982
 6305SOL     OW30550   3.858   0.323   1.282 -0.2576 -0.0650 -0.3657
 6305SOL    HW130551   3.922   0.296   1.216  1.3079 -1.2631  1.6251
 6305SOL    HW230552   3.912   0.384   1.333 -2.6271  2.0638 -0.3685
 6306SOL     OW30553   0.085   2.539   6.561  0.5019 -0.1677 -0.0936
 6306SOL    HW130554   4.732   2.508   6.579 -0.1380  0.6975 -1.7537
 6306SOL    HW230555   0.066   2.623   6.518 -1.6097 -0.4098  0.3478
 6307SOL     OW30556   4.527   4.447   2.173  0.0401  0.0360 -0.7767
 6307SOL    HW130557   4.573   4.414   2.096  3.3935  0.1600  1.2011
 6307SOL    HW230558   4.441   4.474   2.139  0.0589  2.0943  0.7543
 6308SOL     OW30559   1.344   0.581   6.488  0.2313 -0.3173 -0.3107
 6308SOL    HW130560   1.284   0.571   6.414  1.9907 -1.6143 -1.5621
 6308SOL    HW230561   1.283   0.581   6.562 -1.0869 -0.0774 -1.4013
 6309SOL     OW30562   1.903   0.621  11.778 -0.6145  1.2089 -0.0277
 6309SOL    HW130563   1.845   0.676  11.726  0.8269  1.6309 -1.2039
 6309SOL    HW230564   1.947   0.693  11.824 -0.0825  0.7685  0.1602
 6310SOL     OW30565   3.845   1.963  10.625  0.4398 -0.3363 -0.1335
 6310SOL    HW130566   3.761   1.943  10.666 -0.9192  2.3344 -1.6797
 6310SOL    HW230567   3.872   1.872  10.611 -3.0339 -0.9973 -2.3117
 6311SOL     OW30568   0.729   4.368  17.437  0.1267 -0.3789  0.3107
 6311SOL    HW130569   0.687   4.282  17.439 -1.9827  0.5926 -2.6489
 6311SOL    HW230570   0.730   4.386  17.343 -0.7715  0.3450  0.4396
 6312SOL     OW30571   0.644   1.430   3.205  0.1825 -0.4942 -0.3406
 6312SOL    HW130572   0.592   1.507   3.229  1.3460  0.7791 -1.9753
 6312SOL    HW230573   0.578   1.361   3.197 -0.9631  0.6441 -0.6780
 6313SOL     OW30574   3.873   1.965  14.580 -0.0152  0.0600  0.3927
 6313SOL    HW130575   3.870   1.904  14.506 -2.1598 -1.6127  1.9117
 6313SOL    HW230576   3.779   1.978  14.587 -0.0769  0.7772 -1.7892
 6314SOL     OW30577   0.402   1.975   0.770 -0.3780  0.2010 -0.3932
 6314SOL    HW130578   0.306   1.969   0.763 -0.2858 -0.6335 -0.8542
 6314SOL    HW230579   0.423   1.890   0.732 -2.0442 -0.7118  0.7316
 6315SOL     OW30580   0.126   0.987   7.589  0.3919 -0.4005 -0.4456
 6315SOL    HW130581   0.112   0.895   7.610 -1.7122 -0.0076 -0.1568
 6315SOL    HW230582   0.137   0.979   7.494 -2.3115  0.2594 -0.8097
 6316SOL     OW30583   3.755   2.119  16.218  0.5215 -0.6953  0.1452
 6316SOL    HW130584   3.732   2.211  16.209  0.2625 -0.6577  1.1596
 6316SOL    HW230585   3.850   2.128  16.222  0.3418  0.6116  1.5413
 6317SOL     OW30586   3.277   0.207   4.254 -0.4094  0.8667 -0.8819
 6317SOL    HW130587   3.342   0.265   4.215  1.5112  0.5711  1.8763
 6317SOL    HW230588   3.308   0.193   4.344  0.0256 -0.7213 -1.2830
 6318SOL     OW30589   0.358   2.052   2.676 -0.0164 -0.3086 -0.1815
 6318SOL    HW130590   0.428   1.987   2.680 -0.1990 -0.2983  3.4312
 6318SOL    HW230591   0.400   2.122   2.626 -1.3054  0.6306  0.0477
 6319SOL     OW30592   3.545   1.422   7.428  0.3627 -0.6856 -0.4220
 6319SOL    HW130593   3.479   1.375   7.478  0.0280  0.6816  0.4392
 6319SOL    HW230594   3.530   1.401   7.336 -0.3025  1.6139 -0.8492
 6320SOL     OW30595   0.997   2.363   2.799 -0.2358 -0.0633 -0.1777
 6320SOL    HW130596   1.073   2.377   2.855 -1.0125 -0.5888  0.9893
 6320SOL    HW230597   1.034   2.304   2.733 -1.4757 -0.1339 -0.8175
 6321SOL     OW30598   4.399   1.711  11.936 -0.1322  0.4566 -0.5180
 6321SOL    HW130599   4.471   1.770  11.959  1.8054 -1.0735 -2.6547
 6321SOL    HW230600   4.317   1.755  11.959 -0.1899  0.2487 -0.3212
 6322SOL     OW30601   4.134   4.510   3.308 -0.0155 -0.4038  0.4892
 6322SOL    HW130602   4.190   4.489   3.233  1.5341 -0.8179  1.7786
 6322SOL    HW230603   4.118   4.603   3.294  0.8943 -0.3649 -0.3149
 6323SOL     OW30604   0.320   1.849   7.774 -0.0336 -0.5294 -0.6157
 6323SOL    HW130605   0.363   1.811   7.850 -1.1689 -2.4192 -0.8888
 6323SOL    HW230606   0.247   1.901   7.807  1.6890 -0.7532  3.5374
 6324SOL     OW30607   0.288   3.699   4.229 -0.0702 -0.2577 -0.2418
 6324SOL    HW130608   0.335   3.762   4.175 -1.9068  2.4035  1.3055
 6324SOL    HW230609   0.328   3.616   4.202 -0.6156 -1.2311  1.9559
 6325SOL     OW30610   4.059   4.505   8.200 -0.4851 -0.1640 -0.3668
 6325SOL    HW130611   3.982   4.532   8.250  0.6259  1.1878  0.5839
 6325SOL    HW230612   4.053   4.577   8.138  2.4274 -1.4305 -2.1068
 6326SOL     OW30613   4.055   3.442   9.279 -0.3017  0.2488  0.1654
 6326SOL    HW130614   4.129   3.470   9.333 -0.8947  2.1770 -0.0415
 6326SOL    HW230615   4.010   3.526   9.279 -0.0544  0.3799  0.0494
 6327SOL     OW30616   0.372   3.183  10.599 -0.3321  0.1849 -0.0554
 6327SOL    HW130617   0.379   3.164  10.505 -2.6341 -0.2179 -0.1603
 6327SOL    HW230618   0.465   3.185  10.621 -0.6594  0.5426  1.2925
 6328SOL     OW30619   1.539   3.143   3.281 -0.2840  0.2039 -0.5615
 6328SOL    HW130620   1.566   3.061   3.241 -1.4523 -0.0952 -0.7461
 6328SOL    HW230621   1.619   3.192   3.298 -0.1258 -0.2273 -0.0644
 6329SOL     OW30622   4.395   1.246   2.250  0.0054 -0.3700  0.2716
 6329SOL    HW130623   4.345   1.179   2.296 -1.6200  0.8230  0.2718
 6329SOL    HW230624   4.380   1.322   2.306  1.3884 -0.4115  0.6922
 6330SOL     OW30625   2.551   2.774   8.884 -0.4785  0.0858  0.3849
 6330SOL    HW130626   2.586   2.685   8.874  0.5801  0.9884 -3.6878
 6330SOL    HW230627   2.477   2.761   8.944 -2.2353  0.6649 -1.6699
 6331SOL     OW30628   0.867   2.998   8.280  0.0490  0.3472 -0.0997
 6331SOL    HW130629   0.838   2.950   8.203  1.9733  2.5918 -2.2156
 6331SOL    HW230630   0.839   3.087   8.259 -2.9154 -0.7033 -0.5640
 6332SOL     OW30631   1.162   1.736  16.320  0.4582 -0.6081 -0.1807
 6332SOL    HW130632   1.197   1.782  16.244 -0.2367 -0.4763 -0.4280
 6332SOL    HW230633   1.074   1.775  16.320  0.5193 -0.4609  0.3183
 6333SOL     OW30634   1.498   0.026   4.012 -0.1708 -0.3975  0.2309
 6333SOL    HW130635   1.469   0.001   4.100 -1.8466 -1.1683 -0.5229
 6333SOL    HW230636   1.413   0.069   3.999 -0.5160 -1.7056 -1.8138
 6334SOL     OW30637   3.318   2.313   4.916 -0.3519 -0.1887 -0.2237
 6334SOL    HW130638   3.274   2.228   4.919  1.0960 -0.9508 -0.2723
 6334SOL    HW230639   3.265   2.367   4.975  0.1938  0.4529 -0.3268
 6335SOL     OW30640   3.000   2.400   2.970 -0.7162  0.0472  0.2478
 6335SOL    HW130641   2.945   2.327   2.998 -1.7231  0.6827 -0.0883
 6335SOL    HW230642   2.968   2.414   2.880  0.4347 -1.6319 -0.4379
 6336SOL     OW30643   3.754   1.793  16.839  0.0595  0.0855  0.3448
 6336SOL    HW130644   3.809   1.738  16.894  1.9362  0.9713 -0.6584
 6336SOL    HW230645   3.779   1.760  16.753 -2.5218  0.2349 -0.4629
 6337SOL     OW30646   0.108   4.551   7.620 -0.0292 -0.1074 -0.2370
 6337SOL    HW130647   0.058   4.489   7.567  1.5056 -1.7105  0.1671
 6337SOL    HW230648   0.140   4.490   7.686 -0.7661 -1.1389 -0.8398
 6338SOL     OW30649   2.113   3.458   7.256  0.2593  0.3803 -0.0194
 6338SOL    HW130650   2.124   3.510   7.335 -1.8905  2.6688 -1.2087
 6338SOL    HW230651   2.019   3.473   7.243 -0.1932 -1.5634  1.0281
 6339SOL     OW30652   0.913   0.686   4.580  0.9757 -0.2958 -0.1824
 6339SOL    HW130653   0.849   0.745   4.540  1.3280 -0.6698 -1.2830
 6339SOL    HW230654   0.925   0.727   4.666 -1.3801 -0.6278  0.2840
 6340SOL     OW30655   1.724   4.544   9.842 -0.2210  0.0039  0.3306
 6340SOL    HW130656   1.662   4.560   9.771  2.7307 -0.0543 -2.2234
 6340SOL    HW230657   1.805   4.584   9.809 -0.0853 -0.7195 -0.1981
 6341SOL     OW30658   4.618   2.336   6.968  0.2512 -0.0320  0.2038
 6341SOL    HW130659   4.573   2.361   6.887 -0.3553  1.5894  1.0618
 6341SOL    HW230660   4.548   2.284   7.007  0.5346 -1.3243 -1.0053
 6342SOL     OW30661   0.548   2.091   7.998  0.2834  0.2128  0.2014
 6342SOL    HW130662   0.521   2.000   8.005 -0.0220  0.1946 -1.1667
 6342SOL    HW230663   0.623   2.088   8.057  2.1447  0.6908 -2.1260
 6343SOL     OW30664   2.454   0.297  15.826  0.3690 -0.3015 -0.8351
 6343SOL    HW130665   2.464   0.218  15.880 -0.2639  0.8311  0.9597
 6343SOL    HW230666   2.478   0.257  15.742 -0.2360 -0.8487 -0.7490
 6344SOL     OW30667   2.905   0.191   1.134 -0.2954  0.5200 -0.3151
 6344SOL    HW130668   2.909   0.155   1.223 -2.1357  0.3067 -0.3172
 6344SOL    HW230669   2.868   0.276   1.158  2.1023  1.2594  0.8236
 6345SOL     OW30670   1.470   0.437   3.990 -0.4182 -0.5148 -0.0140
 6345SOL    HW130671   1.470   0.526   4.024  0.0916 -0.3992 -0.3208
 6345SOL    HW230672   1.481   0.457   3.897  0.1478 -0.2504  0.1152
 6346SOL     OW30673   0.237   4.252  16.526  0.3044  0.2543  0.1791
 6346SOL    HW130674   0.271   4.184  16.468 -1.0888 -1.2271  1.1043
 6346SOL    HW230675   0.174   4.299  16.471  0.9574 -1.3423 -1.9027
 6347SOL     OW30676   2.722   0.426   9.728 -0.1476 -0.8107 -0.1641
 6347SOL    HW130677   2.643   0.398   9.774 -1.1615 -1.4222 -2.2685
 6347SOL    HW230678   2.743   0.338   9.696  0.6083 -0.7146  0.0832
 6348SOL     OW30679   0.416   0.122   5.285  0.6233  0.1256  0.5626
 6348SOL    HW130680   0.442   0.211   5.306 -0.8843  0.3184  1.5551
 6348SOL    HW230681   0.472   0.075   5.348  1.0840 -0.3352 -0.1827
 6349SOL     OW30682   4.278   0.611   8.700 -0.2407  0.1047 -0.3898
 6349SOL    HW130683   4.307   0.686   8.753 -0.2814  0.7223 -1.2426
 6349SOL    HW230684   4.250   0.545   8.763 -1.1114  1.4448  0.6415
 6350SOL     OW30685   3.936   4.602   9.504  0.4376 -0.3169  0.2187
 6350SOL    HW130686   3.912   4.663   9.574 -1.2563 -0.4594 -0.2401
 6350SOL    HW230687   4.026   4.631   9.489  0.3611 -2.0702 -3.4411
 6351SOL     OW30688   4.334   0.355   7.547  0.0305 -0.1009  0.9122
 6351SOL    HW130689   4.364   0.278   7.596  3.5628  0.9298  0.3696
 6351SOL    HW230690   4.272   0.312   7.488  0.3245 -1.6617  1.7149
 6352SOL     OW30691   4.013   1.062   4.188  0.6892  0.2736 -0.2316
 6352SOL    HW130692   3.921   1.079   4.168  0.6236 -0.4546 -0.5497
 6352SOL    HW230693   4.055   1.136   4.143 -0.9174  1.8852  0.9069
 6353SOL     OW30694   4.355   0.764   4.802 -0.4986  0.2638 -0.1782
 6353SOL    HW130695   4.370   0.858   4.785 -1.2074 -0.1005 -2.7581
 6353SOL    HW230696   4.356   0.762   4.898  1.0876  1.7435 -0.1380
 6354SOL     OW30697   3.183   0.096   8.308  0.3343 -0.2383  0.2093
 6354SOL    HW130698   3.177   0.106   8.213 -2.6632 -4.2924 -0.0541
 6354SOL    HW230699   3.258   0.147   8.338  0.3823  0.1965 -0.6414
 6355SOL     OW30700   1.156   3.958  15.771 -0.0800  0.1111  0.3074
 6355SOL    HW130701   1.189   4.037  15.729 -0.9248  0.2990 -0.0099
 6355SOL    HW230702   1.082   3.942  15.712  0.0168  1.3049 -0.1482
 6356SOL     OW30703   1.144   1.531   1.530 -0.0868  0.0365 -0.0670
 6356SOL    HW130704   1.159   1.442   1.499  3.0365  0.9021 -1.0104
 6356SOL    HW230705   1.175   1.526   1.621  0.1816 -0.1678 -0.1745
 6357SOL     OW30706   0.587   3.241   2.842 -0.7877  0.6133  0.1408
 6357SOL    HW130707   0.561   3.322   2.799 -1.1432  0.7619  0.6380
 6357SOL    HW230708   0.664   3.266   2.893  0.7097 -0.7866 -1.4341
 6358SOL     OW30709   1.015   4.566   5.744 -0.2113  0.2120 -0.1676
 6358SOL    HW130710   1.108   4.543   5.735  0.2703  1.0697  2.6836
 6358SOL    HW230711   0.990   4.521   5.824 -0.4243 -0.7243 -0.7689
 6359SOL     OW30712   1.418   0.031   2.233 -0.3413  0.0249  0.1780
 6359SOL    HW130713   1.332   0.059   2.202 -0.5408 -2.0666 -1.2050
 6359SOL    HW230714   1.469   0.071   2.163 -0.5700 -1.0607 -0.6246
 6360SOL     OW30715   1.044   2.331   6.834 -0.0543  0.6858 -0.3322
 6360SOL    HW130716   1.093   2.307   6.913  0.6887  0.9852 -0.6973
 6360SOL    HW230717   1.045   2.254   6.778 -0.0549  0.7204 -0.3802
 6361SOL     OW30718   4.462   4.531   7.914 -0.4750  0.3715  0.2367
 6361SOL    HW130719   4.413   4.463   7.867  2.0721 -0.1240 -1.7056
 6361SOL    HW230720   4.396   4.590   7.950 -0.2867 -0.0982  1.3584
 6362SOL     OW30721   2.459   0.681   6.862 -0.3520 -0.5114  0.1148
 6362SOL    HW130722   2.480   0.628   6.939 -0.1976 -0.9214 -0.2103
 6362SOL    HW230723   2.545   0.677   6.819 -0.8706 -2.0092 -0.7746
 6363SOL     OW30724   0.406   4.159   5.575  0.1542  0.2574  1.2008
 6363SOL    HW130725   0.432   4.248   5.599  1.8239 -0.3723  1.7113
 6363SOL    HW230726   0.378   4.174   5.485 -0.6162 -4.2553  0.6728
 6364SOL     OW30727   4.659   1.395  12.111 -0.0487 -0.9147  0.5089
 6364SOL    HW130728   4.684   1.419  12.201  0.9311 -0.5200  0.1331
 6364SOL    HW230729   4.565   1.414  12.114 -0.1132 -1.2378  0.5584
 6365SOL     OW30730   4.525   4.412  13.332  0.6197 -0.6234  0.4129
 6365SOL    HW130731   4.509   4.505  13.350 -1.5908 -0.5458 -1.8803
 6365SOL    HW230732   4.432   4.387  13.337  0.8766 -1.7483 -0.4412
 6366SOL     OW30733   4.289   2.217   6.709 -0.3835  0.3640 -0.3200
 6366SOL    HW130734   4.342   2.138   6.706  0.4057  0.8918 -0.1484
 6366SOL    HW230735   4.297   2.249   6.619  0.3076 -3.4495 -1.5969
 6367SOL     OW30736   2.212   0.743   8.955  0.1740  0.1818  0.2286
 6367SOL    HW130737   2.282   0.771   8.896 -0.9807  0.5584 -0.9580
 6367SOL    HW230738   2.256   0.672   9.002 -0.2602 -0.1739  0.0912
 6368SOL     OW30739   2.299   3.434  16.409 -0.6085  0.4115 -0.1902
 6368SOL    HW130740   2.347   3.471  16.334 -0.9262  1.7960  0.2930
 6368SOL    HW230741   2.364   3.389  16.463 -1.4632 -2.6428 -1.6759
 6369SOL     OW30742   2.757   0.227   3.633 -1.1160 -0.4161 -0.0511
 6369SOL    HW130743   2.749   0.152   3.573  0.9918  0.2022 -1.1204
 6369SOL    HW230744   2.670   0.267   3.627 -0.9257 -0.2877 -1.8570
 6370SOL     OW30745   3.328   1.605  14.255  0.5100 -0.4682 -0.3567
 6370SOL    HW130746   3.262   1.568  14.314  0.1419  0.7042 -0.0345
 6370SOL    HW230747   3.339   1.526  14.202 -1.6562 -0.3126 -1.0202
 6371SOL     OW30748   1.278   4.532   0.735 -0.1942 -0.0754 -0.1947
 6371SOL    HW130749   1.225   4.608   0.713  0.5394  1.0214  1.8567
 6371SOL    HW230750   1.218   4.470   0.777  0.4606 -1.0039 -0.6175
 6372SOL     OW30751   3.945   0.529   5.042  0.0600 -0.2931  0.4419
 6372SOL    HW130752   4.023   0.546   5.095 -1.0051  0.3825  1.7979
 6372SOL    HW230753   3.887   0.494   5.110 -2.0082  3.4550  0.5636
 6373SOL     OW30754   3.758   4.201   4.590  0.1802 -0.5295 -0.3479
 6373SOL    HW130755   3.703   4.136   4.635  0.9401 -1.1025 -0.2514
 6373SOL    HW230756   3.807   4.233   4.666 -2.2159 -1.4047  1.5764
 6374SOL     OW30757   1.823   1.212   2.771  1.0579  0.1641 -0.0128
 6374SOL    HW130758   1.810   1.299   2.733  1.5273  0.9672  1.6648
 6374SOL    HW230759   1.736   1.173   2.760  1.2498 -0.0641 -0.7450
 6375SOL     OW30760   3.173   1.052  12.565  0.1704 -0.1233  0.0558
 6375SOL    HW130761   3.220   0.974  12.595 -0.1636  0.1795  1.3729
 6375SOL    HW230762   3.125   1.027  12.486  2.3778 -1.6124 -0.8348
 6376SOL     OW30763   1.554   3.431   7.673  0.1801 -0.0021 -0.0529
 6376SOL    HW130764   1.634   3.450   7.722  0.1715 -1.2335  0.4391
 6376SOL    HW230765   1.516   3.362   7.727 -0.5543 -0.2391 -0.8664
 6377SOL     OW30766   0.571   1.148   3.462 -1.0003  0.2301 -0.1822
 6377SOL    HW130767   0.624   1.226   3.479 -0.9037 -0.3209  2.1090
 6377SOL    HW230768   0.609   1.125   3.378 -0.0356 -1.5004  0.7427
 6378SOL     OW30769   4.207   1.479   3.097  0.2976 -0.0564  0.3115
 6378SOL    HW130770   4.227   1.483   3.191 -0.9794 -0.2373  0.5873
 6378SOL    HW230771   4.159   1.562   3.095 -1.2526 -1.0049 -1.8723
 6379SOL     OW30772   4.026   4.683   5.654 -0.0450 -0.0528 -0.2414
 6379SOL    HW130773   3.975   4.649   5.580 -0.8292  0.7421 -0.0623
 6379SOL    HW230774   4.015   0.042   5.661 -1.3435 -0.3682  2.0356
 6380SOL     OW30775   0.401   0.253   8.648  0.6442 -0.4346  0.1537
 6380SOL    HW130776   0.482   0.223   8.608 -1.1645 -0.7695 -3.2808
 6380SOL    HW230777   0.433   0.305   8.722 -3.4357  0.4124  1.3538
 6381SOL     OW30778   4.116   3.549  11.138 -0.1775 -0.4241  0.4463
 6381SOL    HW130779   4.100   3.553  11.232 -1.1567  0.8048  0.2259
 6381SOL    HW230780   4.188   3.486  11.126 -1.8312 -2.3388  0.6140
 6382SOL     OW30781   3.936   4.112   6.529  1.3492 -0.4206  0.2111
 6382SOL    HW130782   3.919   4.103   6.435 -1.0652 -1.6560  0.7757
 6382SOL    HW230783   4.029   4.123   6.547  1.1500 -0.5962  1.3524
 6383SOL     OW30784   4.282   1.528  10.998  0.0445 -0.2042  0.8349
 6383SOL    HW130785   4.375   1.526  10.978  0.0106  1.5813  0.5543
 6383SOL    HW230786   4.276   1.500  11.090  0.9995 -0.5855  0.7829
 6384SOL     OW30787   4.329   4.204   4.299  0.7905 -0.3398  0.1920
 6384SOL    HW130788   4.404   4.193   4.358  0.4947 -1.8551  0.2927
 6384SOL    HW230789   4.277   4.246   4.368  0.1478  0.6996 -0.9205
 6385SOL     OW30790   2.746   2.782   0.122 -0.2511  0.2214  0.0375
 6385SOL    HW130791   2.714   2.872   0.116  0.1495  0.4454  1.4095
 6385SOL    HW230792   2.827   2.783   0.173  0.4789 -1.5114 -1.0976
 6386SOL     OW30793   1.796   4.457   6.526 -0.2458  0.2248 -0.5195
 6386SOL    HW130794   1.794   4.368   6.490 -2.1948  0.5863 -1.3312
 6386SOL    HW230795   1.824   4.444   6.617 -1.5841 -0.0613 -0.1346
 6387SOL     OW30796   4.284   2.647   6.039  0.1367 -0.0408 -0.0994
 6387SOL    HW130797   4.236   2.685   5.965  0.5875  0.0826 -0.3292
 6387SOL    HW230798   4.311   2.569   5.990 -0.0818 -0.1878  0.0202
 6388SOL     OW30799   1.661   4.579   4.993 -0.0615 -0.1065  0.1316
 6388SOL    HW130800   1.581   4.533   5.020 -0.2581 -0.2284 -0.6463
 6388SOL    HW230801   1.627   4.666   4.975  0.8220  0.7670  2.7900
 6389SOL     OW30802   3.356   1.892  11.502 -0.1755  0.0560  0.3185
 6389SOL    HW130803   3.392   1.805  11.484 -1.0187 -0.1221 -0.4825
 6389SOL    HW230804   3.260   1.883  11.497 -0.3463  3.0941 -1.3539
 6390SOL     OW30805   3.462   1.897   9.882 -0.2216 -0.0268 -0.2027
 6390SOL    HW130806   3.478   1.875   9.974  0.5492 -3.7338 -1.1896
 6390SOL    HW230807   3.514   1.823   9.849 -0.1601  0.9510 -2.2649
 6391SOL     OW30808   2.711   0.230  11.889  0.3877  0.2518  0.4037
 6391SOL    HW130809   2.715   0.143  11.849  0.3073 -0.3633  1.7389
 6391SOL    HW230810   2.705   0.297  11.822 -1.9668 -1.1358 -0.7789
 6392SOL     OW30811   2.007   4.438  15.788 -0.0822  0.0638 -0.0461
 6392SOL    HW130812   1.941   4.373  15.765  0.4896 -1.2998  2.1409
 6392SOL    HW230813   1.975   4.508  15.731  0.3095  0.7072  0.5221
 6393SOL     OW30814   2.913   3.698   7.159  0.0595  0.6602  0.3639
 6393SOL    HW130815   2.818   3.703   7.170 -0.1723 -0.2400 -1.2809
 6393SOL    HW230816   2.921   3.751   7.080  0.6198 -0.2186 -0.1766
 6394SOL     OW30817   3.405   2.335  12.767 -0.6084 -0.8099  1.1908
 6394SOL    HW130818   3.395   2.421  12.808 -1.1716  0.1543 -0.9642
 6394SOL    HW230819   3.499   2.342  12.753 -1.2816  2.2786 -1.7190
 6395SOL     OW30820   2.763   0.673   2.605 -0.4467 -0.1390 -0.3366
 6395SOL    HW130821   2.815   0.634   2.534  1.1275  0.0854  0.6921
 6395SOL    HW230822   2.702   0.720   2.549  1.8351  2.1837 -0.8581
 6396SOL     OW30823   4.548   1.648   5.827 -0.3936 -0.5622  0.2438
 6396SOL    HW130824   4.551   1.556   5.853 -0.3821 -0.5514  0.2809
 6396SOL    HW230825   4.574   1.687   5.911 -0.5324 -1.3387  0.6483
 6397SOL     OW30826   0.133   2.659  12.647 -0.1138  0.3192 -0.2148
 6397SOL    HW130827   0.165   2.653  12.557  0.8068  3.4570 -0.1101
 6397SOL    HW230828   0.190   2.602  12.698 -0.3913 -0.8142 -1.1837
 6398SOL     OW30829   2.235   3.821   2.040 -0.6146  0.4706 -0.2755
 6398SOL    HW130830   2.227   3.908   2.078  1.2776 -0.3061  1.8722
 6398SOL    HW230831   2.329   3.817   2.018 -0.3888  0.3603  0.7358
 6399SOL     OW30832   0.645   4.483  16.838 -0.0810 -0.0944  0.7264
 6399SOL    HW130833   0.600   4.427  16.774 -1.9110  3.2241 -0.8868
 6399SOL    HW230834   0.654   4.566  16.792 -1.8233 -0.4729 -0.2748
 6400SOL     OW30835   2.530   4.563   2.120 -0.2017 -0.3706 -0.3827
 6400SOL    HW130836   2.448   4.532   2.159 -0.5717  0.6267 -0.3632
 6400SOL    HW230837   2.486   4.573   2.035 -0.9055  0.8768  0.1157
 6401SOL     OW30838   0.553   0.637   4.135 -0.4638 -0.3298 -0.2504
 6401SOL    HW130839   0.458   0.651   4.133 -0.6537 -1.3540  0.9956
 6401SOL    HW230840   0.568   0.625   4.229  0.5590  1.9206 -0.1377
 6402SOL     OW30841   2.987   0.189   4.269  0.0683  0.1948 -0.4070
 6402SOL    HW130842   2.950   0.272   4.241 -1.2049 -0.7681 -1.6075
 6402SOL    HW230843   3.080   0.210   4.271 -0.1233  0.9680  0.1651
 6403SOL     OW30844   3.052   2.794   8.736  0.1642 -0.7642  0.0050
 6403SOL    HW130845   3.122   2.836   8.686 -1.7925  0.2294 -1.8884
 6403SOL    HW230846   3.070   2.700   8.729  1.3050 -0.6096  0.7723
 6404SOL     OW30847   0.934   0.190  10.107 -0.0756 -0.0337 -0.1758
 6404SOL    HW130848   0.920   0.110  10.058 -1.3442  0.0224  0.0865
 6404SOL    HW230849   1.013   0.221  10.063 -0.2573  2.8004  1.4896
 6405SOL     OW30850   3.412   3.760   2.474 -0.1840  0.5941 -0.1485
 6405SOL    HW130851   3.417   3.808   2.392  1.8587  1.1631  0.2982
 6405SOL    HW230852   3.485   3.702   2.450 -0.0178  0.5956  0.3481
 6406SOL     OW30853   1.288   4.300   1.083 -0.2793 -0.0557  0.0179
 6406SOL    HW130854   1.327   4.388   1.088  1.0134 -0.5873 -0.8718
 6406SOL    HW230855   1.240   4.304   1.000 -0.5667  1.3231  0.2428
 6407SOL     OW30856   0.559   3.630   7.478  0.5078  0.3960 -0.2762
 6407SOL    HW130857   0.599   3.607   7.561 -0.0839 -0.5749 -0.2669
 6407SOL    HW230858   0.514   3.711   7.504  0.1342  0.4902 -1.1933
 6408SOL     OW30859   2.158   3.651   2.235  0.9746  0.3547 -0.1367
 6408SOL    HW130860   2.181   3.722   2.174  0.9152  0.2588 -0.2701
 6408SOL    HW230861   2.123   3.586   2.175  1.1446 -1.1271  1.3950
 6409SOL     OW30862   2.127   0.475  16.999 -0.3316  0.1434 -0.2351
 6409SOL    HW130863   2.060   0.514  17.055 -0.3496 -0.3291  0.0730
 6409SOL    HW230864   2.083   0.420  16.933 -1.5750  1.8236 -0.8209
 6410SOL     OW30865   0.310   4.019   8.323 -0.2811 -0.6635  0.0551
 6410SOL    HW130866   0.402   4.012   8.298 -0.5047 -0.3647 -0.8455
 6410SOL    HW230867   0.309   3.972   8.407  0.9485 -3.1693 -1.3310
 6411SOL     OW30868   1.327   3.076   1.627 -0.0522 -0.2214 -0.2112
 6411SOL    HW130869   1.316   2.984   1.650 -0.5857 -0.3523 -0.9587
 6411SOL    HW230870   1.239   3.112   1.640  0.1294 -1.0392  3.1314
 6412SOL     OW30871   0.217   1.551   7.231  0.0312 -0.4619  0.2381
 6412SOL    HW130872   0.143   1.550   7.293  0.3407  2.1921  0.6181
 6412SOL    HW230873   0.210   1.639   7.196  1.2399 -0.9926 -1.3400
 6413SOL     OW30874   1.576   2.441   8.919  0.5607 -0.1957 -0.3132
 6413SOL    HW130875   1.665   2.423   8.953  0.4219  1.2935  0.8508
 6413SOL    HW230876   1.597   2.510   8.856 -0.8023 -0.9438 -1.5798
 6414SOL     OW30877   2.777   1.266   4.810 -0.9943  0.3986  0.7077
 6414SOL    HW130878   2.810   1.347   4.772 -0.2431 -0.5251 -0.5771
 6414SOL    HW230879   2.752   1.209   4.737 -1.4326 -0.9335  1.9005
 6415SOL     OW30880   3.797   1.793  11.887 -0.2956  0.8896  0.0464
 6415SOL    HW130881   3.842   1.771  11.968 -0.3804 -1.1711 -0.4766
 6415SOL    HW230882   3.852   1.865  11.855  1.7872  0.1570  1.9554
 6416SOL     OW30883   0.007   3.291   8.996  0.5533  0.3096 -0.0211
 6416SOL    HW130884   0.063   3.320   9.068 -0.7544  1.0861  0.6933
 6416SOL    HW230885   4.658   3.292   9.039 -0.3416 -0.5356 -1.7674
 6417SOL     OW30886   1.292   0.170   4.652  0.6251 -0.1366  0.3595
 6417SOL    HW130887   1.211   0.166   4.703 -1.0820  2.4299 -2.1369
 6417SOL    HW230888   1.311   0.264   4.653  1.3046 -0.2690 -0.0689
 6418SOL     OW30889   1.638   1.796   5.098 -0.4679 -0.1609 -0.0018
 6418SOL    HW130890   1.585   1.827   5.172 -3.5180 -1.1956 -1.7214
 6418SOL    HW230891   1.687   1.875   5.075 -1.0180  0.5806  1.3659
 6419SOL     OW30892   3.963   3.150   3.075  0.0663  0.6763  0.2628
 6419SOL    HW130893   4.030   3.096   3.033 -0.5946  0.8542 -1.0058
 6419SOL    HW230894   3.973   3.120   3.166 -0.5801  1.7878  0.6974
 6420SOL     OW30895   3.054   1.286   9.014 -0.2785 -0.2137 -0.4419
 6420SOL    HW130896   2.996   1.226   9.061  0.0594 -2.3191 -2.7315
 6420SOL    HW230897   3.059   1.229   8.938 -2.1425  0.3227 -0.9667
 6421SOL     OW30898   3.374   3.281   1.136  0.7977 -0.0289 -0.1726
 6421SOL    HW130899   3.378   3.351   1.201  1.0708 -2.6338  2.6334
 6421SOL    HW230900   3.343   3.326   1.057  2.9164  1.9610  0.1432
 6422SOL     OW30901   2.320   0.527   4.643 -0.4474 -0.2457  0.4348
 6422SOL    HW130902   2.368   0.542   4.724 -0.6224  1.4148  0.2435
 6422SOL    HW230903   2.275   0.445   4.662  0.5236 -0.7609  0.4962
 6423SOL     OW30904   2.592   0.211   9.376  0.1071 -0.1798  0.4884
 6423SOL    HW130905   2.541   0.167   9.309 -1.4198  0.9965  0.8870
 6423SOL    HW230906   2.532   0.245   9.442 -0.4776  0.8067 -0.5624
 6424SOL     OW30907   2.130   3.312  12.569 -0.5916 -0.2820  0.4448
 6424SOL    HW130908   2.110   3.265  12.650 -2.0652 -0.4701 -0.0383
 6424SOL    HW230909   2.223   3.290  12.573 -0.1669  1.7928  1.9691
 6425SOL     OW30910   3.340   3.646  13.545 -0.0161  0.1779  0.6497
 6425SOL    HW130911   3.265   3.703  13.558  1.2204  2.0164 -0.1547
 6425SOL    HW230912   3.402   3.708  13.584 -3.0150  3.7009 -0.2334
 6426SOL     OW30913   0.469   2.617  14.846  0.6808 -0.3445 -0.3302
 6426SOL    HW130914   0.538   2.589  14.786  2.1294 -0.4146  1.3676
 6426SOL    HW230915   0.440   2.694  14.796 -0.2099 -1.4997 -1.5762
 6427SOL     OW30916   0.169   1.322   4.828  0.1583  0.0236 -1.0770
 6427SOL    HW130917   0.178   1.238   4.873  0.1184  0.6360  0.0713
 6427SOL    HW230918   0.074   1.329   4.820 -0.0155  0.5179  1.5670
 6428SOL     OW30919   3.506   4.523   8.158  0.3357  0.4247 -0.1391
 6428SOL    HW130920   3.511   4.618   8.168  0.3566  0.3076  0.9283
 6428SOL    HW230921   3.597   4.494   8.155  0.3887  0.5813 -0.0403
 6429SOL     OW30922   1.098   2.533  11.829 -0.4017 -0.2275  0.3685
 6429SOL    HW130923   1.064   2.562  11.744 -0.1768 -2.4928 -0.4825
 6429SOL    HW230924   1.192   2.547  11.824 -0.6597  1.8499  1.1014
 6430SOL     OW30925   1.133   1.821  13.205  0.0797  0.4169  0.5350
 6430SOL    HW130926   1.134   1.902  13.257 -0.4764  0.4354  0.5148
 6430SOL    HW230927   1.119   1.752  13.270  1.7973 -0.1271  0.3364
 6431SOL     OW30928   1.291   3.149   4.744 -0.0916 -0.5618 -0.0762
 6431SOL    HW130929   1.205   3.189   4.761 -0.5537 -0.3833 -2.9180
 6431SOL    HW230930   1.308   3.169   4.652  1.2722 -2.2800 -0.1970
 6432SOL     OW30931   0.426   4.692   5.028  0.3223  0.2765 -0.2675
 6432SOL    HW130932   0.496   4.735   4.980  0.3588  0.9098  0.3673
 6432SOL    HW230933   0.425   0.002   5.112 -0.4815  0.6827 -0.5000
 6433SOL     OW30934   1.750   2.814  16.402 -0.0548 -0.0349  0.5646
 6433SOL    HW130935   1.798   2.863  16.335 -0.5450  0.2561  0.4290
 6433SOL    HW230936   1.719   2.742  16.347 -2.2079  0.5285  1.0604
 6434SOL     OW30937   3.298   3.953   6.643 -0.2128  0.1508 -0.2469
 6434SOL    HW130938   3.351   3.909   6.576 -2.7244 -1.4465 -1.2156
 6434SOL    HW230939   3.335   4.041   6.632  0.5143 -0.3440 -1.7665
 6435SOL     OW30940   2.571   4.687   2.764  0.1945  0.7491 -0.2801
 6435SOL    HW130941   2.523   4.690   2.681 -0.5868 -1.2706  0.1050
 6435SOL    HW230942   2.641   0.013   2.742  0.2427 -0.1202 -2.6502
 6436SOL     OW30943   2.844   1.475   5.404  0.8674 -0.3655 -0.2860
 6436SOL    HW130944   2.895   1.419   5.346  1.9733  0.3790 -0.0428
 6436SOL    HW230945   2.772   1.492   5.343  0.3389 -2.4266 -0.2405
 6437SOL     OW30946   3.042   3.281   8.518 -0.8288  0.1514 -0.2200
 6437SOL    HW130947   3.065   3.337   8.444  1.8940 -1.1954 -0.4028
 6437SOL    HW230948   3.117   3.279   8.577 -1.3302  0.8568  0.4444
 6438SOL     OW30949   2.964   2.233   2.061  0.4862 -0.1205  0.3605
 6438SOL    HW130950   2.999   2.230   1.971 -1.2313 -1.2791 -0.2795
 6438SOL    HW230951   3.020   2.306   2.087 -4.5610  3.3491  1.2755
 6439SOL     OW30952   2.782   2.701  17.607  0.2494  0.2057 -0.2421
 6439SOL    HW130953   2.747   2.614  17.624 -0.5896  1.4122  4.2494
 6439SOL    HW230954   2.778   2.736  17.696 -1.7403  0.0825 -0.2831
 6440SOL     OW30955   4.326   2.249   8.363  0.0296  0.4332  0.3136
 6440SOL    HW130956   4.332   2.224   8.271  1.5191 -2.1851  1.1244
 6440SOL    HW230957   4.368   2.335   8.354  0.2499  0.4891  1.8781
 6441SOL     OW30958   2.911   2.590  12.534 -0.5555 -0.1824  0.3483
 6441SOL    HW130959   2.871   2.575  12.620 -0.9455  1.0902  0.3946
 6441SOL    HW230960   2.922   2.499  12.507 -0.7485 -0.3001  0.6611
 6442SOL     OW30961   1.726   4.631   6.322 -0.0237 -0.1546 -0.4609
 6442SOL    HW130962   1.715   4.719   6.356  1.5299 -0.7800  1.6692
 6442SOL    HW230963   1.733   4.575   6.400 -0.7703 -1.1858 -1.1290
 6443SOL     OW30964   0.090   0.930  16.640 -0.1407 -0.1720  0.8664
 6443SOL    HW130965   0.033   0.952  16.567  1.0765 -0.1142 -0.0714
 6443SOL    HW230966   0.120   0.841  16.624 -3.1477 -0.8029 -1.2371
 6444SOL     OW30967   0.974   3.872   2.003 -0.1047 -0.2992 -0.2247
 6444SOL    HW130968   0.953   3.965   2.008 -1.4510 -0.5680 -0.8021
 6444SOL    HW230969   0.977   3.863   1.908 -2.1876  1.4365 -0.4481
 6445SOL     OW30970   0.312   2.691   8.357 -0.2785 -0.4499 -0.1528
 6445SOL    HW130971   0.369   2.767   8.342 -2.1181  0.9336 -0.0263
 6445SOL    HW230972   0.300   2.679   8.451  0.4273 -0.6414 -0.0819
 6446SOL     OW30973   3.132   4.675   0.983  0.3151 -0.1725  0.0360
 6446SOL    HW130974   3.199   4.633   0.929 -1.2882 -2.8414  0.1203
 6446SOL    HW230975   3.152   0.031   0.968  0.5836 -0.2756 -0.2589
 6447SOL     OW30976   0.931   4.053   4.553 -0.2992  0.4164 -0.3149
 6447SOL    HW130977   0.868   4.124   4.569 -0.0807  0.7050 -0.7269
 6447SOL    HW230978   0.983   4.101   4.489  0.0065 -2.0915 -1.9061
 6448SOL     OW30979   0.390   2.001   0.418 -0.1764  0.2762 -0.1573
 6448SOL    HW130980   0.345   1.923   0.451 -1.1163  0.3675 -1.2054
 6448SOL    HW230981   0.412   1.973   0.329  0.9713 -2.2741  0.9295
 6449SOL     OW30982   0.172   0.307   9.929 -0.2204  0.1664 -0.0141
 6449SOL    HW130983   0.203   0.231   9.879 -1.0118 -0.3055  0.2119
 6449SOL    HW230984   0.240   0.303   9.997 -3.5528 -1.1604  3.2761
 6450SOL     OW30985   0.902   1.498   7.093  0.0555 -0.3990  0.3972
 6450SOL    HW130986   0.983   1.448   7.107  1.5758  1.2615 -2.2542
 6450SOL    HW230987   0.839   1.431   7.118 -0.9560  0.1380 -0.7236
 6451SOL     OW30988   2.001   4.382  16.643  0.1021  0.1566  0.5093
 6451SOL    HW130989   1.958   4.467  16.635  3.2705  1.4649 -2.7455
 6451SOL    HW230990   1.948   4.323  16.590 -1.4968  2.9007 -0.9874
 6452SOL     OW30991   3.310   0.851   1.708  0.3597  0.0259 -0.2116
 6452SOL    HW130992   3.298   0.798   1.629  0.4301  3.0389 -2.2530
 6452SOL    HW230993   3.260   0.791   1.763  0.7416 -0.8247 -0.7960
 6453SOL     OW30994   3.020   1.099   1.140 -0.3423 -0.0803  0.0020
 6453SOL    HW130995   3.041   1.050   1.219 -1.1320  0.7811  0.7432
 6453SOL    HW230996   3.101   1.143   1.112 -2.5438  4.0325  0.1372
 6454SOL     OW30997   3.546   0.610   2.680  0.0204 -0.0179 -0.4930
 6454SOL    HW130998   3.499   0.657   2.610 -4.1900 -2.5677  0.6788
 6454SOL    HW230999   3.471   0.571   2.724 -0.3519  0.3011 -0.8346
 6455SOL     OW31000   4.658   4.315   3.188  0.7330  0.3731 -0.3788
 6455SOL    HW131001   4.590   4.366   3.231 -1.2615 -1.4759 -1.3300
 6455SOL    HW231002   4.623   4.225   3.187 -2.0674  1.4249  2.4713
 6456SOL     OW31003   2.487   2.763   2.968 -0.1495 -0.3729 -0.1305
 6456SOL    HW131004   2.414   2.820   2.945  1.0457  1.0385 -0.4034
 6456SOL    HW231005   2.453   2.699   3.030 -1.0428 -1.6810 -1.9568
 6457SOL     OW31006   3.905   2.506   5.781 -0.0840 -0.5850 -0.3299
 6457SOL    HW131007   3.854   2.581   5.810 -0.2142 -1.3138  1.3373
 6457SOL    HW231008   3.996   2.535   5.770 -0.4447  0.8544  0.4669
 6458SOL     OW31009   1.231   3.195  13.817  0.4008  0.3569  0.3237
 6458SOL    HW131010   1.305   3.176  13.875  0.7115  0.0377 -0.1689
 6458SOL    HW231011   1.276   3.252  13.755  2.4981  0.3980  1.8983
 6459SOL     OW31012   2.399   1.547   8.827 -0.2389 -0.5363 -0.1544
 6459SOL    HW131013   2.309   1.578   8.819 -0.4723 -1.3189 -0.5531
 6459SOL    HW231014   2.385   1.453   8.820  1.5713 -0.8939  1.0007
 6460SOL     OW31015   1.363   1.099   9.134  0.3192  0.0209 -0.4641
 6460SOL    HW131016   1.299   1.028   9.137  1.1028 -0.6146  1.5801
 6460SOL    HW231017   1.424   1.073   9.064 -0.6363  0.1444 -1.3382
 6461SOL     OW31018   4.222   0.149  12.495 -0.0141  0.2063  0.1384
 6461SOL    HW131019   4.267   0.230  12.473 -2.4330  1.9842  1.8237
 6461SOL    HW231020   4.210   0.168  12.588 -1.6831 -1.9272  0.3711
 6462SOL     OW31021   0.727   2.210   0.904 -0.2724 -0.3151 -0.3355
 6462SOL    HW131022   0.635   2.198   0.881 -0.6909 -3.3580  2.9108
 6462SOL    HW231023   0.759   2.207   0.814 -1.9735 -1.4550 -0.9116
 6463SOL     OW31024   3.954   4.123   4.417 -0.3447 -0.3674 -0.3492
 6463SOL    HW131025   3.972   4.197   4.358  1.1053  0.6606  1.3671
 6463SOL    HW231026   3.882   4.158   4.469  0.6471  0.3097  0.5492
 6464SOL     OW31027   2.287   2.541   7.113  0.4361  0.0789  0.6816
 6464SOL    HW131028   2.234   2.610   7.154 -1.4259 -1.4259  0.8389
 6464SOL    HW231029   2.225   2.469   7.098 -0.3249  0.8510  0.1368
 6465SOL     OW31030   0.092   1.336  15.948  0.4767  0.3981 -0.5269
 6465SOL    HW131031   0.095   1.356  15.854 -2.3052 -0.8985 -0.8798
 6465SOL    HW231032   0.114   1.243  15.945  0.5094  0.3343  1.5518
 6466SOL     OW31033   1.045   1.373   5.406  0.3876 -0.5590 -0.1097
 6466SOL    HW131034   0.979   1.428   5.449 -0.8127 -0.8713 -1.5451
 6466SOL    HW231035   1.129   1.382   5.451  0.2127 -4.0189  0.9184
 6467SOL     OW31036   3.476   4.687   7.005  0.0739 -0.6510  0.0680
 6467SOL    HW131037   3.486   0.025   7.065 -1.5347 -0.7238  0.4216
 6467SOL    HW231038   3.465   4.732   6.921  0.2396 -0.8298 -0.0501
 6468SOL     OW31039   2.714   4.649   7.212  0.4244  0.0226  0.0061
 6468SOL    HW131040   2.650   4.694   7.267 -0.0058 -0.9033  0.2764
 6468SOL    HW231041   2.660   4.572   7.193  2.1752 -1.2264  0.0550
 6469SOL     OW31042   1.849   1.048   4.421 -0.4710  0.1599  0.2112
 6469SOL    HW131043   1.899   1.017   4.346  1.6558  2.6021  0.6134
 6469SOL    HW231044   1.920   1.099   4.462 -0.1866 -0.3085  0.3069
 6470SOL     OW31045   3.946   3.095   3.346 -0.2159  0.4379 -0.5430
 6470SOL    HW131046   3.999   3.016   3.362  0.0312  1.0935  1.7778
 6470SOL    HW231047   3.981   3.152   3.414  2.2388 -2.2866  0.4963
 6471SOL     OW31048   0.095   4.520   6.632 -0.4009  0.7587  0.1563
 6471SOL    HW131049   0.003   4.546   6.621 -0.0257  2.2657  0.5804
 6471SOL    HW231050   0.113   4.537   6.725  1.3316 -2.5185  0.4241
 6472SOL     OW31051   3.763   1.407   8.007 -0.5556  0.3408  0.3454
 6472SOL    HW131052   3.676   1.408   7.967 -0.4163 -2.0119 -0.0181
 6472SOL    HW231053   3.752   1.475   8.073 -0.2965  0.2057  0.5242
 6473SOL     OW31054   3.894   4.014  13.485  0.5827  0.0204  0.6200
 6473SOL    HW131055   3.936   3.964  13.415  2.4977  0.6454  1.3243
 6473SOL    HW231056   3.936   4.100  13.473  0.0506  0.0080 -1.4366
 6474SOL     OW31057   2.450   0.699   3.260  0.4385  0.2534 -0.9037
 6474SOL    HW131058   2.447   0.614   3.216  0.7535 -0.0776 -0.2863
 6474SOL    HW231059   2.539   0.728   3.242  0.9080 -1.1588 -0.8582
 6475SOL     OW31060   3.003   2.023   5.811 -0.0432 -0.6032  0.2362
 6475SOL    HW131061   2.941   2.008   5.882  0.6667  2.5403  1.5230
 6475SOL    HW231062   2.954   2.085   5.757  1.0951  2.9663  3.2834
 6476SOL     OW31063   0.053   3.441   5.490  0.6030  0.0166 -0.3428
 6476SOL    HW131064   0.023   3.358   5.453  1.0914 -0.0914 -0.5044
 6476SOL    HW231065   0.088   3.395   5.567 -0.6858  1.7944  1.2828
 6477SOL     OW31066   1.020   4.454   9.733 -0.0999  0.6746  0.0408
 6477SOL    HW131067   1.115   4.445   9.725  0.0917  0.9940  1.8183
 6477SOL    HW231068   1.019   4.548   9.714  0.0495  0.8635  0.9484
 6478SOL     OW31069   3.269   0.605   0.808 -0.2771  0.0948  0.5178
 6478SOL    HW131070   3.227   0.671   0.753 -0.6725  1.2733  2.2555
 6478SOL    HW231071   3.252   0.521   0.764  3.7550 -1.1897  1.3878
 6479SOL     OW31072   2.157   1.788   5.654 -0.5099  0.4130 -0.3648
 6479SOL    HW131073   2.127   1.703   5.623 -1.1986 -0.1328  1.8245
 6479SOL    HW231074   2.173   1.775   5.747  0.1261  1.3982 -0.3375
 6480SOL     OW31075   2.110   3.630   6.044  0.0868  0.0268  0.4847
 6480SOL    HW131076   2.152   3.548   6.020 -2.4775 -0.8480 -1.0972
 6480SOL    HW231077   2.032   3.594   6.086 -0.6406 -1.0724 -1.7975
 6481SOL     OW31078   3.339   3.765   8.261  0.2797 -0.0834  0.2396
 6481SOL    HW131079   3.344   3.788   8.169  0.1204 -0.8884  0.0324
 6481SOL    HW231080   3.376   3.677   8.258 -1.6867 -0.9201  0.9255
 6482SOL     OW31081   1.965   4.695  12.821  0.7803 -0.1188 -0.2282
 6482SOL    HW131082   1.954   0.003  12.906  1.0250  0.7480 -0.6536
 6482SOL    HW231083   1.874   4.687  12.791  0.5850 -1.0297  0.5916
 6483SOL     OW31084   2.555   4.539  16.649  0.1969 -0.2680 -0.1608
 6483SOL    HW131085   2.471   4.521  16.607  0.4194 -1.6056 -0.0260
 6483SOL    HW231086   2.520   4.569  16.733  2.0513 -0.4576  0.6902
 6484SOL     OW31087   4.040   3.564  13.197  0.8099 -0.4349  0.0055
 6484SOL    HW131088   4.085   3.648  13.189  0.4130 -0.0175  1.9651
 6484SOL    HW231089   4.044   3.537  13.106  0.6650  0.9524 -0.4117
 6485SOL     OW31090   2.245   2.089   8.324  0.3307 -0.1759  0.0050
 6485SOL    HW131091   2.322   2.104   8.380  1.8776  0.6856 -2.3541
 6485SOL    HW231092   2.199   2.019   8.371 -1.6479  0.9033 -0.3355
 6486SOL     OW31093   1.620   1.972   7.455 -0.9168  0.1750 -0.8484
 6486SOL    HW131094   1.709   1.951   7.425 -0.4457  1.2991 -0.2309
 6486SOL    HW231095   1.573   1.894   7.428 -0.6430 -0.0430 -0.6936
 6487SOL     OW31096   4.269   2.028   4.296  0.1808  0.1286  0.3451
 6487SOL    HW131097   4.330   1.978   4.241  1.1015  2.0386 -0.3972
 6487SOL    HW231098   4.244   2.095   4.231  1.5498  1.2533  0.9776
 6488SOL     OW31099   0.311   4.037  16.364  0.2123 -0.0583  0.1494
 6488SOL    HW131100   0.245   3.992  16.311 -0.2186  2.4794 -1.4651
 6488SOL    HW231101   0.388   4.038  16.306  1.5127  4.4081  1.9320
 6489SOL     OW31102   2.737   2.997   4.649  0.5311 -0.0190 -0.0940
 6489SOL    HW131103   2.816   3.035   4.687  0.4675  0.1688 -0.1507
 6489SOL    HW231104   2.695   2.971   4.731  3.2891  1.3224  1.7262
 6490SOL     OW31105   3.810   4.236  13.088 -0.2611  0.1955 -0.3262
 6490SOL    HW131106   3.787   4.292  13.162  0.2386 -2.0556  1.5305
 6490SOL    HW231107   3.741   4.261  13.026 -0.7762  0.5171  0.3629
 6491SOL     OW31108   0.730   0.224  12.255 -0.3025  0.0923 -0.1490
 6491SOL    HW131109   0.766   0.247  12.170 -1.6844  1.6153 -0.3217
 6491SOL    HW231110   0.780   0.287  12.308 -0.2232  0.2859 -0.4560
 6492SOL     OW31111   1.549   1.949   0.739 -0.4511 -0.0256 -0.0367
 6492SOL    HW131112   1.557   1.895   0.817 -1.7441  2.9184  2.1258
 6492SOL    HW231113   1.522   2.034   0.774 -1.1010 -1.1867  2.2758
 6493SOL     OW31114   3.377   1.387   4.482  0.3795 -0.3622  0.5795
 6493SOL    HW131115   3.393   1.438   4.561  0.7500 -2.2623  1.7289
 6493SOL    HW231116   3.361   1.300   4.518 -0.0392 -0.2436  0.6687
 6494SOL     OW31117   4.227   4.427  12.993  0.3176 -0.2817 -0.6519
 6494SOL    HW131118   4.183   4.397  12.913  1.0552  0.6241 -1.4073
 6494SOL    HW231119   4.305   4.371  12.990  0.2760 -0.4972  2.2286
 6495SOL     OW31120   0.423   1.414   7.665 -0.2408  0.2520 -0.3999
 6495SOL    HW131121   0.402   1.483   7.602  0.6259 -0.3633 -1.3733
 6495SOL    HW231122   0.375   1.345   7.619 -0.3835 -0.0577  0.2133
 6496SOL     OW31123   4.011   0.947  10.000 -0.2103  0.4768 -0.3027
 6496SOL    HW131124   3.982   0.873   9.946 -0.7055  1.2502 -1.0757
 6496SOL    HW231125   3.970   0.923  10.084  0.7125  2.4052  0.6768
 6497SOL     OW31126   2.703   3.976   0.250  0.0457  0.3956 -0.4999
 6497SOL    HW131127   2.671   4.066   0.259 -0.4428  0.2024 -0.3340
 6497SOL    HW231128   2.794   3.996   0.275 -0.3419  0.0293  1.2036
 6498SOL     OW31129   0.590   2.097  13.451 -0.0354 -0.7153 -0.7263
 6498SOL    HW131130   0.586   2.003  13.470  0.4879 -0.8372 -1.2204
 6498SOL    HW231131   0.669   2.102  13.398  1.5712 -2.8929  1.4617
 6499SOL     OW31132   1.867   2.465   6.915 -0.2836 -0.3173 -0.5953
 6499SOL    HW131133   1.885   2.544   6.863  1.2982 -0.3652 -0.1321
 6499SOL    HW231134   1.772   2.468   6.922  0.0203  2.1412  2.3878
 6500SOL     OW31135   3.573   1.411   1.360 -0.2324 -1.1632 -0.5788
 6500SOL    HW131136   3.610   1.452   1.439 -0.6677  0.3581 -1.1743
 6500SOL    HW231137   3.595   1.318   1.370  1.1422 -0.9661 -1.7984
 6501SOL     OW31138   3.496   4.090   4.710  0.4679 -0.2768  0.3448
 6501SOL    HW131139   3.551   4.012   4.712 -1.9496 -1.9226  2.1382
 6501SOL    HW231140   3.446   4.081   4.790  1.8600 -1.6482  1.0729
 6502SOL     OW31141   0.040   4.264  14.126 -0.0213  0.3526 -0.0431
 6502SOL    HW131142   0.091   4.312  14.061 -1.2191  0.7040 -0.7220
 6502SOL    HW231143   4.733   4.200  14.068 -1.4904  0.3965  1.0086
 6503SOL     OW31144   2.057   0.596   7.346 -0.4850  0.1430 -0.2230
 6503SOL    HW131145   2.028   0.507   7.364 -1.2799  0.4630  0.0627
 6503SOL    HW231146   2.049   0.578   7.252 -0.5480  1.3325 -0.4470
 6504SOL     OW31147   4.372   2.049  11.271  0.0012  0.6431 -0.0797
 6504SOL    HW131148   4.345   2.140  11.269 -1.5369  0.1796 -0.5033
 6504SOL    HW231149   4.348   2.017  11.184 -1.7193 -0.2632  0.7353
 6505SOL     OW31150   0.965   3.170   7.182  0.6677 -0.7071  0.0293
 6505SOL    HW131151   1.018   3.107   7.134 -0.9796 -2.0728 -0.0087
 6505SOL    HW231152   0.919   3.223   7.118  0.4111  0.0886  0.8697
 6506SOL     OW31153   3.841   2.762   1.983  0.1700 -0.0093  0.7097
 6506SOL    HW131154   3.842   2.803   2.070  0.8336  1.5927 -0.0544
 6506SOL    HW231155   3.875   2.836   1.934  1.0207  0.7842  2.4815
 6507SOL     OW31156   3.864   1.902   4.265  0.0598  0.2343  0.3599
 6507SOL    HW131157   3.805   1.827   4.264 -1.1400  1.1996 -1.0851
 6507SOL    HW231158   3.825   1.957   4.333  0.8937  0.1592  0.9006
 6508SOL     OW31159   0.896   4.373   5.927  0.0527  0.0388 -0.0633
 6508SOL    HW131160   0.893   4.280   5.949 -0.7779  0.2742  0.7731
 6508SOL    HW231161   0.853   4.372   5.841 -0.0766  0.6660 -0.0090
 6509SOL     OW31162   3.964   3.408   5.662 -0.0175 -0.1685 -0.3015
 6509SOL    HW131163   3.952   3.317   5.634  0.9374 -0.6364  0.8094
 6509SOL    HW231164   3.979   3.454   5.580 -2.5861  1.4959  0.1616
 6510SOL     OW31165   2.451   4.385   3.549  0.4380 -0.4321 -0.0005
 6510SOL    HW131166   2.500   4.322   3.603  2.8287 -0.6052 -2.3609
 6510SOL    HW231167   2.528   4.418   3.504  0.1921  0.0986 -0.0289
 6511SOL     OW31168   4.320   1.254   3.666 -0.8635  0.3990  0.8512
 6511SOL    HW131169   4.258   1.274   3.596  0.7775 -0.4690 -0.8390
 6511SOL    HW231170   4.400   1.251   3.614 -1.1605 -0.4618  0.4431
 6512SOL     OW31171   2.086   2.845   5.400 -0.7829 -0.1718  0.1852
 6512SOL    HW131172   2.103   2.851   5.494  0.6819 -0.0384 -0.0855
 6512SOL    HW231173   2.039   2.761   5.398  0.2645 -0.7765  1.1542
 6513SOL     OW31174   4.667   1.577   7.097  0.5796 -0.4214  0.2996
 6513SOL    HW131175   4.726   1.511   7.060  1.8462  0.8908 -0.0212
 6513SOL    HW231176   4.723   1.654   7.083 -0.7212  0.3362 -0.7535
 6514SOL     OW31177   1.840   2.474  15.932  0.3483 -0.0264 -0.1978
 6514SOL    HW131178   1.814   2.534  15.862 -2.3306 -2.7208 -1.5307
 6514SOL    HW231179   1.927   2.499  15.963  0.5346 -1.8271  0.6893
 6515SOL     OW31180   3.768   3.183   7.742 -0.2810 -0.1188  0.3571
 6515SOL    HW131181   3.713   3.259   7.726 -0.7184 -1.2923 -3.7575
 6515SOL    HW231182   3.852   3.225   7.724 -0.0854  0.0481  1.7084
 6516SOL     OW31183   0.163   0.607   3.739 -0.2756 -0.1377  0.2139
 6516SOL    HW131184   0.255   0.627   3.722  0.2398 -0.2588  2.8225
 6516SOL    HW231185   0.187   0.523   3.779  1.7641  0.7936  0.9674
 6517SOL     OW31186   1.459   1.019  12.442 -0.5037 -0.2722  0.2282
 6517SOL    HW131187   1.468   1.107  12.481  0.6672 -0.2894 -0.0314
 6517SOL    HW231188   1.364   1.021  12.430 -0.4770  1.2298  0.2030
 6518SOL     OW31189   2.863   0.375   6.390  0.2542 -0.0405 -0.1328
 6518SOL    HW131190   2.954   0.403   6.392  0.5525 -1.1035  0.6393
 6518SOL    HW231191   2.840   0.373   6.297  0.6875  3.2689 -0.3172
 6519SOL     OW31192   1.366   2.173   7.180 -0.3968 -0.0761 -0.1014
 6519SOL    HW131193   1.434   2.230   7.217  0.5526  0.7377 -3.0593
 6519SOL    HW231194   1.367   2.114   7.254 -2.0412 -0.7461 -0.6285
 6520SOL     OW31195   1.721   0.008  15.574  0.6442  0.1639 -0.2688
 6520SOL    HW131196   1.683   0.023  15.660  2.1424 -1.0840  0.6144
 6520SOL    HW231197   1.713   4.650  15.559 -1.9635  0.4823 -0.8050
 6521SOL     OW31198   4.194   4.465  16.479 -0.6355 -0.2922  0.3169
 6521SOL    HW131199   4.134   4.449  16.552 -0.2748 -0.1756  0.6413
 6521SOL    HW231200   4.191   4.389  16.420  0.7922 -1.6797  1.9928
 6522SOL     OW31201   1.961   1.335   4.993  0.3996  0.1805 -0.2725
 6522SOL    HW131202   1.909   1.264   5.032  1.7980  0.0967  1.4567
 6522SOL    HW231203   1.899   1.408   5.000  0.2089 -0.0306  0.2410
 6523SOL     OW31204   3.772   3.834   5.118  0.1872 -0.1161 -0.1795
 6523SOL    HW131205   3.706   3.781   5.072  1.0392 -1.7359  0.4825
 6523SOL    HW231206   3.846   3.779   5.092  0.2469  0.5403 -1.3825
 6524SOL     OW31207   1.556   4.345   9.939 -0.1635 -0.2602  0.4126
 6524SOL    HW131208   1.624   4.324  10.003  0.0406 -1.4746 -0.2081
 6524SOL    HW231209   1.597   4.385   9.862  3.2765  0.9717  2.8673
 6525SOL     OW31210   1.016   0.214   1.708  0.2099 -0.5533  0.2027
 6525SOL    HW131211   0.949   0.208   1.776  0.2319 -1.2602  0.1710
 6525SOL    HW231212   0.989   0.141   1.652 -0.6346 -0.1264  0.0616
 6526SOL     OW31213   0.766   2.429   1.894  0.0897 -0.3486 -0.4903
 6526SOL    HW131214   0.724   2.403   1.812  2.0915 -0.4863 -1.4773
 6526SOL    HW231215   0.690   2.452   1.947 -1.8662 -1.8488 -2.6124
 6527SOL     OW31216   0.840   1.539   7.606  0.0127 -0.2449  0.3973
 6527SOL    HW131217   0.878   1.453   7.587 -2.0575 -1.0532 -0.0611
 6527SOL    HW231218   0.763   1.533   7.548  0.2575  0.7549 -0.0280
 6528SOL     OW31219   2.071   3.448   5.200 -0.1083  0.0391 -0.1433
 6528SOL    HW131220   2.162   3.455   5.169 -0.6057 -0.6253 -1.7701
 6528SOL    HW231221   2.035   3.403   5.124  1.3479 -0.9389 -0.2653
 6529SOL     OW31222   0.457   4.377  10.001  0.3966  0.2860 -0.0433
 6529SOL    HW131223   0.409   4.329   9.934 -0.6327 -0.1334  0.9963
 6529SOL    HW231224   0.549   4.382   9.974  0.5341 -1.2971  0.0940
 6530SOL     OW31225   0.328   0.753   5.077  0.2024  0.3425 -0.0489
 6530SOL    HW131226   0.383   0.728   5.151  0.4740 -1.5605 -0.8889
 6530SOL    HW231227   0.244   0.713   5.101  0.6869 -0.5064  0.2251
 6531SOL     OW31228   0.815   1.837  13.193 -0.2590 -0.4999 -0.1671
 6531SOL    HW131229   0.782   1.828  13.282 -0.5985 -0.0166 -0.2418
 6531SOL    HW231230   0.796   1.927  13.168 -0.8916 -0.3973  0.6849
 6532SOL     OW31231   1.022   2.909   9.234  0.4831 -0.2060 -0.3616
 6532SOL    HW131232   1.026   2.850   9.159  0.2391  0.1456 -0.6494
 6532SOL    HW231233   0.954   2.869   9.288  1.5847  1.7623  2.5117
 6533SOL     OW31234   4.649   4.067  13.152  0.9855 -0.4867 -0.0051
 6533SOL    HW131235   4.733   4.102  13.121  0.9497  0.8927  1.4564
 6533SOL    HW231236   4.592   4.138  13.122  1.0234  0.3355  1.8818
 6534SOL     OW31237   0.937   2.953   2.278  0.3372 -0.0404 -0.2009
 6534SOL    HW131238   0.925   3.035   2.326 -1.1343  0.2130 -1.0090
 6534SOL    HW231239   1.020   2.968   2.232  1.4274  1.3946  2.2361
 6535SOL     OW31240   1.265   3.527   6.865  0.2442 -0.5760 -0.0065
 6535SOL    HW131241   1.175   3.497   6.855  0.6347 -1.7022 -0.1418
 6535SOL    HW231242   1.260   3.615   6.826  1.1767 -1.4743 -2.1958
 6536SOL     OW31243   2.781   0.005   8.235  0.0232  0.1952 -0.0540
 6536SOL    HW131244   2.734   4.717   8.315  0.7470  0.0490  0.3298
 6536SOL    HW231245   2.728   4.713   8.161  0.8773 -1.4846 -0.0264
 6537SOL     OW31246   1.979   3.805   8.390  0.2865  0.4849 -0.0909
 6537SOL    HW131247   1.889   3.802   8.421 -0.2266  1.7840 -1.4598
 6537SOL    HW231248   1.984   3.891   8.348  1.1360 -0.2483 -1.5035
 6538SOL     OW31249   0.340   1.586   7.479 -0.4114  0.6901  0.2120
 6538SOL    HW131250   0.321   1.581   7.386 -1.0200 -0.5893  0.4165
 6538SOL    HW231251   0.363   1.679   7.488  0.5010  0.3963  0.9839
 6539SOL     OW31252   1.186   1.450   8.328 -0.1614  0.0526  0.3329
 6539SOL    HW131253   1.156   1.498   8.251 -1.2063  0.1981  0.8358
 6539SOL    HW231254   1.196   1.361   8.294 -0.8074  0.4425 -0.8804
 6540SOL     OW31255   2.819   0.319  12.955  0.0967  0.3077  0.1785
 6540SOL    HW131256   2.783   0.339  12.869 -0.8548  1.2233  0.7977
 6540SOL    HW231257   2.852   0.396  13.002  1.8485  0.8230 -1.8654
 6541SOL     OW31258   0.400   0.426   2.628  0.5236  0.6769  0.2029
 6541SOL    HW131259   0.334   0.449   2.563  0.1387  1.3687  0.8433
 6541SOL    HW231260   0.450   0.356   2.585 -0.5418 -1.5058  2.5347
 6542SOL     OW31261   4.401   3.094   4.722  0.6226 -0.3460 -0.3690
 6542SOL    HW131262   4.433   3.023   4.778  1.8685  0.0770 -0.5283
 6542SOL    HW231263   4.463   3.081   4.650  0.6486  2.3294 -0.8182
 6543SOL     OW31264   0.629   2.767   6.604  0.0021 -0.1085  0.6184
 6543SOL    HW131265   0.610   2.789   6.513 -1.7239 -0.4111  0.8973
 6543SOL    HW231266   0.571   2.826   6.652 -0.9155  0.7497 -1.5537
 6544SOL     OW31267   3.700   4.307   6.487 -0.2898 -0.0154 -0.6468
 6544SOL    HW131268   3.635   4.328   6.555 -2.5923 -0.6988 -2.6313
 6544SOL    HW231269   3.770   4.280   6.546 -0.9624 -1.1093 -0.3422
 6545SOL     OW31270   1.021   2.650   9.806 -0.4961 -0.0019 -0.5196
 6545SOL    HW131271   1.096   2.620   9.858 -0.7606 -0.6705 -0.5251
 6545SOL    HW231272   1.044   2.739   9.779  0.0799 -0.2823 -0.9739
 6546SOL     OW31273   2.103   2.485  16.150 -0.2354  0.4293  0.2101
 6546SOL    HW131274   2.099   2.408  16.092 -0.1494 -0.2150  1.0544
 6546SOL    HW231275   2.165   2.540  16.103  1.1475 -0.1740  1.3393
 6547SOL     OW31276   4.485   1.465   7.317 -0.2141 -0.5645  0.0737
 6547SOL    HW131277   4.553   1.496   7.257 -0.5945  1.5710  0.7749
 6547SOL    HW231278   4.416   1.433   7.258  0.9482 -3.0426  0.0719
 6548SOL     OW31279   2.694   4.484  14.648  0.3597 -0.3546  0.7041
 6548SOL    HW131280   2.738   4.549  14.703  1.3584  1.9625 -2.7696
 6548SOL    HW231281   2.764   4.463  14.586 -0.0306 -0.6573  0.3654
 6549SOL     OW31282   4.359   1.015  11.724 -0.0074 -0.3652 -0.4665
 6549SOL    HW131283   4.408   1.082  11.772  0.2629  1.8367 -3.8298
 6549SOL    HW231284   4.297   0.983  11.790  0.1124  0.0310 -0.1559
 6550SOL     OW31285   4.580   4.250   2.405 -0.8877 -1.0261  0.1946
 6550SOL    HW131286   4.535   4.199   2.472 -1.0432  0.0159  0.8845
 6550SOL    HW231287   4.561   4.340   2.433 -0.6133 -1.2152  0.9657
 6551SOL     OW31288   0.433   3.970  12.964 -0.1694 -0.3124 -0.0073
 6551SOL    HW131289   0.477   4.013  13.038 -1.9483 -1.2129  1.5795
 6551SOL    HW231290   0.357   3.934  13.010 -0.7496 -0.1232 -0.8349
 6552SOL     OW31291   2.882   0.319   6.116 -0.2328  0.1215  0.4166
 6552SOL    HW131292   2.827   0.249   6.080  1.4397 -1.2674  0.5728
 6552SOL    HW231293   2.957   0.308   6.058 -2.0851 -2.0062 -1.5742
 6553SOL     OW31294   3.585   2.892   1.359  0.0297  0.2859 -0.3006
 6553SOL    HW131295   3.526   2.898   1.284  0.7146  0.6818 -0.8078
 6553SOL    HW231296   3.654   2.941   1.315  0.2097  0.9318  0.6895
 6554SOL     OW31297   4.014   4.104   4.893  0.5473  0.6558 -0.2554
 6554SOL    HW131298   4.040   4.062   4.975 -3.8870 -0.7998  0.4334
 6554SOL    HW231299   3.941   4.159   4.921  1.3652  0.9668  1.2822
 6555SOL     OW31300   2.263   1.316   3.289 -0.0248 -0.0918 -0.8584
 6555SOL    HW131301   2.273   1.393   3.234  2.1812 -0.5072 -1.0426
 6555SOL    HW231302   2.313   1.344   3.366  1.0041 -0.0925 -1.5206
 6556SOL     OW31303   3.147   0.507   7.146 -0.6810  0.4289  0.2307
 6556SOL    HW131304   3.190   0.435   7.192  0.5629  0.3077 -1.1137
 6556SOL    HW231305   3.222   0.534   7.093  0.3280  0.6731  1.7999
 6557SOL     OW31306   0.778   3.253   2.235 -0.2520  0.7827 -0.7300
 6557SOL    HW131307   0.836   3.222   2.165 -0.2374  0.4593 -0.5741
 6557SOL    HW231308   0.845   3.311   2.269 -0.2089  0.0538  0.4016
 6558SOL     OW31309   3.890   0.092  14.334 -0.8527 -0.1592 -0.3986
 6558SOL    HW131310   3.966   0.107  14.279  1.1029 -1.1291  2.0691
 6558SOL    HW231311   3.869   0.183  14.353  0.7908 -0.1408  1.2351
 6559SOL     OW31312   2.312   0.159   2.524  0.6146  0.1119  0.4155
 6559SOL    HW131313   2.225   0.122   2.539  0.9566 -1.5685 -1.8447
 6559SOL    HW231314   2.368   0.082   2.528  0.7450  0.1478 -0.5758
 6560SOL     OW31315   1.708   0.466   5.872 -0.1642  0.6793 -0.3411
 6560SOL    HW131316   1.759   0.414   5.810  1.9469  0.3101  1.7058
 6560SOL    HW231317   1.688   0.547   5.825  0.6345  1.1645  0.1427
 6561SOL     OW31318   3.247   3.039   4.275 -0.3428 -0.3786  0.1871
 6561SOL    HW131319   3.176   3.078   4.225  0.7648 -0.7525 -1.6826
 6561SOL    HW231320   3.302   2.999   4.208  2.8801 -0.9804  3.2144
 6562SOL     OW31321   1.816   3.321  12.349 -1.0172 -0.2109  0.5108
 6562SOL    HW131322   1.907   3.299  12.330 -1.0020 -2.7758  3.6469
 6562SOL    HW231323   1.837   3.387  12.414  1.8894  0.9858 -1.6099
 6563SOL     OW31324   3.256   1.609   8.191 -0.0071 -0.4942  0.5684
 6563SOL    HW131325   3.236   1.527   8.236  0.3726 -1.5124 -1.1062
 6563SOL    HW231326   3.352   1.605   8.194 -0.0280 -1.2020  0.2968
 6564SOL     OW31327   2.434   0.632   7.834  0.1467 -0.1165 -0.5545
 6564SOL    HW131328   2.407   0.548   7.871  0.5592  0.0835  0.1961
 6564SOL    HW231329   2.384   0.694   7.886  0.6646  0.5614 -0.8550
 6565SOL     OW31330   4.299   2.920   8.895  0.1022  0.0082 -0.6322
 6565SOL    HW131331   4.394   2.911   8.885  0.1888 -0.1967  0.4233
 6565SOL    HW231332   4.289   2.961   8.981 -0.2179 -0.7462 -0.3089
 6566SOL     OW31333   4.682   3.640   0.710  0.5304 -0.2963 -0.0233
 6566SOL    HW131334   4.597   3.627   0.751 -0.3630  3.0420 -0.7686
 6566SOL    HW231335   4.677   3.567   0.648 -2.7719 -1.7516  1.9867
 6567SOL     OW31336   0.531   3.631   5.551  0.0093 -0.1762 -0.1940
 6567SOL    HW131337   0.497   3.680   5.476 -0.5949  0.7040  0.6551
 6567SOL    HW231338   0.472   3.555   5.545  0.8230 -0.8263  0.0719
 6568SOL     OW31339   1.772   1.554   5.039 -0.1068 -0.4100  0.3182
 6568SOL    HW131340   1.853   1.601   5.020  1.8362 -3.6257  0.6940
 6568SOL    HW231341   1.723   1.635   5.052 -0.5179 -0.9067  1.8227
 6569SOL     OW31342   4.511   0.115   9.511  0.2000 -0.0682  0.2301
 6569SOL    HW131343   4.570   0.066   9.567  2.2585  2.2428  0.0776
 6569SOL    HW231344   4.528   0.058   9.436  2.7049  0.5448  0.3568
 6570SOL     OW31345   2.334   2.735   2.161 -0.1578  0.2086 -0.2231
 6570SOL    HW131346   2.319   2.760   2.252  0.0492  0.0365 -0.1400
 6570SOL    HW231347   2.428   2.714   2.166  0.1320  1.4077 -0.5925
 6571SOL     OW31348   0.202   2.511   7.664  0.2021 -0.1836 -0.3626
 6571SOL    HW131349   0.122   2.506   7.612 -0.6338 -0.1949  0.9273
 6571SOL    HW231350   0.244   2.595   7.644  1.4931 -1.1485 -1.7204
 6572SOL     OW31351   3.955   4.447   2.925  0.2073 -0.1517 -0.1161
 6572SOL    HW131352   3.862   4.462   2.909 -0.1664 -3.1366 -0.7769
 6572SOL    HW231353   3.987   4.411   2.842  0.9814 -0.4408  0.3146
 6573SOL     OW31354   3.609   4.241  15.042 -0.2624  0.3460  0.2286
 6573SOL    HW131355   3.577   4.331  15.034 -0.4877  0.3742  1.4152
 6573SOL    HW231356   3.601   4.212  14.951  2.9072  1.4577 -0.3980
 6574SOL     OW31357   1.468   1.744   7.423  0.0916 -0.1860  0.3641
 6574SOL    HW131358   1.471   1.719   7.515  1.9124 -1.3401  0.0083
 6574SOL    HW231359   1.377   1.768   7.408 -0.2863 -1.3861  0.7783
 6575SOL     OW31360   2.125   4.687   5.525 -0.3203  0.0835  0.0193
 6575SOL    HW131361   2.085   4.607   5.561  1.5778 -0.9186 -0.0870
 6575SOL    HW231362   2.217   4.668   5.508 -0.7873  0.2439 -2.5938
 6576SOL     OW31363   3.757   1.700   9.810 -0.2320 -0.1709  0.3729
 6576SOL    HW131364   3.733   1.778   9.760  0.1321  1.1147  2.2181
 6576SOL    HW231365   3.807   1.644   9.750  0.7127  0.6049  0.4418
 6577SOL     OW31366   0.015   2.126  16.978 -0.3353 -0.0233  0.1379
 6577SOL    HW131367   0.022   2.200  17.040 -1.9966  0.6594 -0.4736
 6577SOL    HW231368   4.660   2.141  16.951  0.2901  0.3166 -1.7315
 6578SOL     OW31369   0.897   2.958   5.976 -0.0455  0.0612  0.6430
 6578SOL    HW131370   0.815   3.002   6.000 -1.6368 -1.7584 -1.3811
 6578SOL    HW231371   0.959   3.012   6.023 -0.7014  0.7311  0.7283
 6579SOL     OW31372   1.972   0.149   7.131 -0.0260  0.6756  0.1835
 6579SOL    HW131373   1.942   0.137   7.041 -0.6477  1.5938  0.2696
 6579SOL    HW231374   2.037   0.079   7.127  0.7373  1.4276 -0.5452
 6580SOL     OW31375   1.520   0.201   2.036  0.8100  0.1245  0.4902
 6580SOL    HW131376   1.430   0.230   2.021  0.3810 -1.3074  0.2560
 6580SOL    HW231377   1.564   0.199   1.951  2.7470 -1.1428  1.5152
 6581SOL     OW31378   4.286   2.049   1.252  0.2289  0.0922  0.4762
 6581SOL    HW131379   4.220   2.095   1.304  0.9106  3.6703 -1.7966
 6581SOL    HW231380   4.348   2.119   1.233  0.1434  0.3129  0.9925
 6582SOL     OW31381   3.989   4.268  13.467 -0.5618  0.1712 -0.0935
 6582SOL    HW131382   4.036   4.337  13.419  1.2331  0.3870  2.0084
 6582SOL    HW231383   3.925   4.320  13.515 -0.0016  0.5016  0.2928
 6583SOL     OW31384   4.516   2.510   2.940  0.3557  0.1402 -0.3542
 6583SOL    HW131385   4.528   2.576   2.871  1.8248 -0.8074 -0.9963
 6583SOL    HW231386   4.598   2.461   2.939 -0.3476 -1.0380  0.2821
 6584SOL     OW31387   3.740   4.410  13.281  0.0754 -1.0853 -0.3661
 6584SOL    HW131388   3.700   4.497  13.281  1.7870 -0.3041 -0.0262
 6584SOL    HW231389   3.834   4.426  13.293 -0.1691 -0.7245  1.0090
 6585SOL     OW31390   3.749   1.130  16.108  0.2084  0.7255 -0.4103
 6585SOL    HW131391   3.807   1.180  16.166 -0.3197 -1.3404  1.9048
 6585SOL    HW231392   3.794   1.136  16.024  1.2879 -0.9022  0.0358
 6586SOL     OW31393   3.354   3.055  13.617 -0.3950 -0.0755  0.2030
 6586SOL    HW131394   3.435   3.091  13.579 -0.6004 -0.4808 -0.6163
 6586SOL    HW231395   3.367   2.965  13.587  1.1490  0.5607 -1.0527
 6587SOL     OW31396   3.347   1.507   1.475  0.1694  0.0405 -0.4572
 6587SOL    HW131397   3.430   1.475   1.439  0.9527 -0.2708  1.6700
 6587SOL    HW231398   3.277   1.451   1.440 -2.3267  0.5063  3.7841
 6588SOL     OW31399   1.604   2.667  16.810  0.4451 -0.2018  0.5004
 6588SOL    HW131400   1.603   2.626  16.723  0.7895 -0.5912  0.6815
 6588SOL    HW231401   1.546   2.742  16.794  0.7046 -0.1670 -0.2625
 6589SOL     OW31402   0.795   2.571   3.142 -0.0045 -0.0670  0.0579
 6589SOL    HW131403   0.843   2.651   3.118  0.8672 -0.9252 -1.0562
 6589SOL    HW231404   0.716   2.570   3.089  0.0404  0.6333 -0.0265
 6590SOL     OW31405   3.904   2.491   2.096 -0.8711  0.1183  0.9909
 6590SOL    HW131406   3.854   2.444   2.030  0.6578 -0.8557  0.5229
 6590SOL    HW231407   3.898   2.585   2.082 -2.9285 -0.0135  1.0126
 6591SOL     OW31408   0.097   0.343   5.426 -0.5864 -0.8598 -0.8235
 6591SOL    HW131409   0.159   0.397   5.476 -2.3945  0.6368 -0.2130
 6591SOL    HW231410   0.065   0.288   5.497 -0.7807 -0.2800 -0.4609
 6592SOL     OW31411   0.070   2.508  13.556 -0.2889  0.0208  0.9777
 6592SOL    HW131412   0.163   2.525  13.571 -0.3442  0.1956  1.1310
 6592SOL    HW231413   0.060   2.560  13.476 -1.0406 -1.1553  0.3140
 6593SOL     OW31414   3.292   3.280   1.729 -0.2448  0.8615 -0.0201
 6593SOL    HW131415   3.262   3.281   1.638 -0.4550 -0.7066  0.0170
 6593SOL    HW231416   3.351   3.205   1.726  0.0237  1.0427  0.7336
 6594SOL     OW31417   0.774   4.442   6.984  0.4990 -0.1472  0.1559
 6594SOL    HW131418   0.855   4.467   6.939  0.7421 -0.9349  0.1482
 6594SOL    HW231419   0.726   4.524   6.989 -1.9309 -1.5233 -0.4579
 6595SOL     OW31420   2.387   0.641   5.687  0.0398  0.2103 -0.0679
 6595SOL    HW131421   2.472   0.684   5.681  1.0635 -1.8475 -0.4108
 6595SOL    HW231422   2.334   0.720   5.697  0.7796  0.7563 -0.4723
 6596SOL     OW31423   3.191   3.401  16.243  0.1442 -0.7627  0.1728
 6596SOL    HW131424   3.270   3.362  16.206  0.7297  1.5015 -0.9540
 6596SOL    HW231425   3.224   3.481  16.284  3.0394 -0.9516 -1.7696
 6597SOL     OW31426   2.263   1.782  12.606  0.9368  0.3927  0.5917
 6597SOL    HW131427   2.256   1.805  12.699  0.0505  2.3369  0.0368
 6597SOL    HW231428   2.354   1.751  12.610  0.8683  0.0237 -0.8571
 6598SOL     OW31429   4.200   3.351  12.562 -0.2177  0.2145  0.1057
 6598SOL    HW131430   4.110   3.355  12.594 -1.0172  3.1875 -2.5666
 6598SOL    HW231431   4.216   3.259  12.583  3.3798  0.8946  0.2857
 6599SOL     OW31432   4.496   0.087   5.909  0.5742  0.0010  0.4169
 6599SOL    HW131433   4.588   0.109   5.898  0.4721 -0.3747 -1.0959
 6599SOL    HW231434   4.471   0.057   5.822 -1.5995  3.2845 -0.0690
 6600SOL     OW31435   1.355   1.363   8.674  0.3672  0.1378  0.0501
 6600SOL    HW131436   1.442   1.397   8.651 -0.1300 -0.2782 -2.5099
 6600SOL    HW231437   1.330   1.419   8.747 -1.9291  0.3018 -0.8862
 6601SOL     OW31438   3.744   1.922   7.002  0.0710 -0.3850 -0.2225
 6601SOL    HW131439   3.710   1.895   6.916  2.4580 -1.2777 -0.8988
 6601SOL    HW231440   3.677   1.984   7.030  1.7064  0.9893  0.6809
 6602SOL     OW31441   3.120   0.300   5.965 -0.6851 -0.5649 -0.1698
 6602SOL    HW131442   3.194   0.281   6.022  0.3054  0.2350 -1.1705
 6602SOL    HW231443   3.170   0.352   5.901 -1.6670 -2.2091 -2.2717
 6603SOL     OW31444   2.186   3.736  10.989  0.1635 -0.7865  0.1445
 6603SOL    HW131445   2.101   3.694  10.998 -1.3074  2.1067 -0.2947
 6603SOL    HW231446   2.197   3.768  11.079  1.3232 -0.0576 -0.2534
 6604SOL     OW31447   1.311   3.202   3.418  0.2680 -0.2046 -0.0437
 6604SOL    HW131448   1.275   3.114   3.408  1.2027 -0.8807  2.4568
 6604SOL    HW231449   1.393   3.177   3.375  0.3461 -0.9790  0.5507
 6605SOL     OW31450   4.485   3.621   4.025  0.2045  0.3529  0.3964
 6605SOL    HW131451   4.480   3.532   4.059  0.5373  0.5186  0.8879
 6605SOL    HW231452   4.565   3.657   4.064 -0.2743  2.4761 -0.5557
 6606SOL     OW31453   1.674   3.263   4.710  0.4370 -0.5995 -0.1339
 6606SOL    HW131454   1.583   3.292   4.713  0.1534 -1.5487  0.5446
 6606SOL    HW231455   1.666   3.186   4.765 -2.2711 -1.2037 -1.3677
 6607SOL     OW31456   1.052   2.781  16.582  0.4563  0.0184  0.1607
 6607SOL    HW131457   1.126   2.721  16.589  0.1168 -0.3700  0.4867
 6607SOL    HW231458   1.053   2.839  16.658 -0.0959  1.5728 -1.0397
 6608SOL     OW31459   1.646   0.617   6.445  0.1069 -0.1974 -0.4816
 6608SOL    HW131460   1.660   0.624   6.351  1.3681 -1.6540 -0.3905
 6608SOL    HW231461   1.552   0.600   6.441  0.1251 -0.8024  1.4915
 6609SOL     OW31462   1.792   1.450  11.334 -0.3479 -0.7505  0.0559
 6609SOL    HW131463   1.706   1.408  11.340  0.6427 -3.0541 -1.7017
 6609SOL    HW231464   1.774   1.543  11.340  1.3144 -0.3857 -0.4908
 6610SOL     OW31465   3.606   1.904   5.735 -0.7940  0.2779 -0.0471
 6610SOL    HW131466   3.571   1.993   5.734  1.2422  1.0669 -1.6482
 6610SOL    HW231467   3.570   1.869   5.653  1.5562 -2.0770 -0.1003
 6611SOL     OW31468   1.089   4.205   2.512  0.2969  0.3942  1.2710
 6611SOL    HW131469   1.061   4.143   2.579  0.6866  1.0361  2.0350
 6611SOL    HW231470   1.174   4.169   2.486  0.1493  1.3984 -0.6154
 6612SOL     OW31471   0.923   2.906   2.674  0.3529 -0.3515 -0.0580
 6612SOL    HW131472   0.831   2.929   2.667 -0.0526 -1.2436  2.1795
 6612SOL    HW231473   0.922   2.888   2.768 -0.1373  1.0707  0.1990
 6613SOL     OW31474   2.510   1.531   6.506 -0.6490  0.1760  0.0793
 6613SOL    HW131475   2.539   1.440   6.495 -5.6091 -1.1760 -1.4671
 6613SOL    HW231476   2.509   1.551   6.599 -1.6600 -2.7208  0.6827
 6614SOL     OW31477   0.439   1.287   4.803  0.3476  0.2776 -0.2057
 6614SOL    HW131478   0.479   1.352   4.861 -0.6013  1.4968 -0.9018
 6614SOL    HW231479   0.348   1.317   4.800 -0.1496 -0.8114  3.4067
 6615SOL     OW31480   2.113   0.514   6.779  0.1225 -0.1189 -0.1913
 6615SOL    HW131481   2.144   0.587   6.726  0.1547  1.8236  2.4845
 6615SOL    HW231482   2.111   0.438   6.722  0.3873 -0.6581  0.5241
 6616SOL     OW31483   4.070   1.206  15.655  0.1808 -0.4280  0.1808
 6616SOL    HW131484   4.099   1.131  15.603  4.1026 -1.2855  3.6036
 6616SOL    HW231485   4.091   1.280  15.598  0.1659 -1.8940 -1.7100
 6617SOL     OW31486   3.548   4.014   5.112 -0.0365 -0.3483 -0.1044
 6617SOL    HW131487   3.494   3.957   5.168  0.9447 -0.4832  0.6932
 6617SOL    HW231488   3.625   3.958   5.106 -0.0086 -0.2531 -0.6267
 6618SOL     OW31489   4.530   3.054   7.061 -0.4083  0.3311  0.0900
 6618SOL    HW131490   4.537   2.961   7.081 -0.5525  0.4548  0.7252
 6618SOL    HW231491   4.471   3.053   6.985 -1.4691  1.9556  0.8804
 6619SOL     OW31492   3.691   1.459   3.269  0.0068  0.0038  0.0793
 6619SOL    HW131493   3.638   1.386   3.238  0.7440 -0.6505  0.3667
 6619SOL    HW231494   3.677   1.527   3.203  1.5738 -0.5343 -0.8016
 6620SOL     OW31495   3.703   0.359   5.037 -0.3003  0.1618  0.4014
 6620SOL    HW131496   3.608   0.357   5.031 -0.2433  0.2635 -0.5597
 6620SOL    HW231497   3.717   0.449   5.006  0.1430 -0.1755 -0.3886
 6621SOL     OW31498   4.220   4.202   7.875 -0.2050  0.4194  0.7093
 6621SOL    HW131499   4.224   4.107   7.862  3.0151  0.3122  2.4963
 6621SOL    HW231500   4.221   4.197   7.970  1.4184  0.2114  0.6939
 6622SOL     OW31501   0.841   3.414   3.385 -0.6271 -0.6453  0.1245
 6622SOL    HW131502   0.803   3.376   3.464 -1.3145  0.6799  0.4383
 6622SOL    HW231503   0.926   3.374   3.401 -0.2332  0.1657  0.0959
 6623SOL     OW31504   4.300   2.424  16.885 -0.2558 -0.1569 -0.3288
 6623SOL    HW131505   4.251   2.506  16.875 -1.0792 -0.7778 -1.3864
 6623SOL    HW231506   4.291   2.414  16.980  1.4759 -0.9931 -0.2549
 6624SOL     OW31507   1.113   0.528  13.306  0.2957 -0.3693 -0.2165
 6624SOL    HW131508   1.130   0.496  13.394  1.6918  0.7300 -0.0846
 6624SOL    HW231509   1.187   0.588  13.295 -1.2718  1.4750 -0.7440
 6625SOL     OW31510   3.032   4.368  12.344  0.5987  0.6428 -0.5729
 6625SOL    HW131511   3.062   4.400  12.430  0.7303 -0.0085 -0.3740
 6625SOL    HW231512   2.939   4.379  12.363  1.2506  1.4811  2.1903
 6626SOL     OW31513   3.290   3.480   2.832 -0.4233  0.0191  0.0316
 6626SOL    HW131514   3.285   3.424   2.909  1.2149 -1.8111 -1.1863
 6626SOL    HW231515   3.249   3.426   2.764 -1.2652  0.4083  0.2261
 6627SOL     OW31516   0.091   3.516  11.837 -0.3727  0.3027  0.0902
 6627SOL    HW131517   4.736   3.501  11.862  0.1883 -1.5434  0.9695
 6627SOL    HW231518   0.094   3.612  11.829 -0.9758  0.5944  3.5051
 6628SOL     OW31519   3.655   3.040   7.481  0.2726 -0.3717  0.7114
 6628SOL    HW131520   3.657   3.097   7.558 -0.2546 -2.3364  2.1935
 6628SOL    HW231521   3.561   3.054   7.473 -0.2125 -3.4302  1.1710
 6629SOL     OW31522   3.461   3.639   6.567  0.1916 -1.0768  0.2962
 6629SOL    HW131523   3.441   3.725   6.530  0.6952 -1.9297 -2.0149
 6629SOL    HW231524   3.550   3.623   6.537  0.3993  3.2133 -1.4722
 6630SOL     OW31525   2.290   0.266   4.666  0.2712 -0.1263  0.0878
 6630SOL    HW131526   2.295   0.215   4.748  1.2224 -0.0106  0.1028
 6630SOL    HW231527   2.375   0.247   4.627 -0.5783 -0.0897 -1.7587
 6631SOL     OW31528   1.802   3.140   5.386 -0.0374 -0.0076 -0.0335
 6631SOL    HW131529   1.784   3.088   5.464  1.0225 -3.0334 -1.7892
 6631SOL    HW231530   1.718   3.148   5.340 -0.9321  0.4796  1.6905
 6632SOL     OW31531   3.804   0.349   9.545 -0.3085  0.2799 -0.1003
 6632SOL    HW131532   3.794   0.442   9.567 -0.6804  0.2296 -0.0545
 6632SOL    HW231533   3.838   0.305   9.624 -1.3677  1.1875  0.8544
 6633SOL     OW31534   1.205   1.598  11.895 -0.5634  0.2470  0.2096
 6633SOL    HW131535   1.221   1.629  11.805 -0.1296  2.8012  1.1750
 6633SOL    HW231536   1.165   1.676  11.931  0.9182  1.9240 -1.7401
 6634SOL     OW31537   0.323   1.313   6.177  0.2820  0.0357  0.0188
 6634SOL    HW131538   0.335   1.372   6.252 -1.4844 -1.3848  1.4061
 6634SOL    HW231539   0.228   1.301   6.171  0.2313  1.6553 -2.4937
 6635SOL     OW31540   2.826   0.604   6.113  0.0712 -0.3914  0.6743
 6635SOL    HW131541   2.865   0.656   6.043  0.2202 -0.1911  0.9028
 6635SOL    HW231542   2.866   0.517   6.110  1.6760  0.3502  0.4719
 6636SOL     OW31543   2.455   2.703   1.550 -0.2861 -0.4267  0.1670
 6636SOL    HW131544   2.380   2.686   1.493 -0.8370  0.0803  0.7344
 6636SOL    HW231545   2.492   2.762   1.485 -0.0775  0.5380  1.1712
 6637SOL     OW31546   1.445   4.699   3.408  0.3014 -0.0720 -0.1006
 6637SOL    HW131547   1.457   4.726   3.317 -0.3942  1.8584  0.3874
 6637SOL    HW231548   1.484   0.040   3.448  1.5188  0.4595 -2.2680
 6638SOL     OW31549   1.186   2.822   2.798 -0.1770  0.0999 -0.6959
 6638SOL    HW131550   1.248   2.790   2.733  0.8411  1.7787 -0.5304
 6638SOL    HW231551   1.115   2.837   2.736 -0.9944 -2.0383 -0.2840
 6639SOL     OW31552   4.493   1.601   5.337 -0.1826 -0.2055 -0.3230
 6639SOL    HW131553   4.411   1.650   5.328  1.8017  2.8731 -1.6102
 6639SOL    HW231554   4.517   1.656   5.412  0.6588  0.5897 -1.1723
 6640SOL     OW31555   2.946   3.895   6.934  0.2337 -0.6475 -0.4281
 6640SOL    HW131556   2.972   3.914   6.844  1.6493  1.6307  0.4634
 6640SOL    HW231557   2.980   3.976   6.972  0.3362 -0.9836  0.2075
 6641SOL     OW31558   4.692   1.661   0.203 -0.1997  0.4058 -1.1672
 6641SOL    HW131559   4.728   1.579   0.169 -1.5432 -0.7884  0.3035
 6641SOL    HW231560   0.035   1.710   0.225  0.6510 -2.2921  1.7070
 6642SOL     OW31561   1.346   1.941  15.863  0.4067 -0.5462 -0.4933
 6642SOL    HW131562   1.270   1.977  15.817  0.2745  1.1157  0.9999
 6642SOL    HW231563   1.392   1.886  15.800  0.0431 -1.3949 -0.0270
 6643SOL     OW31564   0.649   2.807  17.572  0.0672  0.1341  0.5889
 6643SOL    HW131565   0.568   2.756  17.577  1.0021 -1.4276 -0.3205
 6643SOL    HW231566   0.678   2.794  17.662 -0.8091  3.3094  1.3493
 6644SOL     OW31567   4.001   4.169  10.112  0.2023 -0.2776 -0.5380
 6644SOL    HW131568   3.969   4.190  10.024  1.8802  0.3042 -1.0169
 6644SOL    HW231569   3.940   4.098  10.132  2.4753 -1.2009  3.0398
 6645SOL     OW31570   4.474   4.507   2.549  0.3334  0.1022 -0.0295
 6645SOL    HW131571   4.520   4.590   2.558 -1.3012  0.9047  0.9084
 6645SOL    HW231572   4.427   4.519   2.467 -2.1941  0.8634  1.5179
 6646SOL     OW31573   2.284   0.782   1.818  0.3583  0.1981 -0.5075
 6646SOL    HW131574   2.355   0.721   1.800  0.3493 -0.4007  1.5223
 6646SOL    HW231575   2.316   0.813   1.902 -1.7777  1.0543  0.0018
 6647SOL     OW31576   3.167   2.825   3.406 -0.9017 -0.4951 -0.2796
 6647SOL    HW131577   3.205   2.873   3.332 -0.2775  1.5665  1.3537
 6647SOL    HW231578   3.249   2.811   3.454 -0.7867  0.8558 -0.0546
 6648SOL     OW31579   3.800   2.711   7.263  0.5551 -0.0946  0.2445
 6648SOL    HW131580   3.859   2.722   7.338  3.4843  0.2383 -2.0970
 6648SOL    HW231581   3.805   2.800   7.229 -1.1618 -0.0902 -0.0071
 6649SOL     OW31582   4.004   0.476  14.900 -0.3886 -0.2102  0.5570
 6649SOL    HW131583   3.959   0.392  14.895 -0.0945 -0.4821  2.6406
 6649SOL    HW231584   4.007   0.490  14.994  2.6723 -1.9655  0.7220
 6650SOL     OW31585   2.703   2.226   3.016 -0.4938  0.3539  0.5282
 6650SOL    HW131586   2.720   2.140   2.979 -0.7843 -0.0337  1.3092
 6650SOL    HW231587   2.682   2.189   3.102  0.3611 -0.6495  0.3016
 6651SOL     OW31588   2.616   0.081   2.053 -0.2980 -0.1159 -0.4982
 6651SOL    HW131589   2.610   4.725   2.077  0.4652  0.2928  1.2158
 6651SOL    HW231590   2.581   0.122   2.132 -0.5238  2.2150 -1.7835
 6652SOL     OW31591   0.056   1.271   7.340  0.2280  0.1198  0.3084
 6652SOL    HW131592   0.013   1.248   7.258  0.6868 -0.3835  0.2086
 6652SOL    HW231593   0.039   1.363   7.362 -0.1925 -0.1354  1.0373
 6653SOL     OW31594   1.638   3.633   1.000 -0.0409  0.5434  0.2020
 6653SOL    HW131595   1.575   3.602   0.936 -0.2655  1.9499 -0.2563
 6653SOL    HW231596   1.688   3.701   0.955  1.4730  0.7397  2.1535
 6654SOL     OW31597   0.110   3.090   6.183  0.0641  0.5728 -0.4578
 6654SOL    HW131598   0.029   3.109   6.229  0.1670  0.3362 -0.1775
 6654SOL    HW231599   0.124   2.997   6.205 -0.8349  0.7447  0.7914
 6655SOL     OW31600   2.743   2.173   5.240 -0.1722 -0.2610 -0.3976
 6655SOL    HW131601   2.648   2.173   5.245 -0.2221  0.7182 -1.4648
 6655SOL    HW231602   2.759   2.263   5.212  0.5411 -0.1509  0.3551
 6656SOL     OW31603   3.819   0.649   8.588 -0.0233 -0.1536  0.2727
 6656SOL    HW131604   3.821   0.606   8.503  1.9643  3.3949 -1.5104
 6656SOL    HW231605   3.902   0.697   8.585 -0.2619  0.2156 -0.4460
 6657SOL     OW31606   3.392   0.346   6.879 -0.7316  0.5487  0.2903
 6657SOL    HW131607   3.360   0.436   6.887  1.1522  1.1456  1.0056
 6657SOL    HW231608   3.311   0.296   6.880 -1.2492  1.3985  2.0404
 6658SOL     OW31609   0.005   2.901   8.455  0.3724  0.0435  0.2303
 6658SOL    HW131610   0.078   2.937   8.504 -0.5081  1.2511  0.6783
 6658SOL    HW231611   4.708   2.979   8.409  2.8862  0.2692 -1.1797
 6659SOL     OW31612   0.774   3.599   3.703 -0.4477 -0.1513 -0.0618
 6659SOL    HW131613   0.705   3.650   3.661  0.7490  0.1493 -1.6600
 6659SOL    HW231614   0.741   3.511   3.682  0.0658 -0.4210  0.2582
 6660SOL     OW31615   0.615   2.582   6.100  0.1846  0.3544 -0.3831
 6660SOL    HW131616   0.571   2.662   6.072 -0.1368 -0.2874 -1.7367
 6660SOL    HW231617   0.538   2.524   6.097 -1.2080  2.2985 -2.1562
 6661SOL     OW31618   2.468   3.196  12.183  0.1594  0.0822  0.2038
 6661SOL    HW131619   2.496   3.234  12.267  0.9723 -1.1623  0.4991
 6661SOL    HW231620   2.424   3.272  12.145  1.4439  0.1373 -1.1666
 6662SOL     OW31621   1.927   3.265   9.228  0.5925 -0.1771 -0.0330
 6662SOL    HW131622   1.997   3.268   9.163  1.3662 -3.9895  0.6550
 6662SOL    HW231623   1.918   3.170   9.237  1.0791 -0.2527 -0.3917
 6663SOL     OW31624   3.579   4.549   7.812  0.2768  0.2052 -0.1518
 6663SOL    HW131625   3.588   4.643   7.803 -1.2309  0.6690  2.9819
 6663SOL    HW231626   3.538   4.535   7.898 -0.4319  1.9702 -0.2027
 6664SOL     OW31627   1.764   1.627   7.917 -0.1286 -0.6180 -0.8023
 6664SOL    HW131628   1.779   1.560   7.984  1.1814 -1.3013 -1.7862
 6664SOL    HW231629   1.806   1.592   7.839 -0.1271 -1.7168 -0.3038
 6665SOL     OW31630   4.285   1.873  16.545 -0.2818  0.0378  0.3709
 6665SOL    HW131631   4.281   1.944  16.609  1.4063  0.6865 -0.2445
 6665SOL    HW231632   4.318   1.926  16.472  0.3466  0.0576  0.6664
 6666SOL     OW31633   4.166   3.408   1.385  0.3642  0.3654  0.3071
 6666SOL    HW131634   4.261   3.394   1.379  0.2168  0.1344 -1.3359
 6666SOL    HW231635   4.143   3.356   1.308  0.5892  0.4815  0.1626
 6667SOL     OW31636   3.918   0.362   3.115 -0.1791  0.7033  0.3395
 6667SOL    HW131637   4.003   0.342   3.154 -0.5952 -1.8783 -0.0468
 6667SOL    HW231638   3.934   0.443   3.066  1.5277 -1.6592 -2.9777
 6668SOL     OW31639   1.690   2.484   8.139  0.4291 -0.2643  0.5512
 6668SOL    HW131640   1.642   2.548   8.087  1.3000  0.4883  0.6802
 6668SOL    HW231641   1.780   2.515   8.133  0.4948 -0.5639 -0.0850
 6669SOL     OW31642   2.417   4.422   6.153  0.3677 -0.6882  0.5233
 6669SOL    HW131643   2.369   4.490   6.105  2.9475  0.4232 -0.4610
 6669SOL    HW231644   2.418   4.350   6.090  0.0490 -0.2641  0.0309
 6670SOL     OW31645   1.907   2.142   6.811 -0.1234 -0.6603 -0.0687
 6670SOL    HW131646   1.827   2.151   6.759  1.3829  2.3271 -1.8563
 6670SOL    HW231647   1.909   2.047   6.820 -2.0347 -0.6119  1.0263
 6671SOL     OW31648   0.277   0.279   1.651  0.2082 -0.5614  0.2066
 6671SOL    HW131649   0.219   0.313   1.719 -1.6005  0.5224 -1.8764
 6671SOL    HW231650   0.219   0.305   1.580  0.7776 -0.5325 -0.2451
 6672SOL     OW31651   4.549   1.977   4.823  0.2999  0.2493  0.0325
 6672SOL    HW131652   4.474   1.926   4.793  1.9640 -2.6711  0.9010
 6672SOL    HW231653   4.580   2.012   4.740 -1.7007 -0.0759 -0.8509
 6673SOL     OW31654   4.447   3.175   2.280 -0.4659  0.1320 -0.0513
 6673SOL    HW131655   4.540   3.155   2.289 -0.3203  0.3501 -1.0646
 6673SOL    HW231656   4.430   3.161   2.187  2.0497 -0.3820 -0.4405
 6674SOL     OW31657   3.493   2.661   7.590  0.3195  0.4590  0.0722
 6674SOL    HW131658   3.555   2.718   7.636  0.5401 -0.1411  0.5167
 6674SOL    HW231659   3.438   2.612   7.652 -0.0063  0.4514 -0.2197
 6675SOL     OW31660   2.412   3.760   8.007 -0.1201  0.4858  0.0160
 6675SOL    HW131661   2.317   3.759   7.996  0.0020 -1.3168 -0.9384
 6675SOL    HW231662   2.441   3.685   7.954  2.1628  0.3163  1.4833
 6676SOL     OW31663   1.809   0.179  16.019 -0.1532 -0.3048  0.0915
 6676SOL    HW131664   1.882   0.206  16.074  0.1200  2.8103 -1.8263
 6676SOL    HW231665   1.736   0.177  16.082 -1.0703  1.4101 -0.9051
 6677SOL     OW31666   0.671   3.415   2.023  0.2177  0.3498  0.7996
 6677SOL    HW131667   0.743   3.478   2.027 -0.6467  1.1360  4.3229
 6677SOL    HW231668   0.677   3.362   2.103 -0.8948 -1.4597 -0.3212
 6678SOL     OW31669   0.755   1.056  13.774  0.0918  0.0100 -0.0352
 6678SOL    HW131670   0.696   1.130  13.765  0.2097  0.0065 -0.8036
 6678SOL    HW231671   0.734   1.019  13.688  0.7542 -1.7700  0.5535
 6679SOL     OW31672   4.184   2.217  15.671 -0.2856 -0.1152 -0.2010
 6679SOL    HW131673   4.139   2.208  15.756 -0.0920 -2.4489 -0.3511
 6679SOL    HW231674   4.246   2.146  15.685 -0.9995 -0.8668 -0.8361
 6680SOL     OW31675   3.468   0.010   2.571 -0.5871 -0.7608 -0.8471
 6680SOL    HW131676   3.483   0.015   2.665  1.7745 -1.6655 -1.1749
 6680SOL    HW231677   3.559   0.028   2.546 -0.5207  1.1688  0.8171
 6681SOL     OW31678   0.637   1.831   9.597  0.9292 -0.5441  0.0049
 6681SOL    HW131679   0.629   1.923   9.622  0.0432 -0.4371 -0.6691
 6681SOL    HW231680   0.568   1.798   9.654  1.6128  0.3078  1.3486
 6682SOL     OW31681   2.862   4.460   5.052  0.1779  0.6762  0.1024
 6682SOL    HW131682   2.812   4.411   5.117  0.9766 -0.8733 -0.4523
 6682SOL    HW231683   2.935   4.496   5.102 -0.6766  0.8808  1.2027
 6683SOL     OW31684   0.225   3.611   7.741 -0.8365  0.2334  0.1578
 6683SOL    HW131685   0.146   3.664   7.728  0.3869  1.9100 -0.3648
 6683SOL    HW231686   0.197   3.575   7.825  1.3941 -0.5604  0.5729
 6684SOL     OW31687   2.544   4.493   6.971 -0.2047  0.2330  0.1090
 6684SOL    HW131688   2.458   4.458   6.945 -0.6668 -0.0045  1.9967
 6684SOL    HW231689   2.534   4.585   6.948 -0.4727  0.8361  2.6697
 6685SOL     OW31690   2.230   2.291   2.677 -0.3287 -0.0495 -0.4008
 6685SOL    HW131691   2.306   2.249   2.715 -0.2299 -1.5330 -2.2171
 6685SOL    HW231692   2.222   2.363   2.739  1.9782  1.6816 -2.1333
 6686SOL     OW31693   3.790   2.970   7.226 -0.4523 -0.0592  0.5307
 6686SOL    HW131694   3.760   3.017   7.304 -0.8527  1.4173 -0.5098
 6686SOL    HW231695   3.814   3.046   7.172  0.1314 -0.2823  0.4757
 6687SOL     OW31696   4.205   4.672  16.099 -0.1479  0.1889 -0.4391
 6687SOL    HW131697   4.205   4.611  16.172  1.6047  1.9693  1.0404
 6687SOL    HW231698   4.263   4.620  16.042 -0.1163  0.8191 -0.9839
 6688SOL     OW31699   2.559   0.857   8.855  0.0536  0.1025 -0.2285
 6688SOL    HW131700   2.579   0.875   8.947 -1.9399 -0.8330  0.3670
 6688SOL    HW231701   2.605   0.775   8.838 -2.2436 -1.3684  0.7211
 6689SOL     OW31702   0.684   2.946   4.693  0.3714  0.4915 -0.6496
 6689SOL    HW131703   0.588   2.943   4.699  0.4809  1.0489  1.3194
 6689SOL    HW231704   0.711   2.914   4.778 -2.5320  0.4225  0.2472
 6690SOL     OW31705   4.721   4.725   9.680  0.6097 -0.0283 -0.1994
 6690SOL    HW131706   4.736   4.689   9.767 -1.9470 -0.8722 -0.1043
 6690SOL    HW231707   0.004   4.651   9.621  1.0279 -1.8509  2.2509
 6691SOL     OW31708   4.090   2.849   7.223 -0.2913  0.8070  0.3556
 6691SOL    HW131709   4.139   2.928   7.199  1.4789 -0.3389  0.1672
 6691SOL    HW231710   4.004   2.870   7.188  0.4299  0.2585 -1.7694
 6692SOL     OW31711   0.538   0.299   9.653 -0.5334 -0.2361  0.1688
 6692SOL    HW131712   0.502   0.376   9.697  1.6871  0.2557  1.1459
 6692SOL    HW231713   0.463   0.272   9.600  0.1475 -2.2371  0.2186
 6693SOL     OW31714   4.605   1.342   4.883 -0.1079  0.7287  0.3256
 6693SOL    HW131715   4.599   1.417   4.823 -0.9314  0.4900  0.1093
 6693SOL    HW231716   4.574   1.381   4.964  1.1848 -1.7486  2.0005
 6694SOL     OW31717   0.441   2.787  15.710 -0.2495 -0.3851 -0.7721
 6694SOL    HW131718   0.407   2.876  15.701  1.8763  0.6518  1.4300
 6694SOL    HW231719   0.500   2.792  15.634  0.9912 -0.4506  0.1853
 6695SOL     OW31720   0.888   2.497   2.195 -0.0363  0.3578 -0.5212
 6695SOL    HW131721   0.842   2.416   2.173 -0.2509  0.2489  0.3437
 6695SOL    HW231722   0.813   2.544   2.230 -0.6186  0.1724 -1.5220
 6696SOL     OW31723   3.649   2.186   6.770  0.0596 -0.3489  0.0882
 6696SOL    HW131724   3.614   2.232   6.846  1.0379  0.2337  0.1745
 6696SOL    HW231725   3.741   2.168   6.786 -0.4224 -2.1565  0.8743
 6697SOL     OW31726   1.203   4.416   0.387 -0.5151  0.4281 -0.2841
 6697SOL    HW131727   1.151   4.337   0.374  1.5066 -0.7050 -1.4256
 6697SOL    HW231728   1.276   4.377   0.436 -0.0535 -0.7627 -1.9180
 6698SOL     OW31729   1.597   0.969   3.129  0.5504  0.2686 -0.0365
 6698SOL    HW131730   1.683   0.985   3.167  1.4861 -1.4389 -1.4173
 6698SOL    HW231731   1.550   1.041   3.170 -0.0862 -1.7240  2.7356
 6699SOL     OW31732   3.204   0.041   4.028  0.9915  0.1424  0.1653
 6699SOL    HW131733   3.183   4.699   4.080 -0.0169  1.0614  1.1347
 6699SOL    HW231734   3.224   0.093   4.106 -0.7412 -0.5414  1.0790
 6700SOL     OW31735   2.922   0.753   5.382 -0.4734  0.0988 -0.2040
 6700SOL    HW131736   2.948   0.836   5.345  0.2710  0.6062  1.4501
 6700SOL    HW231737   3.005   0.713   5.406 -0.2292  0.5075 -0.3826
 6701SOL     OW31738   0.513   1.808   1.675  0.2916  0.3460  0.6004
 6701SOL    HW131739   0.598   1.852   1.681  0.2963  0.5666 -0.8652
 6701SOL    HW231740   0.495   1.803   1.769  0.2310  1.0564  0.6248
 6702SOL     OW31741   2.691   1.780   5.448 -0.0123 -0.0997 -0.4547
 6702SOL    HW131742   2.724   1.766   5.537  0.4436 -2.3528 -0.9647
 6702SOL    HW231743   2.714   1.698   5.404 -0.5220 -1.4701  1.7799
 6703SOL     OW31744   3.378   1.290   7.609  0.4960 -0.2627 -0.1132
 6703SOL    HW131745   3.422   1.205   7.617  2.7070  0.8320 -0.5419
 6703SOL    HW231746   3.315   1.289   7.681  0.4865 -0.9654 -0.1252
 6704SOL     OW31747   3.737   3.537   8.664  1.0122 -0.3956 -0.1445
 6704SOL    HW131748   3.670   3.522   8.731 -1.3537  0.9742 -2.2173
 6704SOL    HW231749   3.691   3.607   8.619 -2.0120 -0.5015  2.7684
 6705SOL     OW31750   2.288   2.175   4.992  0.0409  0.0427 -0.2242
 6705SOL    HW131751   2.316   2.105   5.050  0.3410  0.6400  0.3493
 6705SOL    HW231752   2.196   2.151   4.984  0.4899 -1.6503 -0.3975
 6706SOL     OW31753   2.731   2.188   2.670 -0.4723  0.4319 -0.3465
 6706SOL    HW131754   2.708   2.104   2.710  1.2746 -0.7387 -1.7917
 6706SOL    HW231755   2.758   2.157   2.584 -0.2242 -0.7394  0.1530
 6707SOL     OW31756   1.987   1.073   1.329 -0.2940 -0.1619  0.1028
 6707SOL    HW131757   1.988   1.039   1.419  0.8166 -0.5268 -0.0379
 6707SOL    HW231758   2.079   1.100   1.327 -0.4595  0.3657 -0.1730
 6708SOL     OW31759   2.239   2.454   5.494 -0.1232  0.0165  0.0408
 6708SOL    HW131760   2.265   2.361   5.493  0.7075  0.2437  0.4932
 6708SOL    HW231761   2.149   2.457   5.525  0.5583  2.0781  1.7585
 6709SOL     OW31762   2.456   0.055   5.051 -0.1637 -0.3399  0.0561
 6709SOL    HW131763   2.534   0.012   5.087  0.8910  0.2481 -1.5035
 6709SOL    HW231764   2.410   0.078   5.132  0.2312 -0.1702  0.2351
 6710SOL     OW31765   3.399   4.045   8.470 -0.3576 -0.7419 -0.2946
 6710SOL    HW131766   3.314   4.003   8.458 -0.6032 -0.0507 -0.9359
 6710SOL    HW231767   3.403   4.117   8.407 -0.3770  0.6606  1.2916
 6711SOL     OW31768   4.126   1.471  12.652  0.2939 -0.3717  0.1687
 6711SOL    HW131769   4.187   1.399  12.668 -0.5476 -1.3716 -1.0435
 6711SOL    HW231770   4.043   1.430  12.677  0.1486  0.3462  0.8596
 6712SOL     OW31771   1.058   1.364   3.316  0.2292 -0.1227 -0.1097
 6712SOL    HW131772   1.051   1.276   3.354  0.8855 -0.2332 -0.2501
 6712SOL    HW231773   1.012   1.354   3.233 -0.8072 -0.1942  0.4692
 6713SOL     OW31774   2.412   3.313  14.879  0.1294  0.0582  0.2539
 6713SOL    HW131775   2.331   3.347  14.840 -0.2955 -0.8858  0.3167
 6713SOL    HW231776   2.475   3.345  14.814  0.2628  0.3944  0.5473
 6714SOL     OW31777   3.958   3.392   0.074 -0.0027 -0.2419 -0.0609
 6714SOL    HW131778   4.021   3.422   0.140  2.2108  1.6727 -2.9874
 6714SOL    HW231779   3.978   3.460   0.009  1.0497  0.1101  0.6174
 6715SOL     OW31780   4.243   0.460   6.222 -0.4417  0.0357  0.7452
 6715SOL    HW131781   4.164   0.498   6.260 -0.6296  0.5355 -0.1449
 6715SOL    HW231782   4.248   0.504   6.138  1.7279  0.0755  0.9048
 6716SOL     OW31783   2.906   3.987   6.242 -0.6669 -0.1300  0.0419
 6716SOL    HW131784   2.849   3.959   6.170  0.5537 -1.0491 -0.5760
 6716SOL    HW231785   2.920   3.907   6.292 -0.0006 -1.2106 -1.8523
 6717SOL     OW31786   3.041   2.293   5.699  0.0141 -0.7062  0.0611
 6717SOL    HW131787   2.971   2.273   5.636 -0.8733  1.0600  0.4839
 6717SOL    HW231788   2.996   2.341   5.769  0.4626 -0.9058  0.4883
 6718SOL     OW31789   0.553   1.486   2.397  0.2823 -0.1546  0.3490
 6718SOL    HW131790   0.623   1.546   2.422  0.3087 -0.3870  0.8414
 6718SOL    HW231791   0.560   1.415   2.461 -2.0869 -1.2013 -0.5386
 6719SOL     OW31792   4.206   2.612   6.309  0.6525  0.4717 -0.1035
 6719SOL    HW131793   4.217   2.631   6.216  3.3407 -0.7356 -0.0171
 6719SOL    HW231794   4.180   2.700   6.335  0.4666  0.0997  0.9793
 6720SOL     OW31795   1.183   3.399   2.331 -0.6378 -0.1702  0.4001
 6720SOL    HW131796   1.235   3.464   2.284 -1.7185  0.7788  0.5159
 6720SOL    HW231797   1.220   3.319   2.292  0.0787 -0.6890  2.1442
 6721SOL     OW31798   1.059   0.935   4.516 -0.0051 -0.2887  0.0428
 6721SOL    HW131799   1.038   0.936   4.422 -0.9426 -0.2211  0.2512
 6721SOL    HW231800   1.154   0.946   4.520  0.0066 -0.0499 -0.8206
 6722SOL     OW31801   2.381   1.645   8.306  0.0616  0.5322 -0.0170
 6722SOL    HW131802   2.323   1.577   8.271 -0.6517  1.2275 -0.1879
 6722SOL    HW231803   2.459   1.605   8.267 -0.5435 -3.2680  2.7566
 6723SOL     OW31804   0.543   3.933   7.378 -0.2879 -0.4715 -0.9678
 6723SOL    HW131805   0.484   3.975   7.315  0.2778 -0.2961 -1.3759
 6723SOL    HW231806   0.592   3.872   7.323 -0.4709 -2.0823  0.6462
 6724SOL     OW31807   0.303   0.182   9.556 -0.3688 -0.0524  0.0926
 6724SOL    HW131808   0.210   0.186   9.533 -0.5841 -0.9867  0.7723
 6724SOL    HW231809   0.300   0.127   9.635  0.1036  0.9538  0.8118
 6725SOL     OW31810   0.216   1.168   5.383  0.3093 -0.0044  0.7512
 6725SOL    HW131811   0.274   1.093   5.397 -0.0959 -0.3412  0.6343
 6725SOL    HW231812   0.223   1.199   5.473 -0.3793  1.5298  0.2699
 6726SOL     OW31813   1.188   1.674   5.664  0.4840  0.0808 -0.0108
 6726SOL    HW131814   1.105   1.695   5.707  1.6639  1.0646  1.7404
 6726SOL    HW231815   1.193   1.580   5.680 -1.0002  0.3182  1.8067
 6727SOL     OW31816   4.579   3.412  15.116 -0.0025  0.6965 -0.1837
 6727SOL    HW131817   4.603   3.504  15.121  0.4631  0.5139  0.8796
 6727SOL    HW231818   4.483   3.412  15.115  0.0006 -1.2661 -2.5259
 6728SOL     OW31819   1.037   4.013   8.043  0.0363 -0.0174 -0.0243
 6728SOL    HW131820   1.042   3.919   8.021  0.0743 -0.2082  0.7855
 6728SOL    HW231821   1.007   4.058   7.965  0.7531 -0.8991 -0.8169
 6729SOL     OW31822   1.617   1.107   3.746 -0.2544  0.2333 -0.1563
 6729SOL    HW131823   1.655   1.021   3.730  0.4562  0.1735  1.9574
 6729SOL    HW231824   1.544   1.081   3.801 -0.0193 -0.7319 -0.2957
 6730SOL     OW31825   4.350   2.251   6.382 -0.2085  0.3925 -0.2278
 6730SOL    HW131826   4.280   2.291   6.330 -1.2766  0.3106  1.1393
 6730SOL    HW231827   4.359   2.166   6.338  2.2188 -0.1398  1.2962
 6731SOL     OW31828   2.923   4.407   6.221 -0.0666  0.3190 -0.2623
 6731SOL    HW131829   2.957   4.427   6.134  1.6615  2.2074  0.8401
 6731SOL    HW231830   2.830   4.399   6.202 -0.3968  0.5752  1.2871
 6732SOL     OW31831   1.475   1.899   6.844 -0.3703 -0.0357 -0.4124
 6732SOL    HW131832   1.554   1.944   6.873 -0.7883 -0.0851  0.7883
 6732SOL    HW231833   1.500   1.810   6.869 -0.7156  0.2756  1.0021
 6733SOL     OW31834   2.329   3.174   9.311  0.3832 -0.0803 -0.3028
 6733SOL    HW131835   2.417   3.140   9.327  0.8962  1.3111 -0.1591
 6733SOL    HW231836   2.333   3.269   9.319  2.0626 -0.3340  2.1333
 6734SOL     OW31837   2.145   1.988   5.441  0.0956  0.5495 -0.5511
 6734SOL    HW131838   2.087   1.925   5.398 -0.3671  0.4247  0.2450
 6734SOL    HW231839   2.169   1.929   5.512  2.6120  0.5784 -1.3699
 6735SOL     OW31840   1.939   3.336   5.005  0.1616 -0.1742  0.5455
 6735SOL    HW131841   1.935   3.377   4.918  2.8220  0.5354  0.7701
 6735SOL    HW231842   1.963   3.248   4.976  3.4094  0.5290  1.1400
 6736SOL     OW31843   2.450   1.116   1.835  0.2983 -0.3027  0.1315
 6736SOL    HW131844   2.357   1.115   1.813  0.3422  3.2842 -0.1141
 6736SOL    HW231845   2.463   1.200   1.879  0.4887  0.4302 -1.3376
 6737SOL     OW31846   2.406   2.122   3.555 -0.2560 -0.6141  0.8073
 6737SOL    HW131847   2.388   2.118   3.649 -0.2240 -2.0134  0.7493
 6737SOL    HW231848   2.451   2.207   3.551 -1.5186  0.0765  1.1722
 6738SOL     OW31849   2.811   1.600   5.840 -0.3841 -0.0099  0.2578
 6738SOL    HW131850   2.824   1.605   5.934  0.4547  0.8891  0.0997
 6738SOL    HW231851   2.781   1.688   5.817 -0.1350 -0.3153 -1.2416
 6739SOL     OW31852   0.601   0.540   8.391 -0.1543  0.4900  0.3274
 6739SOL    HW131853   0.624   0.507   8.477 -1.9544 -1.5839  0.0168
 6739SOL    HW231854   0.509   0.512   8.392 -0.1018  0.1410 -2.4870
 6740SOL     OW31855   1.146   0.287   6.769 -0.2701  0.1132  0.4990
 6740SOL    HW131856   1.204   0.216   6.739 -0.9001  0.1051 -0.7098
 6740SOL    HW231857   1.073   0.268   6.710  0.3389 -0.6043 -0.0379
 6741SOL     OW31858   4.548   2.647   3.658 -0.2234 -0.2155 -0.3297
 6741SOL    HW131859   4.574   2.685   3.573 -0.3838 -1.1761 -0.8001
 6741SOL    HW231860   4.453   2.637   3.656 -0.6575  3.5288  1.0475
 6742SOL     OW31861   2.979   2.594   9.327  0.0658 -0.1768 -0.1653
 6742SOL    HW131862   2.897   2.550   9.303  1.2824 -0.4595 -3.6948
 6742SOL    HW231863   3.037   2.522   9.351  0.0256  0.2701  1.2807
 6743SOL     OW31864   3.612   1.432  11.841  0.4136  0.2880 -0.6198
 6743SOL    HW131865   3.635   1.486  11.917  3.5887 -0.2558 -1.1855
 6743SOL    HW231866   3.681   1.450  11.777  2.0753 -1.1917  0.7469
 6744SOL     OW31867   1.198   2.115   8.296 -0.4229  0.4641  0.7669
 6744SOL    HW131868   1.259   2.132   8.368 -0.3478  2.1293  0.3178
 6744SOL    HW231869   1.196   2.020   8.306 -2.1205  0.3448 -0.7016
 6745SOL     OW31870   3.558   4.204   8.061 -0.1274  0.0700  0.1680
 6745SOL    HW131871   3.641   4.246   8.083 -0.1149  0.0611  0.1371
 6745SOL    HW231872   3.542   4.147   8.136  1.3648  1.1750  1.3328
 6746SOL     OW31873   2.908   3.837   3.000  0.5615 -0.3384  0.0612
 6746SOL    HW131874   2.882   3.918   3.044  0.1925  1.2126 -3.0580
 6746SOL    HW231875   2.895   3.768   3.065  0.5868  0.5277  0.9930
 6747SOL     OW31876   2.393   3.814   7.649 -0.2448 -0.5591 -0.2418
 6747SOL    HW131877   2.319   3.823   7.710  0.4597  0.8662  0.4000
 6747SOL    HW231878   2.441   3.892   7.674 -1.1934 -0.0280 -0.0785
 6748SOL     OW31879   1.500   0.840  10.558  0.0793 -0.0010 -0.6803
 6748SOL    HW131880   1.466   0.766  10.609  0.6697  0.5637  0.5318
 6748SOL    HW231881   1.562   0.869  10.624  1.2168 -2.5847 -0.6005
 6749SOL     OW31882   1.497   3.476   5.504  0.5617 -0.5102  0.8040
 6749SOL    HW131883   1.463   3.438   5.423  0.9573 -1.7288  1.2210
 6749SOL    HW231884   1.592   3.462   5.499  0.4382 -0.8990 -0.5966
 6750SOL     OW31885   4.201   1.073   9.841 -0.7697 -0.0462 -0.2902
 6750SOL    HW131886   4.235   0.986   9.860 -0.0848  0.4958  0.9080
 6750SOL    HW231887   4.113   1.065   9.879 -0.2428 -2.9577  0.3378
 6751SOL     OW31888   4.721   4.104   8.514  0.4197 -0.2367 -0.4238
 6751SOL    HW131889   0.074   4.138   8.511  0.7031 -0.8861  0.4928
 6751SOL    HW231890   0.004   4.025   8.564 -1.1597  0.0704  0.6634
 6752SOL     OW31891   4.550   2.783   5.541 -0.5112 -0.2400 -0.4601
 6752SOL    HW131892   4.570   2.758   5.451 -0.9017  1.1295 -0.9287
 6752SOL    HW231893   4.638   2.796   5.576 -0.1350 -0.0596 -1.4682
 6753SOL     OW31894   3.863   1.552   3.782 -0.6289  0.2975  0.6676
 6753SOL    HW131895   3.769   1.540   3.798 -0.9695 -0.3311 -1.8857
 6753SOL    HW231896   3.877   1.467   3.741 -0.9628  1.0813 -1.1025
 6754SOL     OW31897   3.128   1.284   2.508 -0.5053  0.3495  0.1702
 6754SOL    HW131898   3.096   1.233   2.434 -0.9570 -1.8795  1.9107
 6754SOL    HW231899   3.223   1.287   2.510 -0.4493 -1.4642 -0.1785
 6755SOL     OW31900   0.669   3.183  10.678 -0.7791 -0.4976  0.3807
 6755SOL    HW131901   0.714   3.114  10.726  1.2396 -0.5901 -1.6330
 6755SOL    HW231902   0.661   3.252  10.744 -2.4955 -1.8081  1.5143
 6756SOL     OW31903   2.923   3.781  16.959  0.1240  0.2985  0.1427
 6756SOL    HW131904   2.895   3.872  16.973  0.4809  0.5037 -0.4885
 6756SOL    HW231905   2.889   3.755  16.874 -0.7388  0.5776  0.3956
 6757SOL     OW31906   4.435   1.547  17.311 -0.1880  0.1180  0.0028
 6757SOL    HW131907   4.367   1.485  17.338  1.0961 -1.0201  0.6275
 6757SOL    HW231908   4.492   1.486  17.265 -0.9554  0.7757 -1.8226
 6758SOL     OW31909   3.833   3.301   1.580 -0.0941  0.6196 -0.1457
 6758SOL    HW131910   3.760   3.302   1.642 -0.2256  0.5277 -0.2978
 6758SOL    HW231911   3.873   3.216   1.595  1.9501  1.8471  1.3414
 6759SOL     OW31912   1.751   2.242   7.694 -0.1053 -0.0289  0.5731
 6759SOL    HW131913   1.702   2.160   7.699  2.1646 -1.4361 -0.0275
 6759SOL    HW231914   1.794   2.229   7.610 -1.3281  0.6091 -0.1516
 6760SOL     OW31915   0.746   1.182   2.400 -0.7735 -0.1838 -0.1220
 6760SOL    HW131916   0.663   1.195   2.446 -0.3968 -0.9393  0.7693
 6760SOL    HW231917   0.796   1.251   2.443 -2.1877  0.9146 -0.2151
 6761SOL     OW31918   3.971   0.915   3.298 -0.3357 -0.0279 -0.2975
 6761SOL    HW131919   3.903   0.908   3.364  1.7289  0.2290  1.8690
 6761SOL    HW231920   4.000   0.824   3.296  1.3747  0.4907  0.5231
 6762SOL     OW31921   1.793   4.022   6.580 -0.6572  0.4646 -0.2869
 6762SOL    HW131922   1.820   3.960   6.513  2.0154  1.8915 -0.5422
 6762SOL    HW231923   1.873   4.075   6.586 -0.3047  0.0696 -1.4800
 6763SOL     OW31924   4.297   4.696   4.764 -0.4731  0.2801  0.0294
 6763SOL    HW131925   4.306   4.604   4.787  0.8513 -0.1184 -2.0263
 6763SOL    HW231926   4.390   4.714   4.749 -0.3145 -0.2521  0.3830
 6764SOL     OW31927   1.516   2.357   7.294 -0.7172  0.3600 -0.3860
 6764SOL    HW131928   1.569   2.405   7.357 -0.8726 -0.6725  0.5319
 6764SOL    HW231929   1.505   2.415   7.219  1.0942  0.2957 -0.7015
 6765SOL     OW31930   1.654   0.329   9.109  0.0530 -0.3301  0.8342
 6765SOL    HW131931   1.583   0.266   9.103  0.3318 -0.4003 -1.6258
 6765SOL    HW231932   1.628   0.379   9.187 -0.1659  2.3438 -0.9230
 6766SOL     OW31933   0.078   2.317   8.681  0.2307  0.3193  0.6301
 6766SOL    HW131934   0.166   2.304   8.648 -0.2826 -1.6771  0.0368
 6766SOL    HW231935   0.032   2.318   8.597  1.8765 -1.1940 -0.2900
 6767SOL     OW31936   4.419   2.601  15.212 -0.4116 -0.1948  0.0118
 6767SOL    HW131937   4.461   2.519  15.236  0.2748  0.0915 -0.1917
 6767SOL    HW231938   4.403   2.648  15.294  1.4322  2.0451 -0.8872
 6768SOL     OW31939   2.081   0.906   6.483  0.3712 -0.2165  0.6258
 6768SOL    HW131940   2.005   0.901   6.426 -0.4244  0.1197  1.6689
 6768SOL    HW231941   2.135   0.840   6.439  0.3250 -1.6626  2.7881
 6769SOL     OW31942   2.827   3.106   8.322 -0.2414 -0.3558 -0.3069
 6769SOL    HW131943   2.908   3.115   8.271  0.9958 -1.4096  1.4439
 6769SOL    HW231944   2.838   3.039   8.390 -0.2957  1.0419  1.1059
 6770SOL     OW31945   4.277   3.046   6.907 -0.2665  0.2634 -0.6325
 6770SOL    HW131946   4.228   3.080   6.982  2.0152  1.2597  0.3992
 6770SOL    HW231947   4.224   2.976   6.869  0.4476  0.1784 -1.4694
 6771SOL     OW31948   3.906   0.519   8.332 -0.0102  0.0718  1.0540
 6771SOL    HW131949   3.899   0.536   8.238  3.4542 -0.8624  0.6059
 6771SOL    HW231950   3.995   0.484   8.341 -0.4989 -1.1303  1.1752
 6772SOL     OW31951   0.791   1.134   2.921  0.2839 -0.3248  0.4296
 6772SOL    HW131952   0.840   1.071   2.972  1.4198 -0.9491 -1.4398
 6772SOL    HW231953   0.860   1.142   2.854  0.2033  0.4831  0.4362
 6773SOL     OW31954   0.618   3.003   3.399  0.1764  0.0005 -0.6475
 6773SOL    HW131955   0.540   3.056   3.383  1.2784  1.2597 -1.9695
 6773SOL    HW231956   0.587   2.914   3.414  2.5256 -0.5495  1.0393
 6774SOL     OW31957   1.782   0.402  11.845 -0.0828 -0.3668 -0.4210
 6774SOL    HW131958   1.819   0.405  11.933 -0.7279  1.8470 -0.2142
 6774SOL    HW231959   1.825   0.479  11.807  0.0274  0.7186  1.8902
 6775SOL     OW31960   2.774   4.563   7.933 -0.0430 -0.3527 -0.1290
 6775SOL    HW131961   2.778   4.624   7.859 -1.6015 -2.3538 -1.8690
 6775SOL    HW231962   2.725   4.487   7.902 -0.0004 -0.3618 -0.1754
 6776SOL     OW31963   4.160   4.016  17.392  0.7292  0.0475 -0.3168
 6776SOL    HW131964   4.208   3.986  17.469  1.4244 -1.2400 -1.2434
 6776SOL    HW231965   4.227   4.072  17.354  1.4897  1.5232  3.1841
 6777SOL     OW31966   2.122   0.011  12.404  0.3356  0.3169  0.3721
 6777SOL    HW131967   2.163   4.726  12.488 -2.9113 -1.1580  1.5724
 6777SOL    HW231968   2.196   0.047  12.355 -1.3245 -0.0312 -2.3720
 6778SOL     OW31969   0.814   1.252   7.142  0.2619 -0.4180  0.0452
 6778SOL    HW131970   0.734   1.200   7.139 -1.5985  2.5008 -1.1593
 6778SOL    HW231971   0.831   1.271   7.234  1.6339  2.1549 -0.7414
 6779SOL     OW31972   2.721   1.057   3.442 -0.4999 -0.1531 -0.2568
 6779SOL    HW131973   2.634   1.050   3.403 -0.7136  0.5539  0.0821
 6779SOL    HW231974   2.722   0.989   3.509  3.2898 -0.2694 -0.4384
 6780SOL     OW31975   1.099   2.426  12.212 -0.2678 -0.3295  0.0650
 6780SOL    HW131976   1.085   2.521  12.205 -2.0097 -0.5143  1.0541
 6780SOL    HW231977   1.044   2.391  12.141 -0.3445 -0.5878  0.2555
 6781SOL     OW31978   2.241   3.020  12.245 -0.0057 -0.2170 -0.3454
 6781SOL    HW131979   2.185   3.098  12.238  0.4572  0.0523 -1.0374
 6781SOL    HW231980   2.328   3.052  12.271  0.8812 -0.0608 -3.5625
 6782SOL     OW31981   1.288   1.822   2.416  0.2594 -0.5736 -0.2637
 6782SOL    HW131982   1.207   1.826   2.365  0.7882 -0.2895 -1.0793
 6782SOL    HW231983   1.249   1.794   2.499  2.2306  4.1821  2.2931
 6783SOL     OW31984   3.253   0.133   1.857 -0.0912 -0.6781 -0.2535
 6783SOL    HW131985   3.346   0.127   1.877 -0.5515 -2.5315  1.3083
 6783SOL    HW231986   3.240   0.072   1.784 -1.7119 -0.9896  0.3081
 6784SOL     OW31987   4.446   2.280   3.139  0.3218 -0.4474 -0.0144
 6784SOL    HW131988   4.393   2.291   3.218  0.1377  2.3409 -0.5243
 6784SOL    HW231989   4.464   2.366   3.101 -1.2679  0.0491  0.3675
 6785SOL     OW31990   4.189   0.629   5.485 -0.0641  0.2581  0.0370
 6785SOL    HW131991   4.162   0.595   5.570 -0.2850  0.4893  0.0612
 6785SOL    HW231992   4.192   0.542   5.446 -1.8775  0.3596 -0.2973
 6786SOL     OW31993   0.763   4.513   9.768 -0.4789 -0.7881  0.4050
 6786SOL    HW131994   0.851   4.475   9.761 -0.4607 -0.6069 -0.3439
 6786SOL    HW231995   0.730   4.448   9.829 -2.2242 -1.8643 -1.6608
 6787SOL     OW31996   0.176   0.878   8.031 -0.1418  0.0161 -0.1270
 6787SOL    HW131997   0.254   0.879   7.976 -0.6285 -1.4924 -0.8182
 6787SOL    HW231998   0.139   0.818   7.967  3.6575 -0.8789 -1.4863
 6788SOL     OW31999   0.080   2.595  10.817 -0.6394 -0.2499  0.5001
 6788SOL    HW132000   0.043   2.605  10.904  0.9177 -0.0356  1.1325
 6788SOL    HW232001   0.021   2.647  10.763  0.9437 -0.4089 -1.4286
 6789SOL     OW32002   0.010   1.007   4.610 -0.4524 -0.1177  0.3551
 6789SOL    HW132003   0.073   1.076   4.587 -1.5451  0.3286 -1.3564
 6789SOL    HW232004   4.696   1.012   4.528  0.9812 -1.9158 -0.6447
 6790SOL     OW32005   3.387   1.339  16.874  0.0645  0.0029  0.3425
 6790SOL    HW132006   3.318   1.294  16.826  0.5569  0.9913 -1.2957
 6790SOL    HW232007   3.355   1.429  16.871 -0.5640 -0.2263  0.3079
 6791SOL     OW32008   2.994   3.256   0.899 -0.2253  0.2950  0.3288
 6791SOL    HW132009   3.041   3.339   0.896  1.6569 -0.7978 -0.3764
 6791SOL    HW232010   3.069   3.203   0.926  0.5665  0.1350 -2.2143
 6792SOL     OW32011   0.913   1.015   6.145  0.7979 -1.1234 -0.3598
 6792SOL    HW132012   0.901   0.957   6.070  0.0904 -2.0937  0.5069
 6792SOL    HW232013   1.000   0.989   6.175  1.9637  2.6321 -0.5690
 6793SOL     OW32014   4.401   1.611   6.379  0.1052 -0.0538 -0.2440
 6793SOL    HW132015   4.352   1.583   6.456  0.7517  0.3225  0.3036
 6793SOL    HW232016   4.339   1.603   6.306 -0.0371 -1.1600  0.0004
 6794SOL     OW32017   1.560   1.259   9.679 -0.1136 -0.0684  0.2955
 6794SOL    HW132018   1.636   1.229   9.730 -0.3519 -0.7410  0.2518
 6794SOL    HW232019   1.532   1.179   9.635 -1.7946 -1.0450  3.1436
 6795SOL     OW32020   0.334   4.118   2.401 -0.3417  0.2776  0.1980
 6795SOL    HW132021   0.406   4.179   2.382  3.5996 -4.6722 -0.5503
 6795SOL    HW232022   0.268   4.148   2.338 -0.5484 -0.8742 -0.1230
 6796SOL     OW32023   2.093   1.979   4.750  0.1735 -0.1986 -0.0945
 6796SOL    HW132024   2.009   1.953   4.712 -0.7210  1.2641  0.8995
 6796SOL    HW232025   2.123   1.897   4.790 -0.2542  0.7489  2.1479
 6797SOL     OW32026   2.659   0.302  17.065 -0.1979  0.0060  0.3599
 6797SOL    HW132027   2.731   0.358  17.094 -0.7763  1.6235 -1.2834
 6797SOL    HW232028   2.693   0.249  16.993  0.5725 -1.2672  1.6817
 6798SOL     OW32029   0.978   3.834   0.039 -0.0327  0.4413  0.0177
 6798SOL    HW132030   1.053   3.878   0.080 -0.2627  0.0069  0.8950
 6798SOL    HW232031   0.932   3.800   0.116  0.6990  0.2220  0.3607
 6799SOL     OW32032   3.180   2.716  14.883  0.0426 -0.5498 -0.0046
 6799SOL    HW132033   3.245   2.660  14.841 -0.8531 -1.3969 -0.2507
 6799SOL    HW232034   3.100   2.665  14.891 -0.7350  0.6390 -0.1724
 6800SOL     OW32035   4.372   1.426   0.712  0.0993  0.0872  0.1119
 6800SOL    HW132036   4.282   1.457   0.707 -0.5768 -1.3931  2.7379
 6800SOL    HW232037   4.351   1.337   0.682 -3.5540  0.0570  2.6990
 6801SOL     OW32038   3.404   1.717   8.401 -0.4159 -0.2147 -0.6432
 6801SOL    HW132039   3.376   1.628   8.422  2.8640 -1.3246 -0.9935
 6801SOL    HW232040   3.379   1.752   8.487  0.8607 -1.1695  0.1127
 6802SOL     OW32041   3.172   4.126  16.504  0.0821 -0.1088  0.3847
 6802SOL    HW132042   3.216   4.192  16.449 -0.5470  2.9123  3.5323
 6802SOL    HW232043   3.085   4.112  16.467  0.1619 -2.8217  1.2296
 6803SOL     OW32044   3.786   2.937  10.014 -0.1292 -0.2530 -0.4425
 6803SOL    HW132045   3.747   2.931   9.926  2.4836 -1.5727 -1.5109
 6803SOL    HW232046   3.744   3.018  10.043  0.2941  0.8275 -2.8683
 6804SOL     OW32047   1.101   3.115   3.779 -0.2372 -0.6462 -0.0646
 6804SOL    HW132048   1.129   3.191   3.729  1.7655 -1.5424 -0.3223
 6804SOL    HW232049   1.074   3.055   3.710  0.9062 -1.0920 -0.1276
 6805SOL     OW32050   0.474   4.724   4.635  0.2988  0.3620  0.7666
 6805SOL    HW132051   0.532   0.021   4.703  0.2550  1.5256  0.2463
 6805SOL    HW232052   0.479   0.067   4.581  0.8969  0.3185  0.7568
 6806SOL     OW32053   4.614   4.611   8.364 -0.1112  0.1288  0.6305
 6806SOL    HW132054   4.625   4.537   8.423 -1.5090  0.0400  0.7763
 6806SOL    HW232055   4.526   4.595   8.329  0.6759 -0.9568 -0.8342
 6807SOL     OW32056   2.467   1.113  11.049  0.2005  0.4562  0.2981
 6807SOL    HW132057   2.394   1.055  11.029  1.3179 -0.4618 -1.1352
 6807SOL    HW232058   2.443   1.204  11.032 -1.9887 -0.1710  0.0468
 6808SOL     OW32059   0.916   1.790   7.490 -0.0069 -0.1119  0.2039
 6808SOL    HW132060   0.871   1.719   7.536 -0.7850  0.3271  0.1053
 6808SOL    HW232061   0.911   1.763   7.398  1.0103  0.7856 -0.1208
 6809SOL     OW32062   1.943   0.186   3.944  0.4044  0.6068 -0.3145
 6809SOL    HW132063   1.929   0.122   3.875 -1.6190  1.4955 -0.7569
 6809SOL    HW232064   1.854   0.212   3.971  0.0848  0.3215 -1.1051
 6810SOL     OW32065   2.051   2.657   8.758  0.3917  0.4002  1.3310
 6810SOL    HW132066   2.001   2.723   8.806 -1.1608  0.7515 -0.7573
 6810SOL    HW232067   2.063   2.698   8.672 -1.2954 -1.6734  0.1077
 6811SOL     OW32068   4.636   2.892   2.247 -0.0036  0.1303 -0.5487
 6811SOL    HW132069   4.541   2.877   2.239 -0.3521  1.5330  0.9785
 6811SOL    HW232070   4.648   2.965   2.187  0.2095  0.2484 -0.3595
 6812SOL     OW32071   4.029   0.187   5.233  0.0198  0.1554 -0.1939
 6812SOL    HW132072   3.972   0.115   5.262 -1.1022  0.3607 -1.8846
 6812SOL    HW232073   4.077   0.138   5.166 -0.3385 -1.2471  0.5595
 6813SOL     OW32074   1.491   4.108   8.007 -0.1439  0.9162 -0.4903
 6813SOL    HW132075   1.399   4.120   7.983 -0.3185  0.8690  0.1573
 6813SOL    HW232076   1.519   4.199   8.014 -2.1517  1.4370  0.7726
 6814SOL     OW32077   0.067   0.857   3.778  0.2387  0.0748 -1.1621
 6814SOL    HW132078   0.083   0.762   3.771 -0.1247 -0.0943  0.3079
 6814SOL    HW232079   4.708   0.853   3.788  0.1114  0.0452 -2.3798
 6815SOL     OW32080   3.979   1.095   0.051 -0.5200 -0.2251  0.2956
 6815SOL    HW132081   3.977   1.189   0.068 -1.2792 -0.8463  3.7083
 6815SOL    HW232082   3.893   1.085   0.011 -0.7112 -0.9703  0.8778
 6816SOL     OW32083   0.120   0.630   1.203 -0.2396  0.2559  0.2113
 6816SOL    HW132084   0.071   0.554   1.171  0.8610 -0.0910 -0.6535
 6816SOL    HW232085   0.212   0.604   1.206 -0.6072 -0.9488  1.0602
 6817SOL     OW32086   3.262   0.006   3.309 -0.1033  0.4553  0.1541
 6817SOL    HW132087   3.324   4.734   3.382  0.9128 -2.2423 -1.0032
 6817SOL    HW232088   3.208   0.078   3.343  0.7270  1.3716 -0.4672
 6818SOL     OW32089   3.859   1.968   7.990  0.1940 -0.0562 -0.0884
 6818SOL    HW132090   3.908   1.893   7.956  0.0239 -0.5425  0.7272
 6818SOL    HW232091   3.818   1.998   7.910 -1.1762  0.7828  0.9276
 6819SOL     OW32092   0.242   0.735  10.942  0.2717 -0.4569 -0.1502
 6819SOL    HW132093   0.304   0.713  10.873  2.3853  1.1118  1.2142
 6819SOL    HW232094   0.290   0.801  10.993  0.0978 -0.1338 -0.4097
 6820SOL     OW32095   1.737   3.355  14.578 -0.0177  0.0438 -0.9053
 6820SOL    HW132096   1.795   3.304  14.521  0.6213  0.8872 -1.0168
 6820SOL    HW232097   1.748   3.303  14.657 -1.7232  0.4668 -0.4024
 6821SOL     OW32098   2.213   2.489   1.568 -0.4785 -0.0311  0.2862
 6821SOL    HW132099   2.173   2.531   1.644 -0.9449 -1.5973  0.9134
 6821SOL    HW232100   2.260   2.422   1.617 -1.2789  0.3440  1.5867
 6822SOL     OW32101   3.553   3.842   6.101 -0.0873  0.6097  0.9611
 6822SOL    HW132102   3.589   3.775   6.159  0.5465 -0.8658 -1.1319
 6822SOL    HW232103   3.463   3.844   6.131 -0.2569  2.4221  0.3189
 6823SOL     OW32104   2.888   2.928  16.460 -0.4591  0.0171  0.1540
 6823SOL    HW132105   2.979   2.902  16.473  0.0626  1.7288 -0.1383
 6823SOL    HW232106   2.852   2.842  16.438  0.6797  0.0487 -1.7851
 6824SOL     OW32107   3.737   4.362   0.653 -0.2377  0.2882 -0.2366
 6824SOL    HW132108   3.780   4.326   0.730  0.2628 -0.6097 -0.9319
 6824SOL    HW232109   3.791   4.431   0.615 -2.6035  1.4291 -1.5083
 6825SOL     OW32110   1.087   1.819   8.917  0.0586  0.4264  0.0182
 6825SOL    HW132111   1.001   1.820   8.960  0.6152 -0.0846  1.1354
 6825SOL    HW232112   1.083   1.902   8.869  1.4944  0.6878  0.3671
 6826SOL     OW32113   1.545   0.499   9.345  0.1829  0.1806  0.2763
 6826SOL    HW132114   1.490   0.544   9.409  0.4258  1.6778 -0.5624
 6826SOL    HW232115   1.628   0.491   9.391  1.0432 -1.0949 -1.5072
 6827SOL     OW32116   1.404   2.823   1.445  0.1539  0.0134 -0.1282
 6827SOL    HW132117   1.468   2.840   1.514 -0.2591  0.3057  0.1837
 6827SOL    HW232118   1.326   2.814   1.501  0.4539  1.9781  0.6260
 6828SOL     OW32119   3.737   4.470   8.678 -0.3054  0.7829 -0.3550
 6828SOL    HW132120   3.668   4.508   8.733 -0.1967  0.2498  0.1601
 6828SOL    HW232121   3.741   4.385   8.722  0.5992  1.5056  0.9608
 6829SOL     OW32122   3.469   0.776  15.288  0.7499 -0.0635  0.1697
 6829SOL    HW132123   3.483   0.870  15.293 -1.4369  0.4790 -4.2901
 6829SOL    HW232124   3.374   0.776  15.300  0.7150  0.5376 -0.1649
 6830SOL     OW32125   2.746   1.383   3.730 -0.5004  0.3060 -0.2608
 6830SOL    HW132126   2.771   1.464   3.774  2.6330 -0.6835 -0.2903
 6830SOL    HW232127   2.788   1.403   3.646 -0.5277  0.1923 -0.3014
 6831SOL     OW32128   3.183   1.171  10.018 -0.1676 -0.5464 -0.3490
 6831SOL    HW132129   3.265   1.218  10.031 -0.6214 -0.0610  0.8103
 6831SOL    HW232130   3.198   1.081  10.046  1.6383 -0.0788  0.1824
 6832SOL     OW32131   1.229   0.185   2.773  0.1723 -0.2041 -0.1205
 6832SOL    HW132132   1.181   0.259   2.735 -1.2898 -1.4518 -0.7024
 6832SOL    HW232133   1.299   0.173   2.708  1.6932  1.3855  1.2236
 6833SOL     OW32134   3.212   4.684   1.273  0.0669 -0.1377  0.4586
 6833SOL    HW132135   3.127   4.712   1.307 -0.4937  0.2266 -1.2367
 6833SOL    HW232136   3.209   4.726   1.188 -1.3429  2.8476  1.9977
 6834SOL     OW32137   1.432   2.088   5.468 -0.4788  0.5797 -0.1844
 6834SOL    HW132138   1.451   2.018   5.405 -0.4499  0.8781 -0.5064
 6834SOL    HW232139   1.483   2.049   5.539 -0.1657 -0.1830 -0.8265
 6835SOL     OW32140   1.551   2.971   2.927  0.2783 -0.2178 -0.3497
 6835SOL    HW132141   1.531   2.958   2.834 -0.6028 -0.2231 -0.1547
 6835SOL    HW232142   1.467   2.954   2.969 -1.2131  1.8205 -2.5045
 6836SOL     OW32143   3.130   4.107   1.602  0.1193  0.7711  0.0294
 6836SOL    HW132144   3.173   4.180   1.558  1.2557 -0.2421 -0.5501
 6836SOL    HW232145   3.073   4.158   1.659  1.3658 -0.2212  2.1432
 6837SOL     OW32146   0.500   0.197   6.817 -0.1662 -0.3273 -0.2642
 6837SOL    HW132147   0.471   0.106   6.823  0.8884 -0.8067 -2.6905
 6837SOL    HW232148   0.582   0.199   6.866 -0.8065 -2.2710  0.8958
 6838SOL     OW32149   4.720   4.389   4.193 -0.2431 -0.2302 -0.2691
 6838SOL    HW132150   4.684   4.351   4.274  0.5020  0.3492  0.3313
 6838SOL    HW232151   4.722   4.312   4.136  1.8905 -1.1219  0.9863
 6839SOL     OW32152   3.894   4.109  10.861 -0.3057 -0.1630 -0.0163
 6839SOL    HW132153   3.978   4.065  10.876 -1.0353 -1.9083 -0.9532
 6839SOL    HW232154   3.921   4.199  10.879  0.8205 -0.0934 -2.0478
 6840SOL     OW32155   3.042   3.738   6.148  0.4580 -0.0699  0.2018
 6840SOL    HW132156   2.996   3.740   6.233  0.7110 -1.2145  0.3604
 6840SOL    HW232157   2.987   3.684   6.092  2.6655 -2.4205  0.3158
 6841SOL     OW32158   4.695   4.004  16.883 -0.3499 -0.1963  0.2565
 6841SOL    HW132159   4.609   4.017  16.923  1.1954  1.6835  2.9451
 6841SOL    HW232160   4.674   3.924  16.834  0.3125 -0.3286  0.1799
 6842SOL     OW32161   4.255   0.524   7.993  0.1526  0.1058 -0.2802
 6842SOL    HW132162   4.289   0.453   8.047 -0.5816 -0.2106 -0.2428
 6842SOL    HW232163   4.292   0.509   7.905 -1.0003 -3.2227 -0.1692
 6843SOL     OW32164   2.304   3.130  13.555  0.4508  0.0752 -0.1980
 6843SOL    HW132165   2.300   3.103  13.463  3.1762 -1.4375  0.1294
 6843SOL    HW232166   2.291   3.225  13.556 -2.4603 -0.3107 -0.7345
 6844SOL     OW32167   4.659   3.456   2.023 -0.5016 -0.0195 -0.6640
 6844SOL    HW132168   4.627   3.413   2.102 -1.8244  1.0872 -0.6013
 6844SOL    HW232169   4.585   3.515   2.011  1.3674  2.2549 -1.0223
 6845SOL     OW32170   1.194   1.787   2.695 -0.0271 -0.2494 -0.2841
 6845SOL    HW132171   1.281   1.748   2.696 -0.5375 -1.4170 -1.7835
 6845SOL    HW232172   1.179   1.814   2.786 -0.1201 -2.8487  0.4725
 6846SOL     OW32173   0.403   2.120   7.038 -0.3244 -0.3575  0.6965
 6846SOL    HW132174   0.465   2.098   7.108 -0.4793 -1.0414  0.6228
 6846SOL    HW232175   0.454   2.168   6.972 -0.6525  0.2610  0.8938
 6847SOL     OW32176   1.660   3.392   0.793  0.0409  0.1182 -0.5124
 6847SOL    HW132177   1.744   3.432   0.772 -0.5303  1.9035  0.5330
 6847SOL    HW232178   1.598   3.465   0.795  0.7707  0.7507 -0.8536
 6848SOL     OW32179   0.198   2.594  12.950 -0.2200 -0.5605 -0.3549
 6848SOL    HW132180   0.231   2.562  12.867 -1.1648 -2.4583  0.0079
 6848SOL    HW232181   0.249   2.558  13.022 -1.0317 -0.4993  0.2541
 6849SOL     OW32182   2.404   4.419   1.620  0.5460 -0.1244 -0.5202
 6849SOL    HW132183   2.353   4.353   1.665  1.2642  0.6057  1.3475
 6849SOL    HW232184   2.346   4.456   1.554 -0.4203  1.6974  1.3648
 6850SOL     OW32185   0.609   1.149  15.841  0.1819 -0.4521  0.3776
 6850SOL    HW132186   0.635   1.235  15.807  0.8124 -1.5395 -1.8503
 6850SOL    HW232187   0.664   1.133  15.918 -0.0023  0.9398  0.8016
 6851SOL     OW32188   1.694   4.634  12.815  0.2403  0.4836 -0.5707
 6851SOL    HW132189   1.663   4.604  12.900  0.3598 -1.5235 -1.2349
 6851SOL    HW232190   1.613   4.632  12.764  0.4503 -1.0593 -0.8221
 6852SOL     OW32191   4.074   2.458   6.780 -0.5022 -0.7173 -0.2133
 6852SOL    HW132192   4.044   2.427   6.866 -1.9131 -2.0289 -1.1925
 6852SOL    HW232193   4.119   2.377   6.757  2.2421  0.7706 -0.1568
 6853SOL     OW32194   1.749   2.511   6.473 -0.2692  0.0246 -0.4352
 6853SOL    HW132195   1.769   2.419   6.456 -0.0346  0.2234 -1.2453
 6853SOL    HW232196   1.737   2.510   6.568 -1.0248  1.0351 -0.5181
 6854SOL     OW32197   0.751   3.856   7.223  0.2645  0.1810  0.4589
 6854SOL    HW132198   0.768   3.910   7.146 -0.2335  0.0244  0.2424
 6854SOL    HW232199   0.830   3.873   7.275 -0.6921  0.7644  1.7136
 6855SOL     OW32200   3.291   4.560   2.700 -0.1985  0.2753  0.3167
 6855SOL    HW132201   3.213   4.612   2.713  0.6106  1.7302 -0.6784
 6855SOL    HW232202   3.360   4.627   2.696 -1.5190  1.5351 -1.0193
 6856SOL     OW32203   3.517   0.296   5.660 -0.7367 -0.3816 -1.1199
 6856SOL    HW132204   3.423   0.286   5.673 -0.6969  0.5798 -0.0459
 6856SOL    HW232205   3.531   0.390   5.661 -0.3856 -0.4496  0.9118
 6857SOL     OW32206   2.362   2.798   2.662  0.4551  0.2233 -0.4565
 6857SOL    HW132207   2.318   2.735   2.604  2.1119  0.6667 -2.2219
 6857SOL    HW232208   2.431   2.830   2.604  0.1451 -1.3243 -1.7042
 6858SOL     OW32209   1.112   1.008   3.739  0.5269  0.0663  0.1485
 6858SOL    HW132210   1.127   1.061   3.817  1.3673  2.2814 -1.5129
 6858SOL    HW232211   1.163   0.928   3.757 -1.1615 -1.1012 -0.2754
 6859SOL     OW32212   1.900   1.803   7.577 -0.0569 -0.3126 -0.5262
 6859SOL    HW132213   1.950   1.791   7.496  0.2045  0.3498 -0.4674
 6859SOL    HW232214   1.957   1.857   7.632 -2.5043 -0.7588  2.4659
 6860SOL     OW32215   4.673   1.879   9.792  0.2894 -0.2360 -0.0196
 6860SOL    HW132216   4.590   1.922   9.814 -0.0557 -0.5245 -0.7499
 6860SOL    HW232217   4.699   1.843   9.876 -0.9728  0.3964  0.6413
 6861SOL     OW32218   4.082   1.378   6.107 -0.3707  0.0575 -0.6098
 6861SOL    HW132219   4.033   1.454   6.141  0.0336 -0.0676  0.2581
 6861SOL    HW232220   4.160   1.409   6.153  0.6201 -1.5137 -1.2548
 6862SOL     OW32221   3.864   0.889  15.144 -0.1055  0.6777  0.1427
 6862SOL    HW132222   3.791   0.830  15.128  0.4448 -0.3250  1.3249
 6862SOL    HW232223   3.841   0.923  15.231 -1.3681 -0.2461  0.1711
 6863SOL     OW32224   2.018   2.258   3.850  0.0779 -0.1322 -0.3207
 6863SOL    HW132225   2.003   2.250   3.944 -0.3971 -3.1124 -0.6485
 6863SOL    HW232226   1.987   2.347   3.837 -0.9778 -0.1990  1.7374
 6864SOL     OW32227   3.618   0.658  12.621 -0.0823  0.5124 -0.2142
 6864SOL    HW132228   3.535   0.689  12.586  0.3881 -0.4559 -2.1897
 6864SOL    HW232229   3.619   0.573  12.578 -1.4295 -0.1176  0.9833
 6865SOL     OW32230   0.747   3.738   2.077 -0.3787  0.6177 -0.3278
 6865SOL    HW132231   0.832   3.781   2.071  0.8725 -1.7299  0.6619
 6865SOL    HW232232   0.707   3.794   2.143 -1.0963 -0.0903 -0.1586
 6866SOL     OW32233   3.528   2.513   4.327 -0.1764  0.1423  0.2167
 6866SOL    HW132234   3.597   2.484   4.267 -0.3591 -0.1823  0.1642
 6866SOL    HW232235   3.447   2.473   4.294  0.5395 -0.7684 -0.4564
 6867SOL     OW32236   1.282   0.222   0.237 -0.3515 -0.4019 -0.1866
 6867SOL    HW132237   1.297   0.310   0.203  0.6361 -0.6280 -0.3210
 6867SOL    HW232238   1.193   0.222   0.274 -0.3081 -0.3250 -0.0811
 6868SOL     OW32239   2.161   4.483   0.321 -0.5413 -0.3679 -0.6187
 6868SOL    HW132240   2.111   4.446   0.248  0.3279  0.6152 -1.7009
 6868SOL    HW232241   2.244   4.502   0.277  0.2114 -0.3880  0.7646
 6869SOL     OW32242   3.771   0.905  12.221  0.2950  0.6298  0.5195
 6869SOL    HW132243   3.818   0.982  12.252  0.3586  0.5418  0.6401
 6869SOL    HW232244   3.806   0.881  12.135 -1.4126  2.3312 -0.6416
 6870SOL     OW32245   2.557   2.876   5.316 -0.7333 -0.0992 -0.1650
 6870SOL    HW132246   2.587   2.964   5.339 -1.3696  1.1574 -4.0466
 6870SOL    HW232247   2.463   2.881   5.300 -0.9811 -0.0394  1.3112
 6871SOL     OW32248   4.226   2.374   3.325 -0.2837 -0.1818  0.2763
 6871SOL    HW132249   4.179   2.347   3.404 -0.3243  0.4636  0.4730
 6871SOL    HW232250   4.273   2.450   3.358  2.2019 -1.0834 -1.2128
 6872SOL     OW32251   2.493   1.471   8.124 -0.2594 -0.2727 -0.3923
 6872SOL    HW132252   2.426   1.468   8.056  0.6057 -0.9241 -1.2287
 6872SOL    HW232253   2.483   1.379   8.149 -0.2486 -0.0544  0.3859
 6873SOL     OW32254   0.922   2.716   1.529 -0.1327 -0.6329 -0.1019
 6873SOL    HW132255   0.829   2.710   1.551 -0.2991 -0.5368 -0.7885
 6873SOL    HW232256   0.942   2.626   1.504 -0.2292 -0.2021 -1.7439
 6874SOL     OW32257   2.731   4.003   8.312  0.2266 -0.2438 -0.1454
 6874SOL    HW132258   2.732   3.968   8.223  1.9375  0.0050 -0.2215
 6874SOL    HW232259   2.688   3.929   8.356 -0.9655  0.4247 -0.1725
 6875SOL     OW32260   1.591   1.948   3.188  0.2375 -0.1701 -0.6393
 6875SOL    HW132261   1.608   1.874   3.129  0.7127 -0.2205 -0.4413
 6875SOL    HW232262   1.659   2.012   3.168 -0.2275  0.8989  1.1303
 6876SOL     OW32263   0.423   3.156   9.327 -0.1476  0.0015 -0.0641
 6876SOL    HW132264   0.500   3.207   9.352  0.5709 -1.4165  0.6112
 6876SOL    HW232265   0.453   3.130   9.240 -0.5634 -1.4176  0.2107
 6877SOL     OW32266   3.667   3.081   9.309  0.2423  0.0518  0.1842
 6877SOL    HW132267   3.683   3.028   9.387  0.6606  0.8360  0.6267
 6877SOL    HW232268   3.759   3.091   9.283  0.3143 -0.7441  0.1195
 6878SOL     OW32269   3.888   1.544   9.172  0.2304 -0.0882 -0.1531
 6878SOL    HW132270   3.944   1.620   9.183  0.9472 -0.7853  0.9661
 6878SOL    HW232271   3.933   1.499   9.100  0.6460 -0.1679  0.1566
 6879SOL     OW32272   3.214   3.351   7.028  0.4989 -0.0384  0.4838
 6879SOL    HW132273   3.281   3.413   7.000  0.6348 -0.6654 -0.5750
 6879SOL    HW232274   3.234   3.332   7.120  1.9118  2.2333  0.6335
 6880SOL     OW32275   0.333   1.476   2.232  0.2362  0.8239  0.2062
 6880SOL    HW132276   0.397   1.492   2.302 -0.7275  0.4200  1.1692
 6880SOL    HW232277   0.372   1.522   2.158 -0.3121 -0.5259 -0.9016
 6881SOL     OW32278   4.219   3.342   1.664 -0.3513 -0.3220  0.3344
 6881SOL    HW132279   4.309   3.372   1.680 -0.4131 -0.3553  0.7293
 6881SOL    HW232280   4.197   3.364   1.573 -2.1984 -1.9931  0.3849
 6882SOL     OW32281   0.488   3.024   9.079 -0.5962  0.8363  0.2569
 6882SOL    HW132282   0.542   2.988   9.009 -2.1397  1.5435 -1.3033
 6882SOL    HW232283   0.452   3.100   9.034  2.1526  2.3206  0.5867
 6883SOL     OW32284   1.391   0.192  12.388 -0.0013 -0.0339  0.9667
 6883SOL    HW132285   1.424   0.152  12.307 -2.5566  1.1710 -0.6912
 6883SOL    HW232286   1.458   0.159  12.447  0.9852  0.1726 -0.0303
 6884SOL     OW32287   4.310   1.678   3.885  0.1307  0.5109  0.0839
 6884SOL    HW132288   4.354   1.600   3.920  0.5685 -0.0630 -1.7228
 6884SOL    HW232289   4.222   1.670   3.923  0.5238  0.8084  1.0509
 6885SOL     OW32290   4.469   2.402  17.440  0.1066  0.3043  0.3084
 6885SOL    HW132291   4.507   2.488  17.457 -1.2404  1.4097 -2.3758
 6885SOL    HW232292   4.442   2.410  17.349  1.4321  0.0685 -0.1045
 6886SOL     OW32293   2.801   0.359   9.120  0.0564 -0.0384 -0.5262
 6886SOL    HW132294   2.867   0.339   9.053  2.5853 -0.9830  2.2243
 6886SOL    HW232295   2.733   0.296   9.096 -0.9588  0.3992  1.1735
 6887SOL     OW32296   0.220   4.630   4.713 -0.1994  0.1295 -0.0765
 6887SOL    HW132297   0.294   4.661   4.660 -0.6808 -0.2459 -0.9726
 6887SOL    HW232298   0.243   4.670   4.796  1.9320  1.3585 -1.2560
 6888SOL     OW32299   4.736   1.662   9.335  0.1773  0.5338  0.3155
 6888SOL    HW132300   0.093   1.668   9.313  0.5546  1.0203  2.0968
 6888SOL    HW232301   0.002   1.687   9.427 -1.4119 -0.8521  0.7316
 6889SOL     OW32302   1.975   3.203   6.986  0.0366  0.1739  0.9072
 6889SOL    HW132303   1.891   3.247   6.970 -0.2384 -0.9799 -0.7760
 6889SOL    HW232304   2.004   3.189   6.896  1.8000  1.3471  1.2808
 6890SOL     OW32305   1.626   1.904   0.469 -0.1322 -0.0301  0.2888
 6890SOL    HW132306   1.546   1.920   0.419 -0.3910 -0.3591  0.5933
 6890SOL    HW232307   1.599   1.945   0.552 -0.2350  0.8022 -0.1626
 6891SOL     OW32308   2.957   2.405   5.930 -0.4490  0.0539  0.1178
 6891SOL    HW132309   2.941   2.484   5.982 -0.4267  0.2791 -0.2152
 6891SOL    HW232310   2.902   2.339   5.973 -1.0660  1.5370  1.6463
 6892SOL     OW32311   0.678   2.990   7.725 -0.2006  0.8019  0.0073
 6892SOL    HW132312   0.617   2.916   7.720  0.9114 -0.0426 -0.8132
 6892SOL    HW232313   0.614   3.061   7.735  0.2293  1.1524  0.2537
 6893SOL     OW32314   2.171   4.181   5.819  0.3140 -0.3370  0.1587
 6893SOL    HW132315   2.147   4.185   5.726  0.8308  0.8028  0.0680
 6893SOL    HW232316   2.191   4.088   5.820  0.3598 -0.3617 -1.9798
 6894SOL     OW32317   1.628   3.065   5.609 -0.1537  0.1813  0.1109
 6894SOL    HW132318   1.655   3.034   5.695  1.2503 -1.7100 -0.9996
 6894SOL    HW232319   1.572   3.139   5.632  0.5940  0.2701  1.6163
 6895SOL     OW32320   1.444   4.545   7.293 -0.0047 -0.1901  0.1069
 6895SOL    HW132321   1.461   4.548   7.199  0.6090  3.2968  0.3007
 6895SOL    HW232322   1.373   4.609   7.298 -0.5093 -0.7975  0.6551
 6896SOL     OW32323   0.386   1.628   4.189 -0.2388  0.0767 -0.1747
 6896SOL    HW132324   0.435   1.562   4.140 -1.1781 -2.7850  2.8059
 6896SOL    HW232325   0.440   1.636   4.268  0.5680 -1.5244 -0.5670
 6897SOL     OW32326   0.670   2.191  10.048 -0.2880  0.1332  0.6106
 6897SOL    HW132327   0.698   2.227  10.132 -1.4580 -0.0043  1.0560
 6897SOL    HW232328   0.576   2.210  10.046 -0.8472 -2.5766  1.4474
 6898SOL     OW32329   0.474   2.444   8.341  0.1393 -0.3811 -0.0338
 6898SOL    HW132330   0.472   2.441   8.245  2.0573 -0.0667 -0.0716
 6898SOL    HW232331   0.406   2.510   8.356  0.5233 -0.0098  0.0567
 6899SOL     OW32332   1.929   3.801   7.886 -0.1045 -0.6061  0.5981
 6899SOL    HW132333   2.015   3.780   7.923  0.6086  0.9889 -0.1630
 6899SOL    HW232334   1.878   3.804   7.967  0.4570 -0.0952  0.9321
 6900SOL     OW32335   0.007   3.715   9.497 -0.4048  0.0782 -0.2513
 6900SOL    HW132336   0.085   3.719   9.552 -0.7535  1.0738  0.1683
 6900SOL    HW232337   0.046   3.739   9.413 -0.5259 -2.9927 -1.1874
 6901SOL     OW32338   3.180   1.630   7.369  0.0165 -0.3925  0.2951
 6901SOL    HW132339   3.214   1.578   7.442 -0.1218  0.7393  1.1495
 6901SOL    HW232340   3.256   1.642   7.311  0.3392  0.7824  0.9768
 6902SOL     OW32341   1.664   0.858  16.762  0.5709 -0.2367  0.1960
 6902SOL    HW132342   1.572   0.849  16.785  0.9623 -1.8874  1.0580
 6902SOL    HW232343   1.651   0.853  16.667 -0.0630 -1.8803  0.3858
 6903SOL     OW32344   1.406   4.662  16.526  0.2763 -0.3613 -0.3224
 6903SOL    HW132345   1.341   4.613  16.577 -1.9890  1.1650 -1.7741
 6903SOL    HW232346   1.480   4.622  16.571  0.7969 -0.2869 -1.1264
 6904SOL     OW32347   1.304   3.025   5.457 -0.1374  0.4890  0.2687
 6904SOL    HW132348   1.385   2.975   5.458 -1.3421 -1.4788 -1.7280
 6904SOL    HW232349   1.297   3.041   5.551 -0.5537 -1.2948  0.5283
 6905SOL     OW32350   4.067   1.028   4.706  0.4419  0.0168  0.3772
 6905SOL    HW132351   4.021   0.988   4.632  0.6694  0.0687  0.2085
 6905SOL    HW232352   4.062   0.958   4.771 -0.0262 -1.6766 -1.4400
 6906SOL     OW32353   1.579   3.703   4.658 -0.0478 -0.5231 -0.0267
 6906SOL    HW132354   1.648   3.752   4.703 -1.4527  1.3463  0.0512
 6906SOL    HW232355   1.633   3.672   4.584  1.5308  1.2333  0.3933
 6907SOL     OW32356   3.204   2.270   4.441 -0.0626 -0.0010  0.3269
 6907SOL    HW132357   3.167   2.301   4.523 -0.6995 -0.6603  0.2952
 6907SOL    HW232358   3.129   2.225   4.401  0.5350  0.7404 -1.6284
 6908SOL     OW32359   3.671   0.396   0.060 -0.6032  0.0299  0.9853
 6908SOL    HW132360   3.614   0.364  17.733  0.3017  0.0346  0.2379
 6908SOL    HW232361   3.719   0.462   0.009 -0.6629  0.1142  1.0391
 6909SOL     OW32362   0.110   0.697  12.752 -0.5490  0.3279 -0.0716
 6909SOL    HW132363   0.086   0.702  12.844 -0.6649  0.9465 -0.1340
 6909SOL    HW232364   0.030   0.662  12.713 -0.1791  1.0976 -1.5529
 6910SOL     OW32365   1.322   3.243   9.659 -0.4376 -0.0007  0.1380
 6910SOL    HW132366   1.291   3.265   9.747  1.5983  1.1911  0.5487
 6910SOL    HW232367   1.345   3.150   9.667 -1.0537 -0.1559  0.1430
 6911SOL     OW32368   1.298   3.976   3.505  0.1400  0.0416 -0.3651
 6911SOL    HW132369   1.264   3.890   3.531 -1.5792  0.6150 -0.7567
 6911SOL    HW232370   1.266   3.985   3.416  0.7136 -3.5996 -0.9576
 6912SOL     OW32371   3.840   3.093   4.269  0.7490 -0.1345  0.0771
 6912SOL    HW132372   3.764   3.104   4.211  1.0768 -1.0169 -0.5320
 6912SOL    HW232373   3.911   3.068   4.209  0.3272 -1.9783  0.3508
 6913SOL     OW32374   3.185   2.840   5.056 -0.2322 -0.4162 -0.2592
 6913SOL    HW132375   3.106   2.891   5.037  0.2938  1.0498  1.5672
 6913SOL    HW232376   3.157   2.757   5.094 -1.6637  0.1751 -0.0394
 6914SOL     OW32377   2.047   2.104  17.157  0.8174  0.3942  0.9966
 6914SOL    HW132378   2.026   2.120  17.065  0.9389  0.7887  1.0372
 6914SOL    HW232379   2.112   2.174  17.161  1.6153 -0.1842 -1.9415
 6915SOL     OW32380   1.432   3.628   6.195 -0.5586 -0.4991 -0.0390
 6915SOL    HW132381   1.503   3.563   6.195  0.4108  0.5449 -0.9593
 6915SOL    HW232382   1.358   3.588   6.149 -0.0493 -1.2675 -0.1896
 6916SOL     OW32383   3.871   1.652  10.646 -0.0209  0.0973  0.2218
 6916SOL    HW132384   3.783   1.629  10.615 -0.2752  0.0758  0.9536
 6916SOL    HW232385   3.888   1.586  10.714 -0.5981 -0.5908 -0.3043
 6917SOL     OW32386   2.716   0.463   1.680 -0.0644  0.5721  0.7349
 6917SOL    HW132387   2.792   0.492   1.730  1.5699 -1.8363 -0.3418
 6917SOL    HW232388   2.676   0.393   1.733  0.7317 -0.3485  0.1146
 6918SOL     OW32389   0.008   1.867   4.144 -0.2402 -0.0946  0.1529
 6918SOL    HW132390   0.023   1.789   4.091  0.2543 -1.3228  2.1094
 6918SOL    HW232391   4.654   1.862   4.176 -1.4537 -0.9601 -3.3783
 6919SOL     OW32392   2.284   2.892   0.416 -0.0489  0.6373  0.5925
 6919SOL    HW132393   2.227   2.823   0.381  0.6107 -1.3974  3.5153
 6919SOL    HW232394   2.321   2.854   0.496 -0.4572  0.4548  0.6976
 6920SOL     OW32395   1.588   2.058   8.268 -0.3166 -0.4561  0.4527
 6920SOL    HW132396   1.598   2.026   8.178 -0.4363  2.2542 -0.5289
 6920SOL    HW232397   1.552   2.145   8.256 -0.7143 -0.6264  0.4258
 6921SOL     OW32398   0.728   2.491   8.711 -0.3025 -0.0794  0.5144
 6921SOL    HW132399   0.669   2.416   8.723 -1.4849  0.8165  0.2861
 6921SOL    HW232400   0.758   2.500   8.801 -1.1876 -1.2207  0.9312
 6922SOL     OW32401   4.366   2.429   5.147 -0.3508 -0.2042 -0.0261
 6922SOL    HW132402   4.395   2.339   5.165  3.2910  1.6972  3.4229
 6922SOL    HW232403   4.364   2.469   5.234 -1.4876  0.1712 -0.2289
 6923SOL     OW32404   0.842   1.868   8.532 -0.2918  0.2941  0.5840
 6923SOL    HW132405   0.832   1.872   8.437 -1.2245  0.1753  0.6799
 6923SOL    HW232406   0.864   1.960   8.547  0.6073 -0.0140  1.1793
 6924SOL     OW32407   4.308   1.861   0.751 -0.6319  0.2318  0.3991
 6924SOL    HW132408   4.235   1.919   0.774 -0.3219  0.6252  0.3916
 6924SOL    HW232409   4.341   1.831   0.836  3.0253  1.9775 -0.4077
 6925SOL     OW32410   2.995   2.219  17.592 -0.0917 -0.0148  0.0987
 6925SOL    HW132411   2.970   2.128  17.609  0.5242  0.1999  2.1239
 6925SOL    HW232412   3.018   2.217  17.499 -3.7997 -0.1948 -0.8196
 6926SOL     OW32413   3.670   2.592   1.891  0.6472 -0.2896  0.2384
 6926SOL    HW132414   3.746   2.646   1.911  0.3339 -0.0463  0.7748
 6926SOL    HW232415   3.709   2.549   1.815  1.2101 -0.0527  0.3969
 6927SOL     OW32416   1.554   3.147   0.879 -0.2808 -0.1251  0.0630
 6927SOL    HW132417   1.594   3.229   0.849 -0.1808 -0.3081 -0.3092
 6927SOL    HW232418   1.463   3.157   0.849 -0.1008 -0.8417 -0.7467
 6928SOL     OW32419   3.978   2.091  12.054 -0.2694  0.0166 -0.2117
 6928SOL    HW132420   3.901   2.147  12.041  0.6504  1.2587 -0.3919
 6928SOL    HW232421   3.969   2.078  12.148  1.3961 -0.0503 -0.0594
 6929SOL     OW32422   1.766   0.990   4.701  0.4772  0.1438 -0.3477
 6929SOL    HW132423   1.715   0.986   4.620 -0.4055 -1.4879  0.2889
 6929SOL    HW232424   1.831   1.060   4.696 -1.0038  1.5366  0.0315
 6930SOL     OW32425   0.778   3.266   5.778 -0.1095  0.0834 -0.0114
 6930SOL    HW132426   0.851   3.215   5.742  1.9337  1.3605  2.3676
 6930SOL    HW232427   0.740   3.300   5.697  2.1436  3.1362  0.2116
 6931SOL     OW32428   1.040   4.701   9.608 -0.0691  0.1203 -0.5429
 6931SOL    HW132429   1.098   0.012   9.548  0.8681 -1.8671 -1.2197
 6931SOL    HW232430   1.101   4.704   9.682 -1.0273 -1.5353  0.3111
 6932SOL     OW32431   0.649   0.616   5.392  0.2055 -0.8446 -0.6412
 6932SOL    HW132432   0.726   0.630   5.337 -0.4503  0.3539 -1.2637
 6932SOL    HW232433   0.689   0.632   5.477 -1.5760  0.3584 -0.0171
 6933SOL     OW32434   4.477   2.554   7.198  0.5723  0.0825 -0.4549
 6933SOL    HW132435   4.500   2.624   7.259  2.1911  0.0610 -1.0228
 6933SOL    HW232436   4.551   2.492   7.193 -0.5625 -1.5336  2.4684
 6934SOL     OW32437   4.445   2.015   6.269  0.4631 -0.9698 -0.1530
 6934SOL    HW132438   4.469   2.025   6.177  0.6130  0.9366  0.1117
 6934SOL    HW232439   4.518   1.953   6.279 -0.8517 -2.2914  1.3698
 6935SOL     OW32440   4.325   2.377   7.336 -0.7050 -0.5216 -0.3829
 6935SOL    HW132441   4.382   2.346   7.408 -1.6716 -0.8341  0.2476
 6935SOL    HW232442   4.378   2.433   7.280 -1.8187 -0.1348 -1.0247
 6936SOL     OW32443   4.137   0.817   4.252 -0.4075 -0.3507  0.0884
 6936SOL    HW132444   4.210   0.858   4.298 -0.6888  0.9429 -0.6108
 6936SOL    HW232445   4.104   0.898   4.213  0.6792 -0.0515 -0.2060
 6937SOL     OW32446   0.884   0.625   7.634 -0.1293 -0.0353  0.1994
 6937SOL    HW132447   0.803   0.580   7.654 -0.2902  0.1926  0.0655
 6937SOL    HW232448   0.855   0.671   7.555  1.9073  1.1070  0.1114
 6938SOL     OW32449   3.768   4.511   5.149  0.5484  0.1398  0.4962
 6938SOL    HW132450   3.734   4.577   5.209 -0.6153 -0.5950  0.6562
 6938SOL    HW232451   3.690   4.486   5.099  1.7853  1.1227 -1.9012
 6939SOL     OW32452   2.224   2.368   7.598  0.8129 -0.2653 -0.1575
 6939SOL    HW132453   2.228   2.463   7.588 -1.3897 -0.1579 -0.0412
 6939SOL    HW232454   2.199   2.366   7.691 -1.7801 -0.5867 -0.8616
 6940SOL     OW32455   2.856   1.360   0.850 -0.4569 -0.2540 -0.2421
 6940SOL    HW132456   2.764   1.385   0.859 -0.4521  0.5704 -2.3862
 6940SOL    HW232457   2.858   1.290   0.784 -2.4837 -0.4301 -0.1335
 6941SOL     OW32458   0.597   2.080   7.229 -0.1158  0.3430 -0.1972
 6941SOL    HW132459   0.672   2.125   7.191  0.7262  1.0835  2.3381
 6941SOL    HW232460   0.616   2.066   7.322 -0.9230 -1.4782 -0.3091
 6942SOL     OW32461   2.233   3.431   9.942 -0.3246  0.4904 -0.7724
 6942SOL    HW132462   2.246   3.374  10.018 -1.4408  0.0906 -0.8787
 6942SOL    HW232463   2.160   3.387   9.897  0.6113 -0.8320 -1.0173
 6943SOL     OW32464   3.130   2.498   1.698  0.8624  0.0222 -0.3935
 6943SOL    HW132465   3.121   2.495   1.603 -1.1273  0.8465 -0.2399
 6943SOL    HW232466   3.088   2.579   1.726  2.9396  1.3095 -0.9506
 6944SOL     OW32467   1.634   0.697   7.742  0.4223 -0.1119 -0.1985
 6944SOL    HW132468   1.720   0.737   7.732  0.2278  0.1744 -0.7413
 6944SOL    HW232469   1.593   0.762   7.798 -0.7136 -1.4547  0.5344
 6945SOL     OW32470   3.433   0.870  13.711 -0.2072  0.3080 -0.3296
 6945SOL    HW132471   3.414   0.787  13.668  0.8458 -0.1940  0.1668
 6945SOL    HW232472   3.378   0.926  13.656 -1.6929 -1.8154 -1.0272
 6946SOL     OW32473   4.299   3.121  11.577 -0.4106  0.2805  0.5000
 6946SOL    HW132474   4.232   3.063  11.540 -0.0968  0.1253  0.1751
 6946SOL    HW232475   4.373   3.065  11.555 -1.6991 -0.1860 -2.7144
 6947SOL     OW32476   1.465   4.589   1.484  0.2434  0.6959 -0.0473
 6947SOL    HW132477   1.425   4.654   1.426 -1.9092 -0.6885 -0.1012
 6947SOL    HW232478   1.547   4.633   1.507  0.9147  0.0451 -1.1792
 6948SOL     OW32479   2.657   2.564   0.839  0.5445  0.4022 -0.3019
 6948SOL    HW132480   2.739   2.516   0.832  0.1252 -0.3578  0.0409
 6948SOL    HW232481   2.675   2.648   0.797 -0.7300  1.4516  1.2264
 6949SOL     OW32482   3.012   3.646  17.172  0.1073  0.1472  0.2678
 6949SOL    HW132483   2.979   3.669  17.086 -0.3624  0.5298  0.5501
 6949SOL    HW232484   2.962   3.707  17.226 -1.1798  1.1680 -2.0781
 6950SOL     OW32485   3.484   1.195   6.035  0.3382 -0.1813  0.2038
 6950SOL    HW132486   3.452   1.281   6.062 -2.4184 -0.8709 -0.8948
 6950SOL    HW232487   3.497   1.160   6.123  0.6768  0.9537  0.5974
 6951SOL     OW32488   0.274   2.328   6.411 -0.2197 -0.3097 -0.1122
 6951SOL    HW132489   0.206   2.388   6.441  1.4717  0.7250  1.6270
 6951SOL    HW232490   0.264   2.314   6.317 -2.5030  1.6269 -0.1541
 6952SOL     OW32491   2.358   2.410   8.434  0.2016  0.0138  0.1659
 6952SOL    HW132492   2.420   2.422   8.362 -1.4703  1.1892 -1.0643
 6952SOL    HW232493   2.284   2.397   8.375  0.8766  0.3867 -0.7677
 6953SOL     OW32494   1.619   2.221   8.609 -0.1440 -0.4131 -0.7939
 6953SOL    HW132495   1.559   2.260   8.546  0.1087 -0.0525 -0.8108
 6953SOL    HW232496   1.563   2.161   8.659 -0.8678  0.9862  0.0779
 6954SOL     OW32497   3.435   2.314   3.982 -0.3008 -0.2488  0.4855
 6954SOL    HW132498   3.422   2.219   3.978  1.4150 -0.4907  0.7715
 6954SOL    HW232499   3.376   2.336   4.055 -1.5208  0.2088 -0.6411
 6955SOL     OW32500   0.660   0.843   8.261  0.0248 -0.2448 -0.6269
 6955SOL    HW132501   0.567   0.863   8.267  0.0517 -0.6553  1.2414
 6955SOL    HW232502   0.667   0.748   8.252  0.3682 -0.1915 -0.9209
 6956SOL     OW32503   3.103   2.194   3.818 -0.3770  0.1320  0.2747
 6956SOL    HW132504   3.043   2.124   3.793  1.0285 -1.2031  0.6259
 6956SOL    HW232505   3.044   2.247   3.871  1.2629  0.9531  1.2653
 6957SOL     OW32506   0.923   0.307   8.464  0.2083  0.2431 -0.1032
 6957SOL    HW132507   0.962   0.260   8.390 -0.3707 -2.0332  1.0321
 6957SOL    HW232508   1.005   0.347   8.494  0.1837  0.3280 -0.1488
 6958SOL     OW32509   2.823   4.376   7.365  0.8277  0.4816 -0.2028
 6958SOL    HW132510   2.744   4.375   7.310  0.2331 -1.4346  0.6942
 6958SOL    HW232511   2.874   4.310   7.317 -1.5845 -2.0813  0.7485
 6959SOL     OW32512   3.447   3.761   5.782  0.0108  0.3894 -0.5536
 6959SOL    HW132513   3.473   3.802   5.865  1.9725  1.7608 -1.8174
 6959SOL    HW232514   3.478   3.672   5.799  0.8047  0.5719 -1.0046
 6960SOL     OW32515   2.645   3.582  14.100  0.3933 -0.1312 -0.0660
 6960SOL    HW132516   2.568   3.583  14.156 -1.7052  0.7615 -2.9664
 6960SOL    HW232517   2.672   3.491  14.109 -2.3964 -0.8359  0.9600
 6961SOL     OW32518   1.703   4.643   7.788  0.7762  0.1412  0.0236
 6961SOL    HW132519   1.620   4.594   7.793  1.5370 -1.1973 -0.5781
 6961SOL    HW232520   1.701   4.661   7.694 -2.4268 -1.8968 -0.3188
 6962SOL     OW32521   3.608   0.739  17.168  0.1701 -0.0525  0.0482
 6962SOL    HW132522   3.666   0.669  17.140 -1.4241  0.3596 -4.1566
 6962SOL    HW232523   3.525   0.693  17.162  0.2620 -0.3626  1.0673
 6963SOL     OW32524   0.278   2.066  14.015  0.0683 -0.3880  0.4192
 6963SOL    HW132525   0.232   2.111  14.086  0.6229  1.5005 -0.4265
 6963SOL    HW232526   0.289   2.126  13.942 -0.3358  1.3045  1.7558
 6964SOL     OW32527   2.074   0.059   0.519  0.2150 -0.1427 -0.1547
 6964SOL    HW132528   2.101   0.124   0.454  0.8154  1.0467  1.3138
 6964SOL    HW232529   2.056   0.115   0.594 -1.8491 -2.4400  1.0835
 6965SOL     OW32530   0.190   0.309   3.631 -0.0033  0.1952 -0.3159
 6965SOL    HW132531   0.169   0.222   3.597 -0.0292 -0.4563  1.3678
 6965SOL    HW232532   0.189   0.352   3.546  1.4833  0.3352 -0.2534
 6966SOL     OW32533   0.153   0.317   8.559 -0.1770 -0.2140  0.0767
 6966SOL    HW132534   0.239   0.296   8.596 -0.2147  1.3121  1.0244
 6966SOL    HW232535   0.147   0.411   8.578  0.9628 -0.5159  1.9538
 6967SOL     OW32536   3.069   0.160   9.381 -0.1284  0.3113 -0.2811
 6967SOL    HW132537   3.084   0.244   9.424 -2.6061 -0.1826  1.5730
 6967SOL    HW232538   2.988   0.125   9.420 -0.0966 -1.5508 -1.8828
 6968SOL     OW32539   0.535   4.383   5.662 -0.2615 -0.1528  0.3639
 6968SOL    HW132540   0.612   4.328   5.675  1.5484  2.2582 -0.1158
 6968SOL    HW232541   0.576   4.468   5.674 -0.9708  0.0605  1.3077
 6969SOL     OW32542   1.631   2.245   6.745 -0.9502  0.0126  0.6520
 6969SOL    HW132543   1.628   2.237   6.840 -2.8753 -2.6901  0.3643
 6969SOL    HW232544   1.617   2.338   6.726 -1.0020  0.1507  1.3589
 6970SOL     OW32545   0.357   1.479   3.133  0.5844  0.3535 -0.0290
 6970SOL    HW132546   0.302   1.557   3.144  0.6068  0.1667  1.4080
 6970SOL    HW232547   0.296   1.414   3.099 -0.8055  0.8410  1.5251
 6971SOL     OW32548   4.202   0.475  14.402 -0.0665  0.3989 -0.6480
 6971SOL    HW132549   4.222   0.391  14.442  0.6400  1.2747  0.8601
 6971SOL    HW232550   4.153   0.517  14.474 -0.1847 -0.9315  0.0426
 6972SOL     OW32551   4.653   2.469   4.509  0.8303  0.7109  0.1516
 6972SOL    HW132552   4.675   2.413   4.584  0.1564 -0.3600 -0.4508
 6972SOL    HW232553   4.650   2.558   4.543  0.1917  1.2483 -1.3232
 6973SOL     OW32554   3.705   0.011   4.588  1.0269  0.5333 -0.0054
 6973SOL    HW132555   3.766   4.712   4.653 -0.8131  0.9858  1.9839
 6973SOL    HW232556   3.768   0.036   4.521  3.6733  0.1004  2.2910
 6974SOL     OW32557   3.459   2.344   2.877 -0.0311 -0.2244  0.3154
 6974SOL    HW132558   3.454   2.295   2.959  0.1622 -0.3433  0.2549
 6974SOL    HW232559   3.387   2.407   2.881 -1.4506 -1.8342  0.4156
 6975SOL     OW32560   1.549   0.858  15.304  0.0009  0.3211 -0.2807
 6975SOL    HW132561   1.489   0.879  15.375 -1.6036  0.4475 -1.6579
 6975SOL    HW232562   1.581   0.772  15.330 -1.7379  0.0318  0.9436
 6976SOL     OW32563   4.391   3.447   8.325 -0.1627 -0.2043 -0.0818
 6976SOL    HW132564   4.363   3.431   8.235  1.1572 -1.1665 -0.3127
 6976SOL    HW232565   4.418   3.357   8.341 -0.0079 -0.4550 -1.7509
 6977SOL     OW32566   3.940   4.149   7.143 -0.1093 -0.2805  0.0527
 6977SOL    HW132567   3.953   4.192   7.059  0.9594  0.5174  0.6232
 6977SOL    HW232568   3.946   4.059   7.110  1.5982 -0.1022 -0.1671
 6978SOL     OW32569   1.990   2.380   5.162 -0.3347 -0.0694  0.2212
 6978SOL    HW132570   1.999   2.326   5.084  2.0569 -0.1939  0.6057
 6978SOL    HW232571   1.950   2.319   5.224  1.2318 -1.4237 -0.1183
 6979SOL     OW32572   4.388   4.246   1.937 -0.1465 -0.2032  0.1556
 6979SOL    HW132573   4.301   4.241   1.977 -0.9981 -1.3854 -1.8006
 6979SOL    HW232574   4.441   4.239   2.016 -0.1743 -3.8336 -0.1613
 6980SOL     OW32575   3.883   1.251   5.238 -0.1029  0.2566  0.2500
 6980SOL    HW132576   3.959   1.242   5.181  0.5820  1.4453  0.9835
 6980SOL    HW232577   3.886   1.172   5.293  1.4114 -0.3020 -0.6275
 6981SOL     OW32578   2.224   3.904   7.036  0.5313 -0.0219  0.1249
 6981SOL    HW132579   2.240   3.883   7.128  0.5340 -0.4618  0.0260
 6981SOL    HW232580   2.313   3.893   7.002  0.3810 -0.5430 -0.1109
 6982SOL     OW32581   1.940   0.272   8.774 -0.1374  0.5008 -0.3789
 6982SOL    HW132582   1.859   0.304   8.813  0.5852  1.6093  0.1890
 6982SOL    HW232583   1.935   0.318   8.690  0.3690  1.0031 -0.1289
 6983SOL     OW32584   1.405   2.020   6.571  0.5173 -0.5177 -0.2106
 6983SOL    HW132585   1.406   1.980   6.658 -1.1724  1.6773  0.7986
 6983SOL    HW232586   1.388   2.113   6.586 -2.6561 -0.8939 -1.6251
 6984SOL     OW32587   2.624   3.112   3.502 -0.2392  0.6744  0.4532
 6984SOL    HW132588   2.589   3.052   3.568  0.9070  0.9912  1.3653
 6984SOL    HW232589   2.706   3.147   3.537 -0.0258 -0.9242  1.5276
 6985SOL     OW32590   0.056   3.804   5.001 -0.0293  0.2582  0.2763
 6985SOL    HW132591   0.105   3.870   4.953  0.0059  0.7430  0.9653
 6985SOL    HW232592   0.117   3.777   5.070 -0.0106 -2.0047 -0.6265
 6986SOL     OW32593   3.918   0.681   4.816  0.4176  0.5202 -0.6119
 6986SOL    HW132594   3.926   0.772   4.845  1.8861  0.0810  0.3734
 6986SOL    HW232595   3.918   0.636   4.900 -0.8754 -0.7630 -1.2894
 6987SOL     OW32596   3.556   1.850   7.852  0.0806 -0.1536  0.0103
 6987SOL    HW132597   3.517   1.869   7.938 -0.7498  0.4399 -0.4962
 6987SOL    HW232598   3.598   1.935   7.842 -1.1217  0.3493 -0.7693
 6988SOL     OW32599   2.544   2.044  14.017  0.4744 -0.0413 -0.2304
 6988SOL    HW132600   2.624   1.997  14.039  0.3817  0.2297  0.6778
 6988SOL    HW232601   2.581   2.114  13.964 -1.8952 -0.0598 -1.9103
 6989SOL     OW32602   1.003   0.311   1.185  0.4126 -0.4572 -0.0542
 6989SOL    HW132603   1.067   0.349   1.245 -1.0815 -1.8248  2.4352
 6989SOL    HW232604   0.985   0.226   1.224 -0.3444  0.0154  0.6240
 6990SOL     OW32605   1.005   1.396   8.582 -0.4699  0.0747 -0.0079
 6990SOL    HW132606   1.056   1.425   8.506  0.5761  1.5081  1.2649
 6990SOL    HW232607   0.998   1.301   8.565 -0.9274  0.0702  0.1911
 6991SOL     OW32608   4.691   1.474  12.379 -0.3002  0.0149 -0.0295
 6991SOL    HW132609   0.046   1.501  12.394 -0.1906 -0.7182  0.6919
 6991SOL    HW232610   4.661   1.484  12.469  1.5705  1.1169  0.4755
 6992SOL     OW32611   0.092   2.986   3.103 -0.0200  0.1103 -0.1746
 6992SOL    HW132612   0.047   2.923   3.047  1.0796 -0.5638 -0.2964
 6992SOL    HW232613   0.155   2.930   3.148  0.3449  0.3629 -0.3767
 6993SOL     OW32614   2.180   2.462   2.879  0.5327 -0.5520 -0.4042
 6993SOL    HW132615   2.203   2.527   2.946 -0.5499 -0.5655 -0.0267
 6993SOL    HW232616   2.139   2.398   2.938 -3.4480  3.1703  0.9007
 6994SOL     OW32617   2.926   3.792   1.956 -0.7090 -0.3261  0.3603
 6994SOL    HW132618   2.853   3.742   1.994 -0.2387 -2.4480 -1.5959
 6994SOL    HW232619   2.920   3.778   1.862  1.2813  1.1753  0.0169
 6995SOL     OW32620   4.320   1.330  15.740  0.0236 -0.0048  0.3741
 6995SOL    HW132621   4.317   1.237  15.716  2.4098  0.2439 -0.9370
 6995SOL    HW232622   4.280   1.379  15.669 -1.4775 -3.5588 -1.1928
 6996SOL     OW32623   0.679   1.437   8.003 -0.5107 -0.4689  0.5510
 6996SOL    HW132624   0.706   1.396   7.921 -1.1440 -1.3784  0.7926
 6996SOL    HW232625   0.712   1.377   8.069  0.2408 -0.1891  0.4204
 6997SOL     OW32626   2.894   1.850  10.130 -0.1536  0.5695 -0.1295
 6997SOL    HW132627   2.845   1.931  10.141  1.8471  1.8485 -0.6542
 6997SOL    HW232628   2.859   1.817  10.047  1.5654 -1.5540 -0.0228
 6998SOL     OW32629   0.526   3.693  15.358 -0.2533  0.2812  0.7729
 6998SOL    HW132630   0.451   3.710  15.300  1.1503  1.7479 -0.6186
 6998SOL    HW232631   0.483   3.681  15.442 -0.4063 -0.8974  0.5318
 6999SOL     OW32632   3.605   2.083  14.612  0.6679  0.1876  0.7476
 6999SOL    HW132633   3.617   1.993  14.642  3.2175  0.8129  1.6065
 6999SOL    HW232634   3.538   2.059  14.549 -0.1017  0.0074  1.6287
 7000SOL     OW32635   2.681   1.254  17.192 -0.3391 -0.1940 -0.1678
 7000SOL    HW132636   2.709   1.168  17.164  1.1386 -0.3446  1.7256
 7000SOL    HW232637   2.586   1.243  17.182 -0.4308  2.6601 -2.6210
 7001SOL     OW32638   1.813   1.279  17.201 -0.0235  0.2011 -0.4963
 7001SOL    HW132639   1.718   1.293  17.202  0.3293  2.7644 -2.2389
 7001SOL    HW232640   1.837   1.372  17.203 -0.0029  0.1613  1.6464
 7002SOL     OW32641   3.159   0.646   5.436 -0.1466  0.1374  0.2081
 7002SOL    HW132642   3.215   0.651   5.359 -1.6140 -0.0881 -0.8533
 7002SOL    HW232643   3.226   0.656   5.504  2.2769  2.1238 -2.4634
 7003SOL     OW32644   1.002   2.041   7.936 -0.1996  0.0202 -0.4582
 7003SOL    HW132645   0.953   2.123   7.933  0.5019  0.3996 -1.2768
 7003SOL    HW232646   1.082   2.075   7.977  0.5770  0.2334 -2.1739
 7004SOL     OW32647   2.733   2.150   1.430  0.2204 -0.3450 -0.4075
 7004SOL    HW132648   2.643   2.181   1.437 -0.6277 -2.6351 -1.1114
 7004SOL    HW232649   2.742   2.151   1.334  1.1237 -1.7307 -0.3313
 7005SOL     OW32650   1.222   2.299  13.328  0.4037  0.3534  0.0291
 7005SOL    HW132651   1.311   2.276  13.304  0.3192 -0.0700  0.1199
 7005SOL    HW232652   1.215   2.391  13.301 -1.5917  0.2169  0.0710
 7006SOL     OW32653   2.212   0.986   9.205 -0.0921  0.5960  0.0107
 7006SOL    HW132654   2.149   1.028   9.264  0.4013 -1.5299  2.0482
 7006SOL    HW232655   2.183   0.895   9.208  0.2156  0.4824 -0.4589
 7007SOL     OW32656   0.106   3.863   7.418 -0.0801 -0.1733 -1.0111
 7007SOL    HW132657   0.091   3.808   7.341 -2.1792 -0.7316 -0.2189
 7007SOL    HW232658   0.193   3.897   7.396  0.9136 -1.2138  1.3641
 7008SOL     OW32659   1.396   4.098   1.387 -0.2288  0.4277 -0.2194
 7008SOL    HW132660   1.368   4.007   1.394  2.9072 -0.3526  2.0815
 7008SOL    HW232661   1.405   4.106   1.482 -0.5338  0.8950 -0.2293
 7009SOL     OW32662   3.819   4.311   4.871  0.0225  0.0192 -0.2314
 7009SOL    HW132663   3.728   4.307   4.900 -0.1942  0.0750 -0.9276
 7009SOL    HW232664   3.844   4.403   4.885  0.4793  0.1185 -1.7637
 7010SOL     OW32665   3.951   4.695   6.257  0.0237 -0.3529  0.2952
 7010SOL    HW132666   4.041   4.683   6.227  0.5317 -3.3704  3.0435
 7010SOL    HW232667   3.897   4.626   6.220 -1.6362  1.1391 -0.0553
 7011SOL     OW32668   4.305   3.328   8.866 -0.0014 -0.3340  0.4018
 7011SOL    HW132669   4.345   3.288   8.789  1.3098  0.1962  0.8031
 7011SOL    HW232670   4.217   3.291   8.871  0.0792 -0.6244 -0.4011
 7012SOL     OW32671   4.003   3.709   1.480 -0.4780  0.3451 -0.2348
 7012SOL    HW132672   3.942   3.713   1.554  1.3454 -2.0041  1.3880
 7012SOL    HW232673   3.985   3.621   1.449 -0.8151  0.2337  0.2911
 7013SOL     OW32674   1.714   1.629   4.111 -0.1349 -0.1566  0.4711
 7013SOL    HW132675   1.628   1.623   4.068 -0.7815  0.9604  1.6300
 7013SOL    HW232676   1.728   1.721   4.133 -1.5519  0.6121 -1.7940
 7014SOL     OW32677   0.034   0.425   6.103  0.4411  0.2893 -0.6848
 7014SOL    HW132678   4.695   0.379   6.138 -0.2869  0.2687 -2.2748
 7014SOL    HW232679   0.105   0.361   6.112 -0.1571  0.0166  2.2536
 7015SOL     OW32680   1.727   3.192   1.089 -0.2040  0.8356  0.4260
 7015SOL    HW132681   1.676   3.201   1.009  2.3208  1.8663 -1.0525
 7015SOL    HW232682   1.655   3.186   1.153 -0.1690  1.1941  0.4996
 7016SOL     OW32683   3.116   3.921   7.358  0.6597  0.0688 -0.0148
 7016SOL    HW132684   3.135   3.963   7.274  1.9509  2.0997  1.3014
 7016SOL    HW232685   3.090   3.996   7.412  1.7945 -0.2193  0.9219
 7017SOL     OW32686   3.665   2.563   3.558  0.6188  0.2187 -0.4230
 7017SOL    HW132687   3.645   2.498   3.626  0.7581  0.2603 -0.3443
 7017SOL    HW232688   3.598   2.531   3.497  0.6619 -1.1601  0.2457
 7018SOL     OW32689   3.636   1.554   2.216  0.0672  0.3465 -0.5372
 7018SOL    HW132690   3.650   1.496   2.141  0.1514  1.4389 -1.3635
 7018SOL    HW232691   3.636   1.641   2.175 -0.2402  0.5860 -0.0210
 7019SOL     OW32692   0.042   0.729   7.026  0.4317 -0.1259 -0.5247
 7019SOL    HW132693   0.001   0.652   6.986 -1.4170 -0.0561  1.2247
 7019SOL    HW232694   0.023   0.701   7.116 -0.1290  1.9501 -0.0090
 7020SOL     OW32695   0.871   2.416   7.450  0.0820 -0.3464 -0.0184
 7020SOL    HW132696   0.874   2.385   7.540  3.0094 -2.9613 -1.0107
 7020SOL    HW232697   0.776   2.430   7.449  0.3928  1.8247  0.5120
 7021SOL     OW32698   0.210   1.904  10.139  0.7263  0.5173 -0.1792
 7021SOL    HW132699   0.155   1.840  10.094  0.5489 -0.4057  1.3686
 7021SOL    HW232700   0.148   1.948  10.197  0.9496  1.4379 -0.6210
 7022SOL     OW32701   1.604   3.050   9.690 -0.2689 -0.4237  0.4985
 7022SOL    HW132702   1.663   2.989   9.645 -0.2116  0.2979 -0.4016
 7022SOL    HW232703   1.557   3.101   9.623  1.1396 -0.6993 -0.6989
 7023SOL     OW32704   2.236   3.301   7.071  0.3233  0.9424 -0.3384
 7023SOL    HW132705   2.200   3.347   7.146 -0.6789 -0.0362 -0.2124
 7023SOL    HW232706   2.154   3.279   7.026  1.3995  1.2921 -2.4825
 7024SOL     OW32707   0.588   3.221   6.278 -0.5133 -0.1315 -0.4549
 7024SOL    HW132708   0.494   3.225   6.294 -0.4095 -0.5585  0.2649
 7024SOL    HW232709   0.606   3.312   6.299  0.0397 -0.8332  2.1651
 7025SOL     OW32710   2.291   2.012   3.071 -0.0281  0.1132 -0.2028
 7025SOL    HW132711   2.256   1.975   3.151  0.6845 -2.4080 -1.0719
 7025SOL    HW232712   2.247   1.963   3.002  0.4831  0.4673 -0.7826
 7026SOL     OW32713   3.329   3.833  13.297  0.1264  0.6151  0.5575
 7026SOL    HW132714   3.412   3.878  13.306 -0.0058  0.7886  0.9021
 7026SOL    HW232715   3.288   3.867  13.377 -0.1835  2.2953 -0.3319
 7027SOL     OW32716   1.103   3.360   5.829 -0.4999  0.1691  0.7002
 7027SOL    HW132717   1.101   3.267   5.806  0.3087 -0.3369  2.7152
 7027SOL    HW232718   1.106   3.405   5.744 -2.8162 -1.1185 -0.0882
 7028SOL     OW32719   4.219   1.534  10.686 -0.3348  0.2674  0.0496
 7028SOL    HW132720   4.136   1.491  10.710 -0.4532  0.2848 -0.3151
 7028SOL    HW232721   4.251   1.563  10.771 -1.2188  0.0243  0.4735
 7029SOL     OW32722   2.522   2.897   1.723 -0.1443  0.5143 -0.2387
 7029SOL    HW132723   2.489   2.842   1.653  2.1137 -0.8065 -0.2690
 7029SOL    HW232724   2.477   2.863   1.800  1.4924 -0.5045  0.2655
 7030SOL     OW32725   2.606   2.084  16.773 -0.1861 -0.3683 -0.6481
 7030SOL    HW132726   2.570   2.016  16.715 -0.5408  0.3310 -1.2454
 7030SOL    HW232727   2.531   2.108  16.827 -0.7594 -1.1343 -1.0968
 7031SOL     OW32728   1.465   3.335   5.728 -0.0645  0.1644 -0.3675
 7031SOL    HW132729   1.470   3.396   5.654  1.0857  1.3232  0.6494
 7031SOL    HW232730   1.517   3.389   5.788 -1.1969 -0.6012  1.3035
 7032SOL     OW32731   2.034   2.057   8.821  0.2061 -0.3137 -0.0160
 7032SOL    HW132732   1.956   2.019   8.781  0.7547 -0.5576 -0.8637
 7032SOL    HW232733   2.014   2.149   8.839  1.4569 -0.1370  0.4899
 7033SOL     OW32734   0.198   1.813   7.170 -0.1276  1.1881  0.1774
 7033SOL    HW132735   0.280   1.856   7.194  0.4478  0.3821 -0.3250
 7033SOL    HW232736   0.167   1.865   7.096 -1.5158 -0.9080 -0.7053
 7034SOL     OW32737   3.460   2.250   4.538 -0.1870 -0.5925  0.2580
 7034SOL    HW132738   3.376   2.229   4.498 -0.6347  2.7174 -0.5207
 7034SOL    HW232739   3.436   2.326   4.590 -1.9100 -0.5972 -0.5386
 7035SOL     OW32740   3.126   0.899   1.421  0.1337 -0.0513  0.1896
 7035SOL    HW132741   3.188   0.958   1.377 -1.1690  1.3581  0.2530
 7035SOL    HW232742   3.173   0.816   1.436  2.1566  1.0716  0.1474
 7036SOL     OW32743   1.839   1.453   5.715 -0.1207 -0.1411 -0.2857
 7036SOL    HW132744   1.928   1.481   5.735 -0.6121 -0.2521  2.0416
 7036SOL    HW232745   1.854   1.358   5.713 -1.3662 -0.3799  1.4955
 7037SOL     OW32746   0.570   2.161   2.501 -0.3546 -0.3240  0.1236
 7037SOL    HW132747   0.514   2.238   2.494 -1.4048 -0.9778  1.2243
 7037SOL    HW232748   0.555   2.121   2.416 -0.0803  0.0969 -0.1194
 7038SOL     OW32749   1.318   1.755   5.244  0.0791 -0.6697  0.4464
 7038SOL    HW132750   1.237   1.767   5.294 -0.2907  2.0871 -0.8319
 7038SOL    HW232751   1.274   1.747   5.160 -1.4225 -1.1901  1.2771
 7039SOL     OW32752   0.394   0.003   3.304 -0.4697 -0.5135  0.0148
 7039SOL    HW132753   0.480   0.045   3.314 -0.0446 -1.7676  1.6975
 7039SOL    HW232754   0.383   4.717   3.396 -0.8009 -0.2997  0.0240
 7040SOL     OW32755   3.491   1.316   2.679  0.3454  0.0473 -0.2914
 7040SOL    HW132756   3.451   1.365   2.750  1.4960 -0.9007  1.0193
 7040SOL    HW232757   3.481   1.368   2.599 -1.2120  0.7238  0.3467
 7041SOL     OW32758   4.081   3.718   5.701 -0.0376 -0.3790 -0.7354
 7041SOL    HW132759   4.163   3.672   5.684  0.5667 -0.2351  1.7918
 7041SOL    HW232760   4.046   3.716   5.611 -0.4229  3.1331 -0.6925
 7042SOL     OW32761   1.788   4.268   7.771  0.2627 -0.2746  0.0732
 7042SOL    HW132762   1.802   4.328   7.697 -0.3414 -2.5429 -1.8779
 7042SOL    HW232763   1.808   4.182   7.735  0.9956 -0.4102  0.8100
 7043SOL     OW32764   3.921   0.418   7.247 -0.4110 -0.1342  0.3158
 7043SOL    HW132765   3.939   0.363   7.170  1.2058  0.0323  0.5831
 7043SOL    HW232766   3.860   0.364   7.298 -1.2243 -1.6964 -2.2735
 7044SOL     OW32767   4.508   1.245   3.464 -0.1491  0.1574 -0.1460
 7044SOL    HW132768   4.597   1.279   3.469 -0.2495  0.2543  0.8740
 7044SOL    HW232769   4.486   1.269   3.373 -0.7570 -1.9347 -0.5355
 7045SOL     OW32770   1.022   3.752   7.979  0.1254  0.3677 -0.0264
 7045SOL    HW132771   1.080   3.687   7.940  1.1081  1.3869 -0.2422
 7045SOL    HW232772   0.946   3.739   7.922 -0.1758 -0.6754  0.6049
 7046SOL     OW32773   4.571   1.252   9.184 -0.0019 -0.3575 -0.0303
 7046SOL    HW132774   4.618   1.252   9.100  0.6956 -1.3894  0.3691
 7046SOL    HW232775   4.512   1.177   9.186  1.8581 -1.7110  3.2774
 7047SOL     OW32776   1.803   4.070   5.328  0.6424 -0.0721  0.0890
 7047SOL    HW132777   1.772   3.994   5.378  0.5089 -1.0961 -1.5324
 7047SOL    HW232778   1.851   4.028   5.256 -1.6282 -0.2093 -1.3511
 7048SOL     OW32779   0.403   2.007   1.188 -0.2009  0.1644  0.1048
 7048SOL    HW132780   0.495   1.983   1.197 -0.1353  0.4797  0.2367
 7048SOL    HW232781   0.353   1.948   1.245 -1.0514 -0.8650 -1.6795
 7049SOL     OW32782   1.670   1.886   8.445 -0.1479  0.1427 -0.8530
 7049SOL    HW132783   1.666   1.802   8.400 -0.6597 -1.3269  1.8957
 7049SOL    HW232784   1.647   1.955   8.383 -1.7729  0.3818  0.0226
 7050SOL     OW32785   3.224   1.072   7.377  0.0675  0.4914 -0.4581
 7050SOL    HW132786   3.210   1.016   7.453  0.5225  0.9085 -0.0661
 7050SOL    HW232787   3.290   1.129   7.416 -0.2681 -0.9575  2.1849
 7051SOL     OW32788   2.199   2.088   2.014  0.3440 -0.4307  0.2466
 7051SOL    HW132789   2.240   2.166   2.052  1.8273 -1.7058  1.2125
 7051SOL    HW232790   2.275   2.052   1.970 -0.1764  0.4207 -1.3470
 7052SOL     OW32791   3.192   1.276  15.258  0.1356 -0.3986  0.2135
 7052SOL    HW132792   3.125   1.222  15.299  1.0494 -1.1113  0.7651
 7052SOL    HW232793   3.265   1.241  15.310  0.5347  0.0932 -0.0172
 7053SOL     OW32794   0.843   3.831   3.967 -0.1338 -0.8047  0.5414
 7053SOL    HW132795   0.933   3.858   3.987  0.4981 -3.7913  1.7195
 7053SOL    HW232796   0.801   3.844   4.052 -0.8189  0.2637  0.0375
 7054SOL     OW32797   1.460   2.944   7.086 -0.4522 -0.8731 -0.1679
 7054SOL    HW132798   1.410   2.962   7.007 -2.8216 -1.6266  1.1671
 7054SOL    HW232799   1.490   3.032   7.109  0.8414 -0.8465 -2.0318
 7055SOL     OW32800   2.890   0.996  10.873  0.5649  0.2598 -0.3566
 7055SOL    HW132801   2.926   0.926  10.819  0.3283  1.2816 -1.8425
 7055SOL    HW232802   2.829   0.951  10.931  1.1524 -1.0436 -0.7454
 7056SOL     OW32803   2.117   1.376  11.075 -0.1200  0.0006  0.0060
 7056SOL    HW132804   2.208   1.397  11.094 -0.8880  1.7356  1.7179
 7056SOL    HW232805   2.090   1.393  11.165 -1.1123 -0.9152 -0.1112
 7057SOL     OW32806   2.322   3.587   8.513  0.0308 -0.0229  0.2108
 7057SOL    HW132807   2.284   3.658   8.461  0.5380  0.2666  0.2357
 7057SOL    HW232808   2.382   3.557   8.444 -0.0797 -2.0126  0.9746
 7058SOL     OW32809   3.734   3.295   3.095  0.0697 -0.0384 -0.1103
 7058SOL    HW132810   3.779   3.359   3.150 -0.9943  1.8280 -1.4076
 7058SOL    HW232811   3.805   3.230   3.095 -1.3793 -1.6112 -0.1633
 7059SOL     OW32812   1.086   4.336   4.046  0.3533  0.0088 -0.0587
 7059SOL    HW132813   1.054   4.250   4.074  1.1457  0.1237  1.2055
 7059SOL    HW232814   1.174   4.315   4.014  0.6928  1.2970  0.0478
 7060SOL     OW32815   0.465   4.649   8.512  0.5322  0.6333  0.1868
 7060SOL    HW132816   0.387   4.664   8.566 -0.3837 -0.9372 -0.7112
 7060SOL    HW232817   0.429   4.660   8.424  0.2510  0.2865  0.2569
 7061SOL     OW32818   3.826   3.902   8.111 -0.1417 -0.0707  0.2175
 7061SOL    HW132819   3.867   3.817   8.095 -1.9917 -1.3331  2.0423
 7061SOL    HW232820   3.828   3.942   8.024 -2.3467  0.9379  0.6291
 7062SOL     OW32821   3.701   4.327   2.962 -0.1572 -0.8098  0.2505
 7062SOL    HW132822   3.762   4.261   2.994 -0.3732 -0.2823  1.7187
 7062SOL    HW232823   3.617   4.301   3.001  0.2715  2.4001  3.1935
 7063SOL     OW32824   1.894   0.741  16.874  0.0583 -0.4899 -0.8432
 7063SOL    HW132825   1.810   0.783  16.857 -1.7337 -3.3538  0.9452
 7063SOL    HW232826   1.868   0.650  16.887 -1.1697  0.2018  1.7073
 7064SOL     OW32827   1.946   1.903   2.282  0.4215  0.6216  0.1651
 7064SOL    HW132828   1.932   1.976   2.222  1.3503  0.4907 -0.2206
 7064SOL    HW232829   1.866   1.909   2.334  0.0942  1.2871 -0.4224
 7065SOL     OW32830   3.610   1.066   9.426  0.7530 -0.2812  0.5784
 7065SOL    HW132831   3.624   1.014   9.347  0.4145  0.9086 -0.2535
 7065SOL    HW232832   3.643   1.154   9.406 -1.8927 -0.6065 -5.2185
 7066SOL     OW32833   2.613   0.925   5.769 -0.1093 -0.1278  1.1251
 7066SOL    HW132834   2.610   1.021   5.768  2.8791 -0.0420 -0.7734
 7066SOL    HW232835   2.684   0.914   5.706  0.3936 -0.3941  1.7336
 7067SOL     OW32836   0.308   2.232   3.546 -0.0792 -0.2350  0.6817
 7067SOL    HW132837   0.355   2.169   3.602 -1.1150 -0.1300  1.6713
 7067SOL    HW232838   0.324   2.192   3.461 -2.1497  1.2216 -0.3913
 7068SOL     OW32839   3.067   4.191   4.265 -0.1452 -0.0233  0.2894
 7068SOL    HW132840   3.079   4.280   4.300  1.3420 -0.3181  0.5243
 7068SOL    HW232841   3.008   4.213   4.193  0.2820  1.6708  0.4468
 7069SOL     OW32842   0.107   0.354   1.846 -0.0598  0.6199 -0.5408
 7069SOL    HW132843   0.139   0.324   1.930  1.6874  1.5659 -0.8700
 7069SOL    HW232844   0.032   0.295   1.835  0.8760 -0.9015  1.3204
 7070SOL     OW32845   2.765   3.406  15.599  0.6824  0.0078  0.3868
 7070SOL    HW132846   2.798   3.495  15.589  2.4504 -0.6232  0.5080
 7070SOL    HW232847   2.755   3.401  15.694 -0.1204 -1.3842  0.2319
 7071SOL     OW32848   1.719   4.641  16.085  0.1678  0.2318  0.3136
 7071SOL    HW132849   1.659   4.681  16.149 -2.6989  2.1900 -3.5890
 7071SOL    HW232850   1.764   4.716  16.046  1.1043 -1.4814 -1.9064
 7072SOL     OW32851   4.257   1.862  14.181  0.2086  0.4915  0.1827
 7072SOL    HW132852   4.201   1.928  14.140 -0.9279  0.6212  1.9471
 7072SOL    HW232853   4.258   1.890  14.273 -2.0711  0.1194  0.3225
 7073SOL     OW32854   2.388   0.419   2.582 -0.0129 -0.0934 -0.7291
 7073SOL    HW132855   2.363   0.327   2.590  3.1541 -0.7176  2.3556
 7073SOL    HW232856   2.347   0.450   2.501  1.3399  0.5461 -1.1617
 7074SOL     OW32857   3.767   4.138  11.134  0.7565 -0.1910 -0.2824
 7074SOL    HW132858   3.697   4.119  11.071  1.8096 -0.9064 -1.2219
 7074SOL    HW232859   3.817   4.058  11.123  0.6308 -0.3035 -0.0188
 7075SOL     OW32860   1.239   4.417   8.061 -1.2325 -0.5774  0.3659
 7075SOL    HW132861   1.253   4.378   8.147 -0.8315 -1.8568 -0.2843
 7075SOL    HW232862   1.246   4.337   8.010  0.3131  1.1712 -2.2010
 7076SOL     OW32863   0.725   4.195   1.064  0.1527 -0.3932  0.3662
 7076SOL    HW132864   0.810   4.176   1.103  0.3510  1.3432  0.7751
 7076SOL    HW232865   0.756   4.242   0.987 -0.2680 -0.4291  0.1708
 7077SOL     OW32866   2.833   3.584  16.747  0.2126 -0.2187 -0.3992
 7077SOL    HW132867   2.829   3.489  16.738 -0.7398 -0.0592 -1.7678
 7077SOL    HW232868   2.905   3.600  16.686  0.1830 -0.1017 -0.4045
 7078SOL     OW32869   1.709   2.692   8.966 -0.2183 -0.0806  0.4622
 7078SOL    HW132870   1.690   2.681   8.873  1.7601 -3.4965  0.4776
 7078SOL    HW232871   1.786   2.748   8.956 -0.8033  0.7392  0.4692
 7079SOL     OW32872   3.091   0.390   7.724  0.0989 -0.1384  0.7141
 7079SOL    HW132873   3.055   0.388   7.812 -0.8916 -0.0150  0.3087
 7079SOL    HW232874   3.041   0.323   7.677 -0.8941 -0.1582  1.8191
 7080SOL     OW32875   2.021   1.417   6.295  0.3385  0.3850 -0.1694
 7080SOL    HW132876   2.097   1.461   6.334  0.6869 -0.3529 -0.0131
 7080SOL    HW232877   2.068   1.343   6.256  0.6413  0.3632  0.2284
 7081SOL     OW32878   0.329   0.902   4.559 -0.1673 -0.4123 -0.5577
 7081SOL    HW132879   0.348   0.893   4.652 -0.8776  0.0203 -0.3675
 7081SOL    HW232880   0.389   0.840   4.519  0.5383 -1.3999  2.0539
 7082SOL     OW32881   2.454   2.167   6.712  0.3622  0.6063 -0.4058
 7082SOL    HW132882   2.418   2.149   6.799  0.8954  0.8683 -0.1279
 7082SOL    HW232883   2.393   2.121   6.655  2.3459 -2.0164 -0.4187
 7083SOL     OW32884   4.057   1.676   2.153 -0.0477  0.2416  0.1614
 7083SOL    HW132885   4.107   1.645   2.228 -2.4889 -3.1768  0.3738
 7083SOL    HW232886   4.020   1.756   2.190  1.8936  1.7016 -1.0073
 7084SOL     OW32887   1.932   1.232   2.016  0.2076  0.0585  0.0334
 7084SOL    HW132888   2.020   1.269   2.006 -0.2090  1.9613  3.5051
 7084SOL    HW232889   1.914   1.194   1.930 -1.5722 -1.2038  0.9544
 7085SOL     OW32890   1.239   1.614   4.462  0.2091 -0.1943 -0.8110
 7085SOL    HW132891   1.256   1.703   4.494  0.8756  0.0437 -1.8479
 7085SOL    HW232892   1.151   1.593   4.493  1.7712 -2.8211  1.8075
 7086SOL     OW32893   4.325   1.310  12.732  0.1922 -0.1197  0.2439
 7086SOL    HW132894   4.378   1.269  12.663 -0.2519  2.1279 -1.4357
 7086SOL    HW232895   4.380   1.301  12.809  1.0040 -2.5515 -0.6022
 7087SOL     OW32896   3.453   0.720  11.002 -0.4320  0.4993 -0.0620
 7087SOL    HW132897   3.389   0.760  10.944 -0.6511  1.4797  0.8477
 7087SOL    HW232898   3.386   0.691  11.064 -0.9876  0.1462 -0.8291
 7088SOL     OW32899   1.088   3.157  12.422  0.1739  0.4870  0.2995
 7088SOL    HW132900   1.116   3.224  12.484 -1.9654 -0.3068  2.1189
 7088SOL    HW232901   1.162   3.143  12.362  0.5771  1.3075  0.6097
 7089SOL     OW32902   4.625   0.526   6.960 -0.0860  0.4242 -0.5537
 7089SOL    HW132903   4.625   0.454   6.897 -2.5057  0.1573 -0.2471
 7089SOL    HW232904   4.532   0.548   6.971 -0.5297 -0.7987 -1.8577
 7090SOL     OW32905   0.955   3.226   2.046 -1.0080 -0.1530  0.1738
 7090SOL    HW132906   0.993   3.159   1.990  0.3675  0.6021  0.2070
 7090SOL    HW232907   0.995   3.308   2.016  0.4558 -0.9475 -0.0077
 7091SOL     OW32908   3.447   4.502  16.224 -0.1391 -0.0024 -0.1690
 7091SOL    HW132909   3.452   4.468  16.134  0.5015  1.0335 -0.5240
 7091SOL    HW232910   3.506   4.577  16.213 -0.9107  0.2518 -2.5344
 7092SOL     OW32911   3.960   3.443   5.374 -0.0095  0.2160 -0.0885
 7092SOL    HW132912   3.877   3.482   5.347  0.0201 -0.1161 -0.6558
 7092SOL    HW232913   4.028   3.503   5.342 -1.3975  1.4653 -0.7185
 7093SOL     OW32914   2.148   4.185   7.404 -0.4073 -0.4577  0.1130
 7093SOL    HW132915   2.159   4.205   7.497 -0.7036  1.2086 -0.2080
 7093SOL    HW232916   2.084   4.114   7.413  1.1648 -1.9524 -0.4758
 7094SOL     OW32917   2.344   4.076   6.796  0.1529  0.1034 -0.0124
 7094SOL    HW132918   2.301   4.140   6.853 -3.2974 -1.9382 -0.3111
 7094SOL    HW232919   2.429   4.117   6.812 -0.1495  1.3536 -1.6168
 7095SOL     OW32920   1.337   4.430   4.606 -0.2853  0.2451  0.0184
 7095SOL    HW132921   1.293   4.390   4.532 -0.3396  1.1546 -0.4416
 7095SOL    HW232922   1.306   4.521   4.605  0.7796  0.6065 -0.3104
 7096SOL     OW32923   0.231   1.631   1.818 -0.1920  0.0725 -0.2267
 7096SOL    HW132924   0.256   1.686   1.892  0.6472 -1.1383  0.3975
 7096SOL    HW232925   0.146   1.592   1.839 -0.9331  2.0123  0.3537
 7097SOL     OW32926   2.936   4.141  14.487 -0.5794 -0.4393 -0.2713
 7097SOL    HW132927   2.910   4.126  14.578  0.6857 -2.1695 -0.2101
 7097SOL    HW232928   3.021   4.097  14.494 -0.2415  0.0780 -1.1270
 7098SOL     OW32929   4.615   3.107   6.327 -0.1819 -0.3573 -0.1885
 7098SOL    HW132930   4.582   3.030   6.280 -0.6901 -1.2810  1.6693
 7098SOL    HW232931   4.567   3.172   6.276  0.5445 -0.3309 -0.8298
 7099SOL     OW32932   0.671   3.087   6.561  0.4241 -0.4577  0.0688
 7099SOL    HW132933   0.622   3.155   6.516  1.4982  0.8199  0.8618
 7099SOL    HW232934   0.601   3.030   6.595  0.1083  0.6339  1.2356
 7100SOL     OW32935   0.318   4.098   7.774 -0.1136  0.2350  0.0193
 7100SOL    HW132936   0.405   4.075   7.743 -0.8320 -0.0633 -1.7538
 7100SOL    HW232937   0.324   4.079   7.868  2.4632  0.0064 -0.1962
 7101SOL     OW32938   1.573   0.848  16.204 -0.6580  0.3897 -0.3885
 7101SOL    HW132939   1.502   0.912  16.206 -2.0200 -1.0572 -1.4308
 7101SOL    HW232940   1.587   0.858  16.110  0.0228  1.2340 -0.1928
 7102SOL     OW32941   0.109   0.097   4.521 -0.6509  0.3122  1.0829
 7102SOL    HW132942   0.156   0.045   4.586  1.8639 -0.7796 -1.5955
 7102SOL    HW232943   0.032   0.039   4.522 -1.0518  0.8206 -0.1371
 7103SOL     OW32944   0.565   1.244   2.039  0.3411  0.3995  0.0001
 7103SOL    HW132945   0.528   1.197   2.114 -0.9959 -1.4328 -1.8006
 7103SOL    HW232946   0.489   1.268   1.987  0.2992 -1.5413 -0.8321
 7104SOL     OW32947   0.637   1.556   7.410  0.0867 -0.1030  0.1886
 7104SOL    HW132948   0.632   1.607   7.329  1.8060  0.9756  0.7480
 7104SOL    HW232949   0.546   1.559   7.439 -0.4500  1.9812 -1.7084
 7105SOL     OW32950   1.634   4.663   7.501 -0.0232  0.4890 -0.3629
 7105SOL    HW132951   1.564   4.640   7.440  1.5838  2.8335 -3.0686
 7105SOL    HW232952   1.675   4.731   7.449  0.1199 -0.4016 -1.4113
 7106SOL     OW32953   2.058   4.184  11.070 -0.4324  0.3238  1.0414
 7106SOL    HW132954   2.094   4.236  11.143 -0.5982  3.0882 -0.8412
 7106SOL    HW232955   2.013   4.120  11.126  3.4308 -2.2914  1.1704
 7107SOL     OW32956   1.733   0.587   2.453  0.3941  0.3932 -0.0067
 7107SOL    HW132957   1.723   0.606   2.360  0.9514 -0.9585 -0.3366
 7107SOL    HW232958   1.742   0.492   2.454 -0.7100  0.2878 -0.7446
 7108SOL     OW32959   2.575   0.114   7.809  0.2421  0.0215  0.0563
 7108SOL    HW132960   2.660   0.101   7.765  0.6065  0.5803  0.5976
 7108SOL    HW232961   2.603   0.151   7.892 -0.7812 -0.6462  0.6938
 7109SOL     OW32962   2.913   2.830   3.481 -0.6087 -0.7049 -0.3437
 7109SOL    HW132963   2.878   2.742   3.470  0.8329 -1.0761 -1.9225
 7109SOL    HW232964   3.008   2.824   3.478 -0.6782 -2.1530  0.7229
 7110SOL     OW32965   0.940   1.613   3.247 -0.2806  0.2886  0.2975
 7110SOL    HW132966   0.916   1.547   3.182  1.9305 -0.2561  0.0386
 7110SOL    HW232967   1.014   1.590   3.303 -0.3185  0.9683  0.6196
 7111SOL     OW32968   4.573   2.181   2.343 -0.2020 -0.1077  0.1564
 7111SOL    HW132969   4.494   2.127   2.343 -0.3031  0.0450 -0.6993
 7111SOL    HW232970   4.538   2.269   2.352 -0.1928 -0.2925  1.9950
 7112SOL     OW32971   3.233   4.578   4.205 -0.2951 -0.5782 -0.3012
 7112SOL    HW132972   3.308   4.612   4.252 -0.3922 -0.7466 -0.0216
 7112SOL    HW232973   3.183   4.531   4.272 -1.3155  0.0746 -0.5929
 7113SOL     OW32974   0.966   0.095   0.236  0.2656  0.3608  0.0485
 7113SOL    HW132975   1.034   0.034   0.208  2.0558  2.5549 -0.3421
 7113SOL    HW232976   0.895   0.078   0.174  2.2403 -1.0155 -1.8301
 7114SOL     OW32977   0.778   4.614  15.875 -0.0036  0.0582  0.0740
 7114SOL    HW132978   0.803   4.609  15.783  3.1432 -1.6884  1.0372
 7114SOL    HW232979   0.752   4.706  15.877 -0.7759 -0.0654 -4.0565
 7115SOL     OW32980   4.053   1.612   3.986  0.3897 -0.0713 -0.2390
 7115SOL    HW132981   3.991   1.593   3.916  2.5712 -1.5710 -1.7832
 7115SOL    HW232982   4.026   1.701   4.007  0.4180 -0.7991  2.7773
 7116SOL     OW32983   2.809   0.779   9.006 -0.0714 -0.0047  0.2339
 7116SOL    HW132984   2.838   0.811   9.091  1.6624 -0.5585 -0.1441
 7116SOL    HW232985   2.756   0.706   9.040  1.5626 -1.2133  0.1984
 7117SOL     OW32986   2.880   3.787   1.684  0.7719  0.2520  0.5027
 7117SOL    HW132987   2.889   3.809   1.592  0.4909 -0.8342  0.2176
 7117SOL    HW232988   2.784   3.794   1.691  0.7447  0.5494 -0.1543
 7118SOL     OW32989   0.911   0.748  13.491 -0.0761  0.1778  0.2556
 7118SOL    HW132990   0.995   0.734  13.447  0.6230  1.3035  1.2411
 7118SOL    HW232991   0.866   0.814  13.437 -1.6973 -1.7842 -0.8085
 7119SOL     OW32992   3.584   1.410   1.657 -0.1653 -0.0772  0.2802
 7119SOL    HW132993   3.554   1.497   1.683 -1.4427 -0.7363  0.9981
 7119SOL    HW232994   3.659   1.407   1.717 -0.5480 -0.1317  0.7544
 7120SOL     OW32995   3.750   4.319  12.717 -0.8020  0.4636  0.3119
 7120SOL    HW132996   3.704   4.373  12.652 -1.0001 -0.0446  0.0278
 7120SOL    HW232997   3.692   4.329  12.793 -2.2439 -0.4150 -0.6734
 7121SOL     OW32998   1.074   1.709   5.380 -0.2842  0.6138  0.0340
 7121SOL    HW132999   1.015   1.633   5.375 -1.1677  1.3864 -1.1122
 7121SOL    HW233000   1.113   1.699   5.467  0.2158 -0.2068 -0.2818
 7122SOL     OW33001   0.845   0.287   9.617  0.1493  0.1506 -0.4614
 7122SOL    HW133002   0.798   0.208   9.645 -1.5391  0.8561 -1.2850
 7122SOL    HW233003   0.778   0.355   9.623 -0.4607 -0.3600 -1.4248
 7123SOL     OW33004   0.686   4.630  10.729 -0.3593 -0.0763 -0.1521
 7123SOL    HW133005   0.760   4.629  10.791 -1.0151  0.0149  0.6335
 7123SOL    HW233006   0.616   4.652  10.790 -0.8786 -0.2800 -0.6803
 7124SOL     OW33007   0.640   1.332   1.347 -0.1123 -0.5731  0.0097
 7124SOL    HW133008   0.712   1.332   1.284  0.9138 -0.0198  1.1797
 7124SOL    HW233009   0.653   1.419   1.385 -0.1730  0.0251 -1.3262
 7125SOL     OW33010   1.207   0.100  16.118  0.5070 -0.5191  0.2014
 7125SOL    HW133011   1.186   0.008  16.134 -3.1595  0.6710  2.0599
 7125SOL    HW233012   1.222   0.138  16.205  1.7554  2.3191 -1.2513
 7126SOL     OW33013   2.092   0.761   2.807 -0.1804  0.1323 -0.3064
 7126SOL    HW133014   2.183   0.781   2.829 -0.9362  3.0058  0.1122
 7126SOL    HW233015   2.056   0.846   2.830  1.9903  0.5785  1.4533
 7127SOL     OW33016   0.539   3.807   8.728  0.4318 -0.2625  0.1428
 7127SOL    HW133017   0.481   3.778   8.798 -0.2623  0.5261 -0.1113
 7127SOL    HW233018   0.611   3.744   8.734  0.1041 -0.6501 -0.0488
 7128SOL     OW33019   2.487   3.646   0.304 -0.1088  0.1645 -0.9574
 7128SOL    HW133020   2.530   3.561   0.304 -0.2244  0.1302  2.0827
 7128SOL    HW233021   2.412   3.624   0.249 -0.8771 -0.6212  0.4230
 7129SOL     OW33022   1.096   2.981   1.014 -0.0202 -0.3488 -0.1248
 7129SOL    HW133023   1.161   2.957   1.080  1.1377 -0.6879 -1.3860
 7129SOL    HW233024   1.135   3.066   0.994 -0.5516 -0.1430 -0.2902
 7130SOL     OW33025   3.808   2.473   8.404  0.1013 -0.2725 -0.0656
 7130SOL    HW133026   3.893   2.458   8.363 -0.5212 -1.0487 -1.0556
 7130SOL    HW233027   3.827   2.558   8.445  1.2337  0.9485 -3.1673
 7131SOL     OW33028   2.668   3.123   3.810  0.8141  0.2286 -0.3107
 7131SOL    HW133029   2.758   3.139   3.781 -0.6892  2.3594 -3.7792
 7131SOL    HW233030   2.660   3.028   3.817  1.7425  0.2177  0.6068
 7132SOL     OW33031   0.570   2.444   6.635  0.3654  0.3576  0.8406
 7132SOL    HW133032   0.482   2.478   6.646 -0.7793 -2.2640 -0.1461
 7132SOL    HW233033   0.610   2.527   6.608 -2.1032  0.8222 -1.4032
 7133SOL     OW33034   3.705   3.140   6.319 -0.1836  0.2089 -0.2281
 7133SOL    HW133035   3.798   3.137   6.295 -0.2226 -0.3315 -0.3260
 7133SOL    HW233036   3.687   3.047   6.307 -0.9853  0.4019 -0.5164
 7134SOL     OW33037   3.253   2.432  17.362 -0.3048 -0.0625 -0.2264
 7134SOL    HW133038   3.256   2.461  17.271 -0.4469 -0.0343 -0.2224
 7134SOL    HW233039   3.323   2.482  17.405  0.3101 -1.3585  0.2778
 7135SOL     OW33040   3.614   1.168   2.459  0.0819 -0.7571  0.3410
 7135SOL    HW133041   3.520   1.185   2.461 -0.3444 -3.0997 -0.0962
 7135SOL    HW233042   3.651   1.251   2.490 -1.7227  1.5054 -3.5007
 7136SOL     OW33043   3.973   3.389   1.809 -0.8425  0.1099 -0.4748
 7136SOL    HW133044   3.886   3.422   1.789 -0.2099  1.2654 -1.3394
 7136SOL    HW233045   4.012   3.384   1.722 -0.9631 -0.5986 -0.4864
 7137SOL     OW33046   0.004   3.816   3.904  0.5203  0.2046  0.3423
 7137SOL    HW133047   0.099   3.809   3.897  0.6382  2.5265 -0.1368
 7137SOL    HW233048   4.721   3.790   3.995 -0.6390 -1.2168 -0.3015
 7138SOL     OW33049   3.313   0.606   7.510 -0.5732 -0.2354 -0.0433
 7138SOL    HW133050   3.355   0.592   7.594 -1.7206 -0.7561  0.4407
 7138SOL    HW233051   3.231   0.642   7.543 -1.4267 -0.4236 -1.9262
 7139SOL     OW33052   0.092   2.092  17.451  0.4072  0.1582  0.1714
 7139SOL    HW133053   0.003   2.064  17.429  0.6761 -0.7583  0.2229
 7139SOL    HW233054   0.088   2.186  17.465 -0.9567  0.0563  0.4603
 7140SOL     OW33055   1.721   4.510   9.453  1.0054 -0.2259  0.4243
 7140SOL    HW133056   1.728   4.425   9.496 -0.4345  0.4035  1.9056
 7140SOL    HW233057   1.665   4.480   9.382  2.7317 -1.7891 -0.2753
 7141SOL     OW33058   2.074   0.528  11.582  0.5040  0.2392  0.6239
 7141SOL    HW133059   2.018   0.551  11.657 -1.5922 -1.0310 -0.5793
 7141SOL    HW233060   2.132   0.604  11.575 -0.0205  0.5267 -0.5738
 7142SOL     OW33061   3.357   0.833   4.252  0.1637 -0.1558  0.1910
 7142SOL    HW133062   3.288   0.778   4.289  0.3918 -0.5640  0.0186
 7142SOL    HW233063   3.312   0.895   4.196  2.1913  1.2148  0.0778
 7143SOL     OW33064   3.407   0.376   1.763  0.2737  0.1262 -0.6890
 7143SOL    HW133065   3.319   0.375   1.723 -0.8594  0.6326  1.8247
 7143SOL    HW233066   3.434   0.284   1.762  0.4153  0.1465  1.1967
 7144SOL     OW33067   1.524   3.694   1.259 -0.2108 -0.4998 -0.1952
 7144SOL    HW133068   1.566   3.682   1.174  0.3922 -2.1266  0.3244
 7144SOL    HW233069   1.435   3.721   1.240  0.1318  0.0026 -1.0675
 7145SOL     OW33070   2.035   4.153  10.381 -0.1535 -0.0420  0.1308
 7145SOL    HW133071   2.040   4.233  10.330  1.8222 -0.5649 -0.4884
 7145SOL    HW233072   1.996   4.178  10.464  2.7690  0.5654  1.2923
 7146SOL     OW33073   0.827   1.318   4.206  0.4389  0.3646 -0.5906
 7146SOL    HW133074   0.785   1.399   4.179  0.2529  0.4417 -0.0705
 7146SOL    HW233075   0.890   1.302   4.135  0.1068 -0.5380 -0.6863
 7147SOL     OW33076   1.112   1.652   2.979 -0.2641  0.2610 -0.5591
 7147SOL    HW133077   1.097   1.677   3.070  0.8348  1.5282 -0.7231
 7147SOL    HW233078   1.208   1.655   2.979 -0.1880 -1.5103  2.5060
 7148SOL     OW33079   4.006   1.254   7.921 -0.0398 -0.2314  0.4428
 7148SOL    HW133080   3.919   1.290   7.907 -0.5440 -1.1227  1.2402
 7148SOL    HW233081   4.060   1.322   7.882 -0.1113 -0.0102  0.7281
 7149SOL     OW33082   2.692   0.857   9.252 -0.0737  0.4768  0.7531
 7149SOL    HW133083   2.627   0.922   9.226 -0.0580 -0.3268 -1.2761
 7149SOL    HW233084   2.642   0.775   9.252 -1.0482  1.0626 -0.5078
 7150SOL     OW33085   4.183   1.623  17.160 -0.6133 -0.5196 -0.0024
 7150SOL    HW133086   4.209   1.680  17.232  1.2397  0.6553 -1.5867
 7150SOL    HW233087   4.153   1.550  17.214 -0.5281 -1.6497 -1.4825
 7151SOL     OW33088   2.026   1.790   5.287 -0.6667  0.1416  0.1977
 7151SOL    HW133089   2.085   1.737   5.341 -1.4178  0.5005  1.3733
 7151SOL    HW233090   1.959   1.722   5.286 -1.0609  0.5227  1.4401
 7152SOL     OW33091   3.108   2.880   2.625 -0.5639  0.6476  0.2423
 7152SOL    HW133092   3.127   2.871   2.531  0.9360  1.2381  0.4915
 7152SOL    HW233093   3.114   2.974   2.638 -0.4364  0.5753  0.6879
 7153SOL     OW33094   2.089   4.330   2.090 -0.0499 -0.2716 -0.3089
 7153SOL    HW133095   2.059   4.261   2.031 -0.5146  1.6970 -2.3557
 7153SOL    HW233096   2.070   4.289   2.175 -1.4411  1.7087  0.3244
 7154SOL     OW33097   2.800   1.916   0.781  0.1564 -0.1517 -0.3262
 7154SOL    HW133098   2.724   1.870   0.820 -0.1776  1.7547  1.2613
 7154SOL    HW233099   2.752   1.975   0.724 -0.0927  0.0172  0.0557
 7155SOL     OW33100   2.370   1.856  14.736 -0.1582 -0.0256 -0.0902
 7155SOL    HW133101   2.383   1.808  14.818 -1.1210  2.6440  1.6155
 7155SOL    HW233102   2.380   1.947  14.765  0.8672 -0.6163  1.4536
 7156SOL     OW33103   1.411   2.053   8.486 -0.1229  0.8230 -0.2549
 7156SOL    HW133104   1.475   2.017   8.424  1.3983  1.6279  0.8412
 7156SOL    HW233105   1.419   1.983   8.551  1.9055 -0.0508 -1.4421
 7157SOL     OW33106   4.089   0.341   4.644  0.5947 -0.3561  0.0353
 7157SOL    HW133107   4.095   0.435   4.665  2.3260 -0.4248 -0.1233
 7157SOL    HW233108   4.016   0.347   4.583 -0.5371 -3.6327  1.1027
 7158SOL     OW33109   3.563   1.225   0.962  0.8224  0.3629 -0.1273
 7158SOL    HW133110   3.538   1.165   1.033 -1.9545  0.6347 -0.8979
 7158SOL    HW233111   3.626   1.275   1.014  2.7214 -1.4046 -0.6972
 7159SOL     OW33112   1.054   3.313   4.368 -0.3771 -0.1382  0.3160
 7159SOL    HW133113   1.122   3.309   4.434  0.3239  2.1155 -0.2577
 7159SOL    HW233114   0.995   3.253   4.414 -0.6845  0.3856  0.5997
 7160SOL     OW33115   1.783   1.878   6.867 -0.9769 -0.1041  0.1439
 7160SOL    HW133116   1.831   1.848   6.945 -1.8248 -1.4533  0.1439
 7160SOL    HW233117   1.813   1.810   6.806  0.3609  1.9255 -1.4592
 7161SOL     OW33118   4.526   0.487   1.372  0.1121  0.2639 -0.6500
 7161SOL    HW133119   4.447   0.519   1.329 -0.3361  1.4217  1.0435
 7161SOL    HW233120   4.507   0.521   1.459  1.4583 -0.0248 -0.2397
 7162SOL     OW33121   0.157   4.470  12.661 -0.7016 -0.8138  0.3564
 7162SOL    HW133122   0.153   4.517  12.577  2.2188  0.6497  1.0565
 7162SOL    HW233123   0.245   4.435  12.651 -0.9237 -1.3802  0.3592
 7163SOL     OW33124   3.305   3.793  15.796  0.3310  0.0584  0.3587
 7163SOL    HW133125   3.216   3.761  15.809  0.5787  0.8792  4.2068
 7163SOL    HW233126   3.300   3.858  15.726  0.2112  0.5500  0.8231
 7164SOL     OW33127   2.252   4.158   3.646 -0.1981  0.4210 -0.3038
 7164SOL    HW133128   2.289   4.243   3.620 -0.3005 -0.0698 -2.0437
 7164SOL    HW233129   2.289   4.131   3.730  0.0303 -0.0151 -0.5470
 7165SOL     OW33130   0.226   4.228   2.189  0.0946  0.1900  0.0063
 7165SOL    HW133131   0.269   4.237   2.103  0.5065 -0.3298  0.1593
 7165SOL    HW233132   0.168   4.305   2.191  1.6301  1.3227  0.8471
 7166SOL     OW33133   1.101   4.523  10.844  0.4421  0.1904  0.4844
 7166SOL    HW133134   1.059   4.448  10.802 -1.2163  2.3221 -1.6112
 7166SOL    HW233135   1.176   4.487  10.891 -0.0058 -1.3174  0.0462
 7167SOL     OW33136   1.528   3.554   5.920  0.2550 -0.3553 -0.7390
 7167SOL    HW133137   1.441   3.594   5.920  0.1299 -0.6613  2.7843
 7167SOL    HW233138   1.571   3.636   5.896  0.0315  0.7289  2.5545
 7168SOL     OW33139   2.792   3.178  16.932 -0.1695  0.2817  0.8097
 7168SOL    HW133140   2.755   3.173  17.019 -1.6333  0.6821  0.2084
 7168SOL    HW233141   2.765   3.093  16.896  0.3296 -0.6337  2.6074
 7169SOL     OW33142   1.947   0.183   5.533 -0.9562  0.3449  0.8203
 7169SOL    HW133143   1.995   0.252   5.487 -1.2727 -0.1064 -0.1989
 7169SOL    HW233144   2.016   0.116   5.531 -0.0514  1.2820  0.3197
 7170SOL     OW33145   3.321   0.990   1.244  0.7309  0.2667 -0.0139
 7170SOL    HW133146   3.369   0.911   1.220  0.3417  0.2499 -0.7358
 7170SOL    HW233147   3.389   1.054   1.223 -0.6387  2.2963  1.7688
 7171SOL     OW33148   2.678   2.436   2.115 -0.0380 -0.0143 -0.0203
 7171SOL    HW133149   2.696   2.482   2.198 -0.3958 -0.2815  0.2052
 7171SOL    HW233150   2.759   2.385   2.110 -0.0073  0.1357 -0.9598
 7172SOL     OW33151   3.249   0.904  10.932  0.0099 -0.4354  0.1466
 7172SOL    HW133152   3.161   0.925  10.964  0.8629  0.2588  2.0565
 7172SOL    HW233153   3.288   0.991  10.922  2.1909 -1.5408 -1.0680
 7173SOL     OW33154   2.578   4.265   2.380  0.3922  0.0510  0.1988
 7173SOL    HW133155   2.589   4.194   2.316  3.6421  0.0252  0.7853
 7173SOL    HW233156   2.519   4.324   2.333 -0.2929  0.2689  1.3389
 7174SOL     OW33157   2.792   1.176   1.044  0.0793  0.3907 -0.3298
 7174SOL    HW133158   2.828   1.256   1.005  2.3558 -0.8427 -0.7228
 7174SOL    HW233159   2.869   1.154   1.096 -0.3629  1.6106  0.8498
 7175SOL     OW33160   3.937   1.494  10.842 -0.7389 -0.1864 -0.1043
 7175SOL    HW133161   3.916   1.408  10.879 -3.0389  0.4037 -0.0727
 7175SOL    HW233162   3.955   1.530  10.929 -0.7412  0.0798 -0.2158
 7176SOL     OW33163   3.598   0.892   5.241 -0.5977 -0.1089 -0.8304
 7176SOL    HW133164   3.571   0.976   5.204 -1.6034  0.7259  1.8113
 7176SOL    HW233165   3.645   0.919   5.320  0.2562 -0.2758 -1.2810
 7177SOL     OW33166   1.602   0.764   5.136  0.0331 -0.3986 -0.0947
 7177SOL    HW133167   1.581   0.718   5.055 -0.4699 -0.5481  0.1250
 7177SOL    HW233168   1.570   0.714   5.211  1.0147  2.0130  1.9335
 7178SOL     OW33169   1.315   3.248   9.000  0.1171  0.0653 -0.3347
 7178SOL    HW133170   1.286   3.179   9.059  2.2361 -2.6381 -2.4535
 7178SOL    HW233171   1.409   3.231   9.001  0.1358  0.1908  0.0349
 7179SOL     OW33172   0.562   0.944   5.235 -0.1146 -0.9017  0.1874
 7179SOL    HW133173   0.537   1.033   5.210 -0.7644 -1.4433 -1.1030
 7179SOL    HW233174   0.488   0.912   5.287  0.6522 -0.1739  1.7084
 7180SOL     OW33175   1.688   1.968   7.740 -0.1597  0.2609 -0.0695
 7180SOL    HW133176   1.735   1.920   7.671 -0.4768 -0.4949  0.2415
 7180SOL    HW233177   1.601   1.929   7.747 -0.7938  1.9472  1.4652
 7181SOL     OW33178   3.387   1.484   0.518  0.4456  0.0419 -0.6145
 7181SOL    HW133179   3.382   1.392   0.541 -0.6373 -0.1451 -1.6282
 7181SOL    HW233180   3.321   1.492   0.450 -0.9593 -0.9857  0.6472
 7182SOL     OW33181   2.752   3.819   4.672 -0.0224  0.4305  0.2506
 7182SOL    HW133182   2.699   3.848   4.598  0.1147  1.6879  0.6358
 7182SOL    HW233183   2.831   3.870   4.652  0.6993 -1.2668 -1.2401
 7183SOL     OW33184   1.624   0.284  16.496 -0.3786  0.3898  0.3742
 7183SOL    HW133185   1.635   0.248  16.584  1.5204  1.4946  0.5814
 7183SOL    HW233186   1.626   0.378  16.514  2.1780  0.5510 -0.7211
 7184SOL     OW33187   3.671   1.186   3.939  0.1276 -0.5680 -0.4298
 7184SOL    HW133188   3.635   1.233   3.864 -0.0727 -0.3925 -0.2243
 7184SOL    HW233189   3.593   1.189   3.995  0.8967 -2.2842  0.7371
 7185SOL     OW33190   3.437   1.633   7.182 -0.1545  0.2601  0.3370
 7185SOL    HW133191   3.464   1.544   7.163  0.3202  0.6176 -0.6938
 7185SOL    HW233192   3.384   1.659   7.106 -0.5954  1.5590  1.0816
 7186SOL     OW33193   0.381   2.272   4.246 -0.0487  0.2635  0.1157
 7186SOL    HW133194   0.407   2.224   4.167  1.5432  0.9146  0.2469
 7186SOL    HW233195   0.384   2.362   4.213 -0.0710  0.5339  0.8421
 7187SOL     OW33196   4.433   3.286  12.790  0.0930 -0.4781  0.6850
 7187SOL    HW133197   4.462   3.344  12.719  0.0160 -1.3313 -0.0355
 7187SOL    HW233198   4.365   3.238  12.743  1.2493 -0.9944 -0.4554
 7188SOL     OW33199   3.265   1.802   2.359 -0.7279  0.1346 -0.0062
 7188SOL    HW133200   3.220   1.887   2.354  0.9213  1.0832  1.2881
 7188SOL    HW233201   3.190   1.748   2.336 -1.0196  0.7029 -0.3975
 7189SOL     OW33202   4.073   0.028  15.831  0.3607  0.1885  0.5461
 7189SOL    HW133203   4.156   0.042  15.784  1.0229  0.0575  1.6583
 7189SOL    HW233204   4.095   0.027  15.924 -1.5346 -0.5307  0.9841
 7190SOL     OW33205   1.001   1.438  11.790 -0.4062  0.1651  0.4179
 7190SOL    HW133206   1.076   1.467  11.842 -0.0356 -1.3177  0.7258
 7190SOL    HW233207   1.053   1.381  11.732  0.3612  0.2207  1.0488
 7191SOL     OW33208   2.593   2.750   2.119  0.1589 -0.1294 -0.4477
 7191SOL    HW133209   2.677   2.721   2.084  0.1941 -0.7730  0.1660
 7191SOL    HW233210   2.590   2.844   2.104 -1.3871  0.0331  0.8428
 7192SOL     OW33211   2.341   0.007   7.879  0.2190 -0.3743  0.9635
 7192SOL    HW133212   2.329   4.654   7.847 -0.3053 -0.8102  2.3529
 7192SOL    HW233213   2.417   0.031   7.827  0.6287  0.5067  1.9571
 7193SOL     OW33214   1.353   1.173   3.376 -0.5032  0.3125  0.9050
 7193SOL    HW133215   1.412   1.233   3.332 -0.2754 -1.7261 -1.5726
 7193SOL    HW233216   1.288   1.152   3.309 -0.9492  1.2269  1.0611
 7194SOL     OW33217   1.165   0.269   5.169  0.0604 -0.1561  0.1665
 7194SOL    HW133218   1.149   0.277   5.075  3.3680  0.7523 -0.3353
 7194SOL    HW233219   1.180   0.363   5.184 -0.0795  0.2188 -1.9676
 7195SOL     OW33220   2.660   0.701   1.561 -0.0780 -1.0044 -0.2877
 7195SOL    HW133221   2.684   0.615   1.594  1.8372  0.1648  1.2990
 7195SOL    HW233222   2.731   0.709   1.497  0.0147  1.5087  0.1306
 7196SOL     OW33223   0.360   2.334  10.346 -0.0819  0.0174 -0.1564
 7196SOL    HW133224   0.393   2.390  10.416  2.0245  0.0213 -1.1781
 7196SOL    HW233225   0.289   2.289  10.394 -0.3234  1.3187  0.6929
 7197SOL     OW33226   3.070   4.722   4.548 -0.4008 -0.4990  0.7686
 7197SOL    HW133227   3.132   4.671   4.496 -3.3390 -2.8280 -0.4260
 7197SOL    HW233228   2.989   4.697   4.504  1.0849 -0.1633 -2.1275
 7198SOL     OW33229   3.425   1.478   6.361  0.4651 -0.2482 -0.0770
 7198SOL    HW133230   3.505   1.508   6.404 -0.1730  2.9370 -1.1324
 7198SOL    HW233231   3.383   1.417   6.422  0.8118 -2.7746 -2.3500
 7199SOL     OW33232   4.717   0.154  15.907 -0.0448  0.1270  0.2933
 7199SOL    HW133233   0.046   0.210  15.865  1.7906 -1.5049  0.9925
 7199SOL    HW233234   4.642   0.210  15.925 -1.8601 -2.1737 -0.1842
 7200SOL     OW33235   1.381   0.365   9.650 -0.2551 -0.0573  0.1310
 7200SOL    HW133236   1.414   0.306   9.582 -1.6280 -2.4445  1.5456
 7200SOL    HW233237   1.306   0.312   9.675  0.8953 -1.2688  1.0357
 7201SOL     OW33238   3.701   3.559  14.834  0.0293  0.0021  0.3777
 7201SOL    HW133239   3.688   3.474  14.790  0.2627 -1.1534  2.5310
 7201SOL    HW233240   3.652   3.548  14.915 -0.2693 -0.3289  0.1571
 7202SOL     OW33241   0.974   0.041   2.671  0.5119 -0.0159  0.6176
 7202SOL    HW133242   1.068   0.055   2.664  0.6788 -1.2640  0.4041
 7202SOL    HW233243   0.953   0.106   2.738  2.4880  3.9747 -2.6504
 7203SOL     OW33244   1.991   3.676   1.247 -0.3143  0.0951  0.2674
 7203SOL    HW133245   1.935   3.600   1.263 -0.9910  0.3668 -0.7970
 7203SOL    HW233246   1.930   3.742   1.281 -1.9408 -0.6981 -1.1015
 7204SOL     OW33247   4.243   4.437  12.683  0.5378  0.0915  0.4193
 7204SOL    HW133248   4.288   4.386  12.615  0.5206 -0.6362  0.9535
 7204SOL    HW233249   4.156   4.409  12.654  0.5069  0.7239 -0.0882
 7205SOL     OW33250   3.439   2.679   6.406 -0.6205  0.3194  0.1438
 7205SOL    HW133251   3.472   2.768   6.416 -1.4158  0.3741  2.2229
 7205SOL    HW233252   3.515   2.625   6.382 -1.0956  0.8820 -2.6460
 7206SOL     OW33253   2.844   4.538   3.693 -0.2616 -0.6823 -0.7086
 7206SOL    HW133254   2.889   4.475   3.750 -1.2022 -0.9913 -0.3004
 7206SOL    HW233255   2.776   4.561   3.757 -0.0750 -0.3508 -0.6298
 7207SOL     OW33256   1.639   4.310   1.168 -0.9068  0.1881  0.7218
 7207SOL    HW133257   1.574   4.341   1.231  0.4313  0.6131  1.8827
 7207SOL    HW233258   1.656   4.392   1.121  1.2808  0.4691  2.0013
 7208SOL     OW33259   2.352   1.338  14.005 -0.3428 -0.3474  0.3616
 7208SOL    HW133260   2.303   1.267  14.047  0.4265 -1.0584  0.0543
 7208SOL    HW233261   2.395   1.378  14.081  0.7940 -0.8059 -0.0440
 7209SOL     OW33262   2.168   1.129   0.711 -0.2393  0.0372 -0.4732
 7209SOL    HW133263   2.140   1.212   0.673 -0.2921 -0.8148 -2.3139
 7209SOL    HW233264   2.120   1.141   0.793  2.8587  1.6764  1.0932
 7210SOL     OW33265   2.705   2.549   8.453  0.0618  0.8040 -0.2596
 7210SOL    HW133266   2.679   2.530   8.543 -0.4718  0.1117 -0.5575
 7210SOL    HW233267   2.690   2.459   8.423  0.4024  0.9437 -0.8523
 7211SOL     OW33268   4.193   0.006   5.026 -0.6393  0.0117  0.1039
 7211SOL    HW133269   4.181   0.100   5.017  1.0998  0.1650 -0.5713
 7211SOL    HW233270   4.226   4.728   4.937  3.0936  0.9292  1.3398
 7212SOL     OW33271   4.425   0.871   3.185  0.1254 -0.6072 -0.5536
 7212SOL    HW133272   4.415   0.778   3.209  0.6485 -1.1563 -2.5140
 7212SOL    HW233273   4.519   0.885   3.179  0.1112 -0.0703  0.3759
 7213SOL     OW33274   0.813   3.882   4.262 -0.1201 -0.1546  0.1077
 7213SOL    HW133275   0.857   3.907   4.343  0.6425 -1.0847 -0.0126
 7213SOL    HW233276   0.738   3.833   4.296  1.2191 -1.5341  1.0997
 7214SOL     OW33277   1.339   3.780   5.884 -0.6986  0.0640  0.3161
 7214SOL    HW133278   1.362   3.814   5.797 -2.7238 -1.0743 -0.6779
 7214SOL    HW233279   1.390   3.835   5.943 -0.2922 -0.3818  0.3880
 7215SOL     OW33280   4.261   2.423   2.779 -0.1520  0.0653  0.4249
 7215SOL    HW133281   4.275   2.330   2.760 -2.5533  0.6817 -4.4281
 7215SOL    HW233282   4.345   2.441   2.821  0.9160  0.7458 -2.0308
 7216SOL     OW33283   1.871   4.520   6.910 -0.0841  0.2915  0.5648
 7216SOL    HW133284   1.878   4.426   6.895 -0.3901  0.4318 -0.4654
 7216SOL    HW233285   1.807   4.538   6.840 -1.6544 -0.7025  1.7499
 7217SOL     OW33286   0.478   1.396   0.629  0.2455  0.3776  0.2779
 7217SOL    HW133287   0.489   1.305   0.602  1.0008  0.1141  1.5180
 7217SOL    HW233288   0.469   1.449   0.549  2.0063  0.4914  0.1516
 7218SOL     OW33289   3.973   1.348  11.272  0.3740  0.4277 -0.5235
 7218SOL    HW133290   4.006   1.373  11.359 -1.8886 -0.4736  0.5823
 7218SOL    HW233291   4.039   1.286  11.240  0.3656  1.4535 -2.5528
 7219SOL     OW33292   3.295   4.375   6.872 -0.1935  0.1036  0.0697
 7219SOL    HW133293   3.279   4.455   6.822  1.5191 -0.4136 -1.3383
 7219SOL    HW233294   3.254   4.394   6.956  0.5496  0.2017  0.4106
 7220SOL     OW33295   4.247   1.853   1.579 -0.0825  0.5195 -0.2580
 7220SOL    HW133296   4.165   1.810   1.555 -0.1985  0.0362  1.0284
 7220SOL    HW233297   4.210   1.889   1.659 -3.0909  0.6610 -1.6983
 7221SOL     OW33298   3.265   3.905   1.475 -0.2786  0.5396  0.2618
 7221SOL    HW133299   3.335   3.868   1.529 -0.7990 -0.2389  0.4218
 7221SOL    HW233300   3.242   3.982   1.527  2.1959  1.8914 -0.6655
 7222SOL     OW33301   0.366   3.466   8.450 -0.3620 -0.4743  0.2230
 7222SOL    HW133302   0.454   3.503   8.457 -0.5760  0.2289 -0.7800
 7222SOL    HW233303   0.380   3.375   8.423  0.9395  0.0229 -0.8148
 7223SOL     OW33304   4.256   1.694   2.382 -0.4905  0.5395  0.1152
 7223SOL    HW133305   4.278   1.667   2.472  1.2283 -1.0811 -0.7963
 7223SOL    HW233306   4.226   1.783   2.399  0.0883  0.4375  1.7342
 7224SOL     OW33307   4.711   3.867  10.364 -0.8275 -0.1611 -0.4167
 7224SOL    HW133308   4.653   3.820  10.424 -1.1561  1.6900  0.7195
 7224SOL    HW233309   0.056   3.829  10.399 -1.5085  0.4688  1.8646
 7225SOL     OW33310   1.799   1.406   0.284  0.0762 -0.1163 -0.3504
 7225SOL    HW133311   1.743   1.481   0.268 -0.5474 -1.0195 -2.3569
 7225SOL    HW233312   1.742   1.340   0.244 -0.7508 -0.2797  1.0971
 7226SOL     OW33313   4.457   2.126   3.878  0.0844  0.0065 -0.1471
 7226SOL    HW133314   4.522   2.056   3.883 -1.5827 -1.6251 -1.3255
 7226SOL    HW233315   4.478   2.155   3.789  1.5945 -0.4384  0.0678
 7227SOL     OW33316   2.054   2.743  11.371  0.2002  0.1300  0.8164
 7227SOL    HW133317   2.101   2.686  11.310 -1.5516  1.4986 -1.7984
 7227SOL    HW233318   1.964   2.735  11.340 -0.4354 -2.1681  3.2140
 7228SOL     OW33319   1.496   0.449   6.207 -0.2546 -0.0871  0.2873
 7228SOL    HW133320   1.497   0.388   6.133 -0.6908 -3.4139  3.0249
 7228SOL    HW233321   1.403   0.463   6.225 -0.4073  0.6312 -1.0627
 7229SOL     OW33322   3.250   3.151   8.129 -1.1446 -0.4963  0.0461
 7229SOL    HW133323   3.345   3.140   8.125 -1.0882  0.5423 -1.5880
 7229SOL    HW233324   3.219   3.092   8.198  1.6669 -0.0690  1.6204
 7230SOL     OW33325   3.346   3.076   5.083 -0.5608 -0.4078 -0.2433
 7230SOL    HW133326   3.434   3.048   5.107 -0.3509  0.8871  0.5294
 7230SOL    HW233327   3.293   2.998   5.096 -0.3683 -0.7878 -1.6763
 7231SOL     OW33328   2.174   3.594   5.760 -0.0099 -0.0305  0.4888
 7231SOL    HW133329   2.103   3.605   5.823 -0.4576  0.5543 -0.1129
 7231SOL    HW233330   2.151   3.518   5.706 -0.4298  0.3016  0.1891
 7232SOL     OW33331   0.783   4.541   3.326  0.1166 -0.1210  0.4335
 7232SOL    HW133332   0.696   4.503   3.324  0.1981 -0.1573 -3.6903
 7232SOL    HW233333   0.830   4.475   3.378  0.4448 -0.7393 -0.6415
 7233SOL     OW33334   0.248   1.654   9.765 -0.1686 -0.0567 -0.1319
 7233SOL    HW133335   0.306   1.579   9.747 -0.5430 -1.2147  3.4330
 7233SOL    HW233336   0.184   1.639   9.696  1.2900  0.7976 -1.6762
 7234SOL     OW33337   0.402   3.118   2.361  0.1801 -0.7294  0.2345
 7234SOL    HW133338   0.451   3.186   2.408 -0.7400  0.4502 -0.5057
 7234SOL    HW233339   0.433   3.128   2.271  0.5031  0.1363  0.4437
 7235SOL     OW33340   3.710   0.586   7.026  0.2468 -0.1437  0.1817
 7235SOL    HW133341   3.750   0.611   7.109  2.4580  1.1849 -1.2800
 7235SOL    HW233342   3.689   0.493   7.036 -1.1732  0.1289 -0.2855
 7236SOL     OW33343   0.241   1.218   2.654 -0.1151 -0.2770  0.5742
 7236SOL    HW133344   0.242   1.203   2.560 -0.2325 -0.7194  0.6450
 7236SOL    HW233345   0.197   1.141   2.688 -2.0336 -0.3728 -2.1466
 7237SOL     OW33346   2.129   2.236   1.774 -0.2114  0.2856  0.7268
 7237SOL    HW133347   2.198   2.298   1.751 -0.4985  0.5916  0.6987
 7237SOL    HW233348   2.164   2.202   1.856  1.1635  2.0887  0.8963
 7238SOL     OW33349   1.426   0.292   5.285 -0.4181  0.4012 -0.9901
 7238SOL    HW133350   1.343   0.269   5.244 -0.4115 -0.0712 -0.7403
 7238SOL    HW233351   1.485   0.274   5.213  0.8514 -1.8663  0.6230
 7239SOL     OW33352   0.380   1.860   3.385  0.1921 -0.2863  0.0396
 7239SOL    HW133353   0.300   1.824   3.423  0.8628 -0.3317  1.4239
 7239SOL    HW233354   0.447   1.799   3.418 -0.5302 -0.9261  0.3256
 7240SOL     OW33355   3.870   2.323   0.180 -0.4400  0.5816  0.5962
 7240SOL    HW133356   3.834   2.400   0.226  0.6780  0.7003  1.2548
 7240SOL    HW233357   3.799   2.259   0.186 -1.9785  2.2526  0.4195
 7241SOL     OW33358   3.544   0.880   3.276 -0.0421  0.4246  0.3574
 7241SOL    HW133359   3.604   0.895   3.349  0.3747 -0.9581  0.3075
 7241SOL    HW233360   3.504   0.796   3.300  3.1114 -0.7773  1.3653
 7242SOL     OW33361   4.147   1.958   6.792 -0.2354 -0.1190  0.3843
 7242SOL    HW133362   4.234   1.941   6.756  0.1598 -1.2893  1.9077
 7242SOL    HW233363   4.177   2.029   6.848  0.4962 -0.4255  0.3793
 7243SOL     OW33364   0.324   3.162  10.327  0.0606  0.2255  0.0815
 7243SOL    HW133365   0.272   3.241  10.313  2.7977  1.9087 -0.5979
 7243SOL    HW233366   0.280   3.102  10.267 -2.3586  2.5122 -0.4663
 7244SOL     OW33367   3.358   2.483   7.733 -0.3210 -0.0712  0.3752
 7244SOL    HW133368   3.392   2.410   7.786  0.0058  0.1424  0.4604
 7244SOL    HW233369   3.267   2.483   7.765  0.0013  0.7394  1.2811
 7245SOL     OW33370   4.714   1.991   8.318  0.1544 -0.4446 -0.2207
 7245SOL    HW133371   4.719   1.905   8.359 -1.0560 -0.2092  0.4187
 7245SOL    HW233372   0.073   2.004   8.317  0.0583  0.3508  0.6832
 7246SOL     OW33373   0.222   1.685  15.939  0.4331 -0.1574  0.1581
 7246SOL    HW133374   0.301   1.739  15.936 -2.0524  3.4507  0.4487
 7246SOL    HW233375   0.240   1.648  15.852  1.2252  0.7364 -0.0605
 7247SOL     OW33376   1.625   2.954  14.620  0.0351  0.2512  0.8522
 7247SOL    HW133377   1.583   3.029  14.663 -0.2648  1.1466 -0.9853
 7247SOL    HW233378   1.669   2.992  14.544  1.3315 -0.0735  1.4439
 7248SOL     OW33379   3.357   2.034  17.713  0.8116  0.2559  0.6241
 7248SOL    HW133380   3.407   2.041   0.051  0.6705  1.5617  0.6035
 7248SOL    HW233381   3.352   2.124  17.682  0.4397  0.4200  1.1677
 7249SOL     OW33382   1.209   0.601   8.241  0.0506  0.4321 -0.1914
 7249SOL    HW133383   1.193   0.624   8.333  0.9561 -0.7188  0.2505
 7249SOL    HW233384   1.145   0.656   8.195  1.1837  0.0892 -2.1864
 7250SOL     OW33385   1.377   3.892   4.997  0.1404  0.0799 -0.3966
 7250SOL    HW133386   1.467   3.914   5.021 -0.0504 -0.7341  1.0595
 7250SOL    HW233387   1.350   3.973   4.954  0.2261  0.3117 -0.0114
 7251SOL     OW33388   1.949   3.340  17.269  0.0529  0.6677 -0.2472
 7251SOL    HW133389   1.907   3.408  17.217 -1.7974 -1.0842 -1.0587
 7251SOL    HW233390   1.868   3.312  17.313  0.4752 -0.9977 -0.5213
 7252SOL     OW33391   4.557   1.292   0.259 -0.1119 -0.4830 -0.4120
 7252SOL    HW133392   4.632   1.239   0.287 -0.8031 -0.1405  2.0916
 7252SOL    HW233393   4.560   1.378   0.301  1.3714 -0.3409 -0.8032
 7253SOL     OW33394   2.920   1.370   7.483  0.1542  0.2324 -0.4508
 7253SOL    HW133395   2.957   1.283   7.471 -0.5308 -0.0712 -0.3811
 7253SOL    HW233396   2.964   1.395   7.564 -1.1943 -0.8358  0.6140
 7254SOL     OW33397   2.309   1.353   3.746 -0.4541 -0.4877 -0.1926
 7254SOL    HW133398   2.297   1.395   3.661 -1.3354 -1.0348 -0.3319
 7254SOL    HW233399   2.265   1.418   3.801 -1.5113 -0.7403 -0.7472
 7255SOL     OW33400   1.367   0.385  14.755  0.5966  0.7247  0.0989
 7255SOL    HW133401   1.292   0.433  14.721 -1.4575 -0.6600  2.7553
 7255SOL    HW233402   1.388   0.433  14.835 -0.4269  1.4420 -0.0569
 7256SOL     OW33403   1.231   3.533   4.320 -0.0742 -0.2315  0.5553
 7256SOL    HW133404   1.236   3.522   4.415 -0.8356  0.7413  0.7136
 7256SOL    HW233405   1.153   3.478   4.312 -0.5966  0.6630 -0.5058
 7257SOL     OW33406   1.604   1.255   5.629  0.0569 -0.6003  0.1172
 7257SOL    HW133407   1.621   1.342   5.593  0.4721  0.2376  2.3243
 7257SOL    HW233408   1.538   1.217   5.570  2.9511  0.6315 -3.9375
 7258SOL     OW33409   4.079   4.602   5.913  0.6661  0.2179 -0.1332
 7258SOL    HW133410   4.006   4.554   5.951  0.9211  0.1194  0.2352
 7258SOL    HW233411   4.036   4.640   5.836 -1.7482  1.1349  1.6571
 7259SOL     OW33412   4.491   3.546   4.309 -0.2005  0.0188 -0.5142
 7259SOL    HW133413   4.576   3.586   4.293  0.2898 -0.7915  0.0601
 7259SOL    HW233414   4.436   3.617   4.277 -0.0002  0.6882  0.6326
 7260SOL     OW33415   4.413   3.093  17.451 -0.4470 -0.0272  0.5097
 7260SOL    HW133416   4.468   3.038  17.395 -2.2875 -0.4668 -0.8678
 7260SOL    HW233417   4.424   3.182  17.420 -1.0974  0.1237  0.6922
 7261SOL     OW33418   4.654   1.818   1.899 -0.2020  0.3082 -0.3309
 7261SOL    HW133419   4.591   1.798   1.829 -1.6449  1.6440  0.5793
 7261SOL    HW233420   0.002   1.805   1.855 -2.1371 -1.8618 -3.4340
 7262SOL     OW33421   0.953   1.929  14.581 -0.3170  0.5560 -0.5392
 7262SOL    HW133422   0.981   1.839  14.596  0.4037  1.1231  1.4396
 7262SOL    HW233423   0.907   1.946  14.664 -0.2509  0.5052 -0.4934
 7263SOL     OW33424   4.115   2.771  12.981  0.3303  0.2443 -0.6030
 7263SOL    HW133425   4.144   2.698  12.927 -0.1053  0.2789 -0.8910
 7263SOL    HW233426   4.102   2.742  13.071  0.1751  1.0661 -0.3515
 7264SOL     OW33427   4.040   1.621  16.035  0.8753 -0.0658 -0.2514
 7264SOL    HW133428   4.038   1.530  16.005  1.2681  0.0538 -0.6521
 7264SOL    HW233429   4.017   1.668  15.955 -3.3318 -0.7711  0.5713
 7265SOL     OW33430   3.534   3.359   6.253  0.0655  0.2044 -0.2724
 7265SOL    HW133431   3.518   3.376   6.346 -0.6072 -0.6000 -0.2403
 7265SOL    HW233432   3.605   3.295   6.257 -0.6424 -0.5710  0.0221
 7266SOL     OW33433   1.718   1.728   5.571  0.1389 -0.1090 -0.1897
 7266SOL    HW133434   1.637   1.756   5.614  0.1176 -2.2028  1.1034
 7266SOL    HW233435   1.779   1.792   5.609 -3.8013  1.7933  2.9584
 7267SOL     OW33436   1.581   0.217  14.653 -0.2318 -1.0536 -0.1380
 7267SOL    HW133437   1.506   0.266  14.689 -0.7214  0.8687 -3.8484
 7267SOL    HW233438   1.623   0.196  14.736 -1.6691 -0.7576  0.6822
 7268SOL     OW33439   0.025   4.240   6.432  0.0242 -0.2778  0.0501
 7268SOL    HW133440   0.018   4.287   6.515 -0.2067 -0.5813  0.2005
 7268SOL    HW233441   0.078   4.301   6.380 -0.4518 -0.7123 -0.9533
 7269SOL     OW33442   0.039   0.213   7.563  0.3173  0.0851 -0.0989
 7269SOL    HW133443   4.692   0.196   7.520 -0.3898  0.1151  1.2498
 7269SOL    HW233444   0.099   0.198   7.490 -1.8555 -3.0122 -1.2265
 7270SOL     OW33445   3.141   4.318   4.769 -0.0521 -0.3959 -0.1073
 7270SOL    HW133446   3.048   4.307   4.751  0.2529 -1.7903 -0.8691
 7270SOL    HW233447   3.139   4.405   4.809  0.8642 -0.6048  0.4030
 7271SOL     OW33448   1.147   0.625   3.159  0.0263  0.5759  0.1915
 7271SOL    HW133449   1.139   0.561   3.088 -0.7050  1.2902 -0.3676
 7271SOL    HW233450   1.214   0.586   3.215  0.4027  0.2840 -0.4581
 7272SOL     OW33451   0.661   2.302  14.870 -0.1421 -0.7698  0.1444
 7272SOL    HW133452   0.610   2.297  14.789  1.5328 -1.9708 -0.8340
 7272SOL    HW233453   0.744   2.335  14.833 -0.6401 -1.2989 -1.4405
 7273SOL     OW33454   4.443   0.787   1.909 -0.1001 -0.0588  0.0092
 7273SOL    HW133455   4.449   0.882   1.918 -0.6170  0.1833 -2.3584
 7273SOL    HW233456   4.406   0.772   1.822  1.4649  1.8266 -0.9750
 7274SOL     OW33457   2.336   2.779   1.896 -0.2087 -0.4279 -0.4409
 7274SOL    HW133458   2.333   2.775   1.991 -1.4936 -0.2604 -0.4695
 7274SOL    HW233459   2.369   2.690   1.883 -0.7529 -0.4119 -1.9390
 7275SOL     OW33460   1.593   4.250  12.043  0.0091  0.2170  0.1692
 7275SOL    HW133461   1.630   4.229  11.957 -2.0811  1.9274 -1.1471
 7275SOL    HW233462   1.665   4.230  12.103  0.8918  0.0569 -0.9458
 7276SOL     OW33463   0.059   2.851  11.479 -0.1983  0.2190  0.0736
 7276SOL    HW133464   0.018   2.927  11.438  0.0154  0.0762 -0.4097
 7276SOL    HW233465   0.123   2.890  11.538  1.1094 -0.9133 -0.5947
 7277SOL     OW33466   0.695   3.112   4.352 -0.6913 -0.2423  0.3053
 7277SOL    HW133467   0.774   3.061   4.369  1.1190  2.5674  0.3262
 7277SOL    HW233468   0.725   3.194   4.313 -0.2375 -0.0645  1.0474
 7278SOL     OW33469   2.423   4.183   8.594 -0.4720  0.3536  0.2880
 7278SOL    HW133470   2.518   4.187   8.608 -0.3870  0.7402 -0.4214
 7278SOL    HW233471   2.420   4.202   8.500  3.2530  0.9586  0.2972
 7279SOL     OW33472   1.736   3.943   8.488  0.4419  0.0113  0.3486
 7279SOL    HW133473   1.689   4.019   8.453 -1.0526 -0.8047  0.6031
 7279SOL    HW233474   1.713   3.951   8.580  2.8630 -0.2485  0.9828
 7280SOL     OW33475   4.673   2.351   5.702 -0.0824 -0.0281  0.3197
 7280SOL    HW133476   4.731   2.362   5.627 -1.5543  0.4676 -0.7467
 7280SOL    HW233477   4.644   2.260   5.703  1.0585 -0.3917  0.5360
 7281SOL     OW33478   0.703   0.544   0.620 -0.3196  0.0765 -0.2424
 7281SOL    HW133479   0.634   0.608   0.603 -0.2269  0.2673  0.1129
 7281SOL    HW233480   0.690   0.479   0.550 -0.9686 -2.2627  2.0636
 7282SOL     OW33481   1.611   1.074   8.128 -0.0555 -0.9720  0.5048
 7282SOL    HW133482   1.628   1.162   8.095 -0.0617 -1.7682 -1.5706
 7282SOL    HW233483   1.700   1.045   8.145  0.2600  0.8885  1.9765
 7283SOL     OW33484   4.663   4.384   8.100 -0.2462 -0.3841 -0.0657
 7283SOL    HW133485   4.681   4.471   8.064  0.8384 -0.0081  1.3921
 7283SOL    HW233486   4.580   4.406   8.140 -1.5860 -0.3003 -2.8828
 7284SOL     OW33487   0.462   2.227   0.814  0.2080 -0.4078 -0.5163
 7284SOL    HW133488   0.385   2.275   0.847  0.3747  0.0090 -0.7346
 7284SOL    HW233489   0.424   2.140   0.822  0.2276 -0.5617 -2.1836
 7285SOL     OW33490   3.075   3.212   4.548  0.0693 -0.0007  0.3826
 7285SOL    HW133491   3.124   3.133   4.573  0.4163 -0.7474 -2.5639
 7285SOL    HW233492   3.138   3.255   4.490 -0.4342  0.9982  0.5945
 7286SOL     OW33493   4.616   0.581  12.598  0.1743  0.7512  0.6028
 7286SOL    HW133494   4.664   0.589  12.515 -0.3389 -0.7194  0.1798
 7286SOL    HW233495   4.624   0.487  12.607 -0.5790  0.6180 -0.0674
 7287SOL     OW33496   0.916   0.633   8.391 -0.6136  0.9073  0.6847
 7287SOL    HW133497   0.888   0.615   8.301 -2.5393 -0.5667  1.5540
 7287SOL    HW233498   0.839   0.597   8.436  1.4462 -0.6989  2.9770
 7288SOL     OW33499   2.322   1.852  12.170 -0.3032  0.2332  0.1609
 7288SOL    HW133500   2.258   1.892  12.112 -1.1043  0.9939  1.5533
 7288SOL    HW233501   2.407   1.862  12.128 -0.6016  2.3461  0.0554
 7289SOL     OW33502   4.283   0.824  17.398  0.1119 -0.1054 -0.1455
 7289SOL    HW133503   4.230   0.788  17.327 -1.4641  0.2126  0.8623
 7289SOL    HW233504   4.361   0.865  17.361 -0.0161 -0.5215 -0.8715
 7290SOL     OW33505   1.622   1.842  13.785  0.0652  0.2862  0.2008
 7290SOL    HW133506   1.618   1.926  13.832 -2.5708  0.2485  0.0813
 7290SOL    HW233507   1.598   1.874  13.698 -2.5479  1.1932  1.2347
 7291SOL     OW33508   4.585   0.976  11.123 -0.5392 -0.0475  0.3749
 7291SOL    HW133509   4.672   1.015  11.114 -0.9873  1.0737  0.8128
 7291SOL    HW233510   4.563   0.988  11.031 -0.8251 -0.8839  0.3337
 7292SOL     OW33511   0.553   2.785  15.199 -0.2844  0.1959 -0.0238
 7292SOL    HW133512   0.644   2.767  15.177 -0.1603 -0.1874  0.8325
 7292SOL    HW233513   0.557   2.858  15.136 -0.3938  0.4929  0.3134
 7293SOL     OW33514   2.521   1.282  15.060  0.1061  0.0764  0.0356
 7293SOL    HW133515   2.494   1.214  14.998  0.9316  1.0731 -1.4369
 7293SOL    HW233516   2.594   1.237  15.103  1.5576  0.1544 -2.3307
 7294SOL     OW33517   1.008   2.543   7.895  0.5601 -0.5003 -0.3322
 7294SOL    HW133518   1.032   2.626   7.936  1.8353  0.0791 -2.2670
 7294SOL    HW233519   0.977   2.583   7.814  0.5047 -0.2601 -0.1922
 7295SOL     OW33520   2.229   4.692   1.511  0.2603  0.0409 -0.3609
 7295SOL    HW133521   2.252   0.029   1.454  0.1675 -2.0189 -3.0402
 7295SOL    HW233522   2.229   4.614   1.454 -1.1765  0.2166 -0.6093
 7296SOL     OW33523   1.345   2.125   2.331 -0.0863  0.1611  0.4030
 7296SOL    HW133524   1.261   2.164   2.306 -0.5214 -1.8259 -1.1724
 7296SOL    HW233525   1.323   2.039   2.367 -0.6897  0.7966  1.5620
 7297SOL     OW33526   1.636   2.572   2.713 -0.0530 -0.4953  0.2477
 7297SOL    HW133527   1.544   2.557   2.735 -1.3319  1.6404 -3.5727
 7297SOL    HW233528   1.646   2.646   2.774  0.8223  1.8148 -2.7029
 7298SOL     OW33529   1.056   3.430  13.103 -0.1529 -0.2593 -0.6633
 7298SOL    HW133530   1.059   3.358  13.040  0.8035 -0.9707  0.1997
 7298SOL    HW233531   1.082   3.388  13.185 -0.1982 -0.1586 -0.5961
 7299SOL     OW33532   3.046   3.617   4.025 -0.4258 -0.6538  0.3844
 7299SOL    HW133533   3.128   3.618   3.976 -1.2450 -0.9256 -0.9822
 7299SOL    HW233534   3.061   3.633   4.118  2.8019 -0.2024 -0.2086
 7300SOL     OW33535   3.785   1.660   8.918  0.1795  0.2460 -0.5416
 7300SOL    HW133536   3.875   1.691   8.924  0.3185 -0.1301 -0.6891
 7300SOL    HW233537   3.797   1.596   8.988 -0.5607  1.5926  0.8382
 7301SOL     OW33538   1.567   4.621   2.689 -0.3265 -0.1787  0.5498
 7301SOL    HW133539   1.529   4.699   2.649 -0.6039 -0.2629  0.6500
 7301SOL    HW233540   1.494   4.589   2.743 -0.5193 -0.8863 -0.1311
 7302SOL     OW33541   1.290   1.235   5.311  0.6711  0.2717 -0.3998
 7302SOL    HW133542   1.199   1.207   5.315  0.6385  0.5323  0.7377
 7302SOL    HW233543   1.301   1.293   5.236 -0.0022  2.0708  0.8812
 7303SOL     OW33544   0.489   3.005   4.212  0.2612  0.1071 -0.0802
 7303SOL    HW133545   0.412   3.035   4.260  0.8702  1.7803 -0.1383
 7303SOL    HW233546   0.563   3.021   4.271  1.6458  0.4003 -1.8949
 7304SOL     OW33547   4.276   4.308   9.377 -0.0058 -0.1222  0.0074
 7304SOL    HW133548   4.372   4.302   9.381  0.0714 -0.8271 -2.7737
 7304SOL    HW233549   4.253   4.227   9.421  0.1989 -0.3259 -0.2565
 7305SOL     OW33550   3.906   2.112   1.886  0.4058 -0.4989 -0.3199
 7305SOL    HW133551   3.848   2.166   1.940  1.9018  0.7166  0.0626
 7305SOL    HW233552   3.867   2.028   1.911  2.2222 -1.7042 -1.5696
 7306SOL     OW33553   0.425   2.694   5.340  0.1979  0.0451  0.2241
 7306SOL    HW133554   0.473   2.625   5.385 -1.1099 -0.6127  0.6273
 7306SOL    HW233555   0.494   2.738   5.291 -1.4474  0.1863 -1.9909
 7307SOL     OW33556   4.040   2.063   3.507 -0.1628  0.4423 -0.3989
 7307SOL    HW133557   4.073   2.140   3.554  0.4479 -0.6910  1.0310
 7307SOL    HW233558   3.957   2.091   3.469 -0.9141 -0.5805  0.4874
 7308SOL     OW33559   2.147   1.651   2.397 -0.9194 -0.0612 -0.0533
 7308SOL    HW133560   2.176   1.569   2.357 -2.7464 -1.4831  1.5127
 7308SOL    HW233561   2.197   1.718   2.349 -1.1785  0.4185  0.3462
 7309SOL     OW33562   1.860   0.600   2.845 -0.0117 -0.3626 -0.1025
 7309SOL    HW133563   1.941   0.631   2.804  0.4228 -1.6557 -0.2301
 7309SOL    HW233564   1.830   0.680   2.888 -1.0745 -1.5481  1.3672
 7310SOL     OW33565   4.633   2.110   3.081  0.3742 -0.1499  0.0069
 7310SOL    HW133566   4.557   2.166   3.098  0.3439 -0.3379  0.4963
 7310SOL    HW233567   4.607   2.062   3.003 -3.3999  1.1183  0.4880
 7311SOL     OW33568   3.626   3.485   4.489 -0.1301 -0.2336 -0.2805
 7311SOL    HW133569   3.630   3.535   4.408  0.5057 -0.4730 -0.3998
 7311SOL    HW233570   3.587   3.402   4.463 -1.3707  0.6544 -1.2036
 7312SOL     OW33571   0.858   4.582   7.318  0.1565 -0.2762 -0.0324
 7312SOL    HW133572   0.789   4.645   7.337 -0.4584 -0.5605 -1.2805
 7312SOL    HW233573   0.880   4.599   7.226 -1.4615  0.6381 -0.2433
 7313SOL     OW33574   0.493   2.524   7.698  0.1195  0.4129  0.1142
 7313SOL    HW133575   0.509   2.450   7.756  0.8139  0.7857  0.3952
 7313SOL    HW233576   0.397   2.522   7.695  0.1164  0.5078  0.1770
 7314SOL     OW33577   0.796   2.711  15.188  0.0099  0.1442  0.1681
 7314SOL    HW133578   0.813   2.673  15.102  0.2710  0.1582  0.2151
 7314SOL    HW233579   0.852   2.653  15.239  0.0203  0.0815  0.0854
 7315SOL     OW33580   3.168   2.711   6.574  0.0599 -0.8603  0.8825
 7315SOL    HW133581   3.235   2.722   6.507 -1.3172  2.5562  0.0921
 7315SOL    HW233582   3.201   2.658   6.647 -0.9102  0.1722  2.0758
 7316SOL     OW33583   0.993   4.139   5.418  0.5654 -0.3187  0.0144
 7316SOL    HW133584   0.978   4.231   5.437 -0.1552 -0.1245 -1.5436
 7316SOL    HW233585   1.035   4.104   5.497 -0.8006 -0.7170  0.5744
 7317SOL     OW33586   2.610   2.507   7.344 -0.0185  0.2692  0.8086
 7317SOL    HW133587   2.589   2.463   7.261  0.2814  0.9889  0.3499
 7317SOL    HW233588   2.598   2.441   7.412  0.4039 -1.6369 -0.9632
 7318SOL     OW33589   2.585   0.840   8.302 -0.1845 -0.7875 -0.4437
 7318SOL    HW133590   2.566   0.875   8.389  1.1034 -1.1148 -0.0323
 7318SOL    HW233591   2.675   0.810   8.309  0.3615  1.1083  0.4764
 7319SOL     OW33592   0.207   0.916   1.708 -0.2092 -1.2427  0.1892
 7319SOL    HW133593   0.135   0.973   1.683  0.3530 -0.3406  0.6335
 7319SOL    HW233594   0.289   0.964   1.698  0.3347 -2.1604  0.2127
 7320SOL     OW33595   1.561   2.881   2.685 -0.5104 -0.2844 -0.2165
 7320SOL    HW133596   1.477   2.834   2.676  0.1868 -1.8292  1.3233
 7320SOL    HW233597   1.596   2.868   2.597  0.8825  1.7838  0.0303
 7321SOL     OW33598   1.045   1.156  16.050 -0.4311  0.1321 -0.2071
 7321SOL    HW133599   1.097   1.081  16.021  0.7859  0.5328  0.9377
 7321SOL    HW233600   1.072   1.162  16.141  0.9796 -0.2879 -0.5944
 7322SOL     OW33601   3.199   0.905   6.337 -0.2385 -0.7352  0.1279
 7322SOL    HW133602   3.135   0.889   6.267  1.2677  0.9996 -1.6167
 7322SOL    HW233603   3.185   0.835   6.401 -0.1588 -0.2254  0.7000
 7323SOL     OW33604   1.907   1.159  16.959 -0.3129 -0.2111  0.1977
 7323SOL    HW133605   1.829   1.173  16.905  0.0245 -0.2203 -0.2956
 7323SOL    HW233606   1.883   1.179  17.049  1.2865  1.7178  0.1980
 7324SOL     OW33607   3.934   3.637   2.462  0.5716  0.0053  0.1675
 7324SOL    HW133608   3.960   3.555   2.504  0.3455  0.5904  1.4285
 7324SOL    HW233609   3.994   3.640   2.387 -0.5886  0.0665 -0.7790
 7325SOL     OW33610   4.446   2.544  14.219 -0.3389  0.8708 -0.5282
 7325SOL    HW133611   4.448   2.508  14.308 -1.7442  1.7772 -0.1309
 7325SOL    HW233612   4.421   2.472  14.162  1.1347  0.8980 -1.2034
 7326SOL     OW33613   1.369   4.733   8.635  0.8247  0.8331  0.0603
 7326SOL    HW133614   1.339   0.044   8.713  2.2664 -0.5928  1.4947
 7326SOL    HW233615   1.412   0.067   8.586  0.9623  1.5466  1.1839
 7327SOL     OW33616   4.226   4.564  14.865 -0.1987 -0.9019 -0.3467
 7327SOL    HW133617   4.147   4.618  14.858  0.7752  0.4677 -0.7306
 7327SOL    HW233618   4.288   4.618  14.816  0.8323 -0.3590  1.5558
 7328SOL     OW33619   1.357   3.574   3.856  0.2278 -0.6949 -0.0104
 7328SOL    HW133620   1.277   3.529   3.883  0.9206 -0.5383  2.2897
 7328SOL    HW233621   1.329   3.666   3.858  1.1415 -0.3985 -0.6358
 7329SOL     OW33622   3.550   3.229   5.624  0.1991 -0.2788  0.2763
 7329SOL    HW133623   3.470   3.281   5.610 -0.6156 -1.8180 -0.7141
 7329SOL    HW233624   3.596   3.271   5.697  1.1107  1.9295 -1.5629
 7330SOL     OW33625   3.499   1.293   4.842  0.1427  0.3108 -0.2233
 7330SOL    HW133626   3.438   1.239   4.791 -0.5802  1.7232 -0.8441
 7330SOL    HW233627   3.448   1.316   4.920  1.6933 -0.0216  0.8910
 7331SOL     OW33628   0.396   3.964   9.567  0.0497 -0.4321  0.5522
 7331SOL    HW133629   0.416   3.925   9.482 -0.5097 -0.6240  0.5071
 7331SOL    HW233630   0.479   3.988   9.607 -0.2776 -1.3395  1.7936
 7332SOL     OW33631   0.248   4.004   7.221 -0.1177 -0.2638  0.6078
 7332SOL    HW133632   0.304   3.952   7.162 -1.0628 -0.7605  0.1396
 7332SOL    HW233633   0.191   4.048   7.158  1.7047 -0.3592 -1.1236
 7333SOL     OW33634   4.195   0.196   3.600 -0.0942  0.2575 -0.2264
 7333SOL    HW133635   4.197   0.132   3.529 -1.4849  1.4376 -1.3204
 7333SOL    HW233636   4.128   0.254   3.566  1.2967  1.9756 -0.0120
 7334SOL     OW33637   0.129   4.652  17.347 -0.2062 -0.2690  0.3229
 7334SOL    HW133638   0.157   4.730  17.299 -1.1975 -0.0131  0.1691
 7334SOL    HW233639   0.184   4.588  17.302  2.3266  1.3475  1.1273
 7335SOL     OW33640   3.463   2.601   2.714 -0.0688 -0.4726  0.0285
 7335SOL    HW133641   3.550   2.566   2.697 -1.0331 -1.9015 -1.9279
 7335SOL    HW233642   3.478   2.620   2.807 -3.1118  2.1798 -0.0110
 7336SOL     OW33643   1.470   3.490  11.553  0.5015  0.3125 -0.1337
 7336SOL    HW133644   1.499   3.399  11.546  0.9200  0.5985 -1.9838
 7336SOL    HW233645   1.551   3.541  11.546  0.0746  1.0401  0.2055
 7337SOL     OW33646   0.288   0.872   1.357 -0.1214 -0.5816  0.0317
 7337SOL    HW133647   0.249   0.954   1.387  1.7195  0.4345 -0.3379
 7337SOL    HW233648   0.230   0.811   1.402  0.1674 -0.4466  0.5914
 7338SOL     OW33649   3.793   0.281  16.782 -0.4533 -0.0426  0.8121
 7338SOL    HW133650   3.802   0.367  16.740  1.5196 -0.9146 -0.5699
 7338SOL    HW233651   3.762   0.288  16.873 -1.8195  1.5263  0.2330
 7339SOL     OW33652   3.007   3.575   8.638  0.0769 -0.7684 -0.8301
 7339SOL    HW133653   2.988   3.590   8.545 -1.4449  1.5410 -0.1417
 7339SOL    HW233654   2.945   3.507   8.664 -3.4105  2.6783 -0.1621
 7340SOL     OW33655   4.362   4.645   7.577  0.0654 -0.2161  0.1896
 7340SOL    HW133656   4.317   4.571   7.618  0.6941 -0.5444  0.2728
 7340SOL    HW233657   4.369   4.706   7.650 -0.6700  2.1593 -1.6901
 7341SOL     OW33658   3.401   2.779   4.844  0.4625  0.3402 -0.1112
 7341SOL    HW133659   3.432   2.703   4.892  4.4889  1.4160 -1.0591
 7341SOL    HW233660   3.321   2.802   4.892  1.2422 -1.0088  1.7903
 7342SOL     OW33661   4.348   4.433   4.832 -0.0824 -0.3884 -0.3810
 7342SOL    HW133662   4.280   4.366   4.831  0.5032 -0.9988  1.3272
 7342SOL    HW233663   4.425   4.382   4.856  0.1014  0.2281  0.3379
 7343SOL     OW33664   3.715   0.389   9.300 -0.1031  0.1229 -0.1913
 7343SOL    HW133665   3.759   0.365   9.381  0.4624 -0.4040 -0.6563
 7343SOL    HW233666   3.740   0.319   9.240 -0.0190  0.8763 -1.0484
 7344SOL     OW33667   1.972   1.664   2.042  0.4106 -0.0093  0.3145
 7344SOL    HW133668   1.942   1.682   2.131  2.2256  1.7821  0.5721
 7344SOL    HW233669   2.009   1.749   2.016  0.2084  0.0463  0.2141
 7345SOL     OW33670   3.533   3.789   3.181 -0.0897 -0.4712 -0.3116
 7345SOL    HW133671   3.583   3.846   3.240  0.7407 -1.7449  0.2027
 7345SOL    HW233672   3.442   3.811   3.204 -0.2274 -1.0227 -0.3308
 7346SOL     OW33673   3.730   2.524   0.315 -0.2722  0.1332  0.3620
 7346SOL    HW133674   3.635   2.521   0.327 -0.2452  1.0324  0.8005
 7346SOL    HW233675   3.735   2.576   0.234 -0.7413  0.0937  0.3073
 7347SOL     OW33676   3.286   0.102   8.849  0.2543  0.1808 -0.2077
 7347SOL    HW133677   3.231   0.030   8.819  0.8303  0.6325 -2.3669
 7347SOL    HW233678   3.300   0.088   8.942  1.5082 -1.4194 -0.6241
 7348SOL     OW33679   1.934   1.960   3.231  0.1150  0.0862 -0.3499
 7348SOL    HW133680   1.997   1.946   3.160 -1.0811 -0.5278 -1.2841
 7348SOL    HW233681   1.954   1.892   3.296 -1.0992 -1.0419 -1.1542
 7349SOL     OW33682   1.917   3.522   1.596 -0.3292 -0.1270 -0.1467
 7349SOL    HW133683   1.919   3.464   1.672  0.3681  0.6691  0.4452
 7349SOL    HW233684   1.881   3.467   1.528 -1.0584  0.7787 -0.4900
 7350SOL     OW33685   4.222   1.011   2.305  0.0207  0.7927 -0.4254
 7350SOL    HW133686   4.221   0.945   2.236  0.7499 -2.7294  2.9236
 7350SOL    HW233687   4.189   0.956   2.376  3.3191 -0.5985  0.0001
 7351SOL     OW33688   3.392   0.819   3.559 -0.2483  0.7908 -0.3694
 7351SOL    HW133689   3.408   0.750   3.495  0.1313  1.1305 -0.6488
 7351SOL    HW233690   3.297   0.809   3.564 -0.5028  3.4235  0.4793
 7352SOL     OW33691   3.101   2.395   2.211 -0.2717  0.2580 -0.4267
 7352SOL    HW133692   3.051   2.477   2.210 -0.2605  0.2455 -1.7653
 7352SOL    HW233693   3.092   2.384   2.306  0.5575 -0.1295 -0.3901
 7353SOL     OW33694   2.818   2.371   8.095 -0.2553  0.0734 -0.3562
 7353SOL    HW133695   2.839   2.299   8.154  0.1638 -0.0744 -0.6881
 7353SOL    HW233696   2.890   2.432   8.111  0.5295 -0.3804 -2.1400
 7354SOL     OW33697   0.990   2.685   7.021  0.3934  0.2373 -0.0927
 7354SOL    HW133698   0.921   2.670   6.957  0.8312  1.2052 -0.7836
 7354SOL    HW233699   0.952   2.650   7.102  0.6909 -0.1491 -0.1241
 7355SOL     OW33700   2.314   0.866   8.698 -0.1080  0.2109 -0.4229
 7355SOL    HW133701   2.395   0.866   8.750 -1.3737 -0.0422  1.5711
 7355SOL    HW233702   2.347   0.885   8.611 -0.2256  0.1115 -0.4892
 7356SOL     OW33703   4.457   1.642  13.288 -0.1021 -0.1766 -0.3619
 7356SOL    HW133704   4.531   1.681  13.241  0.6934  0.8353  1.7176
 7356SOL    HW233705   4.428   1.713  13.345  0.5909  0.0218 -0.2520
 7357SOL     OW33706   4.444   4.046   5.689 -0.5330 -0.1945  0.1376
 7357SOL    HW133707   4.407   4.126   5.727 -0.8165 -0.1556 -0.2228
 7357SOL    HW233708   4.398   4.031   5.606  0.3047  0.8487 -0.5085
 7358SOL     OW33709   1.887   0.156   7.734  0.0283  0.3686 -0.5213
 7358SOL    HW133710   1.911   0.205   7.812  3.1470 -0.3188 -1.0297
 7358SOL    HW233711   1.792   0.145   7.730  0.0058  0.7280 -0.9745
 7359SOL     OW33712   0.158   4.613  10.255 -0.0790  0.2744  0.3957
 7359SOL    HW133713   0.198   4.537  10.297  1.2073  0.4273 -0.5999
 7359SOL    HW233714   0.234   4.631  10.200 -1.3251  2.7307 -0.5202
 7360SOL     OW33715   1.733   3.054   1.515  0.1254 -0.3277  0.3422
 7360SOL    HW133716   1.773   2.975   1.552  0.6632 -1.1197 -1.9640
 7360SOL    HW233717   1.754   3.052   1.422 -0.2843  1.4901  0.2248
 7361SOL     OW33718   0.285   0.969   6.089  0.2338 -0.0881 -0.1473
 7361SOL    HW133719   0.374   0.947   6.114  0.1467 -1.6901 -1.2274
 7361SOL    HW233720   0.228   0.906   6.133 -0.6176 -0.7204 -2.1557
 7362SOL     OW33721   1.250   2.124  10.249  0.3295 -0.2364 -0.6467
 7362SOL    HW133722   1.254   2.028  10.248  3.5068 -0.1146 -1.1231
 7362SOL    HW233723   1.340   2.149  10.224 -0.4596 -0.3642 -3.6993
 7363SOL     OW33724   0.282   1.249   7.482  0.0731  0.2541  0.3157
 7363SOL    HW133725   0.191   1.229   7.460 -0.0950  1.4475 -0.0866
 7363SOL    HW233726   0.306   1.287   7.398  1.2986  1.7939  1.3748
 7364SOL     OW33727   1.348   1.696   2.109 -0.1312 -0.4593 -0.4036
 7364SOL    HW133728   1.442   1.703   2.124 -0.8606  0.4483  3.7108
 7364SOL    HW233729   1.329   1.653   2.192 -1.3962  0.1135 -0.3941
 7365SOL     OW33730   0.309   0.315   2.903  0.0470 -0.0315  0.3520
 7365SOL    HW133731   0.345   0.226   2.899 -0.5998 -0.2930  0.4377
 7365SOL    HW233732   0.271   0.334   2.818  0.9970  1.2008  0.2082
 7366SOL     OW33733   1.921   1.739   3.439 -0.3823 -0.0613 -0.0711
 7366SOL    HW133734   1.847   1.678   3.433  0.8002 -1.4351 -0.6828
 7366SOL    HW233735   1.893   1.803   3.504 -1.6385  0.5072 -1.1736
 7367SOL     OW33736   4.495   1.940   2.556 -0.6292 -0.0562 -0.3132
 7367SOL    HW133737   4.457   1.930   2.468 -1.7362 -1.5100  0.3335
 7367SOL    HW233738   4.499   1.848   2.582 -1.7892 -0.6143 -2.0579
 7368SOL     OW33739   0.448   1.492  11.126 -0.3720  0.5832  0.4771
 7368SOL    HW133740   0.411   1.415  11.169 -0.4823  0.1549 -0.3908
 7368SOL    HW233741   0.394   1.554  11.175 -1.4226 -1.7613  2.2973
 7369SOL     OW33742   4.201   4.134   9.804 -0.4434  0.3397  0.3055
 7369SOL    HW133743   4.148   4.210   9.781  1.0093  0.6926 -1.8257
 7369SOL    HW233744   4.157   4.080   9.870  0.3780 -1.2083 -0.4130
 7370SOL     OW33745   4.597   3.753  16.803  0.2252 -0.0721  0.5128
 7370SOL    HW133746   4.582   3.718  16.715  0.4126  1.0245  0.0342
 7370SOL    HW233747   4.616   3.680  16.861  0.6768 -0.4721 -0.1355
 7371SOL     OW33748   0.548   1.648   4.734  0.3886  0.2958 -0.3428
 7371SOL    HW133749   0.587   1.727   4.698 -1.7975  1.4323 -0.2551
 7371SOL    HW233750   0.502   1.678   4.812  1.2853  1.1301 -0.1381
 7372SOL     OW33751   0.633   2.196   5.677 -0.1268  0.2923 -0.5609
 7372SOL    HW133752   0.682   2.250   5.615 -0.2319 -0.8101 -1.6204
 7372SOL    HW233753   0.588   2.259   5.733 -0.2544 -0.5442  0.2716
 7373SOL     OW33754   3.663   3.636  15.586 -0.4699  0.1922  0.5773
 7373SOL    HW133755   3.691   3.706  15.526  1.0545 -0.8261  0.1185
 7373SOL    HW233756   3.578   3.609  15.552  0.3788 -2.6993  0.8309
 7374SOL     OW33757   0.976   4.623  12.643 -0.0423  0.6928  0.5819
 7374SOL    HW133758   1.050   4.642  12.584  0.3644  1.5634  1.3693
 7374SOL    HW233759   0.946   4.708  12.675  0.0009  0.5706  0.9485
 7375SOL     OW33760   0.756   2.517   3.425  0.1786 -0.0111 -0.1602
 7375SOL    HW133761   0.756   2.534   3.331  1.9721 -2.4883 -0.6145
 7375SOL    HW233762   0.726   2.426   3.425 -0.8029  0.3134  0.1085
 7376SOL     OW33763   3.464   0.838   6.727  0.0241  0.7224  0.4719
 7376SOL    HW133764   3.395   0.903   6.719 -0.4511  0.3879  1.9717
 7376SOL    HW233765   3.415   0.755   6.731 -0.7081  1.0788 -1.0731
 7377SOL     OW33766   4.302   3.315   2.965 -0.2306 -0.3444  0.3674
 7377SOL    HW133767   4.296   3.348   2.875  1.8032  1.3477  0.8520
 7377SOL    HW233768   4.333   3.393   3.011  1.3035 -0.6464 -0.1361
 7378SOL     OW33769   0.697   1.025   4.009  0.3986  0.3534  0.0959
 7378SOL    HW133770   0.612   1.029   3.965  1.4508 -0.8889 -2.0359
 7378SOL    HW233771   0.715   0.932   3.994 -0.3464  0.3033 -0.4893
 7379SOL     OW33772   2.597   2.523   9.795  0.3451 -0.0290  0.3177
 7379SOL    HW133773   2.512   2.497   9.832 -0.6021  0.0269 -1.7842
 7379SOL    HW233774   2.658   2.500   9.864  0.9082  0.7764  0.0900
 7380SOL     OW33775   2.495   3.167   7.363 -0.2439  0.0437  0.0164
 7380SOL    HW133776   2.540   3.200   7.285 -0.7511 -0.1776 -0.3699
 7380SOL    HW233777   2.478   3.076   7.340 -2.3569  0.0691  1.4391
 7381SOL     OW33778   1.095   3.589  12.456  0.0472  0.3139 -1.0122
 7381SOL    HW133779   1.150   3.651  12.505  1.0892 -2.3302  1.1277
 7381SOL    HW233780   1.160   3.554  12.395 -1.0337 -1.5763 -1.0782
 7382SOL     OW33781   2.951   1.524   8.185  0.0796  0.3538  0.2602
 7382SOL    HW133782   2.952   1.584   8.260 -1.0182  0.3641  0.2682
 7382SOL    HW233783   2.875   1.556   8.135  0.1994 -2.0029 -1.4054
 7383SOL     OW33784   2.702   2.916   7.118 -0.5024  0.0516  0.1294
 7383SOL    HW133785   2.717   3.007   7.145 -1.0630  0.3448 -0.5709
 7383SOL    HW233786   2.609   2.918   7.137 -0.3007 -3.4897  1.4752
 7384SOL     OW33787   0.689   0.598   8.085  0.4423 -0.5040 -0.0197
 7384SOL    HW133788   0.634   0.526   8.116  2.4861 -0.7612  2.9868
 7384SOL    HW233789   0.756   0.548   8.037  0.0579 -0.2790 -0.7826
 7385SOL     OW33790   3.003   0.363  11.915  0.1308  0.1153  0.6114
 7385SOL    HW133791   2.915   0.329  11.930  1.1026 -2.4184  0.4984
 7385SOL    HW233792   3.004   0.383  11.822  0.3159 -0.8296  0.4148
 7386SOL     OW33793   4.230   1.517  12.371 -0.4836 -0.3659 -0.2502
 7386SOL    HW133794   4.202   1.581  12.437 -0.8297  0.4136 -1.1339
 7386SOL    HW233795   4.295   1.565  12.319  0.8456 -0.9585  0.8819
 7387SOL     OW33796   3.823   2.289  10.817 -0.5546 -0.0065 -0.0934
 7387SOL    HW133797   3.917   2.281  10.831 -0.9973 -1.3085  2.2121
 7387SOL    HW233798   3.789   2.311  10.904 -2.3441  0.9882 -1.0354
 7388SOL     OW33799   1.943   2.788   9.692  0.3795  0.0305 -0.1628
 7388SOL    HW133800   1.881   2.785   9.766  0.7328 -2.2790  0.0371
 7388SOL    HW233801   1.876   2.790   9.624  0.0146  1.2174  0.2342
 7389SOL     OW33802   4.298   3.371   7.691 -0.1441  0.0187 -0.1683
 7389SOL    HW133803   4.312   3.466   7.699 -2.4342  0.3720 -0.1939
 7389SOL    HW233804   4.374   3.324   7.724 -0.0784  0.4019  0.2273
 7390SOL     OW33805   1.092   3.106   7.446 -0.1827  0.4207 -0.2195
 7390SOL    HW133806   1.079   3.032   7.387 -1.5873 -0.2347  0.9351
 7390SOL    HW233807   1.097   3.172   7.376 -0.8582  1.0419  0.3239
 7391SOL     OW33808   0.222   4.443  14.461  0.2717 -0.2302 -0.0402
 7391SOL    HW133809   0.259   4.367  14.414 -2.8860 -0.6308 -1.8667
 7391SOL    HW233810   0.279   4.448  14.537  0.9594 -0.3074 -0.5490
 7392SOL     OW33811   0.730   0.485   5.093  0.2203 -0.4281  0.1297
 7392SOL    HW133812   0.787   0.535   5.151 -1.5737 -1.1088  2.4776
 7392SOL    HW233813   0.764   0.515   5.009 -0.6859  1.3800  0.3896
 7393SOL     OW33814   0.086   3.409  12.283 -0.4708  0.0366  0.2512
 7393SOL    HW133815   0.021   3.403  12.353 -0.0223  3.3336  0.9178
 7393SOL    HW233816   0.171   3.406  12.326 -0.0099  1.1140 -0.6063
 7394SOL     OW33817   4.520   0.889   3.794 -0.3619 -0.0348  0.0408
 7394SOL    HW133818   4.454   0.881   3.726  0.1941 -1.5249 -0.3332
 7394SOL    HW233819   4.507   0.803   3.836  1.8002 -0.1018  0.5816
 7395SOL     OW33820   0.253   3.905  16.643  0.9691  0.2771  0.5232
 7395SOL    HW133821   0.304   3.920  16.563 -0.5575  1.2997 -0.2726
 7395SOL    HW233822   0.207   3.824  16.620 -0.4021  1.5449 -1.2792
 7396SOL     OW33823   2.787   1.020  10.083 -0.2153 -0.3685 -0.2073
 7396SOL    HW133824   2.859   1.037  10.022 -0.2238 -0.6303 -0.2925
 7396SOL    HW233825   2.742   1.104  10.082 -1.9557 -1.3169 -0.2136
 7397SOL     OW33826   2.489   0.628   1.812  0.3712 -0.1586 -0.0793
 7397SOL    HW133827   2.565   0.614   1.755  0.6964 -1.3713  0.6555
 7397SOL    HW233828   2.465   0.536   1.819 -0.9506  0.1711 -0.3827
 7398SOL     OW33829   0.260   0.906   6.919 -0.5658 -0.1542  0.1680
 7398SOL    HW133830   0.174   0.867   6.941 -0.8686  1.0657  1.1322
 7398SOL    HW233831   0.249   0.966   6.846 -0.6077  0.9829  1.1150
 7399SOL     OW33832   3.276   2.096  10.025 -0.5429 -0.4018  0.5025
 7399SOL    HW133833   3.183   2.077  10.030 -0.5588 -0.3887  0.2910
 7399SOL    HW233834   3.318   2.017  10.058  1.1528  1.5010  2.8492
 7400SOL     OW33835   3.197   3.869   8.462 -0.0481 -0.6630 -0.2625
 7400SOL    HW133836   3.238   3.824   8.388  0.5991  0.1898 -0.4274
 7400SOL    HW233837   3.104   3.863   8.440  0.2922 -1.7814 -1.4051
 7401SOL     OW33838   2.390   3.513   4.834  0.6452  0.1671  0.4091
 7401SOL    HW133839   2.337   3.448   4.788 -0.3651 -0.1749  2.0772
 7401SOL    HW233840   2.386   3.582   4.768 -0.2664  0.6786  1.0098
 7402SOL     OW33841   2.787   2.658   7.207  0.0826 -0.0106 -0.0454
 7402SOL    HW133842   2.757   2.743   7.175 -0.8153 -0.3590 -0.1209
 7402SOL    HW233843   2.704   2.625   7.241  0.9592 -0.4879  1.6639
 7403SOL     OW33844   1.841   2.325   8.569 -0.1416  0.0941  0.0298
 7403SOL    HW133845   1.753   2.290   8.576  0.2353 -1.3129 -2.1996
 7403SOL    HW233846   1.869   2.278   8.490  0.8469 -0.2690  0.5901
 7404SOL     OW33847   0.456   2.878   2.453 -0.6021  0.5003  0.4851
 7404SOL    HW133848   0.450   2.971   2.430  1.3404  0.0926 -1.6147
 7404SOL    HW233849   0.387   2.841   2.397  0.9360  0.3300 -1.2765
 7405SOL     OW33850   3.045   2.686   6.148  0.0918 -0.7066 -0.6542
 7405SOL    HW133851   3.049   2.619   6.216 -2.2634 -0.4463 -0.2369
 7405SOL    HW233852   3.051   2.761   6.207 -1.3174  0.2914 -1.7777
 7406SOL     OW33853   1.098   3.955   4.737  0.0131  0.3842 -0.9835
 7406SOL    HW133854   1.033   3.993   4.679 -0.2661 -0.7718 -1.4429
 7406SOL    HW233855   1.051   3.981   4.816  0.9683 -1.8116  0.3267
 7407SOL     OW33856   3.027   2.380   6.561 -0.3180  0.3754 -0.2463
 7407SOL    HW133857   2.990   2.358   6.647  0.8342  0.4911  0.2824
 7407SOL    HW233858   3.120   2.360   6.573 -0.4564 -0.2430 -0.2056
 7408SOL     OW33859   1.938   1.427  13.844  0.6376  0.1771 -0.2654
 7408SOL    HW133860   1.903   1.465  13.925  1.0531 -2.1449  0.9836
 7408SOL    HW233861   1.907   1.478  13.770 -1.0029  0.0044  0.3134
 7409SOL     OW33862   2.642   3.838   6.729 -0.2927  0.0973 -0.1773
 7409SOL    HW133863   2.623   3.899   6.658  0.2828 -0.2812 -0.6622
 7409SOL    HW233864   2.736   3.857   6.738 -0.1572 -0.6743  0.0445
 7410SOL     OW33865   3.077   3.831  13.625 -0.6792  0.4089 -0.7344
 7410SOL    HW133866   3.009   3.874  13.676 -0.4345  0.4125 -0.4056
 7410SOL    HW233867   3.019   3.761  13.595 -1.7171  0.7835  0.4135
 7411SOL     OW33868   2.185   1.140  15.949 -0.6102 -0.0919  0.0256
 7411SOL    HW133869   2.129   1.067  15.977 -1.7044  0.4946 -0.6482
 7411SOL    HW233870   2.248   1.128  16.020 -0.1862 -0.8110 -0.4727
 7412SOL     OW33871   0.275   1.035  11.853  0.0046 -0.4639 -0.5147
 7412SOL    HW133872   0.359   1.081  11.851 -0.5602  0.5611 -0.5951
 7412SOL    HW233873   0.209   1.101  11.875  0.5123 -0.6673  1.6077
 7413SOL     OW33874   3.619   1.710   0.743 -0.1478  0.8460 -0.3232
 7413SOL    HW133875   3.542   1.764   0.762 -0.4116 -0.3777  2.0257
 7413SOL    HW233876   3.659   1.753   0.667 -0.5533 -1.5023 -1.8633
 7414SOL     OW33877   3.772   3.601   3.405 -0.4408 -0.0794 -0.1422
 7414SOL    HW133878   3.768   3.692   3.434 -0.6068 -0.4396  0.9567
 7414SOL    HW233879   3.791   3.565   3.491  0.4800 -3.0975 -1.6107
 7415SOL     OW33880   3.688   0.926  16.930 -0.5227  0.0259  0.5809
 7415SOL    HW133881   3.735   1.009  16.928 -1.1357  0.3891  1.2241
 7415SOL    HW233882   3.691   0.899  17.022  0.5109  0.4321  0.6677
 7416SOL     OW33883   4.599   0.085   6.670  0.3678 -0.4871 -0.2295
 7416SOL    HW133884   4.532   0.020   6.646  0.5973 -0.1124 -1.8531
 7416SOL    HW233885   4.672   0.062   6.613  0.2828  1.5734 -1.1952
 7417SOL     OW33886   4.466   3.723   6.660  0.4021 -0.1539 -0.2217
 7417SOL    HW133887   4.384   3.730   6.709  0.4360  1.7086 -0.4069
 7417SOL    HW233888   4.521   3.790   6.701  0.1862 -1.0446  1.5157
 7418SOL     OW33889   4.485   2.948   6.172 -0.3631 -0.0113 -0.5177
 7418SOL    HW133890   4.406   2.987   6.135 -1.1329  0.1998  1.3388
 7418SOL    HW233891   4.474   2.865   6.127 -1.6908 -0.7671  1.1974
 7419SOL     OW33892   2.440   0.320   3.743  0.5330 -0.0048 -0.1463
 7419SOL    HW133893   2.454   0.320   3.649  0.6127  1.6388 -0.1243
 7419SOL    HW233894   2.353   0.284   3.761  0.0906  1.0504 -0.2002
 7420SOL     OW33895   2.956   3.976   4.572 -0.5206 -0.5657 -0.2350
 7420SOL    HW133896   2.981   3.925   4.496  1.1786 -0.8172  0.5126
 7420SOL    HW233897   2.907   4.048   4.531  0.8747  0.1276 -0.6680
 7421SOL     OW33898   4.721   2.269   1.640  0.3012  0.1493  0.3643
 7421SOL    HW133899   0.001   2.300   1.730 -3.0490  2.6793  0.0894
 7421SOL    HW233900   0.070   2.226   1.628  2.1492  3.6646  0.6082
 7422SOL     OW33901   0.586   0.978   9.273  0.7003 -0.0925  0.5660
 7422SOL    HW133902   0.540   1.060   9.288  2.4150  0.8849  0.4861
 7422SOL    HW233903   0.674   1.010   9.252  1.4136 -1.8166  0.8454
 7423SOL     OW33904   2.829   3.106   7.704  0.1826  0.0749  0.1609
 7423SOL    HW133905   2.784   3.081   7.785  1.3424 -0.7682  0.5302
 7423SOL    HW233906   2.873   3.024   7.686  0.7610  0.1948  1.0206
 7424SOL     OW33907   2.649   1.756   3.943 -0.5382 -0.1179  0.6427
 7424SOL    HW133908   2.587   1.827   3.926  0.2874  0.3664 -0.3445
 7424SOL    HW233909   2.581   1.689   3.958 -0.9684  0.3161  0.6290
 7425SOL     OW33910   1.865   3.547   0.746 -0.0360 -0.0962  0.4527
 7425SOL    HW133911   1.900   3.607   0.812  1.4705  0.4719 -0.8385
 7425SOL    HW233912   1.937   3.531   0.685 -0.3413  0.1710  0.0239
 7426SOL     OW33913   0.664   2.778   9.594  0.0778  0.2610  0.3501
 7426SOL    HW133914   0.666   2.705   9.655  2.5558  2.9674  3.5409
 7426SOL    HW233915   0.720   2.846   9.633 -1.9748  1.7845  0.6747
 7427SOL     OW33916   3.635   1.180   3.442 -0.0188  0.3407  0.0140
 7427SOL    HW133917   3.625   1.236   3.365  0.6510  0.7052  0.1879
 7427SOL    HW233918   3.546   1.149   3.451 -0.2201  0.5267 -1.2255
 7428SOL     OW33919   2.267   1.287   7.372  0.0316 -0.0469 -0.0380
 7428SOL    HW133920   2.350   1.303   7.328 -0.2021 -0.4499 -0.6240
 7428SOL    HW233921   2.219   1.235   7.308 -1.5915  0.1713  0.9983
 7429SOL     OW33922   4.224   4.022   9.215  0.2336 -0.1253  0.5324
 7429SOL    HW133923   4.207   4.104   9.168 -1.2580 -2.0653 -2.3262
 7429SOL    HW233924   4.227   4.045   9.308 -0.4916  0.9726  0.2916
 7430SOL     OW33925   4.350   1.865   0.320 -0.3702 -0.1346 -0.0351
 7430SOL    HW133926   4.344   1.950   0.277 -1.8644  0.5515  1.5326
 7430SOL    HW233927   4.345   1.802   0.248 -1.6210  0.2135 -0.2455
 7431SOL     OW33928   1.074   2.557  11.141  0.4525  0.2204 -0.5579
 7431SOL    HW133929   0.980   2.570  11.136  0.4903  0.0331 -1.7108
 7431SOL    HW233930   1.084   2.512  11.225 -1.9359  0.7817  0.0085
 7432SOL     OW33931   4.079   2.336  14.420  0.1372  0.2938 -0.2644
 7432SOL    HW133932   4.058   2.380  14.338 -0.2853  1.6391  0.5657
 7432SOL    HW233933   4.057   2.246  14.396  0.8591  0.2169 -0.6342
 7433SOL     OW33934   4.636   2.923  10.121  0.4127 -0.1485 -0.6683
 7433SOL    HW133935   4.604   2.836  10.098  1.3208  0.1047 -2.8341
 7433SOL    HW233936   4.615   2.930  10.214 -0.3431 -0.0040 -0.8469
 7434SOL     OW33937   0.596   0.089   3.034  0.0186 -0.3687  0.4624
 7434SOL    HW133938   0.632   0.001   3.038 -0.5820 -0.5457  1.9992
 7434SOL    HW233939   0.651   0.143   3.091  2.1615 -0.7351 -1.2338
 7435SOL     OW33940   2.470   0.610  11.724  0.2635  0.2927  0.3071
 7435SOL    HW133941   2.389   0.565  11.747  0.5571 -1.9196 -3.0038
 7435SOL    HW233942   2.444   0.664  11.649 -4.1299 -1.8378  0.2980
 7436SOL     OW33943   1.811   4.076   8.221 -0.4506  0.0251  0.2607
 7436SOL    HW133944   1.862   4.125   8.287 -0.1070 -2.2177  1.6587
 7436SOL    HW233945   1.725   4.105   8.252 -1.0672  1.2238 -2.6068
 7437SOL     OW33946   4.444   1.995   1.460  0.1818  0.0829 -0.1749
 7437SOL    HW133947   4.378   1.932   1.489  1.9161 -0.6348  2.2285
 7437SOL    HW233948   4.418   2.005   1.369  0.8844  0.3595 -0.3420
 7438SOL     OW33949   3.711   2.803   7.670  0.5114 -0.4768 -0.1341
 7438SOL    HW133950   3.698   2.876   7.609  0.2458 -0.4734 -0.0755
 7438SOL    HW233951   3.749   2.846   7.747  3.0262  0.6354 -2.0031
 7439SOL     OW33952   1.640   1.110   8.561 -0.2425 -0.1334  0.5394
 7439SOL    HW133953   1.650   1.174   8.632 -2.9850 -1.5807  2.2064
 7439SOL    HW233954   1.546   1.124   8.553 -0.3616 -0.2175  1.8724
 7440SOL     OW33955   2.183   2.182   7.418 -0.1728  0.1522  0.5317
 7440SOL    HW133956   2.213   2.251   7.476 -0.6786  1.6478 -0.9563
 7440SOL    HW233957   2.218   2.213   7.334  0.9349 -1.4007  0.4323
 7441SOL     OW33958   3.149   3.521   7.424 -0.6106 -0.9606 -0.3062
 7441SOL    HW133959   3.152   3.473   7.508 -1.2692 -0.6177 -0.0885
 7441SOL    HW233960   3.069   3.572   7.429  1.4398  2.2974 -0.7473
 7442SOL     OW33961   1.850   2.041   7.303  0.0591  0.1150  0.0532
 7442SOL    HW133962   1.867   2.119   7.250 -2.2245  1.0751  0.7042
 7442SOL    HW233963   1.887   2.067   7.387 -1.6382  1.4538  0.3872
 7443SOL     OW33964   4.527   0.383   9.373  0.0721 -0.2172  0.0309
 7443SOL    HW133965   4.523   0.288   9.364 -1.1081 -0.2459  0.7692
 7443SOL    HW233966   4.620   0.404   9.366  0.4151 -1.0919  1.8707
 7444SOL     OW33967   4.697   1.246   2.539  0.1727 -0.1956 -0.2724
 7444SOL    HW133968   4.702   1.152   2.525 -1.6583  0.3431 -4.5128
 7444SOL    HW233969   4.625   1.243   2.602  1.4380  0.7728  1.2261
 7445SOL     OW33970   2.732   4.391   5.467 -0.5472  0.0525  0.4561
 7445SOL    HW133971   2.744   4.326   5.536 -1.7801  0.6949  1.2822
 7445SOL    HW233972   2.741   4.472   5.518 -1.5693  1.4908 -1.6165
 7446SOL     OW33973   2.942   4.212  15.441  0.3136  0.6954  0.2437
 7446SOL    HW133974   2.929   4.306  15.433  0.4407  0.8357  1.7814
 7446SOL    HW233975   2.953   4.205  15.536 -0.8128  0.4295  0.3593
 7447SOL     OW33976   1.120   2.908  16.794  0.3473  0.1333  0.1281
 7447SOL    HW133977   1.187   2.862  16.845  0.2475 -0.1883 -0.0308
 7447SOL    HW233978   1.151   2.998  16.787  1.9779 -0.3901  0.6869
 7448SOL     OW33979   2.453   4.131   3.870 -0.1159  0.1342  0.4342
 7448SOL    HW133980   2.377   4.146   3.927  0.3259  1.9299  0.5460
 7448SOL    HW233981   2.500   4.206   3.905  2.2117 -0.5941 -1.1392
 7449SOL     OW33982   1.937   0.898   1.545 -0.1317 -0.3965  0.6428
 7449SOL    HW133983   1.947   0.816   1.593 -0.8707 -1.2228 -0.6341
 7449SOL    HW233984   1.844   0.914   1.561 -0.0004  1.1326 -0.1342
 7450SOL     OW33985   3.499   0.983   0.312  0.2521 -0.2631  0.0994
 7450SOL    HW133986   3.536   0.933   0.239  0.2251 -0.0520 -0.0597
 7450SOL    HW233987   3.563   1.054   0.320 -0.0021  0.0101 -0.2455
 7451SOL     OW33988   0.750   3.663   8.818 -0.1969 -0.1319  0.0010
 7451SOL    HW133989   0.831   3.661   8.768 -0.1905  1.3084 -0.0252
 7451SOL    HW233990   0.778   3.683   8.908 -0.9032  1.0665 -0.0479
 7452SOL     OW33991   2.578   2.481   5.723 -0.2091 -0.3759 -0.2107
 7452SOL    HW133992   2.590   2.411   5.788 -1.9619  0.4476  0.9732
 7452SOL    HW233993   2.596   2.561   5.772  1.3043 -0.5975 -0.3949
 7453SOL     OW33994   1.094   1.474   3.596  0.2995  0.6283 -0.6415
 7453SOL    HW133995   1.081   1.427   3.514  1.6768  1.1111 -1.1315
 7453SOL    HW233996   1.163   1.413   3.625 -0.0687  0.8353  0.6951
 7454SOL     OW33997   3.669   4.004   2.928  0.3760 -0.1042  0.3849
 7454SOL    HW133998   3.606   3.937   2.954 -0.9110  0.3921 -1.4042
 7454SOL    HW233999   3.689   4.053   3.007 -2.4270  1.4313  0.1311
 7455SOL     OW34000   4.247   3.446   6.881  0.1233  0.1108 -0.2884
 7455SOL    HW134001   4.188   3.400   6.941 -0.3284  0.1142 -0.7315
 7455SOL    HW234002   4.331   3.411   6.911  1.8533  2.9453 -1.8673
 7456SOL     OW34003   2.796   2.686   1.901  0.0069  0.3960 -0.6206
 7456SOL    HW134004   2.786   2.778   1.879 -1.9444 -0.0070 -1.3848
 7456SOL    HW234005   2.753   2.646   1.825  0.7196 -1.0182 -0.2815
 7457SOL     OW34006   3.155   0.124   8.038 -0.3060 -0.7891 -0.0487
 7457SOL    HW134007   3.107   0.057   7.989 -0.2634 -0.1815 -0.9258
 7457SOL    HW234008   3.106   0.204   8.021  1.3521 -0.3564 -2.7892
 7458SOL     OW34009   3.539   0.464   4.843 -0.2627  0.1412 -0.3660
 7458SOL    HW134010   3.574   0.547   4.809 -0.1909  0.7322  1.1293
 7458SOL    HW234011   3.449   0.486   4.866  0.2648 -1.2657  3.0524
 7459SOL     OW34012   2.465   3.147   1.836 -0.0358 -0.0166  0.2260
 7459SOL    HW134013   2.497   3.106   1.916  0.2066 -0.8978 -0.3203
 7459SOL    HW234014   2.473   3.077   1.771 -0.5735 -0.9081  1.1168
 7460SOL     OW34015   0.839   4.419   6.423  0.5521  0.2679  0.3080
 7460SOL    HW134016   0.820   4.328   6.400  0.2757  0.3201  0.3375
 7460SOL    HW234017   0.876   4.454   6.342 -0.5617 -2.1347 -1.2351
 7461SOL     OW34018   4.336   1.550   1.937  0.0332  0.3239  0.2392
 7461SOL    HW134019   4.249   1.588   1.946 -0.1304  0.2705 -1.2540
 7461SOL    HW234020   4.359   1.592   1.855 -0.7267  3.3848  1.5988
 7462SOL     OW34021   1.273   0.665   3.594  0.3061 -0.6569  0.7506
 7462SOL    HW134022   1.184   0.696   3.579  0.5899 -0.1603  0.1232
 7462SOL    HW234023   1.328   0.726   3.544 -0.3401  0.6514  1.6477
 7463SOL     OW34024   1.257   0.081  11.784 -0.0030 -0.0737 -0.3203
 7463SOL    HW134025   1.279   0.170  11.813  1.5461 -0.1778 -1.1746
 7463SOL    HW234026   1.341   0.052  11.749 -0.9273 -1.3985 -1.4200
 7464SOL     OW34027   3.032   3.500   9.186 -0.3867  0.0107 -0.5682
 7464SOL    HW134028   2.950   3.453   9.172  0.4986 -1.4183 -0.9608
 7464SOL    HW234029   3.065   3.438   9.252 -0.9030  1.8436  1.4248
 7465SOL     OW34030   2.015   1.581   5.539 -1.1593  0.2023  0.1265
 7465SOL    HW134031   1.922   1.563   5.548 -0.8528 -0.0727  2.5736
 7465SOL    HW234032   2.032   1.513   5.473 -0.7887  1.3015 -0.9281
 7466SOL     OW34033   1.167   1.847   8.279  0.1751  0.3338 -0.0631
 7466SOL    HW134034   1.227   1.820   8.210  0.3601 -0.0601  0.2569
 7466SOL    HW234035   1.190   1.789   8.352  0.3140  0.2097 -0.2061
 7467SOL     OW34036   0.209   3.872   2.498 -0.1889  0.3100 -0.2864
 7467SOL    HW134037   0.235   3.961   2.474  1.5721 -0.4478 -1.1706
 7467SOL    HW234038   0.129   3.899   2.544  0.1395  1.6180 -0.4944
 7468SOL     OW34039   1.798   0.853   7.923  0.0794 -0.5057  0.2176
 7468SOL    HW134040   1.848   0.933   7.907  0.2401 -0.5995  0.2463
 7468SOL    HW234041   1.851   0.798   7.865  1.9658 -1.1400  2.5450
 7469SOL     OW34042   4.216   1.061   5.089  0.3259  0.4152 -0.2004
 7469SOL    HW134043   4.198   1.128   5.155 -3.9862  0.1675 -1.1358
 7469SOL    HW234044   4.251   1.123   5.024  0.3854  1.4004  0.7545
 7470SOL     OW34045   2.384   2.411  16.875  0.0006 -0.2802  0.4751
 7470SOL    HW134046   2.436   2.436  16.950  0.9756  0.2056 -0.3715
 7470SOL    HW234047   2.307   2.465  16.893  0.6760  0.3154  1.5431
 7471SOL     OW34048   1.649   1.785  13.338  0.3096  0.9614  0.4232
 7471SOL    HW134049   1.681   1.831  13.415  0.2126  0.4436  0.7805
 7471SOL    HW234050   1.571   1.837  13.318 -0.2919  0.9303  2.7148
 7472SOL     OW34051   2.174   2.847   1.599 -0.2219  0.4473  0.0240
 7472SOL    HW134052   2.209   2.807   1.679 -1.3349  1.1789  0.8722
 7472SOL    HW234053   2.161   2.937   1.628  0.7908  1.1599 -1.7486
 7473SOL     OW34054   3.273   3.104   1.321  0.1243  0.3408  0.5258
 7473SOL    HW134055   3.301   3.141   1.237 -2.3296  0.6814 -0.1477
 7473SOL    HW234056   3.353   3.090   1.372  0.0196 -0.0741  0.5769
 7474SOL     OW34057   0.782   3.612  12.799 -0.3097  0.6306 -0.1759
 7474SOL    HW134058   0.874   3.587  12.785 -0.0357  1.3329  0.3342
 7474SOL    HW234059   0.787   3.706  12.780 -1.3248  0.4705 -1.2247
 7475SOL     OW34060   0.527   4.074  13.219 -0.1845  0.4406  0.0773
 7475SOL    HW134061   0.486   4.059  13.304  1.5426  0.2123  0.8703
 7475SOL    HW234062   0.615   4.070  13.256  0.4300  1.7985 -1.2557
 7476SOL     OW34063   2.549   1.082   5.239  0.6741  0.1729  0.5990
 7476SOL    HW134064   2.575   0.993   5.216 -2.4486 -1.3874  3.2068
 7476SOL    HW234065   2.604   1.125   5.173  1.3222  0.2878  1.2122
 7477SOL     OW34066   1.205   1.967   4.379  0.6303 -0.0308 -0.1757
 7477SOL    HW134067   1.280   2.023   4.395 -0.5250  1.0265  1.5165
 7477SOL    HW234068   1.179   1.953   4.470  1.4054  0.7004  0.1535
 7478SOL     OW34069   3.900   2.905   0.748  0.9046  0.0651  0.0584
 7478SOL    HW134070   3.873   2.906   0.840 -0.1794 -0.3210 -0.2519
 7478SOL    HW234071   3.843   2.971   0.708  1.2780  0.7719  0.6826
 7479SOL     OW34072   2.408   4.007   6.061  0.1664  0.1617 -0.2320
 7479SOL    HW134073   2.382   3.916   6.049  0.2888  0.3330 -1.7769
 7479SOL    HW234074   2.405   4.033   6.153  0.0842 -0.3302 -0.1000
 7480SOL     OW34075   3.420   0.665   4.045  0.2611  0.1841 -0.0489
 7480SOL    HW134076   3.501   0.639   4.090 -1.0318 -0.0083  2.1452
 7480SOL    HW234077   3.412   0.734   4.111 -0.9588 -0.2021  0.2032
 7481SOL     OW34078   0.305   3.849   8.579  0.5708  0.3049  0.4743
 7481SOL    HW134079   0.256   3.798   8.643 -0.3012 -0.2782 -0.6733
 7481SOL    HW234080   0.389   3.852   8.625  0.3795 -0.7504  0.8882
 7482SOL     OW34081   2.586   4.438   8.378 -0.1473  0.5842  0.2745
 7482SOL    HW134082   2.541   4.353   8.373 -1.5959  1.4274 -1.0127
 7482SOL    HW234083   2.664   4.416   8.430  0.4209  2.9422  0.3993
 7483SOL     OW34084   2.509   4.105   2.161 -0.0774 -0.3021  0.8462
 7483SOL    HW134085   2.415   4.089   2.150  0.2205 -0.6262 -1.2632
 7483SOL    HW234086   2.549   4.019   2.155  0.3292  0.0906 -2.5760
 7484SOL     OW34087   3.924   4.650   3.602  0.0947  0.1294  0.1519
 7484SOL    HW134088   3.956   4.687   3.685 -1.2007 -0.0829  0.7489
 7484SOL    HW234089   3.966   4.715   3.546 -0.5177 -0.4386 -0.9509
 7485SOL     OW34090   0.336   2.314   5.637 -0.1002  0.0484 -0.0986
 7485SOL    HW134091   0.296   2.302   5.724  0.7335  2.4698  0.6330
 7485SOL    HW234092   0.417   2.363   5.646 -0.6064  0.3283  3.2589
 7486SOL     OW34093   0.654   0.185  13.561 -0.0514  0.3792 -0.1252
 7486SOL    HW134094   0.745   0.202  13.583 -0.3198  1.6467  0.0081
 7486SOL    HW234095   0.618   0.273  13.563  0.7460  0.6774  1.0684
 7487SOL     OW34096   3.773   1.077   8.101  0.0553  0.2281  0.0947
 7487SOL    HW134097   3.790   1.155   8.048  1.5205 -0.0546  0.1631
 7487SOL    HW234098   3.854   1.033   8.077  0.1422  0.3250  0.2074
 7488SOL     OW34099   1.771   4.437   4.738 -0.7311 -0.0021  0.0679
 7488SOL    HW134100   1.763   4.499   4.810  1.1288 -0.9606  1.1034
 7488SOL    HW234101   1.809   4.495   4.672 -1.4301  0.3589 -0.0101
 7489SOL     OW34102   4.370   4.132  13.726 -0.3790 -0.5030  0.2888
 7489SOL    HW134103   4.298   4.134  13.664  0.6068 -0.7931 -0.8676
 7489SOL    HW234104   4.413   4.050  13.702 -1.0937 -0.6551 -0.4351
 7490SOL     OW34105   1.096   0.787  17.075 -0.5453  0.3416  0.1965
 7490SOL    HW134106   1.060   0.874  17.092 -2.2039 -0.7038  2.0814
 7490SOL    HW234107   1.159   0.812  17.007 -1.9794  1.3509 -0.7714
 7491SOL     OW34108   0.072   0.693   7.773 -0.0144  0.0949 -0.2652
 7491SOL    HW134109   0.067   0.598   7.781 -0.7284  0.3276  1.9755
 7491SOL    HW234110   4.735   0.716   7.830  0.9351  0.7920  0.6672
 7492SOL     OW34111   1.541   1.312   3.243  0.3973  0.4228  0.5687
 7492SOL    HW134112   1.579   1.307   3.155  2.6218  3.1525  1.3938
 7492SOL    HW234113   1.615   1.331   3.300  0.4352  1.1048  0.2919
 7493SOL     OW34114   4.194   1.497  15.265 -0.5753 -0.0808  0.3863
 7493SOL    HW134115   4.264   1.534  15.212  1.4243 -3.8799  0.4158
 7493SOL    HW234116   4.141   1.475  15.188 -2.8818 -1.4485  2.3529
 7494SOL     OW34117   0.465   2.958   6.677 -0.1718  0.0196 -0.6121
 7494SOL    HW134118   0.392   2.935   6.735  0.3292 -0.1607 -0.0607
 7494SOL    HW234119   0.418   3.040   6.660  0.1499  0.2414 -0.4267
 7495SOL     OW34120   1.463   3.190   3.777  0.2520  0.6191 -0.5647
 7495SOL    HW134121   1.393   3.243   3.739 -0.2487 -0.1740 -0.7441
 7495SOL    HW234122   1.529   3.255   3.804  3.4032 -2.6463 -0.3865
 7496SOL     OW34123   4.412   1.796   3.631  0.6373 -0.0639  0.0389
 7496SOL    HW134124   4.355   1.791   3.708  0.1405 -0.5515 -0.3589
 7496SOL    HW234125   4.347   1.836   3.573  0.1058 -1.1588 -0.1312
 7497SOL     OW34126   3.886   1.667   5.454 -0.3307 -0.3001 -0.1376
 7497SOL    HW134127   3.946   1.659   5.380  1.1822  1.1490  0.9211
 7497SOL    HW234128   3.915   1.744   5.504  1.1621 -1.9652  1.5296
 7498SOL     OW34129   3.517   4.358   8.542  0.0990  0.2195  0.0572
 7498SOL    HW134130   3.564   4.277   8.564  0.7881  0.6991  0.3321
 7498SOL    HW234131   3.584   4.425   8.551  0.0208  0.3801 -0.5908
 7499SOL     OW34132   3.451   4.713   4.970 -0.4183  0.4593 -0.6941
 7499SOL    HW134133   3.398   0.042   5.014  2.4796  1.6629  1.0445
 7499SOL    HW234134   3.503   0.038   4.917  0.7004  0.7493  0.7398
 7500SOL     OW34135   1.972   4.291  16.075  0.1822  0.1533  0.1712
 7500SOL    HW134136   2.047   4.232  16.086 -0.3494 -0.6946 -0.7777
 7500SOL    HW234137   1.980   4.350  16.150 -0.8446 -1.2249  1.3951
 7501SOL     OW34138   4.465   4.258  13.049  0.4718 -0.2465 -0.0561
 7501SOL    HW134139   4.523   4.334  13.056 -0.1146  0.1841  0.1161
 7501SOL    HW234140   4.476   4.234  12.957 -0.7703  1.8532 -0.7466
 7502SOL     OW34141   3.480   0.681   7.267 -0.6913 -0.1242 -0.0036
 7502SOL    HW134142   3.544   0.724   7.324  1.5321 -0.6617 -2.0854
 7502SOL    HW234143   3.412   0.654   7.329  0.3914 -2.1014  0.3306
 7503SOL     OW34144   1.360   3.905   8.724 -0.2779  0.0913 -0.7348
 7503SOL    HW134145   1.267   3.927   8.733 -0.0608  0.2146  1.3078
 7503SOL    HW234146   1.402   3.985   8.755 -3.1556  0.9397  1.0523
 7504SOL     OW34147   2.085   4.662   1.804  0.0100  0.1467 -0.1737
 7504SOL    HW134148   2.167   4.681   1.759 -0.2319 -0.1218 -0.7273
 7504SOL    HW234149   2.093   4.573   1.839  0.3302 -0.7710 -2.5742
 7505SOL     OW34150   2.638   2.335   0.217 -0.3747 -0.2404  0.4007
 7505SOL    HW134151   2.620   2.414   0.166 -0.1993  0.3429  1.2321
 7505SOL    HW234152   2.703   2.362   0.283  0.5706 -0.3851 -0.4825
 7506SOL     OW34153   3.722   0.144   8.107 -0.1213  0.0016 -0.2025
 7506SOL    HW134154   3.725   0.147   8.203  0.4837  2.0081 -0.2927
 7506SOL    HW234155   3.648   0.203   8.093  0.5427  0.3477 -2.2387
 7507SOL     OW34156   0.878   2.114   8.637  0.1955  0.1101  0.6315
 7507SOL    HW134157   0.844   2.106   8.726  2.3304 -0.4191  1.3952
 7507SOL    HW234158   0.823   2.182   8.598  1.1155  0.9382  0.7734
 7508SOL     OW34159   1.738   2.471  12.326  0.6988  0.6909  0.5529
 7508SOL    HW134160   1.807   2.433  12.272  0.0083  1.8033 -1.1034
 7508SOL    HW234161   1.764   2.455  12.417 -0.5468  2.6434  1.2598
 7509SOL     OW34162   3.778   0.039   3.319 -0.6917 -0.0552  0.2593
 7509SOL    HW134163   3.808   4.720   3.246  1.6523 -0.8398  1.7887
 7509SOL    HW234164   3.701   4.721   3.332  0.2711 -1.1039  1.6617
 7510SOL     OW34165   4.405   2.273   9.517 -0.5840  0.2874 -0.0431
 7510SOL    HW134166   4.463   2.327   9.464 -0.9327  0.3816 -0.3268
 7510SOL    HW234167   4.434   2.184   9.496  0.4920  0.6652 -0.1198
 7511SOL     OW34168   4.728   4.426   5.459 -0.5857 -0.2919 -0.0128
 7511SOL    HW134169   4.690   4.356   5.512 -0.3703  1.2228  2.1279
 7511SOL    HW234170   4.684   4.423   5.374 -1.8519  0.4909  0.6118
 7512SOL     OW34171   2.988   0.480   3.179  0.1356 -0.9035 -0.1987
 7512SOL    HW134172   2.934   0.432   3.242 -0.3850  0.7164  0.6013
 7512SOL    HW234173   3.075   0.490   3.218 -1.0159  2.7420  1.3959
 7513SOL     OW34174   3.117   1.399  13.826 -0.6943 -0.1104 -0.9901
 7513SOL    HW134175   3.208   1.414  13.801 -0.6350 -0.2508 -0.8582
 7513SOL    HW234176   3.084   1.337  13.762  0.3619 -0.7434 -0.9354
 7514SOL     OW34177   0.453   4.285   4.696  0.5229  0.1056 -0.1306
 7514SOL    HW134178   0.448   4.336   4.777 -0.4292  2.1492 -1.4965
 7514SOL    HW234179   0.412   4.351   4.640  0.7814 -1.0063 -1.6300
 7515SOL     OW34180   0.535   0.372   5.310 -0.2224 -0.0997 -0.5697
 7515SOL    HW134181   0.602   0.419   5.359 -0.6529 -0.1012  0.0204
 7515SOL    HW234182   0.498   0.446   5.262  0.0426  0.0513 -0.5438
 7516SOL     OW34183   2.496   3.516  15.560 -0.5590 -0.2000  0.3217
 7516SOL    HW134184   2.448   3.434  15.555  2.0781 -1.8385  2.3072
 7516SOL    HW234185   2.584   3.480  15.549 -0.8679 -1.0976  0.7938
 7517SOL     OW34186   3.660   0.945   6.873  0.1685 -0.0213 -0.3319
 7517SOL    HW134187   3.574   0.930   6.834 -0.1162  0.1688  0.2196
 7517SOL    HW234188   3.717   0.941   6.796  0.9895 -0.9713  0.3366
 7518SOL     OW34189   0.510   3.350  17.027  0.5351 -0.2202 -0.1735
 7518SOL    HW134190   0.517   3.257  17.048  1.4992  0.0981  0.8863
 7518SOL    HW234191   0.477   3.359  16.938  1.5751  0.4646 -0.4900
 7519SOL     OW34192   4.018   2.110  12.314 -0.1796  0.3182 -0.3290
 7519SOL    HW134193   3.950   2.073  12.371 -0.0079 -0.2840 -0.5127
 7519SOL    HW234194   4.073   2.171  12.362 -3.1675  1.5601  1.5604
 7520SOL     OW34195   0.312   0.001   7.620 -0.6281  0.5209 -0.4438
 7520SOL    HW134196   0.220   4.710   7.614 -0.1442 -0.8887 -1.4470
 7520SOL    HW234197   0.358   4.654   7.610  0.7160  1.3370 -1.1669
 7521SOL     OW34198   0.958   3.493   6.816  0.2681 -0.4535 -0.0800
 7521SOL    HW134199   0.947   3.460   6.727 -0.6822 -0.8298  0.1828
 7521SOL    HW234200   0.878   3.545   6.824 -0.3727 -1.7895  2.1674
 7522SOL     OW34201   1.091   2.480   6.329  0.7688  0.4314  0.2004
 7522SOL    HW134202   1.010   2.482   6.278  2.4230  1.8922 -2.3894
 7522SOL    HW234203   1.118   2.389   6.315 -3.0580 -0.0852 -3.8808
 7523SOL     OW34204   3.104   0.680   6.161  0.0420 -0.5440 -0.2432
 7523SOL    HW134205   3.148   0.603   6.195 -0.1299 -0.5278  0.0190
 7523SOL    HW234206   3.164   0.709   6.093  0.2015 -0.4756 -0.0742
 7524SOL     OW34207   0.956   1.039   9.587  0.1073  0.4465 -0.2836
 7524SOL    HW134208   1.006   1.063   9.510 -0.5257  1.4287 -0.3897
 7524SOL    HW234209   0.878   1.094   9.575  1.1670  1.2421 -3.4809
 7525SOL     OW34210   2.513   2.712   7.170  0.0087  0.9282  0.0948
 7525SOL    HW134211   2.557   2.694   7.087  1.2206  0.0974  0.9081
 7525SOL    HW234212   2.441   2.650   7.159  1.4043 -0.9451  1.4317
 7526SOL     OW34213   1.082   2.731   1.806 -0.5830 -0.1601  0.3540
 7526SOL    HW134214   1.041   2.652   1.771  0.4369  1.0568 -3.6375
 7526SOL    HW234215   1.076   2.717   1.901  0.1017 -1.8378  0.1636
 7527SOL     OW34216   2.363   1.404   5.039 -0.1792 -0.1492  0.6394
 7527SOL    HW134217   2.297   1.364   4.983  2.2731 -0.3340 -2.0717
 7527SOL    HW234218   2.337   1.370   5.125 -1.9097  2.3029  1.0983
 7528SOL     OW34219   1.985   4.214   2.324 -0.0272 -0.6748 -0.4511
 7528SOL    HW134220   1.969   4.132   2.279 -1.8238  0.7349 -2.3591
 7528SOL    HW234221   1.937   4.195   2.405  0.5847  0.3224  0.1601
 7529SOL     OW34222   2.059   2.015   4.038 -0.4650  0.3038 -0.3032
 7529SOL    HW134223   2.105   2.097   4.050 -1.8233  1.1493 -0.8853
 7529SOL    HW234224   2.062   2.001   3.943  0.9687  0.3630 -0.2706
 7530SOL     OW34225   4.711   3.712   4.151 -0.1461 -0.0056  0.6447
 7530SOL    HW134226   0.058   3.675   4.182  0.7896  1.4775 -0.1607
 7530SOL    HW234227   4.715   3.792   4.203 -0.2873 -0.7860  1.8865
 7531SOL     OW34228   0.400   3.701  16.173  0.0582 -0.2455  0.3100
 7531SOL    HW134229   0.445   3.707  16.089 -0.3101  0.9873  0.2166
 7531SOL    HW234230   0.326   3.641  16.163  0.5324 -0.5042 -1.6504
 7532SOL     OW34231   0.133   1.339  15.678  0.0650  0.2448 -0.3846
 7532SOL    HW134232   0.096   1.313  15.595 -1.3228  1.4728 -0.1462
 7532SOL    HW234233   0.207   1.279  15.666  0.3196  0.7317 -1.2351
 7533SOL     OW34234   4.698   1.208   8.252  0.3112 -0.1171  0.1167
 7533SOL    HW134235   0.019   1.184   8.179  1.8443  0.8972  0.9670
 7533SOL    HW234236   4.624   1.150   8.237  1.6366 -1.4700 -1.1274
 7534SOL     OW34237   4.491   3.351   1.686 -0.0978 -0.4006  0.1345
 7534SOL    HW134238   4.533   3.315   1.764 -1.5797  0.2989  1.2655
 7534SOL    HW234239   4.570   3.380   1.641 -0.4286 -2.3394 -1.6714
 7535SOL     OW34240   1.209   0.518   5.255 -0.0167  0.0399  0.0758
 7535SOL    HW134241   1.142   0.534   5.321  0.2438  1.0754  0.0948
 7535SOL    HW234242   1.195   0.593   5.196  0.3575  0.4614  0.5196
 7536SOL     OW34243   1.636   1.571   3.768 -0.1833 -0.1197 -0.1677
 7536SOL    HW134244   1.561   1.626   3.790  0.6444  0.5388  1.0169
 7536SOL    HW234245   1.637   1.511   3.843 -0.7090  1.2897  0.9758
 7537SOL     OW34246   4.425   3.174   6.707 -0.1097  0.5250 -0.3062
 7537SOL    HW134247   4.366   3.116   6.755  0.6363  1.5574  1.8491
 7537SOL    HW234248   4.366   3.232   6.658 -0.0196  1.9980  1.3339
 7538SOL     OW34249   2.495   3.368  16.640  0.7681 -0.0311 -0.1581
 7538SOL    HW134250   2.567   3.305  16.633  0.7336 -0.1293  0.3538
 7538SOL    HW234251   2.497   3.381  16.735  1.8461 -1.1468 -0.0309
 7539SOL     OW34252   3.323   2.297   5.675 -0.2310 -0.5190  0.0988
 7539SOL    HW134253   3.357   2.383   5.701 -1.2191 -0.0120 -0.3126
 7539SOL    HW234254   3.230   2.303   5.697 -0.8269 -1.6385 -2.1830
 7540SOL     OW34255   3.668   0.310   2.019  0.7596 -0.7783  0.1847
 7540SOL    HW134256   3.605   0.273   2.081 -0.6135  2.4405  0.7441
 7540SOL    HW234257   3.647   0.247   1.950  0.6177 -0.5482  0.0155
 7541SOL     OW34258   1.946   2.605   5.367  0.4032  0.4388  1.1745
 7541SOL    HW134259   1.867   2.642   5.325  0.4003  0.2270  0.9904
 7541SOL    HW234260   1.967   2.536   5.305 -2.2655  2.5639 -2.1355
 7542SOL     OW34261   3.774   0.777  11.192 -0.8575 -0.5985  0.5015
 7542SOL    HW134262   3.833   0.853  11.187 -2.4859  0.5880 -0.4131
 7542SOL    HW234263   3.793   0.730  11.111  0.5823  1.7745 -0.5531
 7543SOL     OW34264   4.128   4.271   4.734 -1.1349 -0.5611 -0.1344
 7543SOL    HW134265   4.098   4.203   4.793  0.9544 -0.1831  1.3664
 7543SOL    HW234266   4.072   4.349   4.733  1.4526  1.3427  1.5078
 7544SOL     OW34267   1.616   3.852   0.256 -0.1981 -0.6022 -0.2370
 7544SOL    HW134268   1.594   3.871   0.347 -1.9646  0.4254 -0.8848
 7544SOL    HW234269   1.684   3.785   0.260  1.1327  0.8677  2.1646
 7545SOL     OW34270   2.614   0.994  17.059 -0.2290 -1.0805 -0.4429
 7545SOL    HW134271   2.598   1.024  16.969  2.4309  3.9372  0.7635
 7545SOL    HW234272   2.595   0.900  17.054  1.3470 -1.4460  0.4283
 7546SOL     OW34273   2.914   2.169   6.097  0.3966  0.0762  0.2680
 7546SOL    HW134274   2.868   2.209   6.171  0.2912 -0.9152  0.7392
 7546SOL    HW234275   3.006   2.173   6.122  0.0225 -1.3151  1.8266
 7547SOL     OW34276   0.732   0.013   8.511 -0.5389  0.1993 -0.5588
 7547SOL    HW134277   0.713   0.058   8.593 -0.5055  0.0347 -0.4616
 7547SOL    HW234278   0.646   4.708   8.517  0.8814 -2.7070 -0.3359
 7548SOL     OW34279   0.123   2.269  16.159 -0.0892 -0.1541  0.0535
 7548SOL    HW134280   0.084   2.238  16.077  0.5875  0.4032 -0.4779
 7548SOL    HW234281   0.213   2.243  16.139  0.4060  1.8589 -0.3554
 7549SOL     OW34282   1.050   3.455   7.716 -0.4498 -0.0892 -0.3841
 7549SOL    HW134283   1.116   3.390   7.693 -0.5048 -0.5498  0.7227
 7549SOL    HW234284   1.043   3.510   7.639 -2.0782 -0.0363 -0.2038
 7550SOL     OW34285   2.614   0.299   8.801  0.5712  0.3088 -0.0036
 7550SOL    HW134286   2.622   0.254   8.717  0.3480  2.1320 -1.0101
 7550SOL    HW234287   2.583   0.226   8.854  0.2129  0.0385 -0.5874
 7551SOL     OW34288   0.812   1.672   1.716 -0.4325 -0.3770 -0.4057
 7551SOL    HW134289   0.831   1.740   1.780 -2.7562 -0.1443  0.0425
 7551SOL    HW234290   0.833   1.716   1.634 -0.7597  0.8462  0.1659
 7552SOL     OW34291   3.742   2.149   7.286 -0.1424 -0.2445  0.9178
 7552SOL    HW134292   3.695   2.110   7.213 -0.6682 -0.5683  1.4289
 7552SOL    HW234293   3.759   2.239   7.258  0.0354 -1.0595 -1.5646
 7553SOL     OW34294   1.196   0.418   1.682  0.4415  0.1911 -0.2139
 7553SOL    HW134295   1.128   0.352   1.679 -0.6124  1.1916  1.6287
 7553SOL    HW234296   1.148   0.482   1.630  1.8941  0.9146 -0.6785
 7554SOL     OW34297   2.912   0.562  13.061 -0.2981  0.4983  0.3714
 7554SOL    HW134298   3.007   0.556  13.068 -0.4113 -2.3785 -0.4496
 7554SOL    HW234299   2.894   0.656  13.063 -0.5529  0.4759 -1.1498
 7555SOL     OW34300   1.986   4.110   4.975 -0.5311 -0.1311 -0.4407
 7555SOL    HW134301   2.075   4.143   4.989  0.2201 -1.3470 -2.3545
 7555SOL    HW234302   1.947   4.186   4.932  1.0120 -0.3997 -2.3227
 7556SOL     OW34303   1.424   3.324   6.194  0.0300  0.0173 -0.2298
 7556SOL    HW134304   1.407   3.290   6.282 -0.6241 -0.8849 -0.7174
 7556SOL    HW234305   1.514   3.291   6.186  0.2846  0.2806  1.4555
 7557SOL     OW34306   4.163   0.921   6.847 -0.3153  0.0987  0.7989
 7557SOL    HW134307   4.245   0.913   6.798 -1.8495 -1.6455 -1.5066
 7557SOL    HW234308   4.093   0.882   6.794 -0.8865  1.7402  0.3645
 7558SOL     OW34309   2.865   3.160   7.121 -0.3301  0.3224 -0.4603
 7558SOL    HW134310   2.954   3.133   7.145  0.2832  1.1400 -1.7587
 7558SOL    HW234311   2.895   3.251   7.111  0.5902  0.2251  1.4696
 7559SOL     OW34312   4.432   2.138   6.000  0.8210  0.2074  0.0308
 7559SOL    HW134313   4.345   2.176   6.011  0.4494 -0.3351 -1.0263
 7559SOL    HW234314   4.484   2.219   5.998  1.8963 -0.4587  1.2242
 7560SOL     OW34315   0.969   0.070  13.389  0.2184 -0.1772  0.3076
 7560SOL    HW134316   0.959   0.095  13.297  1.3332  0.8484  0.4665
 7560SOL    HW234317   0.910   0.126  13.439 -0.3813  0.1289 -0.7457
 7561SOL     OW34318   0.219   0.500   9.602 -0.3298 -0.2854 -0.1917
 7561SOL    HW134319   0.212   0.539   9.688  2.9562  0.9003 -0.4353
 7561SOL    HW234320   0.234   0.407   9.622  2.8934  0.3356  0.3904
 7562SOL     OW34321   3.410   0.605   6.981  0.6228 -0.2791 -0.4222
 7562SOL    HW134322   3.378   0.690   7.013 -1.5792 -0.6724 -1.5726
 7562SOL    HW234323   3.497   0.603   7.021  0.5463  0.0204 -0.2373
 7563SOL     OW34324   3.358   4.511   1.417  0.3089  0.3984 -0.3147
 7563SOL    HW134325   3.305   4.578   1.375 -0.0744 -0.0992 -0.6252
 7563SOL    HW234326   3.335   4.447   1.350 -1.6339  1.2635 -0.4665
 7564SOL     OW34327   2.913   1.915   8.479  0.2014  0.0849 -0.1824
 7564SOL    HW134328   2.973   1.869   8.420  0.2466 -1.2092  0.8758
 7564SOL    HW234329   2.966   1.917   8.559 -2.0241  2.1242  1.2263
 7565SOL     OW34330   4.729   3.039   2.824 -0.2369  0.6019  0.3594
 7565SOL    HW134331   4.643   3.025   2.786  0.5674  0.4100 -1.3736
 7565SOL    HW234332   0.011   2.946   2.840 -3.0317 -0.1566 -0.9742
 7566SOL     OW34333   1.366   2.417   6.260  0.3093  0.0242 -0.3174
 7566SOL    HW134334   1.332   2.507   6.259 -0.2848 -0.2005 -0.5436
 7566SOL    HW234335   1.321   2.365   6.193  3.2224 -1.1480 -1.3667
 7567SOL     OW34336   3.575   4.180   4.169 -0.4164  0.3737  0.6001
 7567SOL    HW134337   3.630   4.101   4.174  0.6210  0.9494 -1.3951
 7567SOL    HW234338   3.491   4.162   4.209 -0.6888 -2.4295 -1.1837
 7568SOL     OW34339   2.981   1.575   7.084  0.1334 -0.0233  0.4776
 7568SOL    HW134340   2.895   1.549   7.051 -0.1167  1.9693 -0.4540
 7568SOL    HW234341   2.956   1.587   7.175  1.9907  1.1325  0.8176
 7569SOL     OW34342   4.478   3.465  14.036 -0.1968  0.0668  0.3410
 7569SOL    HW134343   4.507   3.422  14.116 -0.0335  0.8358  0.6885
 7569SOL    HW234344   4.532   3.543  14.040  2.3614 -1.7008 -0.0605
 7570SOL     OW34345   0.919   2.068   7.540  0.3722 -0.2582 -0.1136
 7570SOL    HW134346   0.919   1.991   7.483 -0.8493 -0.6907  0.4693
 7570SOL    HW234347   1.013   2.076   7.555  0.0176  2.2918  0.8404
 7571SOL     OW34348   4.633   1.199   5.635  0.2780 -0.7469 -0.3129
 7571SOL    HW134349   4.620   1.169   5.725  1.2552 -1.0150 -0.2636
 7571SOL    HW234350   4.679   1.282   5.648 -0.9439 -0.0767 -0.3099
 7572SOL     OW34351   1.887   0.473   4.272  0.8440 -0.1540 -0.4437
 7572SOL    HW134352   1.918   0.506   4.188 -1.4541  0.1327 -1.1897
 7572SOL    HW234353   1.909   0.551   4.322 -0.0383  0.2134 -0.6229
 7573SOL     OW34354   1.763   3.847   6.277  0.1897 -0.4295 -0.3745
 7573SOL    HW134355   1.838   3.902   6.252 -1.0191  1.6550  0.5581
 7573SOL    HW234356   1.796   3.803   6.355 -0.9627 -2.0926 -0.8372
 7574SOL     OW34357   3.861   3.749   3.178 -0.1657 -0.2601  0.0879
 7574SOL    HW134358   3.839   3.700   3.099 -2.2117  3.9250 -1.9440
 7574SOL    HW234359   3.837   3.698   3.255 -1.2971  0.0629 -0.0542
 7575SOL     OW34360   2.113   4.715   6.423  0.0029  0.3873 -0.4973
 7575SOL    HW134361   2.158   0.049   6.375 -0.9743  1.0378 -0.4593
 7575SOL    HW234362   2.112   4.635   6.371 -1.5145  0.8141 -1.1334
 7576SOL     OW34363   2.729   1.447   7.062  0.4457 -0.6586 -0.3205
 7576SOL    HW134364   2.717   1.434   7.156 -1.7608  1.0400 -0.3664
 7576SOL    HW234365   2.718   1.354   7.039  1.3754 -0.0468 -3.2781
 7577SOL     OW34366   1.685   4.588   5.503  0.1728  0.0826 -0.4450
 7577SOL    HW134367   1.762   4.578   5.560  0.4464 -0.6535 -0.9468
 7577SOL    HW234368   1.659   4.496   5.498 -2.3325  0.6912  1.4368
 7578SOL     OW34369   2.299   3.037   7.034 -0.0297 -0.0591 -0.3315
 7578SOL    HW134370   2.348   3.064   6.955  2.4291 -2.0638  0.5273
 7578SOL    HW234371   2.283   3.120   7.079 -0.8950  0.9767 -2.5165
 7579SOL     OW34372   4.650   1.716  14.424  0.1494  0.1722  0.5071
 7579SOL    HW134373   0.003   1.747  14.412  0.1062  1.4666  3.7232
 7579SOL    HW234374   4.609   1.748  14.344 -2.1416  1.4651  2.1890
 7580SOL     OW34375   0.697   1.776   2.432  0.0680 -0.9941 -0.3571
 7580SOL    HW134376   0.734   1.771   2.520 -1.0121  0.7441  0.1990
 7580SOL    HW234377   0.615   1.736   2.462 -0.4345 -0.4127 -0.9696
 7581SOL     OW34378   0.247   2.069   6.139  0.5656 -0.1187  0.2780
 7581SOL    HW134379   0.174   2.070   6.200 -0.1339  1.9395 -0.5988
 7581SOL    HW234380   0.316   2.045   6.201  1.9790  0.2559 -1.1411
 7582SOL     OW34381   4.231   4.184   8.854 -0.0918 -0.0235 -0.0787
 7582SOL    HW134382   4.177   4.209   8.928  2.8253  0.3939  1.9244
 7582SOL    HW234383   4.186   4.225   8.780 -1.9617  0.0221  1.0920
 7583SOL     OW34384   1.130   4.616   0.185  0.4138  0.4761  0.1872
 7583SOL    HW134385   1.115   4.548   0.119  0.0576 -0.7444  1.5197
 7583SOL    HW234386   1.172   4.568   0.257  1.7419  0.6898 -0.4408
 7584SOL     OW34387   2.302   1.327   1.455  0.8922 -0.0848  0.3471
 7584SOL    HW134388   2.234   1.325   1.522  0.6300  0.1149  0.0894
 7584SOL    HW234389   2.316   1.235   1.436  0.1661  0.2290 -1.7250
 7585SOL     OW34390   4.041   3.362   8.144 -0.0062 -0.0525  0.5894
 7585SOL    HW134391   4.106   3.405   8.088 -2.4436  0.5130 -1.8182
 7585SOL    HW234392   4.053   3.406   8.228  1.6114  1.5964 -0.5016
 7586SOL     OW34393   2.523   3.553   1.242  0.1866  0.6983  0.0164
 7586SOL    HW134394   2.525   3.613   1.167 -0.6002  0.4442 -0.2087
 7586SOL    HW234395   2.464   3.486   1.208 -0.0268  2.0809 -2.3475
 7587SOL     OW34396   1.183   0.296   8.424 -0.4804 -0.1139 -0.7525
 7587SOL    HW134397   1.205   0.275   8.333 -0.5380  1.5921 -1.1553
 7587SOL    HW234398   1.262   0.282   8.476 -0.5123  1.4953 -0.2669
 7588SOL     OW34399   3.481   1.564   1.164 -0.6533 -0.1557 -0.1805
 7588SOL    HW134400   3.468   1.553   1.070  0.2552 -0.2025 -0.3062
 7588SOL    HW234401   3.509   1.480   1.200  0.6784  0.0486 -0.7284
 7589SOL     OW34402   4.402   0.356   5.889 -0.3777 -0.2532 -0.6982
 7589SOL    HW134403   4.309   0.364   5.866 -0.2559 -1.0492 -1.4850
 7589SOL    HW234404   4.418   0.262   5.878 -1.0944 -0.4809  0.2931
 7590SOL     OW34405   2.881   0.884   6.240  0.2907  0.3005  0.2529
 7590SOL    HW134406   2.820   0.905   6.170  1.4597  2.5223 -0.0974
 7590SOL    HW234407   2.950   0.833   6.196  0.9493 -0.1180  1.7782
 7591SOL     OW34408   1.330   2.011  13.395 -0.4809  0.2810  0.0362
 7591SOL    HW134409   1.376   2.068  13.334  0.1345 -1.7502 -1.3893
 7591SOL    HW234410   1.244   2.050  13.379 -0.5859  0.2886  0.5924
 7592SOL     OW34411   2.263   0.082   7.068 -0.2292  0.2810  0.2406
 7592SOL    HW134412   2.198   0.013   7.059  0.0837 -0.3301  2.4859
 7592SOL    HW234413   2.332   0.032   7.113 -0.0891  2.6660  2.7154
 7593SOL     OW34414   2.177   1.219   2.671 -0.0191 -0.4976 -0.6571
 7593SOL    HW134415   2.241   1.269   2.722 -0.0761 -2.3838  1.2580
 7593SOL    HW234416   2.100   1.267   2.701  0.5259 -0.5384  0.7902
 7594SOL     OW34417   0.021   0.588  11.062  0.2186  0.1148 -0.4023
 7594SOL    HW134418   0.068   0.506  11.054 -2.4433 -1.5948  1.7824
 7594SOL    HW234419   0.068   0.645  11.000  2.7778 -0.6603  0.8282
 7595SOL     OW34420   1.331   0.464   3.285  0.1185 -0.0631  0.0260
 7595SOL    HW134421   1.302   0.414   3.361  0.2204  0.1984  0.2355
 7595SOL    HW234422   1.397   0.408   3.244  0.4268  1.5785 -1.7387
 7596SOL     OW34423   2.129   3.550   4.176  0.0398 -0.6414 -0.4126
 7596SOL    HW134424   2.159   3.529   4.265 -3.5160  0.8981  1.1460
 7596SOL    HW234425   2.214   3.576   4.141 -0.6729  1.2453 -0.7323
 7597SOL     OW34426   0.987   0.458   3.706 -0.0043 -0.3347  0.3723
 7597SOL    HW134427   0.894   0.467   3.725  0.3672 -2.2411  3.1927
 7597SOL    HW234428   1.007   0.489   3.618 -1.3569 -1.5948 -0.3811
 7598SOL     OW34429   2.138   0.941   4.651 -0.1886 -0.2873 -0.1404
 7598SOL    HW134430   2.159   0.880   4.580  1.0201  1.3144 -1.1530
 7598SOL    HW234431   2.148   0.886   4.729 -0.4220 -1.0948 -0.6766
 7599SOL     OW34432   0.162   4.200  10.504  0.1441  0.2206 -0.6553
 7599SOL    HW134433   0.075   4.194  10.465 -0.8372 -0.0492  1.6222
 7599SOL    HW234434   0.144   4.130  10.566  1.4325 -1.3648 -2.0752
 7600SOL     OW34435   2.447   1.099   2.152 -0.1464 -0.0817 -0.4423
 7600SOL    HW134436   2.476   1.052   2.230 -0.4640 -1.2218 -1.0109
 7600SOL    HW234437   2.402   1.036   2.095 -0.2739  0.0038 -0.4356
 7601SOL     OW34438   2.526   0.207   2.286  0.0615 -0.2133 -0.4210
 7601SOL    HW134439   2.453   0.254   2.326  1.3244 -1.3245  3.1388
 7601SOL    HW234440   2.600   0.265   2.302  0.0445 -0.0618 -0.8766
 7602SOL     OW34441   4.227   3.540   8.048 -0.5239 -0.1407  0.2080
 7602SOL    HW134442   4.282   3.598   8.101 -0.3783 -1.0580  1.0596
 7602SOL    HW234443   4.291   3.516   7.981  0.6403  1.0386  0.8986
 7603SOL     OW34444   0.667   0.028   8.789  0.0045 -0.0497  0.1031
 7603SOL    HW134445   0.647   0.081   8.866  1.3494 -2.5191  2.1668
 7603SOL    HW234446   0.602   4.694   8.797 -0.1503  0.1411  0.5531
 7604SOL     OW34447   4.707   1.647  12.847 -0.3863 -0.3671 -0.1709
 7604SOL    HW134448   4.630   1.704  12.855 -1.6421 -2.2618  1.1862
 7604SOL    HW234449   0.032   1.711  12.812 -0.8384  1.6766  2.7338
 7605SOL     OW34450   2.776   2.937   1.783  0.0256 -0.7318 -0.4610
 7605SOL    HW134451   2.826   2.970   1.708  0.3554  2.4348  1.1498
 7605SOL    HW234452   2.689   2.921   1.747 -0.5426 -1.9170  1.4446
 7606SOL     OW34453   0.898   1.003   1.429 -0.1291 -0.3847  0.3146
 7606SOL    HW134454   0.942   1.018   1.346  0.2657  1.1274  0.8032
 7606SOL    HW234455   0.900   0.907   1.435 -0.9764 -0.4284 -0.1128
 7607SOL     OW34456   1.690   3.341   5.945  0.5931 -0.2685 -0.3646
 7607SOL    HW134457   1.616   3.401   5.941  0.5874 -0.1916  1.1737
 7607SOL    HW234458   1.697   3.317   6.037  1.3080  1.3021 -0.0095
 7608SOL     OW34459   3.881   0.688   9.560  0.0553  0.6531 -0.0390
 7608SOL    HW134460   3.791   0.656   9.569  0.4279 -0.6976 -1.0456
 7608SOL    HW234461   3.869   0.779   9.535 -0.2061  0.7593  0.4792
 7609SOL     OW34462   3.720   2.878   6.351  0.4070 -0.4775 -0.0732
 7609SOL    HW134463   3.749   2.789   6.330  1.0057  0.0902 -1.6648
 7609SOL    HW234464   3.691   2.869   6.442  0.4254  0.1812  0.0013
 7610SOL     OW34465   4.268   4.560   2.381  0.4446 -0.0087  0.0217
 7610SOL    HW134466   4.227   4.645   2.394 -3.0299 -1.5876 -0.6993
 7610SOL    HW234467   4.231   4.538   2.295 -0.0104  0.4225  0.1079
 7611SOL     OW34468   3.994   1.907   6.191  0.2906 -0.0369 -0.4346
 7611SOL    HW134469   4.063   1.961   6.228 -0.3666  0.1636  0.4739
 7611SOL    HW234470   4.004   1.936   6.100  2.0685 -0.6856 -0.4558
 7612SOL     OW34471   2.267   1.180   6.116 -0.1291  0.3601  0.3986
 7612SOL    HW134472   2.353   1.146   6.092 -0.1467  0.7604 -0.2241
 7612SOL    HW234473   2.219   1.100   6.137  0.8536 -0.5373 -0.7800
 7613SOL     OW34474   4.458   3.035   5.326 -0.3499  0.1559  0.4741
 7613SOL    HW134475   4.383   3.035   5.385 -0.4949 -2.3657  0.2832
 7613SOL    HW234476   4.463   2.942   5.303 -0.5737 -0.1088  1.5101
 7614SOL     OW34477   2.900   1.588   1.859  0.1625  0.4794 -0.1852
 7614SOL    HW134478   2.940   1.556   1.939 -1.7321 -1.7209 -0.0862
 7614SOL    HW234479   2.946   1.671   1.846  1.5972 -0.1834  0.7188
 7615SOL     OW34480   2.307   0.877   2.872 -0.2057  0.2742 -0.2516
 7615SOL    HW134481   2.394   0.839   2.871 -0.4023 -0.1692 -0.6518
 7615SOL    HW234482   2.318   0.952   2.931 -1.0033 -0.2712  0.6108
 7616SOL     OW34483   2.529   1.156  16.815  0.6640 -0.1273 -1.0146
 7616SOL    HW134484   2.557   1.248  16.811 -1.1209  0.5440  2.2711
 7616SOL    HW234485   2.445   1.165  16.769 -0.3555 -0.6314  0.7319
 7617SOL     OW34486   2.303   0.716  11.560  0.5098  0.5149  1.2386
 7617SOL    HW134487   2.270   0.800  11.592  0.8706  1.0987  0.0967
 7617SOL    HW234488   2.287   0.744  11.469 -0.9799 -2.5476  0.5726
 7618SOL     OW34489   3.170   3.641   2.454  0.9169  0.4683 -0.1887
 7618SOL    HW134490   3.255   3.681   2.473  1.4066 -0.9294  0.5870
 7618SOL    HW234491   3.186   3.588   2.376 -1.6067  0.2537 -0.5560
 7619SOL     OW34492   0.052   4.643   4.200 -0.3634 -0.6698  0.1083
 7619SOL    HW134493   0.030   4.550   4.193 -1.3796 -0.5614  1.5911
 7619SOL    HW234494   4.706   4.668   4.243 -0.2209 -1.3958  0.8168
 7620SOL     OW34495   1.558   3.654   8.270  0.3637  0.0725 -0.0503
 7620SOL    HW134496   1.480   3.707   8.252 -1.2600 -2.1185  0.6019
 7620SOL    HW234497   1.561   3.644   8.366 -1.2705  1.8775  0.1816
 7621SOL     OW34498   3.191   4.594  12.083  0.1495  0.1480  0.0961
 7621SOL    HW134499   3.230   4.571  11.998 -0.4319  2.2427 -0.7481
 7621SOL    HW234500   3.263   4.578  12.144  2.2613  1.0676 -2.1426
 7622SOL     OW34501   3.110   2.922   2.934  0.3717 -0.0222  0.3115
 7622SOL    HW134502   3.053   2.929   2.857  0.2508 -2.4412  0.1752
 7622SOL    HW234503   3.189   2.886   2.894 -1.5490 -0.5165 -3.0778
 7623SOL     OW34504   0.534   4.383   1.225 -0.2699 -0.3233  0.0353
 7623SOL    HW134505   0.617   4.346   1.194  1.8046  3.0570  1.5542
 7623SOL    HW234506   0.567   4.422   1.306  0.3385  1.1194 -0.9032
 7624SOL     OW34507   0.154   4.475   0.942  0.2912 -0.0597  0.4007
 7624SOL    HW134508   0.170   4.410   0.874  1.4856 -2.2175  2.7420
 7624SOL    HW234509   0.189   4.429   1.019 -0.2415 -0.3871  0.4452
 7625SOL     OW34510   3.530   4.617   0.008  0.2003 -0.6816 -0.6666
 7625SOL    HW134511   3.505   4.541  17.699 -2.9112 -0.9152  1.1944
 7625SOL    HW234512   3.461   4.682  17.739  2.3763  2.0513  1.3042
 7626SOL     OW34513   2.729   2.569   4.502 -0.0086  0.3266 -0.1834
 7626SOL    HW134514   2.782   2.639   4.464  0.2827 -0.4653 -1.2367
 7626SOL    HW234515   2.677   2.616   4.567  0.2684  0.8045 -0.3082
 7627SOL     OW34516   0.783   1.686   1.153 -0.1006  0.0365  0.3172
 7627SOL    HW134517   0.848   1.739   1.200 -1.6833  1.6471  0.7001
 7627SOL    HW234518   0.820   1.672   1.066 -3.1225 -1.2471 -0.7564
 7628SOL     OW34519   2.202   4.119  11.325 -0.0839 -0.6775 -0.2523
 7628SOL    HW134520   2.251   4.201  11.318  1.3211 -1.6041 -1.1461
 7628SOL    HW234521   2.117   4.163  11.336  0.3932  0.3831 -0.8391
 7629SOL     OW34522   1.113   2.578   3.723 -0.0881 -0.0041  0.0935
 7629SOL    HW134523   1.207   2.575   3.703  0.2408 -1.6590  1.9200
 7629SOL    HW234524   1.107   2.596   3.817  1.8352 -1.4787  0.4993
 7630SOL     OW34525   1.933   4.283   1.197  0.0966 -0.2778  0.2775
 7630SOL    HW134526   1.840   4.274   1.179 -0.6161 -0.1354  4.0198
 7630SOL    HW234527   1.955   4.196   1.230  2.8652 -0.4706 -2.0712
 7631SOL     OW34528   0.957   4.238   1.295  0.4479 -0.0481 -0.2367
 7631SOL    HW134529   0.974   4.181   1.220  1.2897  0.9452 -0.7825
 7631SOL    HW234530   0.957   4.179   1.371 -0.4115  1.7799  1.1808
 7632SOL     OW34531   3.156   4.303  12.128 -0.5531  0.0260  0.1504
 7632SOL    HW134532   3.115   4.328  12.211  0.8889  0.3617  0.7696
 7632SOL    HW234533   3.231   4.363  12.131 -0.3014 -0.2835  0.0820
 7633SOL     OW34534   3.596   1.549   6.552  0.1496 -0.3095 -0.0385
 7633SOL    HW134535   3.592   1.517   6.642 -1.3303  1.0760  0.3982
 7633SOL    HW234536   3.689   1.547   6.530  0.3616  0.6811  0.7820
 7634SOL     OW34537   0.075   3.842   6.570  0.0239  0.2359 -0.5452
 7634SOL    HW134538   0.099   3.794   6.491  2.5610  0.8739 -0.1663
 7634SOL    HW234539   0.143   3.910   6.570  2.9681 -2.7367 -0.4081
 7635SOL     OW34540   1.823   1.174  11.315  0.0263 -0.4477  0.7666
 7635SOL    HW134541   1.748   1.146  11.264  0.7874 -0.3644 -0.3956
 7635SOL    HW234542   1.822   1.269  11.318  1.6420 -0.4981  3.8462
 7636SOL     OW34543   4.100   3.419   4.209 -0.0266 -0.3466 -0.3243
 7636SOL    HW134544   4.051   3.497   4.184 -1.4063 -1.2282 -0.3898
 7636SOL    HW234545   4.152   3.410   4.128 -0.5042  0.7902 -0.7557
 7637SOL     OW34546   4.555   0.607   4.727  0.0133 -0.0652 -0.2934
 7637SOL    HW134547   4.537   0.514   4.736  0.5344 -0.3178 -1.8274
 7637SOL    HW234548   4.475   0.648   4.762  0.8918 -1.5276  3.3664
 7638SOL     OW34549   1.486   3.638   7.140  0.0042  0.5201 -0.1618
 7638SOL    HW134550   1.412   3.577   7.145 -0.9627  1.8846  2.0265
 7638SOL    HW234551   1.495   3.655   7.234  0.6903  0.7150 -0.2606
 7639SOL     OW34552   4.173   1.103   8.495 -0.6936  0.7831  0.1348
 7639SOL    HW134553   4.261   1.113   8.533 -1.8622 -0.6846  3.1333
 7639SOL    HW234554   4.114   1.083   8.567 -0.4329 -1.7515 -0.3562
 7640SOL     OW34555   4.665   4.599   8.979  0.1570  0.9865  0.1981
 7640SOL    HW134556   4.701   4.565   8.898  0.6701 -0.9123  1.2343
 7640SOL    HW234557   4.576   4.616   8.947  0.5655  1.5944 -0.6232
 7641SOL     OW34558   1.643   3.316   7.332  0.2397  0.3053 -0.2438
 7641SOL    HW134559   1.734   3.344   7.323  0.5769 -0.5413  0.5475
 7641SOL    HW234560   1.615   3.392   7.384 -1.3933 -0.4176 -0.0570
 7642SOL     OW34561   1.547   1.377  11.381 -0.0293 -0.4691 -0.1901
 7642SOL    HW134562   1.475   1.406  11.437  0.6418  0.8339  0.0027
 7642SOL    HW234563   1.536   1.282  11.386  1.6483 -0.6322  0.6946
 7643SOL     OW34564   4.292   2.581   3.068 -0.0500  0.0212  0.1191
 7643SOL    HW134565   4.328   2.597   3.155  1.0046  1.3688 -0.5700
 7643SOL    HW234566   4.373   2.571   3.019 -1.2870  0.2715 -1.9611
 7644SOL     OW34567   1.992   0.725   1.783 -0.2198  0.5291 -0.1019
 7644SOL    HW134568   1.966   0.745   1.873 -0.2163 -1.3554  0.3129
 7644SOL    HW234569   2.086   0.723   1.799  0.1176  1.5208 -1.9165
 7645SOL     OW34570   3.756   2.345   5.614 -0.2287  0.5979  0.6169
 7645SOL    HW134571   3.822   2.382   5.674  0.6189  1.4833 -0.8545
 7645SOL    HW234572   3.764   2.394   5.532 -3.1354  3.2215  1.8790
 7646SOL     OW34573   0.873   0.656   5.249 -0.0399 -0.5241  0.4025
 7646SOL    HW134574   0.882   0.664   5.154  0.0304  3.0136  0.7093
 7646SOL    HW234575   0.946   0.704   5.290 -0.2284 -0.6214  0.8596
 7647SOL     OW34576   1.267   1.318   6.243 -0.2773 -0.1479  0.0387
 7647SOL    HW134577   1.194   1.324   6.182  0.4867  0.8253 -0.7903
 7647SOL    HW234578   1.258   1.225   6.265  1.1513 -0.7373 -1.8247
 7648SOL     OW34579   4.035   2.850   4.749  0.4547  0.8355 -0.2980
 7648SOL    HW134580   4.011   2.867   4.658 -0.4983 -0.5998 -0.3225
 7648SOL    HW234581   4.010   2.924   4.804 -0.3711  0.4064 -0.0997
 7649SOL     OW34582   0.086   4.109   5.108 -0.2826  0.1075 -0.8728
 7649SOL    HW134583   0.025   4.041   5.079 -0.4018  0.1301 -0.6742
 7649SOL    HW234584   0.050   4.131   5.194 -0.4213  0.3110 -0.9805
 7650SOL     OW34585   2.874   2.418   2.719 -0.3663 -0.4273 -0.7029
 7650SOL    HW134586   2.796   2.472   2.728 -0.0547  0.0986 -1.1958
 7650SOL    HW234587   2.843   2.327   2.724  2.0207 -1.2689 -1.6897
 7651SOL     OW34588   3.720   1.642   7.733  0.3101  0.1395 -0.2115
 7651SOL    HW134589   3.682   1.721   7.772 -1.4129 -0.3521 -0.9121
 7651SOL    HW234590   3.728   1.664   7.640  1.7241 -2.4819 -0.6964
 7652SOL     OW34591   3.223   1.547   8.795 -0.4767 -0.8949 -0.7744
 7652SOL    HW134592   3.163   1.497   8.850  0.0246 -0.0048  0.5851
 7652SOL    HW234593   3.206   1.622   8.853 -0.9141  0.1893 -2.3032
 7653SOL     OW34594   2.938   3.191  15.239  0.2070  0.4447 -0.4164
 7653SOL    HW134595   2.897   3.189  15.325  0.3215 -0.6114 -0.3824
 7653SOL    HW234596   2.958   3.284  15.231 -0.3326  0.7135  1.3621
 7654SOL     OW34597   0.141   4.318   7.776  0.1326 -0.1613  0.1803
 7654SOL    HW134598   0.193   4.237   7.774  0.0788 -0.2396  1.8526
 7654SOL    HW234599   0.051   4.294   7.798  0.0360 -2.0157 -2.2602
 7655SOL     OW34600   2.461   1.315   7.821 -0.2827  0.0883 -0.1903
 7655SOL    HW134601   2.435   1.224   7.805  0.3108  0.0791 -1.1602
 7655SOL    HW234602   2.417   1.355   7.746  1.4309  0.5784 -0.9302
 7656SOL     OW34603   3.959   1.667   6.076 -0.0192 -0.1775  0.1591
 7656SOL    HW134604   3.975   1.751   6.121  0.4543  0.2257 -0.7555
 7656SOL    HW234605   4.034   1.661   6.017 -1.2982  0.2492 -1.4851
 7657SOL     OW34606   0.614   0.652   2.557  0.6109  0.1356  0.1933
 7657SOL    HW134607   0.654   0.585   2.501  1.7858 -0.3563  1.6288
 7657SOL    HW234608   0.693   0.691   2.593 -0.6718  3.0608 -0.1612
 7658SOL     OW34609   2.869   2.913  15.434 -0.3128 -0.4583 -0.1315
 7658SOL    HW134610   2.847   3.002  15.462  4.9950 -0.5428  4.3322
 7658SOL    HW234611   2.861   2.857  15.511  0.1529  1.4842  1.3200
 7659SOL     OW34612   1.074   4.381   0.860  0.1177  0.1192 -0.4304
 7659SOL    HW134613   1.025   4.407   0.782 -1.0923 -2.2890 -0.4854
 7659SOL    HW234614   1.020   4.313   0.901 -1.7299  1.4602 -0.6329
 7660SOL     OW34615   0.329   4.232   7.370 -0.2457  0.8401  0.7132
 7660SOL    HW134616   0.283   4.316   7.368 -0.8704  0.4661 -1.1355
 7660SOL    HW234617   0.256   4.172   7.358  0.3365  0.3607 -0.4870
 7661SOL     OW34618   4.571   2.502   6.730 -0.0098  0.4372 -0.1855
 7661SOL    HW134619   4.609   2.567   6.790  0.2282  0.1121  0.0159
 7661SOL    HW234620   4.503   2.550   6.684  0.4105  0.8758 -0.3462
 7662SOL     OW34621   0.527   3.945   4.316  0.9216  0.0060 -0.4817
 7662SOL    HW134622   0.442   3.929   4.359  0.1287  2.7263 -1.0418
 7662SOL    HW234623   0.522   4.036   4.289 -0.9049  0.0547 -0.0101
 7663SOL     OW34624   0.628   1.109  14.912  0.1714  0.2306  0.1460
 7663SOL    HW134625   0.678   1.083  14.835 -0.5345 -3.7091  1.0266
 7663SOL    HW234626   0.693   1.145  14.974  1.0856 -0.4717 -0.4118
 7664SOL     OW34627   3.399   3.527   1.694  0.9567 -0.1997 -0.4903
 7664SOL    HW134628   3.359   3.443   1.716  0.9700  0.3281  1.4941
 7664SOL    HW234629   3.369   3.590   1.760  1.0969 -0.2748 -0.3556
 7665SOL     OW34630   3.096   1.874  14.874  0.2642 -0.1517 -0.1401
 7665SOL    HW134631   3.058   1.904  14.791 -0.6057  2.3730  1.1877
 7665SOL    HW234632   3.187   1.876  14.843  1.0931  0.5514  2.3779
 7666SOL     OW34633   0.532   1.147   7.988  0.1529 -0.8912  0.8484
 7666SOL    HW134634   0.591   1.194   7.929 -2.1848  0.2007 -0.5965
 7666SOL    HW234635   0.596   1.116   8.052 -0.3545 -1.3444  1.1273
 7667SOL     OW34636   2.803   2.008  14.539 -0.0895 -0.2805  0.2974
 7667SOL    HW134637   2.750   2.016  14.460  0.9250  0.4201 -0.3096
 7667SOL    HW234638   2.842   2.095  14.547 -1.7987  0.3839  1.3525
 7668SOL     OW34639   3.038   0.983   7.878 -0.7630  0.4724  0.7813
 7668SOL    HW134640   2.978   0.955   7.810 -2.3141 -1.6913  3.0460
 7668SOL    HW234641   3.004   1.072   7.889 -2.4007  0.1015 -1.3875
 7669SOL     OW34642   4.145   0.589   4.445 -0.3458 -0.1007  0.3487
 7669SOL    HW134643   4.190   0.588   4.530 -1.0146  1.6440  0.7190
 7669SOL    HW234644   4.184   0.669   4.409 -1.1916  0.0355 -0.2450
 7670SOL     OW34645   3.197   0.687   3.108 -0.4457 -0.0849 -0.2811
 7670SOL    HW134646   3.272   0.738   3.078 -1.5919  2.0919  0.5223
 7670SOL    HW234647   3.230   0.604   3.075  0.2601  1.0456 -2.3970
 7671SOL     OW34648   3.988   1.041   8.333  0.1662 -0.1595  0.1003
 7671SOL    HW134649   3.965   1.125   8.293 -2.7020 -1.2302 -0.5469
 7671SOL    HW234650   4.070   1.066   8.374 -0.9631  1.6169  1.2582
 7672SOL     OW34651   2.577   4.440   2.910 -0.3274  0.3632 -0.5141
 7672SOL    HW134652   2.520   4.392   2.850 -0.3423  1.6499 -1.5443
 7672SOL    HW234653   2.573   4.532   2.881  0.9515  0.5565 -0.0756
 7673SOL     OW34654   2.517   2.977   5.943 -1.0957  0.2409 -0.2306
 7673SOL    HW134655   2.433   2.985   5.896 -2.8212 -0.0162  2.8171
 7673SOL    HW234656   2.561   2.903   5.901  0.5591  1.1321 -0.0495
 7674SOL     OW34657   3.596   2.787   5.793  0.6100 -0.2874 -0.7124
 7674SOL    HW134658   3.527   2.738   5.838 -0.2791  0.6671 -1.0522
 7674SOL    HW234659   3.555   2.807   5.709  1.3683 -1.3847 -1.3468
 7675SOL     OW34660   0.045   1.927   1.615  0.0439  0.0295 -0.2156
 7675SOL    HW134661   0.098   1.992   1.661 -0.0731 -0.2991  0.3805
 7675SOL    HW234662   4.695   1.949   1.648  0.6964 -1.9692  2.8400
 7676SOL     OW34663   4.366   0.143   6.497 -0.2505 -0.2140 -0.1938
 7676SOL    HW134664   4.381   0.222   6.445 -1.4803  1.5622  2.1487
 7676SOL    HW234665   4.288   0.163   6.548 -0.1578 -0.0839 -0.1039
 7677SOL     OW34666   1.381   3.657   7.797 -0.3014  0.1509  0.1702
 7677SOL    HW134667   1.476   3.658   7.791 -0.4245  2.2802 -0.9714
 7677SOL    HW234668   1.367   3.599   7.873  0.9872 -0.1564  0.1769
 7678SOL     OW34669   3.601   4.063   8.648  0.2454 -0.4635 -0.2391
 7678SOL    HW134670   3.542   4.048   8.574 -0.1218  0.9676 -0.2392
 7678SOL    HW234671   3.690   4.071   8.614 -0.3110 -0.8073 -1.7416
 7679SOL     OW34672   0.052   0.606   1.791 -0.4565  0.1642  0.6681
 7679SOL    HW134673   0.058   0.511   1.795 -0.6984  0.1361  0.3933
 7679SOL    HW234674   0.023   0.615   1.882  1.5149 -3.2392  1.6382
 7680SOL     OW34675   0.300   2.105   4.907 -0.0713  0.6424  0.2233
 7680SOL    HW134676   0.291   2.131   4.999 -3.2780 -0.2875  0.1907
 7680SOL    HW234677   0.304   2.193   4.870 -2.2066  0.6120 -0.0661
 7681SOL     OW34678   2.825   0.084   9.475  0.2932 -0.3763 -0.4785
 7681SOL    HW134679   2.817   0.001   9.521  0.2299 -0.7820 -1.2132
 7681SOL    HW234680   2.739   0.093   9.433 -0.1205  4.0897  1.3616
 7682SOL     OW34681   4.553   4.167  15.560  0.1512 -0.0971 -0.2278
 7682SOL    HW134682   4.538   4.260  15.546 -1.0928 -0.1465  0.7880
 7682SOL    HW234683   4.532   4.148  15.651 -0.9431  0.6049 -0.3328
 7683SOL     OW34684   0.818   2.674  11.076 -0.2395  0.7233 -0.0130
 7683SOL    HW134685   0.775   2.759  11.071  2.0321  1.8776 -0.3550
 7683SOL    HW234686   0.759   2.649  11.147  1.2256  1.0285  1.3191
 7684SOL     OW34687   3.907   1.972   8.716 -0.3235 -0.3703  1.0291
 7684SOL    HW134688   3.876   2.043   8.660  0.4017 -0.5467  0.4021
 7684SOL    HW234689   3.920   1.910   8.644 -1.6539 -0.4626  0.8771
 7685SOL     OW34690   4.269   4.628   7.305  0.7354  0.0703  0.7394
 7685SOL    HW134691   4.302   4.643   7.394  1.4840  1.3535  0.2471
 7685SOL    HW234692   4.178   4.609   7.328  0.2801 -0.7138 -1.6784
 7686SOL     OW34693   0.373   2.004   9.395  0.1606  0.2714 -0.2690
 7686SOL    HW134694   0.459   2.047   9.391  0.7036 -0.5276  2.9229
 7686SOL    HW234695   0.376   1.959   9.479 -0.8074  0.2405 -0.2525
 7687SOL     OW34696   1.043   0.207   7.720 -0.6523  0.1896 -0.1388
 7687SOL    HW134697   1.007   0.220   7.632 -0.0182 -0.9635 -0.5704
 7687SOL    HW234698   1.089   0.123   7.710 -0.4884  0.3341 -0.5820
 7688SOL     OW34699   0.946   3.489   1.419 -0.1242 -0.1213 -0.1337
 7688SOL    HW134700   0.905   3.504   1.505 -1.0929  0.0617 -0.6222
 7688SOL    HW234701   0.883   3.541   1.368  0.5872 -0.6400 -1.5268
 7689SOL     OW34702   2.323   1.959   8.086 -0.2532  0.5541 -0.3418
 7689SOL    HW134703   2.299   2.008   8.165  0.5762  0.7804 -0.2284
 7689SOL    HW234704   2.256   1.891   8.080 -2.3070  2.4732  0.7655
 7690SOL     OW34705   0.679   2.084   6.291  0.1469  0.1496 -1.1618
 7690SOL    HW134706   0.671   2.129   6.207  1.2218 -1.0907 -1.9358
 7690SOL    HW234707   0.744   2.023   6.255  1.7334  1.8251 -1.1529
 7691SOL     OW34708   0.011   1.957   7.450  0.7006 -0.1913 -0.3359
 7691SOL    HW134709   0.051   2.038   7.482  0.9139 -0.6250  0.4935
 7691SOL    HW234710   4.707   1.992   7.370  0.9611 -1.5016 -1.0271
 7692SOL     OW34711   3.122   4.035   6.073  0.7531  0.4273  1.1425
 7692SOL    HW134712   3.133   3.940   6.076  1.8509  0.4948 -1.4756
 7692SOL    HW234713   3.050   4.043   6.135 -2.5517 -2.2325 -2.4069
 7693SOL     OW34714   2.629   0.064   3.316  0.2478 -0.2691  0.2862
 7693SOL    HW134715   2.670   4.717   3.342  0.4959 -0.6742 -1.4192
 7693SOL    HW234716   2.627   0.062   3.220 -1.4319  0.4451  0.3129
 7694SOL     OW34717   1.922   0.248   2.170  0.4856 -0.3061  0.4747
 7694SOL    HW134718   1.997   0.204   2.209 -0.1527 -0.6889  1.2535
 7694SOL    HW234719   1.933   0.212   2.082  1.8135  2.3554 -0.4500
 7695SOL     OW34720   4.555   3.684   5.040 -0.3562  0.3235 -0.2785
 7695SOL    HW134721   4.641   3.719   5.018 -1.2218  1.8718 -1.1587
 7695SOL    HW234722   4.538   3.615   4.976 -0.0102  0.3562 -0.4064
 7696SOL     OW34723   2.593   1.767  17.177 -0.4260 -0.5644 -0.5277
 7696SOL    HW134724   2.529   1.714  17.131  1.0760 -3.0171  0.1713
 7696SOL    HW234725   2.672   1.715  17.160  0.6431  1.5350 -1.9227
 7697SOL     OW34726   3.711   2.836   8.220 -0.4578  0.0710 -0.3980
 7697SOL    HW134727   3.791   2.888   8.231 -2.4064  2.6606  1.3482
 7697SOL    HW234728   3.723   2.790   8.137  0.9507  0.5734 -0.4734
 7698SOL     OW34729   4.259   3.812   3.988  0.5351  0.0118  0.1467
 7698SOL    HW134730   4.307   3.894   4.003  1.6041 -0.2024 -2.0398
 7698SOL    HW234731   4.330   3.748   3.993 -1.1301 -1.8792 -0.3521
 7699SOL     OW34732   0.793   1.398  14.715  0.9494  0.0965 -0.0690
 7699SOL    HW134733   0.841   1.367  14.792  1.3794 -1.3270 -0.9189
 7699SOL    HW234734   0.762   1.482  14.750 -1.0607 -1.5579  2.0943
 7700SOL     OW34735   0.670   1.593  13.158  0.1694  0.2514  0.2574
 7700SOL    HW134736   0.729   1.651  13.207 -0.7022  1.2650  0.1195
 7700SOL    HW234737   0.618   1.666  13.124 -1.5831 -0.0441  2.3522
 7701SOL     OW34738   1.704   4.006  11.084  0.0098  0.3946  0.3333
 7701SOL    HW134739   1.683   4.061  11.159 -1.2994  0.8607 -0.3697
 7701SOL    HW234740   1.717   3.922  11.129  2.2166  0.8021  0.4394
 7702SOL     OW34741   3.998   4.528   4.692 -0.2428 -0.3027  0.3994
 7702SOL    HW134742   3.913   4.556   4.727 -0.1103 -1.1937  1.4185
 7702SOL    HW234743   4.033   4.614   4.668  1.6128 -1.1164  0.2256
 7703SOL     OW34744   2.990   3.921   4.308 -0.0880 -0.5619 -0.0458
 7703SOL    HW134745   3.064   3.869   4.276  0.7271  0.2921  0.4393
 7703SOL    HW234746   3.022   4.010   4.295  0.0032 -0.3699  1.4884
 7704SOL     OW34747   3.974   2.749   3.874 -0.3186  0.6120 -0.4193
 7704SOL    HW134748   4.054   2.799   3.891 -0.2879  0.9560 -1.5750
 7704SOL    HW234749   3.981   2.723   3.782 -2.3482  1.7210 -0.8876
 7705SOL     OW34750   3.498   3.588   7.495  0.1386 -0.0294 -0.6033
 7705SOL    HW134751   3.495   3.647   7.570 -1.0648 -2.0806  0.9789
 7705SOL    HW234752   3.424   3.625   7.446  0.7647  1.2131 -0.5963
 7706SOL     OW34753   0.399   1.425   5.913  0.1740 -0.6078  0.1082
 7706SOL    HW134754   0.353   1.348   5.946 -2.1878  0.5424 -0.4589
 7706SOL    HW234755   0.461   1.439   5.985  1.3383 -1.0731 -0.8107
 7707SOL     OW34756   0.347   1.044   7.162 -0.0565  0.3066  0.1059
 7707SOL    HW134757   0.347   1.140   7.169  0.3994  0.2040  1.6223
 7707SOL    HW234758   0.288   1.022   7.090 -0.5339  0.5381  0.4212
 7708SOL     OW34759   4.521   3.617   9.290 -0.2246  0.1698 -0.1124
 7708SOL    HW134760   4.592   3.659   9.338 -1.4763  1.8988  0.2153
 7708SOL    HW234761   4.502   3.695   9.237  1.2331  0.7783  0.2503
 7709SOL     OW34762   3.907   0.465  17.412  0.0185 -0.0292  0.3151
 7709SOL    HW134763   3.971   0.402  17.445  2.0656  3.0123  2.0990
 7709SOL    HW234764   3.963   0.499  17.342  0.3148 -0.3594  0.3941
 7710SOL     OW34765   3.415   3.081   8.758 -0.4617 -0.3707 -0.0253
 7710SOL    HW134766   3.333   3.129   8.760 -2.0246 -3.0733  1.4723
 7710SOL    HW234767   3.443   3.088   8.850 -1.3695 -0.4991  0.2569
 7711SOL     OW34768   4.366   3.746  12.074  0.0126  0.0427 -0.1890
 7711SOL    HW134769   4.354   3.660  12.114 -0.5029  0.0995 -0.2229
 7711SOL    HW234770   4.283   3.758  12.028  0.3612  1.4268 -0.4783
 7712SOL     OW34771   3.162   4.251   3.772  0.5384  0.7811  0.1340
 7712SOL    HW134772   3.249   4.228   3.739  0.3296 -0.4683  0.4727
 7712SOL    HW234773   3.182   4.286   3.859  1.3143 -1.8490  1.0168
 7713SOL     OW34774   1.481   2.486  11.967  0.5351 -0.6007  0.0308
 7713SOL    HW134775   1.433   2.410  11.997  1.2369 -1.0952 -0.0915
 7713SOL    HW234776   1.428   2.531  11.901 -3.0381 -2.6108  1.5995
 7714SOL     OW34777   0.303   0.360  15.205 -0.1955 -0.1990  0.2314
 7714SOL    HW134778   0.293   0.449  15.171  0.8400 -0.5471 -0.9639
 7714SOL    HW234779   0.239   0.311  15.153  1.2524 -0.5223 -1.2250
 7715SOL     OW34780   3.538   2.702  10.605 -0.0876  0.2548 -0.2739
 7715SOL    HW134781   3.504   2.639  10.542  0.3437 -0.7525  0.4859
 7715SOL    HW234782   3.629   2.671  10.606  0.4381  1.6823 -3.2731
 7716SOL     OW34783   2.891   2.766   0.757 -0.0019 -0.5033 -0.2799
 7716SOL    HW134784   2.922   2.798   0.672  0.1916  1.0533  0.3779
 7716SOL    HW234785   2.853   2.847   0.791  1.3632 -0.8094  1.9381
 7717SOL     OW34786   0.318   1.844   3.938 -0.2176  0.2758 -0.2581
 7717SOL    HW134787   0.280   1.764   3.901 -0.9903  0.9675 -0.9720
 7717SOL    HW234788   0.402   1.837   3.893  0.4225 -2.1027  1.3505
 7718SOL     OW34789   0.801   1.019   8.394 -0.1730 -0.2843 -0.0473
 7718SOL    HW134790   0.732   1.077   8.362  1.0962  1.1410 -0.1616
 7718SOL    HW234791   0.763   0.936   8.363 -1.5709  0.0731  0.6723
 7719SOL     OW34792   0.378   2.542  13.169 -0.9237 -0.0056  0.3972
 7719SOL    HW134793   0.348   2.604  13.235 -0.3979 -1.0960  1.6704
 7719SOL    HW234794   0.367   2.467  13.228 -1.7902 -1.8391 -2.1043
 7720SOL     OW34795   0.559   3.951   7.843  0.6066 -0.1632  0.6864
 7720SOL    HW134796   0.622   3.894   7.799  1.8715  0.8752  1.1259
 7720SOL    HW234797   0.519   3.892   7.906 -0.0047  0.5375  0.9547
 7721SOL     OW34798   3.870   1.478   6.576 -0.1897  0.4245 -0.4064
 7721SOL    HW134799   3.861   1.401   6.631 -1.8253  3.6707  3.8560
 7721SOL    HW234800   3.881   1.543   6.645  1.9173  0.9302 -1.2019
 7722SOL     OW34801   4.188   0.564   5.122  0.3517 -0.9803  0.9998
 7722SOL    HW134802   4.230   0.650   5.117  0.9823 -1.1896  2.9502
 7722SOL    HW234803   4.251   0.507   5.166 -1.3861 -3.1110  0.7399
 7723SOL     OW34804   0.077   2.668   3.467 -0.0307  0.2748  0.1814
 7723SOL    HW134805   0.160   2.623   3.483  0.5980  0.7235 -1.7834
 7723SOL    HW234806   0.032   2.584   3.473  1.8314 -0.8658 -1.5948
 7724SOL     OW34807   3.278   4.657   1.656 -0.1339  0.4986  0.7639
 7724SOL    HW134808   3.308   4.599   1.586  2.7266 -1.0755  3.3075
 7724SOL    HW234809   3.357   4.711   1.662  0.1203  0.1766  0.3401
 7725SOL     OW34810   1.605   2.814   1.638  0.0741  0.3449 -0.4708
 7725SOL    HW134811   1.592   2.907   1.660  3.1684  0.6159  0.2411
 7725SOL    HW234812   1.700   2.805   1.649  0.1365  0.0206 -1.2911
 7726SOL     OW34813   4.178   1.333   6.434  0.0224  0.5179  0.3663
 7726SOL    HW134814   4.115   1.374   6.375  0.2098  2.4177  1.4841
 7726SOL    HW234815   4.184   1.403   6.500  0.1611  0.4085  0.4703
 7727SOL     OW34816   1.544   3.943  17.450 -0.6155  0.0558 -0.2127
 7727SOL    HW134817   1.448   3.935  17.451 -0.8636  2.7471 -2.2799
 7727SOL    HW234818   1.553   4.029  17.490  0.3141 -0.2941  0.3267
 7728SOL     OW34819   3.453   0.790   7.953 -0.1023 -0.8509 -0.4155
 7728SOL    HW134820   3.473   0.766   7.863 -3.6063  0.0312 -1.4402
 7728SOL    HW234821   3.381   0.727   7.959 -0.9853  0.0210 -1.8498
 7729SOL     OW34822   3.691   4.010   7.009 -0.0702  0.2511 -0.1210
 7729SOL    HW134823   3.622   3.944   7.021 -1.2550  1.4047 -0.6277
 7729SOL    HW234824   3.704   4.025   6.915  0.5610  2.4001  0.3101
 7730SOL     OW34825   1.228   4.298   4.797  0.5987  0.6056 -0.2816
 7730SOL    HW134826   1.288   4.264   4.864 -1.3484 -1.7476  0.2851
 7730SOL    HW234827   1.287   4.338   4.734  1.7673 -1.8169 -0.7350
 7731SOL     OW34828   3.250   4.541   4.931  0.0698 -0.7187  0.1034
 7731SOL    HW134829   3.203   4.624   4.921  0.5339 -0.8169 -2.8526
 7731SOL    HW234830   3.334   4.586   4.942  1.0375 -2.1428 -1.5033
 7732SOL     OW34831   3.781   4.253   9.896  0.6806  0.2531 -0.5467
 7732SOL    HW134832   3.764   4.166   9.862 -1.7195  0.0109  1.2627
 7732SOL    HW234833   3.733   4.241   9.978  1.1417 -2.9633 -0.7687
 7733SOL     OW34834   2.218   3.474  15.839 -0.0168 -0.0405  0.3152
 7733SOL    HW134835   2.277   3.401  15.854 -3.0529 -2.4399  0.6738
 7733SOL    HW234836   2.286   3.534  15.809 -1.7212  0.8377 -1.8430
 7734SOL     OW34837   1.568   3.924   1.831  0.9909 -0.5740  0.0739
 7734SOL    HW134838   1.612   3.959   1.908  2.4626 -1.5489 -0.3246
 7734SOL    HW234839   1.622   3.845   1.825  2.4508  0.3775  0.7938
 7735SOL     OW34840   0.168   3.695  12.517  0.4909  0.4589 -0.1140
 7735SOL    HW134841   0.202   3.776  12.478  1.1240 -1.0201 -2.6371
 7735SOL    HW234842   0.253   3.657  12.539 -0.2907 -1.1216  0.1513
 7736SOL     OW34843   2.515   2.274   7.498 -0.3987 -0.2118  0.2971
 7736SOL    HW134844   2.471   2.239   7.575 -0.5124  1.9412  1.2009
 7736SOL    HW234845   2.437   2.295   7.446  0.1719  0.5793 -0.2472
 7737SOL     OW34846   3.821   3.442   6.113 -0.2049  0.4775  0.0010
 7737SOL    HW134847   3.880   3.437   6.188 -2.0063  2.6349  1.5733
 7737SOL    HW234848   3.885   3.421   6.046 -1.7960 -1.8197 -0.7592
 7738SOL     OW34849   1.491   3.237   7.907 -0.5376 -0.4170  0.1985
 7738SOL    HW134850   1.462   3.158   7.953 -1.6669 -0.1615 -0.0839
 7738SOL    HW234851   1.506   3.293   7.983  1.3486 -0.9129  0.1937
 7739SOL     OW34852   0.944   3.371   6.543  0.2672  0.0690 -0.5240
 7739SOL    HW134853   0.993   3.303   6.496  0.3600  0.6405 -1.2705
 7739SOL    HW234854   0.915   3.435   6.478 -2.1416 -1.7821 -1.2627
 7740SOL     OW34855   2.242   3.599   7.488  0.4283  0.5534 -0.2875
 7740SOL    HW134856   2.284   3.519   7.517 -1.7864 -0.3182  0.4901
 7740SOL    HW234857   2.257   3.653   7.565  0.9237  1.8958 -1.3169
 7741SOL     OW34858   1.430   1.261   8.289  0.3580 -0.0317  0.1663
 7741SOL    HW134859   1.414   1.225   8.377  0.9996 -0.1980  0.2149
 7741SOL    HW234860   1.463   1.183   8.244 -0.6467 -0.7918  0.7365
 7742SOL     OW34861   0.622   3.377  12.206 -0.2426  0.1170  0.6445
 7742SOL    HW134862   0.706   3.399  12.165 -0.0737 -0.7302  0.5412
 7742SOL    HW234863   0.632   3.386  12.301  3.0331  0.9060  0.2133
 7743SOL     OW34864   1.902   0.843   7.148 -0.1225 -0.2310  0.3428
 7743SOL    HW134865   1.858   0.764   7.119 -0.3591  0.5344 -1.4074
 7743SOL    HW234866   1.892   0.827   7.242  0.2280 -0.9372  0.2558
 7744SOL     OW34867   4.187   0.693   3.776  0.9461  0.1348 -0.3545
 7744SOL    HW134868   4.249   0.620   3.776  0.9183  0.1072 -0.8914
 7744SOL    HW234869   4.193   0.727   3.865  0.9121  2.1216 -1.0929
 7745SOL     OW34870   3.369   1.619   0.190  0.0538 -0.5401  0.1418
 7745SOL    HW134871   3.408   1.653   0.271  1.5659 -1.2118 -0.3076
 7745SOL    HW234872   3.440   1.584   0.136  0.3552  0.3427 -0.0388
 7746SOL     OW34873   1.850   2.409   2.753 -0.3071  0.1477  0.4044
 7746SOL    HW134874   1.768   2.456   2.739 -1.3196 -1.9761 -0.8570
 7746SOL    HW234875   1.913   2.475   2.780  0.0905  0.3475 -0.9872
 7747SOL     OW34876   2.250   2.734   0.100  0.1437 -0.2543  0.0037
 7747SOL    HW134877   2.279   2.821   0.127  1.3456 -0.1516 -1.6233
 7747SOL    HW234878   2.212   2.697   0.180  0.2631 -1.8955 -0.6983
 7748SOL     OW34879   0.674   4.489   1.433 -0.6831  0.0008 -1.1298
 7748SOL    HW134880   0.757   4.514   1.392  0.2647  0.0955  0.8723
 7748SOL    HW234881   0.660   4.558   1.498  1.5888 -1.3631  0.7816
 7749SOL     OW34882   3.843   2.722   2.848  0.0666 -0.1176 -0.1926
 7749SOL    HW134883   3.913   2.775   2.811  1.0007 -0.7862  0.5978
 7749SOL    HW234884   3.897   2.643   2.859 -0.2136 -0.5491 -1.8697
 7750SOL     OW34885   2.318   2.554   6.801 -0.8172 -0.9674 -0.2196
 7750SOL    HW134886   2.297   2.528   6.890 -0.7134 -2.5677 -0.6572
 7750SOL    HW234887   2.254   2.511   6.744 -0.3317 -0.9993 -0.7407
 7751SOL     OW34888   2.631   2.770   0.538  0.0901  0.0555  0.0041
 7751SOL    HW134889   2.548   2.793   0.579 -0.3022 -0.3928 -0.5429
 7751SOL    HW234890   2.650   2.863   0.525 -3.4026  1.1886  2.8708
 7752SOL     OW34891   2.394   3.540   0.623 -0.2056 -0.3700 -0.1518
 7752SOL    HW134892   2.327   3.532   0.690 -0.1970 -4.9545 -0.7335
 7752SOL    HW234893   2.377   3.633   0.605 -1.4187 -0.8959 -1.7338
 7753SOL     OW34894   4.530   0.859   7.318  0.5533 -0.2454  0.0482
 7753SOL    HW134895   4.557   0.839   7.407 -2.5348  0.8552  1.2405
 7753SOL    HW234896   4.612   0.857   7.268  0.9849  0.4409  0.7398
 7754SOL     OW34897   2.358   1.399   2.790  0.4586 -0.2973 -0.2923
 7754SOL    HW134898   2.347   1.484   2.747  2.3335  1.2659  2.3446
 7754SOL    HW234899   2.452   1.385   2.779  0.5024  1.4821 -2.2291
 7755SOL     OW34900   3.908   2.153   3.010 -0.1747  0.3967  0.4083
 7755SOL    HW134901   3.863   2.223   2.963  2.2026  2.0727  0.6236
 7755SOL    HW234902   3.998   2.188   3.009 -0.8565  2.0467 -2.3123
 7756SOL     OW34903   1.076   3.282   1.332 -0.6371  0.3246 -0.1320
 7756SOL    HW134904   1.042   3.293   1.243  0.8777 -0.6947 -0.8352
 7756SOL    HW234905   1.030   3.358   1.368  0.4353 -0.4439  2.7749
 7757SOL     OW34906   3.603   4.707   8.389 -0.4587 -0.0795  0.0109
 7757SOL    HW134907   3.583   4.726   8.481 -2.7887 -3.9175  0.3083
 7757SOL    HW234908   3.535   0.028   8.353  0.2812 -0.3161 -1.7734
 7758SOL     OW34909   0.348   0.247   4.585  0.4336 -0.2180  0.0310
 7758SOL    HW134910   0.312   0.335   4.575  0.8980  0.1026  1.1234
 7758SOL    HW234911   0.279   0.190   4.552  0.7292  0.3858 -1.5867
 7759SOL     OW34912   0.299   2.669   8.908 -0.2460 -0.1776 -0.0200
 7759SOL    HW134913   0.352   2.656   8.986  0.6096 -2.1511 -0.9005
 7759SOL    HW234914   0.272   2.757   8.934  1.0504  0.5263 -1.0349
 7760SOL     OW34915   4.421   3.897   2.764  0.2957 -0.2016  0.1403
 7760SOL    HW134916   4.483   3.826   2.784  1.6400 -0.0855 -3.5739
 7760SOL    HW234917   4.330   3.869   2.775  0.5865 -2.0185 -1.9151
 7761SOL     OW34918   1.191   0.841   7.136  0.3740 -0.3230  0.2286
 7761SOL    HW134919   1.171   0.920   7.087  0.6391 -0.7828 -0.6103
 7761SOL    HW234920   1.214   0.777   7.069  0.2314  0.8591 -0.9457
 7762SOL     OW34921   3.124   4.733   3.763 -0.0755  0.7950  0.0418
 7762SOL    HW134922   3.134   0.012   3.857  0.9051  1.4877 -0.1609
 7762SOL    HW234923   3.150   4.642   3.751  1.7710  1.2194  0.8150
 7763SOL     OW34924   2.560   3.625  17.700  0.4279 -0.1877 -0.2989
 7763SOL    HW134925   2.620   3.699  17.707 -1.1083  1.0880 -0.5310
 7763SOL    HW234926   2.618   3.559  17.663  2.6297  0.5345  1.8306
 7764SOL     OW34927   0.077   1.441  16.379  0.1625 -0.3253 -0.4958
 7764SOL    HW134928   4.724   1.453  16.410 -0.1056  0.5141 -1.6083
 7764SOL    HW234929   0.077   1.489  16.297  1.7081  0.1616 -0.2112
 7765SOL     OW34930   0.215   3.768  10.405  0.1966  0.1490  0.0070
 7765SOL    HW134931   0.288   3.710  10.383  0.9766  1.3450 -0.5872
 7765SOL    HW234932   0.253   3.848  10.368  2.0796  0.5234  2.7427
 7766SOL     OW34933   1.573   1.169  15.507  0.2361  0.2980 -0.2198
 7766SOL    HW134934   1.486   1.195  15.477 -0.1970 -1.1177 -0.2171
 7766SOL    HW234935   1.632   1.196  15.437 -1.6008 -0.4789 -2.0852
 7767SOL     OW34936   1.270   4.734   5.686 -0.1557  0.1980  0.1260
 7767SOL    HW134937   1.363   0.022   5.678 -0.0351 -0.6728 -0.9995
 7767SOL    HW234938   1.235   0.068   5.631 -1.2957 -0.9403 -0.6090
 7768SOL     OW34939   4.001   0.839   8.655  0.1302  0.5751  0.1122
 7768SOL    HW134940   3.942   0.906   8.688  0.1618 -0.1615  1.6817
 7768SOL    HW234941   4.093   0.866   8.661 -0.3256  2.0772  0.1605
 7769SOL     OW34942   2.546   3.557  11.083 -0.0887 -0.3086 -0.1251
 7769SOL    HW134943   2.540   3.471  11.125  0.9750 -1.4307 -2.3290
 7769SOL    HW234944   2.604   3.592  11.151 -1.1347  1.2099 -0.0167
 7770SOL     OW34945   3.114   3.191   3.563 -0.0187 -0.0698  0.0579
 7770SOL    HW134946   3.124   3.185   3.468  2.8018  1.2552  0.2802
 7770SOL    HW234947   3.202   3.211   3.594 -0.1750 -0.0810  0.5175
 7771SOL     OW34948   3.586   4.116   2.179 -0.2486 -0.0062 -0.7401
 7771SOL    HW134949   3.569   4.208   2.200 -1.5758 -0.0048 -1.8778
 7771SOL    HW234950   3.578   4.119   2.084  0.1420  0.4935 -0.7562
 7772SOL     OW34951   2.994   0.480   2.895  0.6809  0.0729 -0.4645
 7772SOL    HW134952   2.989   0.495   2.990 -1.2940  3.0888 -1.0173
 7772SOL    HW234953   2.968   0.388   2.892  3.6915 -0.7720 -0.9863
 7773SOL     OW34954   1.702   0.134   2.937  0.2943  0.5043  0.0283
 7773SOL    HW134955   1.722   0.207   2.879 -1.6963  1.6670  0.7988
 7773SOL    HW234956   1.733   0.060   2.884  2.9749  1.4792  0.2673
 7774SOL     OW34957   1.310   3.541   0.323  0.3422  0.2422 -1.0608
 7774SOL    HW134958   1.237   3.555   0.263 -0.3869  0.1081 -0.1913
 7774SOL    HW234959   1.347   3.630   0.320 -1.0096  0.8215 -0.4781
 7775SOL     OW34960   0.327   2.101   3.281 -0.2341  0.2057  0.1088
 7775SOL    HW134961   0.339   2.012   3.316 -2.8295 -0.1681  0.0706
 7775SOL    HW234962   0.402   2.116   3.223 -1.1266 -0.0402 -1.1115
 7776SOL     OW34963   0.753   3.677   6.845 -0.0801  0.4446  0.2988
 7776SOL    HW134964   0.675   3.726   6.873 -0.5347 -0.2352  0.2470
 7776SOL    HW234965   0.726   3.685   6.753 -1.2848 -1.6630  0.4684
 7777SOL     OW34966   0.013   3.439   6.921  0.1493 -0.3931 -0.2892
 7777SOL    HW134967   0.082   3.417   6.984 -1.7270 -1.7261  1.3203
 7777SOL    HW234968   0.056   3.516   6.885  1.1384 -0.6711  0.2726
 7778SOL     OW34969   3.111   3.061   3.863  0.3216  0.1143  0.4975
 7778SOL    HW134970   3.129   3.044   3.770  0.9205  1.0416  0.4493
 7778SOL    HW234971   3.066   2.977   3.877 -0.4057  0.6618  1.4525
 7779SOL     OW34972   0.360   2.293   8.958 -0.0842  0.2016 -0.1002
 7779SOL    HW134973   0.336   2.227   9.023 -1.5464 -0.3636 -1.2190
 7779SOL    HW234974   0.287   2.354   8.970 -1.9776 -2.0772 -0.1743
 7780SOL     OW34975   0.289   3.597   5.156  0.1533 -0.4471  0.1424
 7780SOL    HW134976   0.267   3.504   5.162  2.4490 -1.1970 -2.8570
 7780SOL    HW234977   0.282   3.604   5.060 -0.0138 -3.8973 -0.0860
 7781SOL     OW34978   3.225   3.932   2.962 -0.3880 -0.4121  0.3470
 7781SOL    HW134979   3.137   3.950   2.994 -0.6654  0.4259 -0.8669
 7781SOL    HW234980   3.215   3.956   2.870  0.9115  0.8587  0.5291
 7782SOL     OW34981   2.288   2.376   1.290  0.7359 -0.0772 -0.6387
 7782SOL    HW134982   2.221   2.326   1.244 -0.9693 -0.4633  2.2818
 7782SOL    HW234983   2.240   2.402   1.369 -1.4608 -1.3282 -1.5805
 7783SOL     OW34984   0.283   2.419  14.718  0.1293 -0.1747 -0.2528
 7783SOL    HW134985   0.295   2.451  14.807  0.8110  0.6106 -0.6266
 7783SOL    HW234986   0.371   2.428  14.683  0.6949 -0.7431  1.0525
 7784SOL     OW34987   2.582   3.692  11.936  0.3222 -0.7799 -0.2052
 7784SOL    HW134988   2.638   3.660  11.866 -1.1945 -0.3291 -1.6181
 7784SOL    HW234989   2.614   3.636  12.007 -0.5575  0.5353  1.2394
 7785SOL     OW34990   1.139   2.261   9.273  0.0285  0.2577 -0.5534
 7785SOL    HW134991   1.180   2.339   9.236  1.7929  0.3873  1.7324
 7785SOL    HW234992   1.083   2.223   9.205 -1.1444  1.1716 -0.1048
 7786SOL     OW34993   3.372   0.565   2.867  0.1302  0.5479  0.1717
 7786SOL    HW134994   3.442   0.618   2.904 -0.8732  2.6450 -0.9222
 7786SOL    HW234995   3.401   0.474   2.880  3.7536  1.5892 -0.7366
 7787SOL     OW34996   1.618   2.527   4.325  0.1053 -0.2508 -0.0406
 7787SOL    HW134997   1.532   2.535   4.285  2.1294 -1.1156 -4.5760
 7787SOL    HW234998   1.663   2.595   4.274 -1.6296  1.5198  0.7684
 7788SOL     OW34999   1.678   3.895   0.887 -0.3701 -0.2315 -0.0322
 7788SOL    HW135000   1.657   3.924   0.976  0.9698 -0.8955  0.4965
 7788SOL    HW235001   1.735   3.965   0.856  0.5696  0.0138  2.2161
 7789SOL     OW35002   0.940   0.699   6.588 -0.2937 -0.1129  0.3317
 7789SOL    HW135003   0.947   0.760   6.661 -0.8057  0.7956 -0.3744
 7789SOL    HW235004   0.952   0.762   6.516 -2.7846  0.6168  0.5425
 7790SOL     OW35005   1.499   1.587   3.469  0.1131  0.3374 -0.5050
 7790SOL    HW135006   1.572   1.574   3.408 -0.0994 -0.7051 -0.5347
 7790SOL    HW235007   1.526   1.532   3.542 -1.0707  0.6462  0.1583
 7791SOL     OW35008   0.916   2.009   9.327 -0.7950 -0.0128  0.4510
 7791SOL    HW135009   0.955   2.068   9.391 -0.0083  2.3869 -2.2317
 7791SOL    HW235010   0.822   2.014   9.343 -0.9428 -2.7930  0.5255
 7792SOL     OW35011   4.437   1.792   0.064  0.0978 -0.3710 -0.2569
 7792SOL    HW135012   4.505   1.753   0.119  0.5916 -0.2929 -0.8135
 7792SOL    HW235013   4.476   1.875   0.039 -0.3182 -1.0882 -3.3169
 7793SOL     OW35014   0.581   3.664   2.989  0.0918 -0.5004  0.3413
 7793SOL    HW135015   0.522   3.595   2.961  0.2389  0.0758 -1.4000
 7793SOL    HW235016   0.613   3.628   3.072  3.0912 -0.6852 -0.9048
 7794SOL     OW35017   3.628   3.443   4.796  0.0075 -0.1833 -0.1276
 7794SOL    HW135018   3.662   3.484   4.716  0.8767  0.7269  0.7029
 7794SOL    HW235019   3.638   3.351   4.770  0.7050  0.2942 -1.5769
 7795SOL     OW35020   3.656   4.489  13.649 -0.2556 -0.2011 -0.1035
 7795SOL    HW135021   3.662   4.584  13.637  2.1492 -0.4574 -1.0743
 7795SOL    HW235022   3.573   4.484  13.695  0.3223 -2.7049  0.6762
 7796SOL     OW35023   1.037   1.359  12.206 -0.2569  0.3243 -0.0287
 7796SOL    HW135024   0.947   1.371  12.175 -0.3967 -1.3526 -0.3112
 7796SOL    HW235025   1.092   1.350  12.128 -2.0947 -1.1507 -1.1610
 7797SOL     OW35026   4.412   1.477  14.980 -0.6566 -0.0904 -0.0985
 7797SOL    HW135027   4.456   1.561  14.992  1.9397 -1.5647  0.7191
 7797SOL    HW235028   4.478   1.432  15.032  1.1377  0.6845 -1.6815
 7798SOL     OW35029   0.339   2.583   6.676  0.5618 -0.3745 -0.5037
 7798SOL    HW135030   0.262   2.549   6.630 -0.7456  0.0950  1.3343
 7798SOL    HW235031   0.313   2.673   6.692 -0.2699 -0.4201 -1.5819
 7799SOL     OW35032   2.734   4.020   7.074  0.1668  0.2012  0.2773
 7799SOL    HW135033   2.790   3.947   7.047 -0.0952 -0.0026  0.2821
 7799SOL    HW235034   2.710   3.987   7.161 -0.1335 -1.1084 -0.3067
 7800SOL     OW35035   1.461   0.777  12.610  0.2821 -0.2760  0.3958
 7800SOL    HW135036   1.507   0.809  12.688  1.6826 -0.0283 -0.5356
 7800SOL    HW235037   1.472   0.847  12.546 -0.0680  0.7485  1.4549
 7801SOL     OW35038   3.978   0.057   8.483 -0.5472  0.5196  0.3136
 7801SOL    HW135039   3.911   0.080   8.546 -1.9970 -2.0710 -0.2878
 7801SOL    HW235040   4.050   0.119   8.472  0.8962 -1.2441 -0.2035
 7802SOL     OW35041   1.923   4.709   0.213 -0.5765  0.0309 -0.4952
 7802SOL    HW135042   2.007   0.019   0.213  0.1368 -1.2772 -0.4662
 7802SOL    HW235043   1.915   4.667   0.298 -1.1380  2.0208  0.4241
 7803SOL     OW35044   0.569   2.553  14.390  0.5061  0.7130 -0.3733
 7803SOL    HW135045   0.498   2.618  14.392 -0.3769 -0.2808  0.4309
 7803SOL    HW235046   0.520   2.471  14.390 -1.3453  1.7906  0.0849
 7804SOL     OW35047   4.501   4.336  14.800  0.0624 -0.0980  0.4158
 7804SOL    HW135048   4.506   4.250  14.843 -2.0294 -1.4876 -2.1261
 7804SOL    HW235049   4.508   4.301  14.711  1.7829 -2.9939  1.7041
 7805SOL     OW35050   0.841   0.598  14.220 -0.3454  0.4620 -0.2786
 7805SOL    HW135051   0.788   0.615  14.298 -0.8566  0.1606 -0.5538
 7805SOL    HW235052   0.891   0.679  14.217 -0.0603  0.2554 -1.2263
 7806SOL     OW35053   4.714   1.871   1.328  0.2686  0.1359 -0.4856
 7806SOL    HW135054   4.716   1.906   1.417  2.0117 -0.1726 -0.3991
 7806SOL    HW235055   0.073   1.862   1.320  0.1089 -1.0749 -1.0086
 7807SOL     OW35056   3.389   2.416   2.257  0.2741  0.6395  0.0308
 7807SOL    HW135057   3.384   2.509   2.281 -1.2671  0.5514  0.0807
 7807SOL    HW235058   3.296   2.395   2.250  0.3884  0.5937 -1.2743
 7808SOL     OW35059   4.168   1.640   4.536 -0.0407  0.2559  0.3445
 7808SOL    HW135060   4.133   1.680   4.456  0.4746 -1.0044 -0.5153
 7808SOL    HW235061   4.261   1.658   4.524  0.0042 -0.0112  0.2962
 7809SOL     OW35062   4.438   3.273   3.615 -0.5311 -0.1605 -0.0102
 7809SOL    HW135063   4.458   3.363   3.591  1.1283 -0.0799  1.7432
 7809SOL    HW235064   4.398   3.284   3.702  0.6099  1.9848  0.2294
 7810SOL     OW35065   0.959   3.153  11.098 -0.0242 -0.3641  0.2168
 7810SOL    HW135066   1.023   3.094  11.136 -0.4855 -0.7302  0.4268
 7810SOL    HW235067   1.010   3.234  11.093 -0.8973  0.1913  0.1930
 7811SOL     OW35068   0.834   2.659  10.805  0.2548 -0.6258 -0.2519
 7811SOL    HW135069   0.872   2.572  10.792  2.0337  0.2040 -0.6204
 7811SOL    HW235070   0.860   2.677  10.895  2.3728  1.7474 -1.3222
 7812SOL     OW35071   2.942   4.050   3.593 -0.5955 -0.0538  0.8019
 7812SOL    HW135072   2.938   4.049   3.689  1.1659  0.2344  0.8777
 7812SOL    HW235073   2.878   3.982   3.572  0.6379 -0.8189 -0.5004
 7813SOL     OW35074   0.353   1.887   9.656 -0.4611  0.5416 -0.0631
 7813SOL    HW135075   0.288   1.835   9.703 -3.0059  4.0817  0.3407
 7813SOL    HW235076   0.400   1.916   9.733 -1.3035  1.7939 -0.0051
 7814SOL     OW35077   1.605   3.533   4.044 -0.4823 -0.1588  0.7228
 7814SOL    HW135078   1.569   3.447   4.065 -2.4881 -0.0957 -2.4628
 7814SOL    HW235079   1.567   3.553   3.959  0.9620 -0.6875 -0.0333
 7815SOL     OW35080   0.210   2.941   8.958 -0.8034  0.5332  0.2166
 7815SOL    HW135081   0.264   2.968   8.883 -0.6851 -1.0110 -0.2448
 7815SOL    HW235082   0.216   3.021   9.010 -0.0955  0.4298  0.2927
 7816SOL     OW35083   3.726   2.332  12.635  0.5022  0.1493  0.0327
 7816SOL    HW135084   3.765   2.419  12.629  2.3821 -0.8041 -1.4807
 7816SOL    HW235085   3.733   2.316  12.729 -1.0029  0.1328  0.1419
 7817SOL     OW35086   0.290   4.253   5.346 -0.2170 -0.5570  0.3263
 7817SOL    HW135087   0.206   4.251   5.392 -0.1384  2.8747  0.6233
 7817SOL    HW235088   0.278   4.328   5.288  3.4934  0.5247  0.9701
 7818SOL     OW35089   3.074   1.895   8.724 -0.2127  0.0899  0.2739
 7818SOL    HW135090   3.056   1.886   8.818 -0.1864 -0.5022  0.2237
 7818SOL    HW235091   3.161   1.858   8.713 -1.6775 -2.8753 -1.4502
 7819SOL     OW35092   3.301   4.413   3.324  0.3641 -0.2205 -0.2111
 7819SOL    HW135093   3.368   4.379   3.384 -0.5409 -1.9095 -0.1519
 7819SOL    HW235094   3.305   4.508   3.332  1.0017 -0.0425 -2.6661
 7820SOL     OW35095   0.831   1.243   2.121  0.0896 -0.0841  0.6682
 7820SOL    HW135096   0.797   1.211   2.204 -0.7514 -1.4791 -0.2016
 7820SOL    HW235097   0.751   1.228   2.070 -0.7281 -2.1854  2.5794
 7821SOL     OW35098   0.943   1.205   4.483  0.3397  0.2282 -0.0093
 7821SOL    HW135099   1.026   1.158   4.474  1.8772  2.4460  2.6715
 7821SOL    HW235100   0.906   1.205   4.395 -0.7547  0.9942  0.4581
 7822SOL     OW35101   3.092   1.788   3.454 -0.5382 -0.4004  0.2249
 7822SOL    HW135102   3.153   1.763   3.523  0.1412  0.1394 -0.1826
 7822SOL    HW235103   3.008   1.757   3.488  0.8041 -1.3434  2.6346
 7823SOL     OW35104   2.548   4.496   6.654 -0.1111  0.9996  0.4614
 7823SOL    HW135105   2.589   4.568   6.606  3.4149 -0.2364  1.5935
 7823SOL    HW235106   2.472   4.544   6.684 -0.8016 -0.1066  0.4953
 7824SOL     OW35107   0.014   3.883   8.675  0.1682  0.5783 -0.4000
 7824SOL    HW135108   4.689   3.925   8.736  1.5345  1.8358  0.0997
 7824SOL    HW235109   0.051   3.824   8.741 -0.5672  0.4679 -0.0797
 7825SOL     OW35110   2.279   3.649   3.234 -0.1872 -0.2832 -0.9040
 7825SOL    HW135111   2.217   3.673   3.303  2.1192  1.7678  0.4682
 7825SOL    HW235112   2.232   3.680   3.156  1.3879  2.6212 -0.7333
 7826SOL     OW35113   2.931   2.311   6.798 -0.1275 -0.1239  0.1334
 7826SOL    HW135114   2.929   2.379   6.866 -1.5773 -1.2659  1.2259
 7826SOL    HW235115   2.841   2.292   6.772  0.0909  0.8869 -1.3471
 7827SOL     OW35116   3.786   3.596   4.080  0.2406  0.0926 -0.0703
 7827SOL    HW135117   3.798   3.606   3.986  0.9449 -1.6727 -0.1690
 7827SOL    HW235118   3.866   3.637   4.113 -0.5304  0.6168  1.1635
 7828SOL     OW35119   4.251   1.766   5.362 -0.1563 -0.0206  0.5951
 7828SOL    HW135120   4.191   1.695   5.339 -0.6136  0.6018 -0.1643
 7828SOL    HW235121   4.200   1.813   5.428 -1.8266  0.7811 -1.2446
 7829SOL     OW35122   1.416   3.315   0.283 -0.2776  0.3793 -0.0419
 7829SOL    HW135123   1.491   3.336   0.338  0.5893 -1.7957 -0.4045
 7829SOL    HW235124   1.362   3.391   0.307 -0.9814 -0.5185  1.2074
 7830SOL     OW35125   4.175   4.431   0.270 -0.4435  0.0697 -0.4176
 7830SOL    HW135126   4.218   4.443   0.354 -1.8803 -1.2952  0.5283
 7830SOL    HW235127   4.094   4.475   0.294  0.4266 -0.1325  2.8927
 7831SOL     OW35128   0.144   3.959   2.172 -0.2327 -0.5756  0.7387
 7831SOL    HW135129   0.228   3.926   2.140  0.7334  1.2001  1.4611
 7831SOL    HW235130   0.146   4.052   2.150  1.2368 -0.9617 -0.7803
 7832SOL     OW35131   0.781   2.449   5.304 -0.2398  0.5611 -0.9560
 7832SOL    HW135132   0.847   2.512   5.334  0.5786 -1.0046  0.5047
 7832SOL    HW235133   0.825   2.402   5.233 -0.8903 -0.4270 -0.7062
 7833SOL     OW35134   0.795   4.437   0.777  0.1148  0.1834  0.4375
 7833SOL    HW135135   0.781   4.440   0.683  2.2111  0.7201  0.1542
 7833SOL    HW235136   0.808   4.342   0.782 -0.6349  0.1168  1.2999
 7834SOL     OW35137   3.236   0.313   8.676  0.0424 -0.4011  0.0530
 7834SOL    HW135138   3.200   0.379   8.735  2.7566  1.3359 -0.2681
 7834SOL    HW235139   3.240   0.235   8.732 -0.0242  0.0530  0.6869
 7835SOL     OW35140   1.641   4.247   6.688 -0.3247  0.1144  0.1416
 7835SOL    HW135141   1.576   4.197   6.738  0.1358  0.7663  1.3807
 7835SOL    HW235142   1.690   4.173   6.652  0.9062  1.4595 -0.9630
 7836SOL     OW35143   1.023   1.032   1.174 -0.0849 -0.3152  0.2367
 7836SOL    HW135144   0.983   0.995   1.095  0.6446  0.5824 -0.5534
 7836SOL    HW235145   1.110   1.053   1.141  0.1315 -0.1202  0.9364
 7837SOL     OW35146   2.293   3.203   2.470 -0.0175 -0.1133 -0.1301
 7837SOL    HW135147   2.314   3.258   2.394  1.9533 -1.1687 -0.3407
 7837SOL    HW235148   2.380   3.188   2.506  0.1230  0.6029 -0.1544
 7838SOL     OW35149   2.294   3.395   5.049  0.4292  0.0155  0.0450
 7838SOL    HW135150   2.309   3.455   4.976 -0.6184 -0.3680 -0.4819
 7838SOL    HW235151   2.372   3.339   5.047 -0.1722 -0.7858 -1.3270
 7839SOL     OW35152   1.036   3.771   2.244  0.4440 -0.0640  0.5510
 7839SOL    HW135153   1.033   3.800   2.153 -0.0850 -1.1908  0.2008
 7839SOL    HW235154   0.968   3.830   2.276  0.4344 -0.4145  1.1898
 7840SOL     OW35155   1.674   0.927   1.675 -0.3467 -0.7316  0.2970
 7840SOL    HW135156   1.608   0.992   1.701  0.9667  0.7836 -0.1745
 7840SOL    HW235157   1.632   0.844   1.701 -2.9816  0.5310  0.0923
 7841SOL     OW35158   1.820   1.930   6.515 -0.1012 -0.1870 -0.1329
 7841SOL    HW135159   1.842   1.862   6.578 -2.2812 -0.6541  0.1219
 7841SOL    HW235160   1.782   1.868   6.452 -0.2458 -1.5828  1.3257
 7842SOL     OW35161   3.326   1.895  14.217 -1.3309  0.1445  0.3517
 7842SOL    HW135162   3.310   1.870  14.126 -2.1413  1.2588  0.1850
 7842SOL    HW235163   3.341   1.809  14.257 -0.2390 -0.2914 -0.9752
 7843SOL     OW35164   1.487   2.493   4.019  0.4686 -0.5361  0.0307
 7843SOL    HW135165   1.427   2.420   4.029 -1.9472  1.3195 -0.9002
 7843SOL    HW235166   1.449   2.546   4.090  1.8670 -0.0043  0.3763
 7844SOL     OW35167   1.269   4.089   4.571  0.0897  0.0641 -0.1248
 7844SOL    HW135168   1.203   4.040   4.621  2.1531 -2.0947  0.4600
 7844SOL    HW235169   1.346   4.034   4.562  1.1246  1.6047 -0.6314
 7845SOL     OW35170   2.086   2.580   5.889 -0.6220 -0.3764 -0.0317
 7845SOL    HW135171   2.047   2.590   5.802 -0.5654  1.0627  0.1203
 7845SOL    HW235172   2.162   2.536   5.852  1.0582  1.0331  1.7934
 7846SOL     OW35173   1.384   4.332   5.316  0.0590  0.1034  0.5731
 7846SOL    HW135174   1.409   4.299   5.402  0.2436 -2.5504 -0.4980
 7846SOL    HW235175   1.300   4.373   5.337  0.6502  0.5478  2.0398
 7847SOL     OW35176   0.653   3.583   7.204 -0.0716 -0.5404  0.0679
 7847SOL    HW135177   0.664   3.606   7.296 -0.6924  2.3106 -0.5725
 7847SOL    HW235178   0.668   3.670   7.166 -1.2124 -0.3073  0.1292
 7848SOL     OW35179   3.875   4.638   3.100  0.4996  0.7541 -0.6325
 7848SOL    HW135180   3.879   4.727   3.065  0.9191  0.7702 -0.5463
 7848SOL    HW235181   3.938   4.586   3.049 -0.5388  0.5889 -1.7486
 7849SOL     OW35182   1.464   2.897  16.767  0.3592  0.6263 -0.0696
 7849SOL    HW135183   1.536   2.943  16.725  1.1980  1.0484  1.8702
 7849SOL    HW235184   1.420   2.967  16.816 -0.2860 -0.0253  0.2851
 7850SOL     OW35185   2.882   0.412   3.803  0.4433 -0.3648  0.7601
 7850SOL    HW135186   2.962   0.368   3.776  0.1340 -0.2095 -0.4112
 7850SOL    HW235187   2.826   0.356   3.749  0.6322  0.8604 -0.7254
 7851SOL     OW35188   3.962   2.003  13.612 -0.3059  0.1050  0.2690
 7851SOL    HW135189   4.050   1.989  13.649  0.2113 -0.1831 -1.0654
 7851SOL    HW235190   3.979   2.082  13.561  3.2368 -1.3063 -0.8008
 7852SOL     OW35191   1.878   2.966   6.647  0.2599 -0.4617  0.3411
 7852SOL    HW135192   1.939   3.026   6.689 -2.3575  2.2711  0.2887
 7852SOL    HW235193   1.932   2.934   6.575  3.5565 -0.5218  2.8663
 7853SOL     OW35194   2.949   0.044   1.372 -0.5467 -0.0932 -0.0540
 7853SOL    HW135195   2.895   4.706   1.399 -0.6670  0.2737  0.6765
 7853SOL    HW235196   2.951   0.096   1.452  1.0674  0.9716 -0.7795
 7854SOL     OW35197   2.807   2.490  14.276  0.0308 -0.3128 -0.3699
 7854SOL    HW135198   2.890   2.446  14.258  0.7539  0.1845  1.7451
 7854SOL    HW235199   2.810   2.537  14.193 -2.3179  1.2174  0.4156
 7855SOL     OW35200   1.802   1.458  11.762  0.2695 -0.3234  0.0798
 7855SOL    HW135201   1.853   1.515  11.819  1.2364 -3.1010  1.9634
 7855SOL    HW235202   1.720   1.459  11.812  1.0427 -2.1267  1.3651
 7856SOL     OW35203   4.164   1.759  14.828 -0.0345 -0.3903  0.4544
 7856SOL    HW135204   4.161   1.846  14.788  0.4460  0.2713  1.8651
 7856SOL    HW235205   4.240   1.718  14.785  0.7013  0.5373  0.8768
 7857SOL     OW35206   3.587   1.284   3.691 -0.9269  0.0630 -0.4364
 7857SOL    HW135207   3.558   1.359   3.639 -1.1449 -1.0388 -1.8907
 7857SOL    HW235208   3.620   1.234   3.617  0.0500 -1.3239  0.9411
 7858SOL     OW35209   0.861   4.583  10.932 -0.4196  0.1975  0.3219
 7858SOL    HW135210   0.956   4.589  10.934 -0.1666 -3.8982  1.2658
 7858SOL    HW235211   0.858   4.503  10.878 -0.5336  0.1849  0.3474
 7859SOL     OW35212   0.439   3.764   5.346 -0.0085  0.0155  0.3236
 7859SOL    HW135213   0.383   3.718   5.283 -1.0746 -1.5563  2.3992
 7859SOL    HW235214   0.520   3.772   5.295 -1.3237 -0.3197 -1.8115
 7860SOL     OW35215   1.333   3.175  12.331  0.2087 -0.0137  0.7715
 7860SOL    HW135216   1.414   3.152  12.376 -0.2002 -0.1123  1.4490
 7860SOL    HW235217   1.363   3.182  12.240  2.7031  1.1703  1.7017
 7861SOL     OW35218   0.394   1.497   9.974  0.1463 -0.0926  0.1691
 7861SOL    HW135219   0.398   1.424   9.912 -0.3685 -0.7070  0.8580
 7861SOL    HW235220   0.304   1.514  10.002  0.0236  0.8862 -0.8234
 7862SOL     OW35221   1.726   0.937  14.235  0.5920  0.1685  0.1674
 7862SOL    HW135222   1.697   1.013  14.186 -2.8536 -1.8256 -0.8192
 7862SOL    HW235223   1.801   0.922  14.177 -0.8267 -2.5345 -0.9327
 7863SOL     OW35224   4.108   3.808  11.034 -0.7019 -0.3692 -0.1967
 7863SOL    HW135225   4.179   3.790  10.972 -0.1388  0.5632  0.1704
 7863SOL    HW235226   4.105   3.721  11.074 -1.7313 -0.5429 -0.6647
 7864SOL     OW35227   2.262   1.402   5.973  0.1138  0.3989 -0.7162
 7864SOL    HW135228   2.177   1.446   5.976  0.1464  0.3326  1.1640
 7864SOL    HW235229   2.254   1.341   6.047  2.0920 -0.1660 -0.9507
 7865SOL     OW35230   1.099   0.135  10.682 -0.0044  0.6568  0.4152
 7865SOL    HW135231   1.046   0.211  10.705 -0.8138 -0.1310  1.1445
 7865SOL    HW235232   1.040   0.091  10.621  0.4626 -2.4811  2.2502
 7866SOL     OW35233   4.305   1.826  13.413 -0.2977  0.0074 -0.1263
 7866SOL    HW135234   4.261   1.872  13.485 -0.1123  0.3477 -0.2272
 7866SOL    HW235235   4.247   1.845  13.338 -0.3418 -0.4420 -0.2032
 7867SOL     OW35236   3.415   0.299   9.895 -0.5945 -0.5512  0.9617
 7867SOL    HW135237   3.461   0.352   9.960  1.5647 -0.3921 -0.6885
 7867SOL    HW235238   3.425   0.213   9.936  1.3450 -0.6515  0.2776
 7868SOL     OW35239   0.399   3.136   3.065  0.0818  0.2398  0.2045
 7868SOL    HW135240   0.459   3.131   2.991 -1.9350 -0.4692 -1.3796
 7868SOL    HW235241   0.399   3.231   3.076  3.9153  0.0086  2.0998
 7869SOL     OW35242   2.537   0.041   3.716  0.0411 -0.4179 -0.0462
 7869SOL    HW135243   2.549   4.686   3.690 -0.6611 -1.0738  1.8993
 7869SOL    HW235244   2.454   0.030   3.762  0.7268 -1.6919  0.9185
 7870SOL     OW35245   2.864   0.776   8.207 -0.2869 -0.2562  0.1716
 7870SOL    HW135246   2.862   0.809   8.297 -0.7919 -2.7402  1.0617
 7870SOL    HW235247   2.950   0.798   8.172 -1.3626  2.5240 -0.6938
 7871SOL     OW35248   3.164   0.839  13.060  0.3751 -0.2210 -1.0304
 7871SOL    HW135249   3.225   0.911  13.074 -1.0825  0.7552  0.3739
 7871SOL    HW235250   3.093   0.889  13.019 -0.5639 -1.0181 -0.3801
 7872SOL     OW35251   3.072   0.500   1.610 -0.2277 -0.1929  0.1290
 7872SOL    HW135252   3.097   0.447   1.686 -1.1535 -0.0956  0.5025
 7872SOL    HW235253   3.010   0.554   1.661  0.1129  1.4739 -1.2245
 7873SOL     OW35254   2.340   2.990   1.295 -0.3127  0.0300  0.0027
 7873SOL    HW135255   2.386   2.907   1.282  1.0228  0.7424  0.1787
 7873SOL    HW235256   2.336   3.012   1.202  0.9878 -0.1658 -0.1034
 7874SOL     OW35257   3.422   0.033   2.843  0.4508 -0.5040  0.2787
 7874SOL    HW135258   3.351   0.053   2.904  0.8359 -1.4150  1.0311
 7874SOL    HW235259   3.480   4.718   2.900  0.9671  0.6803  0.8100
 7875SOL     OW35260   0.408   3.922  15.780 -0.2175  0.2181  0.3296
 7875SOL    HW135261   0.318   3.920  15.746  1.3163 -0.2898 -3.7371
 7875SOL    HW235262   0.421   4.015  15.800  0.4686 -0.5526  3.5213
 7876SOL     OW35263   2.776   2.278   4.517 -0.0789  0.2331 -0.0489
 7876SOL    HW135264   2.690   2.243   4.497  0.3733  0.3684 -2.2193
 7876SOL    HW235265   2.761   2.373   4.519 -0.1230  0.2188  0.5468
 7877SOL     OW35266   0.542   3.203  10.162 -0.1415 -0.2098 -0.5768
 7877SOL    HW135267   0.494   3.241  10.089 -0.0512 -2.3985 -1.7747
 7877SOL    HW235268   0.469   3.201  10.224 -1.1927  2.5568 -1.7365
 7878SOL     OW35269   0.307   2.120  14.862  0.0267 -0.5245  0.0086
 7878SOL    HW135270   0.359   2.137  14.941 -0.3401  1.0066 -0.0715
 7878SOL    HW235271   0.370   2.126  14.790 -0.9449  3.7918 -0.4831
 7879SOL     OW35272   0.046   1.478   5.930 -0.1117  0.1543 -0.2113
 7879SOL    HW135273   0.022   1.409   5.993  0.1323 -0.1920 -0.4964
 7879SOL    HW235274   0.092   1.541   5.985  0.4963  0.5199 -1.1503
 7880SOL     OW35275   2.252   0.161   5.218  0.2311 -0.1823  0.4122
 7880SOL    HW135276   2.285   0.223   5.282  1.2161  1.9053 -2.1332
 7880SOL    HW235277   2.162   0.191   5.213  0.2518 -0.4442 -1.4835
 7881SOL     OW35278   0.643   4.663   1.638 -0.3278  0.5740 -0.6201
 7881SOL    HW135279   0.595   0.002   1.672  2.1725  0.9135  2.2487
 7881SOL    HW235280   0.656   4.614   1.719 -1.2021  3.0899  1.0419
 7882SOL     OW35281   4.496   2.012   1.012  0.2787 -0.5100 -0.1903
 7882SOL    HW135282   4.561   1.943   1.018 -1.8024 -2.4409  0.0727
 7882SOL    HW235283   4.424   1.975   1.063 -1.8388  0.0806 -2.7345
 7883SOL     OW35284   0.923   4.496   6.166 -0.3105  0.0683  0.2530
 7883SOL    HW135285   0.894   4.431   6.101 -0.5040  0.7216 -0.3205
 7883SOL    HW235286   0.943   4.571   6.110  2.2001  0.0010  1.0931
 7884SOL     OW35287   2.279   1.263   6.686 -0.3170 -0.1111  0.3342
 7884SOL    HW135288   2.371   1.277   6.712  0.0823 -0.9972 -0.5927
 7884SOL    HW235289   2.230   1.259   6.768 -2.6505  0.1945 -1.0644
 7885SOL     OW35290   4.570   3.413  16.898  0.4175 -0.2946 -0.1263
 7885SOL    HW135291   4.550   3.333  16.848  0.3563  0.3213 -1.0961
 7885SOL    HW235292   4.591   3.372  16.982 -1.3758 -1.3358 -0.1806
 7886SOL     OW35293   3.536   3.184  17.170 -0.2500 -0.0178  0.4365
 7886SOL    HW135294   3.466   3.199  17.234  0.3467  2.1273  0.5911
 7886SOL    HW235295   3.483   3.129  17.112 -0.6906 -0.3408  1.1440
 7887SOL     OW35296   2.887   4.290   2.033  0.0574  0.4921  0.0088
 7887SOL    HW135297   2.915   4.205   1.999  1.1947  0.5899  0.6845
 7887SOL    HW235298   2.795   4.265   2.039  0.9912 -2.5833  1.3280
 7888SOL     OW35299   3.560   1.703  13.006 -0.1404  0.2694  0.2359
 7888SOL    HW135300   3.529   1.613  12.995  0.6310  0.5463 -4.2594
 7888SOL    HW235301   3.478   1.746  13.031 -1.1330 -0.9118 -0.9603
 7889SOL     OW35302   1.754   2.662   2.162  0.4366  0.0576 -0.5391
 7889SOL    HW135303   1.742   2.743   2.212 -0.0391  0.1356 -0.7774
 7889SOL    HW235304   1.847   2.642   2.173  0.0216 -1.2049  0.6393
 7890SOL     OW35305   4.317   1.349   1.653 -0.0181  0.0685  0.1513
 7890SOL    HW135306   4.224   1.357   1.676 -0.5434 -1.1793 -1.5637
 7890SOL    HW235307   4.314   1.387   1.565 -1.7972  1.6555  0.9091
 7891SOL     OW35308   3.903   0.414   2.049 -0.4936  0.2254  0.0608
 7891SOL    HW135309   3.813   0.383   2.052 -0.3618  0.0975  3.0151
 7891SOL    HW235310   3.894   0.484   1.985 -0.7486 -0.5760 -0.7908
 7892SOL     OW35311   2.987   1.568   5.622  0.8333 -0.6688  0.0393
 7892SOL    HW135312   2.909   1.566   5.676  2.8406 -2.4795  2.8471
 7892SOL    HW235313   2.945   1.533   5.543 -2.0511 -0.9987  1.7421
 7893SOL     OW35314   3.314   4.370   2.480 -0.4370 -0.4495  0.1059
 7893SOL    HW135315   3.403   4.341   2.463  0.3243  1.0834  1.5715
 7893SOL    HW235316   3.329   4.433   2.550 -1.9657 -1.8857  1.7453
 7894SOL     OW35317   3.551   3.268   4.374  0.0823 -0.4308 -0.1329
 7894SOL    HW135318   3.570   3.191   4.428 -2.1545 -1.8550 -1.3957
 7894SOL    HW235319   3.616   3.260   4.304 -1.2206 -0.6286 -1.3258
 7895SOL     OW35320   2.202   4.618   9.644  0.3381  0.3414  0.0476
 7895SOL    HW135321   2.277   4.660   9.601 -0.9440  1.1561 -1.4046
 7895SOL    HW235322   2.144   4.619   9.568 -1.6354 -1.6156  1.5387
 7896SOL     OW35323   0.566   2.328   7.862  0.2248  0.1393  0.2043
 7896SOL    HW135324   0.639   2.286   7.817  0.4458  0.1639  0.5370
 7896SOL    HW235325   0.526   2.250   7.901 -1.7705  2.1889  2.2901
 7897SOL     OW35326   3.130   4.313   2.291 -0.2164  0.4682 -0.4451
 7897SOL    HW135327   3.204   4.324   2.351 -0.7264 -0.3979  0.3327
 7897SOL    HW235328   3.088   4.398   2.308 -0.4763  0.0741  0.9159
 7898SOL     OW35329   1.931   0.411   2.567  0.1600  0.0227 -0.3056
 7898SOL    HW135330   1.978   0.367   2.497 -0.3610  0.8292 -1.1602
 7898SOL    HW235331   1.996   0.460   2.617 -0.4825 -0.7133  1.2672
 7899SOL     OW35332   1.618   1.158  14.111  0.2310 -0.4795  0.0834
 7899SOL    HW135333   1.598   1.238  14.159  1.1263 -0.1675 -0.0737
 7899SOL    HW235334   1.599   1.182  14.020 -2.6070 -0.6206  0.6348
 7900SOL     OW35335   0.308   1.084   4.350  0.0123  0.0455  0.1882
 7900SOL    HW135336   0.309   1.009   4.410  0.5628  0.3670  0.5838
 7900SOL    HW235337   0.281   1.151   4.413  1.8845  0.9742 -0.0094
 7901SOL     OW35338   4.301   2.848  12.541 -0.1587  0.0342  0.2350
 7901SOL    HW135339   4.355   2.775  12.511 -0.3531  0.1404 -0.3853
 7901SOL    HW235340   4.279   2.882  12.454  1.2581  0.4241  0.0182
 7902SOL     OW35341   2.346   4.356  10.074  0.2345 -0.4522  0.4311
 7902SOL    HW135342   2.256   4.356  10.041  0.4612 -1.7057 -0.1687
 7902SOL    HW235343   2.385   4.375   9.989 -0.2279  0.3949  0.4007
 7903SOL     OW35344   0.130   0.242   9.223  0.5117  0.3110  0.1783
 7903SOL    HW135345   0.125   0.320   9.278 -2.6600  2.4668 -3.2885
 7903SOL    HW235346   0.195   0.261   9.155  0.7235  1.3004  0.6622
 7904SOL     OW35347   1.973   2.435  16.853 -0.2976  0.3574  0.1598
 7904SOL    HW135348   1.995   2.473  16.768  2.8252 -0.2321  0.7266
 7904SOL    HW235349   2.056   2.448  16.899 -0.1701 -2.0226  0.5707
 7905SOL     OW35350   0.318   1.477   9.122 -0.2849  0.1411  0.6510
 7905SOL    HW135351   0.412   1.479   9.137  0.0701 -0.7198 -1.4671
 7905SOL    HW235352   0.311   1.459   9.028  3.6237 -0.9865  0.6061
 7906SOL     OW35353   2.529   3.460   1.884 -0.7677 -0.4237 -0.2977
 7906SOL    HW135354   2.554   3.386   1.829  0.6937  0.3417 -0.6495
 7906SOL    HW235355   2.464   3.422   1.943  1.3852 -1.6777  1.2646
 7907SOL     OW35356   0.531   1.419   7.014 -0.2134  0.0925  0.4768
 7907SOL    HW135357   0.460   1.401   6.952  2.2067 -2.7538 -1.4495
 7907SOL    HW235358   0.589   1.351   6.979  0.8499  1.4444 -0.3663
 7908SOL     OW35359   1.530   2.689   1.255 -0.3384  0.3888  0.5962
 7908SOL    HW135360   1.485   2.732   1.328 -1.1303 -1.9384  1.4637
 7908SOL    HW235361   1.617   2.728   1.252  0.0953 -0.4334  3.0928
 7909SOL     OW35362   0.525   4.009   3.541  0.4693 -0.1248 -0.5313
 7909SOL    HW135363   0.458   4.007   3.609  1.0180 -1.0806 -0.0179
 7909SOL    HW235364   0.468   4.039   3.471 -1.8107 -1.0954  0.9038
 7910SOL     OW35365   1.304   3.390   8.786 -0.3080  0.1078 -0.2222
 7910SOL    HW135366   1.341   3.477   8.806 -0.6649 -0.1964  1.7577
 7910SOL    HW235367   1.318   3.347   8.870  1.7676  0.8897 -0.1512
 7911SOL     OW35368   3.553   2.166  12.954 -0.8725 -0.1471 -0.0165
 7911SOL    HW135369   3.566   2.162  13.049 -0.0203  3.0889  0.0199
 7911SOL    HW235370   3.594   2.251  12.934 -2.5977  0.4492 -1.0855
 7912SOL     OW35371   3.167   2.728   1.044 -0.0585 -0.1189  0.3969
 7912SOL    HW135372   3.134   2.791   1.108  0.5336 -0.0077  0.5951
 7912SOL    HW235373   3.257   2.712   1.073  0.6183  1.4886 -0.8072
 7913SOL     OW35374   0.397   2.637   5.741 -0.1339 -0.0622  0.1801
 7913SOL    HW135375   0.394   2.722   5.697 -2.1041 -1.6875 -2.8153
 7913SOL    HW235376   0.492   2.642   5.749 -0.1452 -1.6149  1.2130
 7914SOL     OW35377   4.309   1.162   9.615 -0.0319  0.0451  0.2000
 7914SOL    HW135378   4.285   1.255   9.617  2.6724  0.7493 -0.1372
 7914SOL    HW235379   4.293   1.133   9.705 -0.1786 -3.5585 -0.9948
 7915SOL     OW35380   2.144   1.683  13.804  0.1940 -0.0668  0.0156
 7915SOL    HW135381   2.226   1.729  13.819  0.9509 -0.8025 -1.8691
 7915SOL    HW235382   2.166   1.624  13.733 -0.7337  0.0345 -0.3610
 7916SOL     OW35383   1.961   4.670  13.266 -0.5550 -0.3100 -0.1540
 7916SOL    HW135384   1.966   4.581  13.301  1.0640 -0.4403 -0.7335
 7916SOL    HW235385   1.882   4.666  13.211 -0.3145  2.1528 -0.6745
 7917SOL     OW35386   0.564   1.797  13.006 -0.5546 -0.0491  0.0815
 7917SOL    HW135387   0.587   1.879  13.050 -1.1609  0.8501 -1.2812
 7917SOL    HW235388   0.639   1.766  12.956  1.0371  1.4234  1.5647
 7918SOL     OW35389   2.396   2.874  12.632  0.1265  0.0085 -0.1626
 7918SOL    HW135390   2.360   2.806  12.575 -0.7445 -0.5487  1.0539
 7918SOL    HW235391   2.476   2.903  12.587 -0.2735  0.8833 -0.2978
 7919SOL     OW35392   1.837   2.508  12.593 -0.3021 -0.2802 -0.0518
 7919SOL    HW135393   1.874   2.489  12.679  1.0263  2.5918  0.0234
 7919SOL    HW235394   1.907   2.562  12.557 -0.9573  1.0919  0.7169
 7920SOL     OW35395   3.745   1.644   5.040  0.2386 -0.4604  0.3323
 7920SOL    HW135396   3.693   1.604   4.970  2.4413  0.5203 -1.8790
 7920SOL    HW235397   3.743   1.574   5.105 -2.1018 -1.0783 -0.3816
 7921SOL     OW35398   1.005   0.734   4.129 -0.2876 -0.3659  0.4184
 7921SOL    HW135399   1.038   0.671   4.065  1.7222 -0.3840  1.4825
 7921SOL    HW235400   0.944   0.674   4.173 -0.0514 -0.7910  0.1618
 7922SOL     OW35401   1.320   0.144   8.864 -0.0961 -0.1846 -0.4034
 7922SOL    HW135402   1.275   0.090   8.930 -1.0244  0.6422 -0.3586
 7922SOL    HW235403   1.374   0.188   8.930  0.4385  0.2044 -1.0964
 7923SOL     OW35404   0.880   1.568   5.530  0.0209 -0.4351 -0.0154
 7923SOL    HW135405   0.817   1.516   5.578  0.7460 -0.3299  1.0490
 7923SOL    HW235406   0.872   1.651   5.577  0.4937 -0.4389  0.0727
 7924SOL     OW35407   1.035   2.443   1.878  0.5832  0.0991 -0.0830
 7924SOL    HW135408   1.064   2.352   1.874  3.4133  0.9383  1.4838
 7924SOL    HW235409   0.942   2.421   1.882  1.1023 -1.6876  2.0392
 7925SOL     OW35410   4.595   4.588  14.784  0.7437  0.0288 -0.4682
 7925SOL    HW135411   4.576   4.593  14.690  0.2528  0.6899 -0.3281
 7925SOL    HW235412   4.543   4.510  14.805  1.7696 -0.7539 -0.8168
 7926SOL     OW35413   3.788   0.496  14.574  0.5459 -0.3440 -0.3769
 7926SOL    HW135414   3.774   0.413  14.620  0.7659 -1.2215 -1.9126
 7926SOL    HW235415   3.845   0.470  14.502  1.4703  0.6957 -0.0215
 7927SOL     OW35416   1.865   1.907   5.716 -0.4880  0.2619  0.0395
 7927SOL    HW135417   1.956   1.887   5.691 -0.5742 -0.1578  0.0723
 7927SOL    HW235418   1.873   1.954   5.799  1.7238 -1.3761  0.7513
 7928SOL     OW35419   1.289   2.324   4.118 -0.3655  0.0796  0.1205
 7928SOL    HW135420   1.224   2.361   4.178  2.1553  0.6564  2.4984
 7928SOL    HW235421   1.235   2.326   4.039  1.0814 -1.6083 -0.9278
 7929SOL     OW35422   4.274   1.606   7.771  0.6525 -0.5885  0.6842
 7929SOL    HW135423   4.315   1.616   7.686  0.8578 -0.4931  0.7948
 7929SOL    HW235424   4.184   1.607   7.739  0.2885 -0.5552  1.6880
 7930SOL     OW35425   1.754   1.477   6.943  0.0897 -0.2923 -0.2175
 7930SOL    HW135426   1.747   1.396   6.992  1.0861  0.0270  0.4623
 7930SOL    HW235427   1.783   1.440   6.859 -1.5551  2.6369 -2.0903
 7931SOL     OW35428   0.439   3.137   5.152 -0.7625 -0.2974 -0.3042
 7931SOL    HW135429   0.488   3.123   5.071  0.0569  0.2534  0.0910
 7931SOL    HW235430   0.394   3.054   5.164  1.3846 -1.5270 -0.6524
 7932SOL     OW35431   3.832   1.839   3.736  0.1557 -0.5816  0.0161
 7932SOL    HW135432   3.866   1.749   3.745  1.0566 -0.5219 -2.6902
 7932SOL    HW235433   3.755   1.841   3.793  0.3645 -0.3834  0.2894
 7933SOL     OW35434   2.012   4.223   3.480 -0.6199 -0.3633  0.6246
 7933SOL    HW135435   2.079   4.184   3.536 -0.2659 -0.2483  0.2795
 7933SOL    HW235436   1.933   4.171   3.497  0.7475 -2.2051  1.3637
 7934SOL     OW35437   2.202   4.218   9.763 -0.2896  0.1469 -0.1948
 7934SOL    HW135438   2.272   4.272   9.724 -1.3623  1.7766  0.1156
 7934SOL    HW235439   2.142   4.281   9.803  0.2466 -0.7457  2.0009
 7935SOL     OW35440   2.669   0.812   2.249 -0.5077  0.2372  0.2522
 7935SOL    HW135441   2.619   0.731   2.260 -1.0771  0.4496 -0.8291
 7935SOL    HW235442   2.615   0.868   2.305  0.5265  2.6617 -1.2065
 7936SOL     OW35443   3.036   0.232   5.554 -0.9993  0.0334 -0.8334
 7936SOL    HW135444   3.044   0.140   5.530  2.3680 -0.5637  2.4848
 7936SOL    HW235445   3.014   0.275   5.472 -2.1552  1.6195  0.3009
 7937SOL     OW35446   3.785   4.715  10.471  0.3597 -0.5025 -0.4046
 7937SOL    HW135447   3.756   4.694  10.383  3.2362  0.9225 -1.6767
 7937SOL    HW235448   3.847   4.643  10.482 -1.0342 -1.6492 -0.0806
 7938SOL     OW35449   0.897   3.950   5.237 -0.3050  0.3817 -0.2649
 7938SOL    HW135450   0.806   3.940   5.266  0.7141 -1.3377  2.3621
 7938SOL    HW235451   0.921   4.037   5.270  2.1111 -0.3081 -0.1975
 7939SOL     OW35452   3.978   2.873  12.758 -0.1073 -0.6228  0.4142
 7939SOL    HW135453   4.017   2.789  12.733  0.4602 -0.7268  1.6340
 7939SOL    HW235454   4.032   2.893  12.835 -0.4859 -0.7271  0.7038
 7940SOL     OW35455   3.777   2.251   8.030  0.0254  0.1518  0.1496
 7940SOL    HW135456   3.808   2.164   8.054  1.2018  0.5462  0.0758
 7940SOL    HW235457   3.858   2.298   8.051  0.0508  0.7259 -1.2039
 7941SOL     OW35458   0.379   4.642   6.385 -0.3962 -0.3826 -0.1129
 7941SOL    HW135459   0.340   4.614   6.302  0.3831 -0.7491 -0.3536
 7941SOL    HW235460   0.316   4.714   6.393  0.6619  1.0928 -5.3150
 7942SOL     OW35461   0.741   0.184   1.510 -0.5201 -0.2616  0.3722
 7942SOL    HW135462   0.814   0.122   1.516  0.3928  0.6212 -1.6543
 7942SOL    HW235463   0.670   0.122   1.525 -1.3171  0.3949 -0.7339
 7943SOL     OW35464   3.899   2.304   4.560  0.5411  0.2434 -0.2157
 7943SOL    HW135465   3.868   2.275   4.474 -1.2048 -1.0087  0.8281
 7943SOL    HW235466   3.850   2.383   4.582  3.1528  1.8767 -0.3130
 7944SOL     OW35467   0.215   3.706  15.861  0.1440 -0.0543  0.2834
 7944SOL    HW135468   0.204   3.795  15.895  1.4769  0.4786 -0.6570
 7944SOL    HW235469   0.142   3.657  15.899 -0.4193 -0.6678 -1.6031
 7945SOL     OW35470   1.703   2.287   4.077  0.3100 -0.0695 -0.6982
 7945SOL    HW135471   1.633   2.225   4.056 -1.5068  1.1907  1.6025
 7945SOL    HW235472   1.640   2.359   4.079  0.4544 -0.0174  2.4999
 7946SOL     OW35473   0.981   0.155   6.973 -0.7556  0.3614 -0.0384
 7946SOL    HW135474   1.045   0.084   6.968  0.5325  1.5188  0.0694
 7946SOL    HW235475   1.021   0.213   6.908 -1.2918 -0.4229 -1.0618
 7947SOL     OW35476   3.256   3.751   6.857  0.0357 -0.1807 -0.6815
 7947SOL    HW135477   3.273   3.796   6.775  0.7389  2.4871  0.9393
 7947SOL    HW235478   3.239   3.824   6.916  1.0594 -0.5081  0.0325
 7948SOL     OW35479   0.223   1.791   1.232  0.2274  0.3636 -0.5976
 7948SOL    HW135480   0.223   1.803   1.137 -1.4093 -0.1615 -0.6639
 7948SOL    HW235481   0.274   1.711   1.236 -0.8714 -0.4606 -3.2994
 7949SOL     OW35482   4.333   4.573   2.842 -0.4094 -0.3757  0.0010
 7949SOL    HW135483   4.286   4.653   2.818 -0.9581 -0.0876  2.0964
 7949SOL    HW235484   4.371   4.554   2.756 -2.3193 -1.4977 -0.5997
 7950SOL     OW35485   0.069   2.823   4.755  0.1637 -0.0275 -0.3749
 7950SOL    HW135486   0.046   2.776   4.835  2.3892  0.2839  0.4513
 7950SOL    HW235487   0.099   2.907   4.791 -2.1194  0.2979  0.7669
 7951SOL     OW35488   1.988   2.991  11.309  0.6939 -0.0069 -0.5434
 7951SOL    HW135489   2.038   2.989  11.227  2.8550 -0.7216  0.7816
 7951SOL    HW235490   2.035   2.931  11.367 -1.5944 -2.1076 -0.8714
 7952SOL     OW35491   1.198   0.762  14.987 -0.4019 -0.6828 -0.0769
 7952SOL    HW135492   1.170   0.798  14.902  0.5880  0.3186  0.0295
 7952SOL    HW235493   1.140   0.686  14.989 -2.4019  0.7658 -1.7859
 7953SOL     OW35494   2.288   3.797   2.463 -0.0381  0.3038  0.1575
 7953SOL    HW135495   2.349   3.731   2.495 -1.8045 -0.5765  1.6798
 7953SOL    HW235496   2.351   3.838   2.404 -0.6399  1.7826  0.5442
 7954SOL     OW35497   1.847   0.115  16.427  0.0248  0.4046 -0.4403
 7954SOL    HW135498   1.871   0.166  16.350  1.1001  0.3949 -0.1132
 7954SOL    HW235499   1.775   0.168  16.459  1.6533  4.0191 -2.8020
 7955SOL     OW35500   3.268   0.200   6.204 -0.8612  0.4447  0.6363
 7955SOL    HW135501   3.246   0.118   6.249 -2.2455  0.3590 -0.1975
 7955SOL    HW235502   3.353   0.170   6.172 -0.3110  0.6322  1.9002
 7956SOL     OW35503   0.580   3.102  17.040 -0.8675  0.7844  0.0507
 7956SOL    HW135504   0.669   3.075  17.059 -1.0576  1.5383  2.0339
 7956SOL    HW235505   0.537   3.021  17.069 -0.1124  1.0154  1.8206
 7957SOL     OW35506   1.079   0.243   6.332  0.0416  0.2826 -0.3126
 7957SOL    HW135507   1.173   0.239   6.347 -0.2147  1.9894  1.7503
 7957SOL    HW235508   1.054   0.245   6.424 -0.7235 -0.0632 -0.5143
 7958SOL     OW35509   4.671   2.655   8.444  0.1273  0.0373  0.6588
 7958SOL    HW135510   4.688   2.748   8.456  1.0742 -0.0645  0.1464
 7958SOL    HW235511   4.658   2.625   8.534  0.1194  0.2140  0.7163
 7959SOL     OW35512   2.739   3.608   6.533  0.4001  0.2449  0.0621
 7959SOL    HW135513   2.646   3.583   6.538  1.0009 -2.0872 -0.3642
 7959SOL    HW235514   2.769   3.632   6.621  0.3813  0.1461  0.0955
 7960SOL     OW35515   1.055   4.542   6.605  0.0424  0.2475  0.3409
 7960SOL    HW135516   1.077   4.595   6.528 -0.2439 -2.5422 -1.6574
 7960SOL    HW235517   0.983   4.491   6.569  1.0666 -1.5572  0.8539
 7961SOL     OW35518   2.168   0.261   3.835  0.3051 -0.1075 -0.1999
 7961SOL    HW135519   2.158   0.187   3.775  2.1364 -0.9072  0.4813
 7961SOL    HW235520   2.081   0.255   3.873  0.0503 -3.4441 -1.2215
 7962SOL     OW35521   3.554   1.904  15.271  0.3470 -0.1968  0.9376
 7962SOL    HW135522   3.609   1.838  15.314  1.4551 -0.4674 -0.8907
 7962SOL    HW235523   3.474   1.905  15.322 -0.7316  0.5721 -0.7739
 7963SOL     OW35524   0.893   4.235   9.585 -0.5150  0.3159  0.3499
 7963SOL    HW135525   0.970   4.265   9.634 -0.5516 -1.2105  1.3538
 7963SOL    HW235526   0.924   4.151   9.552  0.4451  0.8251 -0.0572
 7964SOL     OW35527   3.566   0.670   0.594  0.0057  0.0208 -0.0281
 7964SOL    HW135528   3.481   0.678   0.549 -0.4567  0.3743  0.9049
 7964SOL    HW235529   3.593   0.760   0.574 -2.0353  0.8238  0.7713
 7965SOL     OW35530   0.347   0.473   9.247 -0.1129 -0.2680 -0.2518
 7965SOL    HW135531   0.410   0.543   9.235  0.3061 -0.2200  2.2041
 7965SOL    HW235532   0.384   0.396   9.204  1.5557  0.9958 -1.0501
 7966SOL     OW35533   3.907   0.735   6.423  0.1793 -0.0439  1.0239
 7966SOL    HW135534   3.933   0.647   6.449 -1.8086 -0.7406  0.6211
 7966SOL    HW235535   3.995   0.761   6.395 -1.0460 -0.7211 -3.4444
 7967SOL     OW35536   0.627   1.307   2.839 -0.1151 -0.4859  0.1608
 7967SOL    HW135537   0.686   1.383   2.838 -1.7541  0.7859 -0.1676
 7967SOL    HW235538   0.679   1.240   2.884 -0.5083 -1.1349 -0.3670
 7968SOL     OW35539   3.160   3.201   7.842 -0.0816 -0.1204 -0.2143
 7968SOL    HW135540   3.204   3.207   7.927  0.2507 -1.1832 -0.3088
 7968SOL    HW235541   3.154   3.106   7.838  1.7939 -0.2555 -0.1019
 7969SOL     OW35542   1.463   1.716   2.650  0.0065 -0.1053  0.6166
 7969SOL    HW135543   1.494   1.652   2.585 -0.6709  1.6814 -1.4950
 7969SOL    HW235544   1.511   1.796   2.631  0.7401 -0.5601  0.5685
 7970SOL     OW35545   0.859   1.091  17.709 -0.8291 -0.0401  0.0231
 7970SOL    HW135546   0.854   1.187  17.709  0.1275  0.0000 -1.6373
 7970SOL    HW235547   0.764   1.076  17.710 -0.8021 -0.2584 -0.9652
 7971SOL     OW35548   0.780   0.597   3.010 -0.5474  0.0935  0.2597
 7971SOL    HW135549   0.762   0.659   2.939  2.4740 -0.2673 -0.8462
 7971SOL    HW235550   0.723   0.529   2.975 -0.2763 -0.2748  0.5322
 7972SOL     OW35551   4.412   0.418   4.313 -0.4812 -0.5171 -0.0989
 7972SOL    HW135552   4.487   0.437   4.369 -0.5814  0.7521 -0.3807
 7972SOL    HW235553   4.350   0.468   4.366 -1.9270 -2.5466  0.0983
 7973SOL     OW35554   3.428   3.513   4.164  0.8419  0.5113 -0.2678
 7973SOL    HW135555   3.505   3.547   4.209  1.7845 -1.3395 -0.4606
 7973SOL    HW235556   3.410   3.439   4.222  0.4796 -0.2951 -1.4031
 7974SOL     OW35557   1.046   3.618   3.683 -0.0194 -0.5516  0.0399
 7974SOL    HW135558   1.071   3.593   3.772 -1.0952 -1.7118  0.0157
 7974SOL    HW235559   0.951   3.608   3.694 -0.1197  0.2120 -0.0984
 7975SOL     OW35560   1.739   1.424   2.623 -0.1127  0.0348  0.2524
 7975SOL    HW135561   1.788   1.486   2.568 -0.1835  0.8629  1.1204
 7975SOL    HW235562   1.665   1.483   2.638 -1.3477 -1.7676  1.1726
 7976SOL     OW35563   0.917   4.182   7.402 -0.4885  0.0170 -0.5152
 7976SOL    HW135564   1.000   4.224   7.425  0.0659 -1.7443  0.7136
 7976SOL    HW235565   0.921   4.185   7.306 -1.3057 -0.3837 -0.5655
 7977SOL     OW35566   0.412   4.721  17.458  0.2617  0.4636 -0.1626
 7977SOL    HW135567   0.317   4.708  17.452  0.4526 -0.8685 -0.1798
 7977SOL    HW235568   0.445   4.635  17.434 -0.0762 -0.0522  1.2249
 7978SOL     OW35569   2.837   3.526   0.132 -0.1124 -0.1692  0.0972
 7978SOL    HW135570   2.932   3.541   0.129 -0.1270 -0.1236 -0.1574
 7978SOL    HW235571   2.807   3.614   0.108  0.8929 -0.0614 -0.7441
 7979SOL     OW35572   1.929   3.193   9.524 -0.1201 -0.3210  0.0394
 7979SOL    HW135573   1.916   3.155   9.437  0.8283 -0.7715  0.1019
 7979SOL    HW235574   2.002   3.137   9.548  0.2449  0.9899  1.9984
 7980SOL     OW35575   1.596   1.938   4.693  1.1775 -1.1270  0.5965
 7980SOL    HW135576   1.620   1.984   4.773 -1.0661  1.0931 -0.0083
 7980SOL    HW235577   1.678   1.950   4.645 -0.1082  0.7023 -1.1270
 7981SOL     OW35578   1.091   2.610   8.421 -0.2291  0.0221  0.8255
 7981SOL    HW135579   1.138   2.557   8.356  1.6837  2.2864  0.3729
 7981SOL    HW235580   1.161   2.617   8.485 -1.4530  2.2693  1.9189
 7982SOL     OW35581   0.270   0.595   4.103  0.4670  0.0841  0.0118
 7982SOL    HW135582   0.250   0.663   4.039  0.6033 -0.0045 -0.1260
 7982SOL    HW235583   0.229   0.525   4.053  1.0851 -1.0354  1.0673
 7983SOL     OW35584   0.569   0.439   1.644 -0.5225 -0.0659  0.2949
 7983SOL    HW135585   0.613   0.366   1.600  1.9628  1.1524  0.8042
 7983SOL    HW235586   0.528   0.478   1.566 -1.1392 -1.7558 -0.2435
 7984SOL     OW35587   0.949   4.505   1.360  0.2643  0.1042 -0.8165
 7984SOL    HW135588   0.937   4.504   1.265 -0.6870 -1.6233 -0.6742
 7984SOL    HW235589   0.930   4.413   1.381 -2.0664  0.8009  0.2126
 7985SOL     OW35590   2.491   2.568   4.377 -0.1588  0.1311 -0.0277
 7985SOL    HW135591   2.584   2.559   4.398 -0.1593  1.9149  0.7400
 7985SOL    HW235592   2.444   2.504   4.431  0.8036 -1.0527 -0.5981
 7986SOL     OW35593   4.344   3.738   5.196 -0.0584 -0.5953  0.1333
 7986SOL    HW135594   4.394   3.788   5.261 -2.4019 -0.7182  2.0021
 7986SOL    HW235595   4.418   3.688   5.161  1.2949  1.3934  0.1327
 7987SOL     OW35596   3.665   0.006   2.283  0.2753  0.1894  0.1414
 7987SOL    HW135597   3.725   0.077   2.308  0.7330 -0.2099  0.1681
 7987SOL    HW235598   3.723   4.667   2.274 -0.6510 -0.5103 -0.0230
 7988SOL     OW35599   0.546   4.230  12.080  0.5697 -0.3527  0.6853
 7988SOL    HW135600   0.559   4.313  12.127 -1.5467 -0.6083  1.7155
 7988SOL    HW235601   0.631   4.208  12.042  1.6239  0.1725  2.7043
 7989SOL     OW35602   0.424   0.185   7.797  0.4330  0.3412 -0.1015
 7989SOL    HW135603   0.354   0.179   7.863  1.4688  0.2285  0.9938
 7989SOL    HW235604   0.393   0.126   7.728  0.7990  0.6019 -0.4875
 7990SOL     OW35605   1.476   1.082   4.811  0.3096  0.2978 -0.6125
 7990SOL    HW135606   1.554   1.122   4.773  1.3975  0.1509  1.4655
 7990SOL    HW235607   1.490   0.993   4.779 -0.2726  0.1431 -0.4478
 7991SOL     OW35608   0.627   2.781   8.650  0.1630  0.3463  0.2617
 7991SOL    HW135609   0.701   2.828   8.613 -0.2991  0.6470 -0.2801
 7991SOL    HW235610   0.667   2.701   8.684  1.0284  1.1556  1.1390
 7992SOL     OW35611   2.972   0.672   7.314  0.2363  0.2071  0.5046
 7992SOL    HW135612   3.000   0.680   7.405  0.4994 -1.5378  0.5777
 7992SOL    HW235613   3.050   0.626   7.282 -0.2247 -1.2298  1.4617
 7993SOL     OW35614   1.858   3.986   7.681  0.7311  0.1082 -0.1459
 7993SOL    HW135615   1.763   3.984   7.669  0.6122  0.3410  0.7401
 7993SOL    HW235616   1.870   3.920   7.750 -0.5466  0.5815  0.5110
 7994SOL     OW35617   3.252   0.836   6.966  0.0348 -0.4990  0.3214
 7994SOL    HW135618   3.166   0.831   7.007 -0.2333 -1.5782 -0.3748
 7994SOL    HW235619   3.282   0.919   7.004 -0.6945 -0.4130  0.7053
 7995SOL     OW35620   4.115   1.849   7.572  0.1411  0.1176 -0.4713
 7995SOL    HW135621   4.130   1.763   7.531  2.2225 -0.1659  0.8928
 7995SOL    HW235622   4.072   1.886   7.495 -3.0680 -0.9511  0.7685
 7996SOL     OW35623   1.708   2.631   5.240 -0.8231  0.7461 -0.4599
 7996SOL    HW135624   1.667   2.612   5.155  1.5055 -0.7516 -1.2500
 7996SOL    HW235625   1.661   2.566   5.291  2.1804  0.9116  2.5525
 7997SOL     OW35626   2.009   2.107   6.210  0.0899  0.3396 -0.7196
 7997SOL    HW135627   1.990   2.201   6.214 -1.3002  0.0571 -0.7450
 7997SOL    HW235628   1.974   2.088   6.123 -3.1640  0.9061  0.4562
 7998SOL     OW35629   2.074   3.485   0.584 -0.3550  0.1488 -0.5798
 7998SOL    HW135630   2.146   3.486   0.521 -0.6931  1.4728 -0.9341
 7998SOL    HW235631   2.074   3.396   0.621  0.6640  1.1028  1.6772
 7999SOL     OW35632   3.467   0.183   1.473  0.2695 -1.2072 -0.5034
 7999SOL    HW135633   3.473   0.139   1.558  1.7145 -1.4079 -0.7042
 7999SOL    HW235634   3.379   0.158   1.445 -1.0571  0.2371  2.3935
 8000SOL     OW35635   3.746   4.312   5.639  0.2562 -0.5719  0.6834
 8000SOL    HW135636   3.765   4.267   5.557 -0.1241  0.6574 -0.0702
 8000SOL    HW235637   3.803   4.264   5.700  1.0617  1.5523  1.6094
 8001SOL     OW35638   2.055   0.159   1.403  0.2032 -0.0296  0.7602
 8001SOL    HW135639   2.006   0.234   1.368 -3.0172 -2.1890  0.6804
 8001SOL    HW235640   2.043   0.091   1.337  0.3091  0.3617  0.3410
 8002SOL     OW35641   3.841   0.936   9.541 -0.1821 -0.3053  0.0911
 8002SOL    HW135642   3.771   0.980   9.492 -0.8766 -1.7552 -0.2102
 8002SOL    HW235643   3.918   0.975   9.500 -1.8380  0.5087 -2.2662
 8003SOL     OW35644   3.986   2.340   7.490 -0.0344  0.4299 -0.0849
 8003SOL    HW135645   3.944   2.407   7.544 -0.7632 -1.7352  2.0160
 8003SOL    HW235646   3.929   2.265   7.502  0.0377  0.6201  1.3632
 8004SOL     OW35647   3.154   1.727   8.956  0.1432  0.1906  0.1058
 8004SOL    HW135648   3.212   1.802   8.967 -0.4364  0.5775  0.5714
 8004SOL    HW235649   3.095   1.735   9.031  0.0210  0.4313 -0.0161
 8005SOL     OW35650   4.530   1.762   5.563 -0.4926  0.4448  0.2117
 8005SOL    HW135651   4.535   1.745   5.657  0.5382  2.2821  0.4999
 8005SOL    HW235652   4.552   1.856   5.559 -0.0956  0.3001 -0.9670
 8006SOL     OW35653   1.338   4.043  17.687  0.4731  0.2693  0.0063
 8006SOL    HW135654   1.289   4.009  17.613  0.9053  0.3585 -0.3191
 8006SOL    HW235655   1.413   4.096  17.658 -1.2220  3.3901  1.3676
 8007SOL     OW35656   3.640   2.843   6.616 -0.3695  0.0369 -0.0657
 8007SOL    HW135657   3.681   2.867   6.700  0.7025  0.0040 -0.5774
 8007SOL    HW235658   3.594   2.927   6.607  1.0092  0.3978 -3.4620
 8008SOL     OW35659   0.472   2.838   8.115 -0.4552 -0.5961 -0.5358
 8008SOL    HW135660   0.502   2.768   8.058 -0.3119  0.1043 -1.3268
 8008SOL    HW235661   0.387   2.861   8.075 -0.9426  0.5532  1.1324
 8009SOL     OW35662   2.698   1.042   4.252 -0.1376 -0.6544 -0.1210
 8009SOL    HW135663   2.771   1.007   4.200 -1.3962  0.8440 -2.9016
 8009SOL    HW235664   2.639   0.967   4.247  0.0557 -0.7737 -0.6867
 8010SOL     OW35665   2.052   3.289   6.160  0.5510 -0.5929  0.0125
 8010SOL    HW135666   2.138   3.319   6.132  0.8774 -0.9785  0.5983
 8010SOL    HW235667   2.030   3.246   6.077  1.1969  0.3183 -0.6250
 8011SOL     OW35668   0.333   3.442   7.503  0.2133  0.0214 -0.9279
 8011SOL    HW135669   0.309   3.500   7.576 -0.4504 -0.2335 -0.9418
 8011SOL    HW235670   0.404   3.497   7.469 -0.4964  1.8208  0.4553
 8012SOL     OW35671   1.796   4.568   1.986 -0.1857  0.3915 -0.3682
 8012SOL    HW135672   1.856   4.617   1.930  0.4259 -0.0501 -0.0917
 8012SOL    HW235673   1.771   4.638   2.047  0.0589 -0.1270  0.3307
 8013SOL     OW35674   2.786   3.794   0.046  0.3392 -0.5178  0.4859
 8013SOL    HW135675   2.834   3.844  17.723 -1.4157  0.9355  0.3308
 8013SOL    HW235676   2.748   3.856   0.108  1.9168  1.1116 -0.1805
 8014SOL     OW35677   4.342   3.409  11.109 -0.7933  0.2995 -1.0977
 8014SOL    HW135678   4.405   3.481  11.108  0.7178 -0.9941  0.3955
 8014SOL    HW235679   4.372   3.365  11.029  1.9627  0.3774 -0.0995
 8015SOL     OW35680   3.478   3.788   2.928 -0.3617  0.2177 -0.1711
 8015SOL    HW135681   3.471   3.759   3.019 -0.1434  0.9197  0.0647
 8015SOL    HW235682   3.399   3.842   2.931 -0.3969  0.0959  0.9982
 8016SOL     OW35683   0.462   1.178   5.178  0.0415 -0.4719  0.6499
 8016SOL    HW135684   0.495   1.260   5.140  1.6047 -0.6339  1.6891
 8016SOL    HW235685   0.397   1.220   5.234  0.4131 -1.1783  1.6012
 8017SOL     OW35686   1.170   4.157   9.564  0.0693 -0.3025 -0.0647
 8017SOL    HW135687   1.137   4.203   9.486  0.0429 -2.0476 -1.0830
 8017SOL    HW235688   1.239   4.101   9.528  1.1625  0.7662  0.3464
 8018SOL     OW35689   4.349   1.417   3.901 -0.2153 -0.0778 -0.3082
 8018SOL    HW135690   4.316   1.375   3.822 -1.1190  0.1716 -0.0708
 8018SOL    HW235691   4.303   1.371   3.971 -0.0439  2.2996  1.3908
 8019SOL     OW35692   3.514   1.610   9.613  0.2209  0.0105  0.8023
 8019SOL    HW135693   3.523   1.515   9.616  2.7741  0.1935 -0.9219
 8019SOL    HW235694   3.602   1.639   9.636  0.6569 -0.7096  0.0603
 8020SOL     OW35695   2.168   0.856   0.685  0.1973  0.2701  0.0220
 8020SOL    HW135696   2.098   0.878   0.747  0.6449  0.1836  0.5546
 8020SOL    HW235697   2.212   0.941   0.675  1.2543 -0.2133  0.5394
 8021SOL     OW35698   1.188   0.408   5.739 -0.0004 -0.2251 -0.6215
 8021SOL    HW135699   1.254   0.392   5.806  0.0283 -1.0576 -0.8515
 8021SOL    HW235700   1.256   0.423   5.673 -1.4810 -1.2875 -2.3836
 8022SOL     OW35701   3.010   0.776  10.078  0.0631 -0.9852  0.5732
 8022SOL    HW135702   2.959   0.756  10.156  2.0422 -3.5444  1.2077
 8022SOL    HW235703   2.960   0.735  10.008  2.2863 -0.3982 -1.3770
 8023SOL     OW35704   3.402   4.172   3.685 -0.4496  0.6112  0.4967
 8023SOL    HW135705   3.442   4.238   3.629 -2.1373  1.2310  0.0154
 8023SOL    HW235706   3.470   4.173   3.753  0.4678 -1.8131 -0.3839
 8024SOL     OW35707   3.342   2.064   7.417  1.0293 -0.4233  0.2284
 8024SOL    HW135708   3.340   2.159   7.421  0.0329 -0.5331  2.1478
 8024SOL    HW235709   3.263   2.039   7.368  1.1765  3.0099 -1.7716
 8025SOL     OW35710   0.650   2.921   7.001 -0.0897 -0.0495  0.0517
 8025SOL    HW135711   0.662   2.887   7.090 -0.1345 -2.9096 -1.0316
 8025SOL    HW235712   0.677   3.012   7.012 -2.8159  0.7734 -0.0606
 8026SOL     OW35713   1.162   4.664   8.971 -0.2538 -0.2188  0.0068
 8026SOL    HW135714   1.077   4.637   8.936 -0.7214 -0.4490  1.3025
 8026SOL    HW235715   1.169   4.616   9.053 -0.6211  1.3420  0.9467
 8027SOL     OW35716   1.567   1.870   6.331  0.4129  0.0283  0.4721
 8027SOL    HW135717   1.551   1.777   6.345 -1.1257  0.4391  1.5573
 8027SOL    HW235718   1.538   1.914   6.411  0.7349  0.8010  0.1564
 8028SOL     OW35719   2.548   3.225  17.097  0.4804  0.3746  0.5788
 8028SOL    HW135720   2.596   3.212  17.179  1.4657  1.3161  0.1452
 8028SOL    HW235721   2.506   3.139  17.098 -0.9340  1.0537  0.0196
 8029SOL     OW35722   3.479   2.217   3.133  0.3643  0.7473 -0.1777
 8029SOL    HW135723   3.419   2.207   3.207 -1.4705 -3.1693 -2.1957
 8029SOL    HW235724   3.554   2.271   3.161  2.5880 -3.1536  1.2977
 8030SOL     OW35725   0.923   3.381   1.782  0.1644 -0.3163 -0.7636
 8030SOL    HW135726   0.837   3.351   1.754  0.4911 -1.7486 -0.2370
 8030SOL    HW235727   0.887   3.423   1.860 -0.1597 -1.9153 -0.0439
 8031SOL     OW35728   0.623   4.648   7.005  0.0502 -0.2903 -0.0110
 8031SOL    HW135729   0.565   4.651   6.929 -1.0234 -0.9202  0.7815
 8031SOL    HW235730   0.637   0.007   7.006 -0.4861 -0.2042 -1.6466
 8032SOL     OW35731   2.908   0.355  14.920  0.3535 -0.1879  0.4381
 8032SOL    HW135732   2.894   0.426  14.983  1.8034 -0.2061  0.7891
 8032SOL    HW235733   2.822   0.317  14.933 -0.4666  1.3145 -0.6008
 8033SOL     OW35734   1.300   2.911  10.584  0.4574 -0.0758 -0.1330
 8033SOL    HW135735   1.292   2.845  10.653  1.1324  2.4319  2.3605
 8033SOL    HW235736   1.305   2.992  10.635 -2.2000 -0.3535  0.5531
 8034SOL     OW35737   2.317   0.583   3.491 -0.3791 -0.0804  0.1547
 8034SOL    HW135738   2.344   0.638   3.417 -2.6045  2.5020  1.2688
 8034SOL    HW235739   2.282   0.505   3.448  1.7430 -2.7211  3.2903
 8035SOL     OW35740   0.258   1.153   9.666  0.3995 -0.8222  0.7956
 8035SOL    HW135741   0.319   1.192   9.729  0.1144 -1.0202  1.1972
 8035SOL    HW235742   0.252   1.228   9.608 -0.9462 -0.1037  1.8686
 8036SOL     OW35743   3.521   2.357   0.534 -0.1156 -0.2898 -0.2865
 8036SOL    HW135744   3.491   2.420   0.468  0.6356 -0.8746 -1.1795
 8036SOL    HW235745   3.467   2.375   0.611 -0.5949 -0.4229 -0.5878
 8037SOL     OW35746   3.339   2.165   5.421 -0.3046 -0.1813 -0.0390
 8037SOL    HW135747   3.376   2.085   5.459  0.2342  0.5391  0.9483
 8037SOL    HW235748   3.331   2.229   5.492  1.5852  0.8253 -0.7105
 8038SOL     OW35749   2.437   2.929   7.288 -0.3642 -0.2973  0.0613
 8038SOL    HW135750   2.376   2.914   7.216  0.1238  0.4644 -0.5052
 8038SOL    HW235751   2.479   2.843   7.288 -1.9897 -1.0875  0.6813
 8039SOL     OW35752   0.052   1.154  11.647 -0.0248  0.0182 -0.3485
 8039SOL    HW135753   0.118   1.117  11.588  1.5023  0.0075  1.3674
 8039SOL    HW235754   4.726   1.201  11.592 -1.1438 -0.6645  0.3330
 8040SOL     OW35755   2.491   4.484   5.793 -0.0267  0.7874  0.0885
 8040SOL    HW135756   2.454   4.525   5.871 -0.3211  0.1941  0.2653
 8040SOL    HW235757   2.476   4.391   5.815  3.0919  0.7905  2.2973
 8041SOL     OW35758   3.734   1.590  11.470  0.1674  0.5486 -0.1823
 8041SOL    HW135759   3.768   1.547  11.549 -0.8524 -1.0358 -0.6185
 8041SOL    HW235760   3.815   1.640  11.456  1.4318 -1.1292  1.1257
 8042SOL     OW35761   0.508   2.628  13.463 -0.1612  0.0357  0.3231
 8042SOL    HW135762   0.524   2.536  13.483  2.0659  0.4760  0.4785
 8042SOL    HW235763   0.584   2.636  13.405 -1.1531 -1.0657 -1.1194
 8043SOL     OW35764   0.717   0.183   6.997  0.1468  0.1554  0.3407
 8043SOL    HW135765   0.753   0.233   7.070  0.4557 -0.7568  0.8161
 8043SOL    HW235766   0.799   0.143   6.969  0.4239  0.2236  1.0474
 8044SOL     OW35767   2.890   2.247   7.554  0.0105 -0.1266  0.1734
 8044SOL    HW135768   2.883   2.163   7.510 -0.5416  0.6515 -1.2057
 8044SOL    HW235769   2.855   2.235   7.643  0.3455  1.6651  0.5614
 8045SOL     OW35770   4.464   0.171   8.341  0.0917  0.4523 -0.5346
 8045SOL    HW135771   4.556   0.187   8.323  0.2988 -0.1409 -0.0167
 8045SOL    HW235772   4.457   0.137   8.430  1.8990  1.8829  0.1532
 8046SOL     OW35773   4.039   0.011   2.406  0.0039 -0.2991  0.0702
 8046SOL    HW135774   3.990   4.685   2.351  0.4985  0.9359 -1.7725
 8046SOL    HW235775   3.998   0.087   2.366  0.6230  0.1944  0.3792
 8047SOL     OW35776   0.291   3.879  17.357 -0.5123 -0.1353  0.4031
 8047SOL    HW135777   0.270   3.806  17.298 -0.3161 -0.8453  1.2178
 8047SOL    HW235778   0.352   3.934  17.307  0.3739 -0.6408  0.9380
 8048SOL     OW35779   4.436   0.505  13.321  0.1657 -0.5249  1.1962
 8048SOL    HW135780   4.517   0.520  13.370  1.6185  1.7504 -1.8542
 8048SOL    HW235781   4.476   0.505  13.233 -0.6346 -1.0612  0.8414
 8049SOL     OW35782   2.683   0.305   5.518 -0.9082 -0.0286 -0.1356
 8049SOL    HW135783   2.749   0.369   5.547 -0.3270 -0.7960  0.2330
 8049SOL    HW235784   2.666   0.253   5.597 -1.5641  1.5925  0.8082
 8050SOL     OW35785   3.286   0.882  13.479  0.5395 -0.7502 -0.4356
 8050SOL    HW135786   3.354   0.831  13.434  0.0454 -0.9341 -0.9728
 8050SOL    HW235787   3.205   0.835  13.462 -0.3518  0.2679  1.1147
 8051SOL     OW35788   1.464   3.190   8.401  0.1243 -0.3969 -0.3068
 8051SOL    HW135789   1.386   3.226   8.358 -0.8409 -1.0599  0.8890
 8051SOL    HW235790   1.461   3.099   8.373  0.5951 -0.1555 -1.1319
 8052SOL     OW35791   4.552   4.102  13.456 -0.2293  0.2749  0.1724
 8052SOL    HW135792   4.461   4.093  13.427  0.7539  0.4731 -2.9799
 8052SOL    HW235793   4.590   4.127  13.372 -1.1452  1.5850  0.1282
 8053SOL     OW35794   3.660   0.055   4.272  0.0995 -0.4183  0.0930
 8053SOL    HW135795   3.743   0.028   4.310  0.2423 -1.3571 -0.8937
 8053SOL    HW235796   3.648   0.134   4.325  1.1586 -0.6085  0.6045
 8054SOL     OW35797   3.559   1.313   5.538 -0.0522 -0.4667 -0.5980
 8054SOL    HW135798   3.651   1.326   5.516  0.4391  0.3386  1.9795
 8054SOL    HW235799   3.557   1.329   5.632 -2.4572  1.5361 -0.9792
 8055SOL     OW35800   3.689   1.838   5.338  0.0615  0.1799  0.5435
 8055SOL    HW135801   3.736   1.755   5.332  1.9004  1.2559  0.1725
 8055SOL    HW235802   3.609   1.815   5.385  0.1696  1.9628  1.6284
 8056SOL     OW35803   2.091   2.576   8.451  0.3289 -0.0887  0.4857
 8056SOL    HW135804   2.052   2.489   8.439 -0.9936  0.4184  1.2125
 8056SOL    HW235805   2.174   2.556   8.493  0.8561  0.6462 -0.1939
 8057SOL     OW35806   3.774   0.205   6.266  0.5472  0.1920 -0.0451
 8057SOL    HW135807   3.731   0.138   6.213 -1.1246  1.3128 -0.1394
 8057SOL    HW235808   3.826   0.144   6.317 -0.5801 -0.4125  0.3834
 8058SOL     OW35809   0.288   1.896   4.272 -0.1702  0.2306 -0.2220
 8058SOL    HW135810   0.201   1.883   4.234 -1.2851  0.3219  2.3372
 8058SOL    HW235811   0.319   1.807   4.256  2.1172  1.1206 -0.6861
 8059SOL     OW35812   4.517   4.168  10.649 -0.5648  0.0732  0.1343
 8059SOL    HW135813   4.551   4.105  10.713  1.3223  0.9789  0.0181
 8059SOL    HW235814   4.447   4.195  10.709 -0.5092 -0.7847  0.5899
 8060SOL     OW35815   1.345   0.962   5.038 -0.0078  0.3243  0.0002
 8060SOL    HW135816   1.407   0.969   5.110  0.9281 -0.4882 -0.7194
 8060SOL    HW235817   1.379   1.034   4.985 -1.0024  2.2664  2.0305
 8061SOL     OW35818   3.364   3.305   8.448 -0.1493 -0.0142 -0.4110
 8061SOL    HW135819   3.272   3.285   8.432 -0.7728  2.4587  0.0545
 8061SOL    HW235820   3.350   3.361   8.525  1.4026  0.5036 -0.4992
 8062SOL     OW35821   2.791   3.667   3.197 -0.1066  0.1430  0.6000
 8062SOL    HW135822   2.830   3.581   3.186 -0.5835 -0.2398  1.8708
 8062SOL    HW235823   2.697   3.652   3.202 -0.5255  1.9777 -1.9727
 8063SOL     OW35824   1.378   3.643  16.669  0.3499 -0.3210 -0.4035
 8063SOL    HW135825   1.297   3.591  16.671 -1.6899  2.9118  1.8108
 8063SOL    HW235826   1.355   3.702  16.598  0.1106 -1.1878 -1.0466
 8064SOL     OW35827   3.641   4.716   5.284 -0.1456  0.4004 -0.1203
 8064SOL    HW135828   3.561   4.723   5.336  0.0680 -1.2412  0.4137
 8064SOL    HW235829   3.692   0.060   5.300 -0.8228  0.8193 -0.0368
 8065SOL     OW35830   0.624   0.699   1.653 -0.3716 -0.0895  0.2044
 8065SOL    HW135831   0.534   0.710   1.623  0.2522  0.2527 -1.5583
 8065SOL    HW235832   0.632   0.605   1.666 -1.0358 -0.4888 -2.4497
 8066SOL     OW35833   4.597   1.333  11.529  0.0286  0.3512 -0.8554
 8066SOL    HW135834   4.563   1.399  11.469  1.4353 -0.0265 -2.0735
 8066SOL    HW235835   4.549   1.254  11.505  1.3991 -0.8414  0.3159
 8067SOL     OW35836   1.784   0.989   7.478 -0.4892 -0.4125  0.1668
 8067SOL    HW135837   1.832   0.914   7.443 -1.3378 -1.0947  0.4417
 8067SOL    HW235838   1.698   0.978   7.437 -0.2154  2.5413 -1.1764
 8068SOL     OW35839   0.257   4.386  13.934  0.4688  0.8123  0.3888
 8068SOL    HW135840   0.305   4.390  14.016 -2.4594  1.8454  2.0128
 8068SOL    HW235841   0.324   4.339  13.883 -1.3752 -0.2665 -1.0612
 8069SOL     OW35842   3.577   1.903  16.080  0.3121  0.0140  0.4407
 8069SOL    HW135843   3.625   1.979  16.113 -0.0986  0.0347  0.9780
 8069SOL    HW235844   3.627   1.827  16.109  1.0587  0.4585  0.3367
 8070SOL     OW35845   2.887   2.020   2.882 -0.0558  0.4898  0.3308
 8070SOL    HW135846   2.973   2.053   2.856  0.0603  2.4705  3.2007
 8070SOL    HW235847   2.895   2.017   2.977  0.7518  0.8895  0.2758
 8071SOL     OW35848   0.084   3.664   9.219  0.3120 -0.1824 -0.3346
 8071SOL    HW135849   0.019   3.652   9.150  1.0852 -0.5678 -1.0014
 8071SOL    HW235850   0.141   3.590   9.198 -0.7958 -0.6742 -1.6373
 8072SOL     OW35851   1.394   3.897   6.253  0.4422 -0.1936 -0.2099
 8072SOL    HW135852   1.298   3.892   6.255  0.3910  0.8021 -0.2277
 8072SOL    HW235853   1.404   3.802   6.255 -0.4055 -0.2240  2.1093
 8073SOL     OW35854   4.237   4.263  10.770 -0.4822  0.2053 -0.3607
 8073SOL    HW135855   4.279   4.288  10.852 -0.2987 -1.6705  0.1036
 8073SOL    HW235856   4.167   4.328  10.760  1.4740  2.3371 -0.0723
 8074SOL     OW35857   3.792   2.095   5.311 -0.3290  0.1856  0.2803
 8074SOL    HW135858   3.743   2.018   5.339 -1.5165  0.2781 -1.5594
 8074SOL    HW235859   3.720   2.156   5.295 -0.6083  0.3951  2.3239
 8075SOL     OW35860   4.210   1.379   1.135  0.1499  0.0981 -0.2402
 8075SOL    HW135861   4.135   1.327   1.106 -0.4959  0.6007  0.5370
 8075SOL    HW235862   4.277   1.354   1.072 -0.0173 -2.1851  0.5005
 8076SOL     OW35863   0.217   4.249   6.151  0.4582  0.2593  0.1816
 8076SOL    HW135864   0.153   4.320   6.154  0.4845  0.3201 -0.8290
 8076SOL    HW235865   0.225   4.247   6.056  1.7358  0.2403  0.2907
 8077SOL     OW35866   2.304   1.976   7.752 -0.2905  0.6556 -0.0187
 8077SOL    HW135867   2.386   1.932   7.729  0.2065  0.3565  2.3655
 8077SOL    HW235868   2.341   2.063   7.766  2.8008 -1.0363  2.4498
 8078SOL     OW35869   3.610   4.521   9.756  0.0947 -0.0069 -0.3522
 8078SOL    HW135870   3.697   4.491   9.782 -0.2106 -0.5907 -0.0151
 8078SOL    HW235871   3.564   4.438   9.767 -1.2952  1.1915  2.6055
 8079SOL     OW35872   3.165   2.979  11.660  0.7126  0.0910 -0.3985
 8079SOL    HW135873   3.120   2.898  11.639  2.3482 -0.4254 -1.8610
 8079SOL    HW235874   3.255   2.960  11.636  0.3898 -0.2439 -1.3514
 8080SOL     OW35875   3.424   4.414   7.638 -0.5066  0.6096  0.1019
 8080SOL    HW135876   3.497   4.376   7.589 -0.7440  1.0650 -0.6035
 8080SOL    HW235877   3.484   4.468   7.690 -0.2826  0.0987  0.3779
 8081SOL     OW35878   2.906   4.469  15.579  0.6127  0.6426 -0.0402
 8081SOL    HW135879   2.957   4.521  15.640 -0.0086  1.0807  0.1063
 8081SOL    HW235880   2.826   4.463  15.630  0.7049  0.7105  0.1108
 8082SOL     OW35881   4.354   1.698   6.784  0.2292  0.0522 -0.3256
 8082SOL    HW135882   4.389   1.693   6.873 -1.1848 -0.6529  0.1791
 8082SOL    HW235883   4.436   1.713   6.737  0.4610  1.1577  0.4047
 8083SOL     OW35884   0.002   1.930  11.683  0.3359  0.6584 -0.3160
 8083SOL    HW135885   0.093   1.932  11.714 -0.2987 -1.4144  1.6799
 8083SOL    HW235886   4.702   1.947  11.770 -0.5822 -1.4213 -0.2829
 8084SOL     OW35887   3.155   0.757   0.578 -0.6350  0.1540 -0.3920
 8084SOL    HW135888   3.109   0.720   0.503 -1.9359 -1.0956  1.0339
 8084SOL    HW235889   3.241   0.774   0.540 -0.5334  0.4267 -0.0522
 8085SOL     OW35890   1.248   3.760   6.735  0.0482  0.1215  0.2183
 8085SOL    HW135891   1.294   3.730   6.657 -0.7639  1.0013 -0.6076
 8085SOL    HW235892   1.308   3.811   6.790  0.1210 -0.9633  1.1283
 8086SOL     OW35893   2.353   2.788   3.768  0.7484 -0.0524 -0.8245
 8086SOL    HW135894   2.276   2.732   3.775 -0.6499  2.1283  1.0847
 8086SOL    HW235895   2.380   2.786   3.859  1.5266 -1.2071 -1.0782
 8087SOL     OW35896   2.282   4.316   5.302 -0.9097  0.5904 -0.1930
 8087SOL    HW135897   2.202   4.360   5.331 -0.1231  1.1664  1.0913
 8087SOL    HW235898   2.263   4.297   5.210 -1.0861 -0.6694  0.1004
 8088SOL     OW35899   4.655   0.917  16.056 -0.0742  0.7860 -0.3067
 8088SOL    HW135900   0.002   0.927  16.009  0.7037 -1.6376  0.5654
 8088SOL    HW235901   4.652   0.985  16.124 -0.8209  0.8026 -0.3595
 8089SOL     OW35902   3.934   1.756  13.204 -0.8567 -0.2964 -0.0099
 8089SOL    HW135903   3.923   1.730  13.296  0.8196 -1.9562 -0.2837
 8089SOL    HW235904   4.013   1.811  13.212 -0.5733 -0.7033 -0.0475
 8090SOL     OW35905   3.606   2.006   8.806  0.4853 -0.2121  0.5351
 8090SOL    HW135906   3.697   1.996   8.777  0.4298  0.1778  0.2177
 8090SOL    HW235907   3.584   2.093   8.774 -1.3516 -0.9214 -0.1085
 8091SOL     OW35908   3.348   1.951  15.923  0.1077 -0.2019  0.2210
 8091SOL    HW135909   3.370   1.967  15.831  0.6800 -0.8917  0.2384
 8091SOL    HW235910   3.434   1.930  15.960 -1.5856 -4.7395  1.6286
 8092SOL     OW35911   3.089   0.767   3.840 -0.0662 -0.2585  0.0785
 8092SOL    HW135912   3.018   0.724   3.887 -0.1183  2.0990  2.1749
 8092SOL    HW235913   3.148   0.809   3.904  0.7876 -0.7157 -0.4079
 8093SOL     OW35914   2.517   1.911   8.981  0.0418 -0.2614 -0.6507
 8093SOL    HW135915   2.446   1.935   8.921 -0.9970 -0.4111  0.5323
 8093SOL    HW235916   2.548   1.997   9.008  1.4206 -1.7370  2.3917
 8094SOL     OW35917   1.080   4.170   0.342 -0.1711 -0.4835 -0.0233
 8094SOL    HW135918   1.154   4.170   0.281  0.8040 -0.8970  1.1372
 8094SOL    HW235919   1.032   4.091   0.320 -0.3690 -0.6078  0.8657
 8095SOL     OW35920   4.075   2.723  14.166 -0.0826  0.1406  0.0444
 8095SOL    HW135921   4.042   2.635  14.185 -0.5354  0.2578 -0.1990
 8095SOL    HW235922   3.995   2.763  14.131  1.6142  3.7135  0.2993
 8096SOL     OW35923   4.508   3.793   6.372  0.0457  0.1059  0.6264
 8096SOL    HW135924   4.415   3.782   6.353 -0.3457  4.1998  0.2026
 8096SOL    HW235925   4.495   3.761   6.462  1.0289  1.4274  1.2377
 8097SOL     OW35926   3.168   3.860   2.127  0.1279  0.7738  0.0382
 8097SOL    HW135927   3.140   3.866   2.036 -0.3930  2.1423  0.2956
 8097SOL    HW235928   3.095   3.805   2.157  2.5760 -2.2285  0.5364
 8098SOL     OW35929   0.987   2.953   3.589 -0.1664  0.3952 -0.0295
 8098SOL    HW135930   1.042   2.968   3.512 -0.6589  2.1393 -0.0564
 8098SOL    HW235931   0.957   2.867   3.560  0.4088  0.8384 -1.9642
 8099SOL     OW35932   4.708   2.595   1.457 -0.1477  0.4336  0.3261
 8099SOL    HW135933   0.000   2.662   1.395  1.0996  2.2518  2.8287
 8099SOL    HW235934   0.030   2.619   1.529  0.3529 -0.2852  0.1665
 8100SOL     OW35935   3.428   3.080   1.884 -0.0273  0.2212  0.5004
 8100SOL    HW135936   3.420   3.077   1.980 -1.8481  0.7222  0.3650
 8100SOL    HW235937   3.422   2.987   1.861 -0.6196  0.4313 -0.1790
 8101SOL     OW35938   0.289   4.234   5.878  0.0791  0.4381 -0.1579
 8101SOL    HW135939   0.274   4.185   5.797  0.3333 -1.2069  0.8057
 8101SOL    HW235940   0.371   4.198   5.912 -0.3282 -0.1547  0.1868
 8102SOL     OW35941   2.805   1.504   0.546  0.1537  0.4386 -0.0590
 8102SOL    HW135942   2.889   1.493   0.501 -0.7107 -1.6897 -1.1680
 8102SOL    HW235943   2.780   1.412   0.555  0.4337  0.4713  1.0802
 8103SOL     OW35944   2.618   1.529   0.766  0.0819 -0.7039  0.1538
 8103SOL    HW135945   2.592   1.588   0.837 -0.7495 -0.3870 -0.4048
 8103SOL    HW235946   2.699   1.560   0.727 -2.1702  3.4178 -1.2386
 8104SOL     OW35947   4.434   2.640   7.929 -0.1386 -0.7055  0.4501
 8104SOL    HW135948   4.513   2.593   7.957  1.1465  2.1947  1.6269
 8104SOL    HW235949   4.383   2.568   7.892 -1.2445  0.7307 -0.7820
 8105SOL     OW35950   1.676   4.717   9.636 -0.1616  0.0544 -0.2613
 8105SOL    HW135951   1.689   4.639   9.583 -0.9615  1.1853 -2.1049
 8105SOL    HW235952   1.759   0.024   9.657  0.3090  0.4951 -3.0070
 8106SOL     OW35953   0.406   0.925   7.904  0.6318  0.3441 -0.2705
 8106SOL    HW135954   0.417   0.948   7.812 -2.4037 -0.5249 -0.8483
 8106SOL    HW235955   0.426   1.006   7.951  0.2367  0.4401 -0.2701
 8107SOL     OW35956   2.551   0.479   4.486  0.3316 -0.2286  0.3143
 8107SOL    HW135957   2.557   0.386   4.508 -2.7706 -0.1808  1.3682
 8107SOL    HW235958   2.461   0.496   4.513  0.7883  2.3842  0.1952
 8108SOL     OW35959   1.652   0.056   5.335 -0.1228  0.5378 -0.6394
 8108SOL    HW135960   1.573   0.017   5.298 -1.4953  2.1959  0.5587
 8108SOL    HW235961   1.667   4.719   5.395  1.2896  1.4232  0.0866
 8109SOL     OW35962   0.627   2.079   7.512 -0.1640  0.2756  0.1418
 8109SOL    HW135963   0.722   2.075   7.521 -0.2190 -0.7923  0.2375
 8109SOL    HW235964   0.601   2.010   7.574  1.2858 -0.4360 -0.0543
 8110SOL     OW35965   0.538   1.433   5.014 -0.1580  0.2421  0.3270
 8110SOL    HW135966   0.546   1.522   5.049 -2.3862 -0.2060  1.9826
 8110SOL    HW235967   0.625   1.406   5.044 -0.7414 -1.9767  0.0295
 8111SOL     OW35968   1.047   1.959   0.690  0.4296  0.6838 -0.1990
 8111SOL    HW135969   1.030   1.898   0.761  0.0819  1.8252  0.7055
 8111SOL    HW235970   1.141   1.979   0.699  0.6889 -1.6462  2.1443
 8112SOL     OW35971   2.500   0.111  13.966  0.0978 -0.4758  0.3946
 8112SOL    HW135972   2.535   0.040  13.913  1.3848 -0.7321  1.5740
 8112SOL    HW235973   2.538   0.184  13.916 -0.3854 -1.0807 -0.8498
 8113SOL     OW35974   1.593   3.115   5.221  0.1768 -0.1108 -0.2681
 8113SOL    HW135975   1.561   3.145   5.136 -1.0873  2.5718  1.1518
 8113SOL    HW235976   1.567   3.023   5.220  0.1527 -0.1118  0.3057
 8114SOL     OW35977   2.047   4.714   1.222  0.0112 -0.4333  0.0509
 8114SOL    HW135978   2.030   4.650   1.152 -2.8351 -2.3498  2.4601
 8114SOL    HW235979   2.097   0.047   1.179 -0.3319 -0.0756  0.2288
 8115SOL     OW35980   1.733   0.004   2.193  0.0515 -0.0402 -0.9079
 8115SOL    HW135981   1.701   0.091   2.218  0.2619 -0.6720  1.6085
 8115SOL    HW235982   1.714   4.685   2.269  0.1293 -1.0679 -1.6485
 8116SOL     OW35983   1.445   2.962   7.726 -0.1079  0.2712 -0.4415
 8116SOL    HW135984   1.363   2.976   7.773 -0.0446  3.1257 -1.2018
 8116SOL    HW235985   1.445   3.011   7.644 -0.0450 -0.9279 -1.1570
 8117SOL     OW35986   1.452   3.621   2.013  0.3199  0.6294  0.2476
 8117SOL    HW135987   1.399   3.701   2.004 -1.5681 -0.7687 -1.0285
 8117SOL    HW235988   1.527   3.637   1.956  1.4664 -1.2253  1.2617
 8118SOL     OW35989   1.044   1.694   3.726 -0.6212  0.3240 -0.1341
 8118SOL    HW135990   1.056   1.669   3.818 -2.0819  0.1613  0.0067
 8118SOL    HW235991   1.063   1.613   3.679 -2.1669 -0.4310  0.5629
 8119SOL     OW35992   0.314   2.655   8.616 -0.2630 -0.2726  0.3289
 8119SOL    HW135993   0.392   2.707   8.635 -1.3992  1.7753 -0.5664
 8119SOL    HW235994   0.261   2.687   8.689 -1.3147 -2.5329  0.5525
 8120SOL     OW35995   4.090   3.450   8.401 -0.0540 -0.3333 -0.1887
 8120SOL    HW135996   4.177   3.489   8.398  0.5273 -1.5305  0.8261
 8120SOL    HW235997   4.047   3.513   8.460  0.6355 -0.1352  0.1076
 8121SOL     OW35998   0.633   3.318  11.732  0.0181 -0.4241  0.2572
 8121SOL    HW135999   0.602   3.398  11.689 -0.4588 -1.4592 -1.3122
 8121SOL    HW236000   0.573   3.309  11.806 -0.4350 -0.8214 -0.1624
 8122SOL     OW36001   3.171   1.807  17.459 -0.0888 -0.9929 -0.4854
 8122SOL    HW136002   3.192   1.883  17.405 -1.2009 -0.6459 -0.4243
 8122SOL    HW236003   3.163   1.742  17.389  0.8339 -1.2732 -0.3324
 8123SOL     OW36004   2.296   2.315   8.949  0.2709  0.3484  0.1820
 8123SOL    HW136005   2.303   2.409   8.966  2.7306 -0.0499  1.3570
 8123SOL    HW236006   2.270   2.314   8.857 -0.4145 -0.3301  0.3871
 8124SOL     OW36007   3.721   3.714  10.249  0.2706  0.0313  0.2826
 8124SOL    HW136008   3.751   3.623  10.254  1.4259  0.3785 -0.2201
 8124SOL    HW236009   3.682   3.722  10.335  4.8101  0.1279  2.3247
 8125SOL     OW36010   2.850   1.697  16.656  0.4941 -0.7464 -0.4601
 8125SOL    HW136011   2.822   1.655  16.737 -2.3531  0.2440 -0.9207
 8125SOL    HW236012   2.912   1.760  16.690 -0.3950 -1.0104  1.6916
 8126SOL     OW36013   3.494   4.411   5.688 -0.0818 -0.0540  0.2991
 8126SOL    HW136014   3.527   4.500   5.700 -1.3966  0.7754 -2.3751
 8126SOL    HW236015   3.581   4.375   5.669  0.1816  0.8833 -0.2251
 8127SOL     OW36016   0.634   1.669   8.152  0.9743 -0.2122 -0.6305
 8127SOL    HW136017   0.636   1.638   8.242 -0.8736  0.4239 -0.3627
 8127SOL    HW236018   0.680   1.597   8.110  0.2948  0.1567 -1.9905
 8128SOL     OW36019   2.075   3.309   9.739  0.0947  0.0589  0.4108
 8128SOL    HW136020   2.007   3.305   9.672 -0.0179 -1.4452  0.6134
 8128SOL    HW236021   2.116   3.223   9.737 -1.2059 -0.5318 -0.8921
 8129SOL     OW36022   4.341   4.658   3.442  0.0745 -0.5395  0.0626
 8129SOL    HW136023   4.351   4.647   3.537  1.6893  0.7343  0.0437
 8129SOL    HW236024   4.257   4.611   3.438 -0.5782  0.4582  1.9345
 8130SOL     OW36025   0.686   0.216   5.626 -0.1415 -0.1924  0.1276
 8130SOL    HW136026   0.752   0.224   5.695 -1.2241 -0.9921  1.2553
 8130SOL    HW236027   0.599   0.220   5.667 -1.0216 -2.8449 -1.4785
 8131SOL     OW36028   3.600   1.934  16.664  0.3594  0.4627  0.3700
 8131SOL    HW136029   3.638   1.883  16.737 -2.4236 -0.4300  1.1745
 8131SOL    HW236030   3.682   1.949  16.617  0.0373  1.9922  0.3095
 8132SOL     OW36031   1.480   0.400   7.908 -0.4169 -0.1161  0.0112
 8132SOL    HW136032   1.457   0.475   7.962 -0.6640  0.2322 -0.5864
 8132SOL    HW236033   1.407   0.396   7.846  0.0422  0.2582 -0.5448
 8133SOL     OW36034   1.308   1.532  14.333  0.0512  0.5365  0.2543
 8133SOL    HW136035   1.372   1.557  14.266 -1.1279  0.0536 -1.0592
 8133SOL    HW236036   1.263   1.468  14.277 -3.1382  3.1366 -0.1601
 8134SOL     OW36037   2.958   0.706  17.447 -0.0847  0.2141  0.2480
 8134SOL    HW136038   2.862   0.699  17.447  0.0701 -2.1747 -4.8643
 8134SOL    HW236039   2.976   0.791  17.488  0.1806  0.3849 -0.2219
 8135SOL     OW36040   1.056   1.799  11.997  0.4107  0.1712 -0.3069
 8135SOL    HW136041   1.051   1.891  11.972 -0.1002  0.1380 -0.3370
 8135SOL    HW236042   1.009   1.798  12.080  1.9981 -1.5482  0.5816
 8136SOL     OW36043   0.854   3.127   1.023 -0.1154  0.2207 -0.5104
 8136SOL    HW136044   0.886   3.214   1.046 -0.1430  0.0755  0.0814
 8136SOL    HW236045   0.940   3.086   1.031  0.0659  1.0940  1.9966
 8137SOL     OW36046   2.939   4.096   0.312 -0.3287 -0.0363 -0.6101
 8137SOL    HW136047   2.993   4.082   0.390 -0.6371  0.4214 -0.3125
 8137SOL    HW236048   2.975   4.175   0.272  0.8081 -0.5165 -0.5236
 8138SOL     OW36049   0.016   0.424   5.038  0.0687  0.2168 -0.3561
 8138SOL    HW136050   0.055   0.419   4.950 -1.9247  0.1630 -1.2191
 8138SOL    HW236051   0.018   0.520   5.044  1.0136  0.3419 -2.3543
 8139SOL     OW36052   3.239   3.256   3.965 -0.6140 -0.4178 -0.7031
 8139SOL    HW136053   3.200   3.273   4.051  0.8928 -2.7086  0.4378
 8139SOL    HW236054   3.201   3.170   3.945  2.0643 -1.0162 -3.3054
 8140SOL     OW36055   0.491   0.654   4.491  0.4163  0.0217  0.2074
 8140SOL    HW136056   0.534   0.606   4.562  1.1645 -0.7466 -0.7571
 8140SOL    HW236057   0.553   0.725   4.477 -0.0461  0.2855 -0.5163
 8141SOL     OW36058   0.267   2.273  13.821 -0.8590 -0.2750  0.5520
 8141SOL    HW136059   0.327   2.348  13.822 -0.4213 -0.6538  2.1859
 8141SOL    HW236060   0.264   2.255  13.727 -2.4359  0.2040  0.5128
 8142SOL     OW36061   0.793   0.015   2.447  0.4626 -0.5844  0.4832
 8142SOL    HW136062   0.841   0.035   2.527 -0.7234  0.8347  0.8212
 8142SOL    HW236063   0.853   0.051   2.382 -2.3341  0.1981 -1.6639
 8143SOL     OW36064   0.544   1.252  10.837 -0.5313 -0.2862 -0.7324
 8143SOL    HW136065   0.456   1.250  10.877  0.4662 -0.5468  1.4741
 8143SOL    HW236066   0.588   1.307  10.902  2.4004 -1.9167 -1.3606
 8144SOL     OW36067   0.946   4.227   7.144  0.1501 -0.4440 -0.1611
 8144SOL    HW136068   0.872   4.264   7.096 -0.1996 -0.8818  0.0445
 8144SOL    HW236069   0.968   4.142   7.107  0.7610 -0.9345  1.3485
 8145SOL     OW36070   3.452   2.137  14.096 -0.3667 -0.1089  0.3888
 8145SOL    HW136071   3.393   2.166  14.026 -2.2235 -2.0028  1.1422
 8145SOL    HW236072   3.419   2.052  14.124 -1.5739  0.3185  0.2768
 8146SOL     OW36073   3.994   4.609   0.296  0.4931 -0.2316 -0.0723
 8146SOL    HW136074   4.059   4.676   0.274  0.1688  0.3275  0.6708
 8146SOL    HW236075   3.913   4.638   0.254  0.6181  1.7577  1.0174
 8147SOL     OW36076   0.590   1.384   4.620  0.3332  0.4124 -0.6819
 8147SOL    HW136077   0.536   1.340   4.686  0.4248 -0.5388 -1.2375
 8147SOL    HW236078   0.580   1.472   4.655  0.1998  0.7560 -1.5777
 8148SOL     OW36079   3.790   2.008   8.339  0.2303  0.3503 -0.3670
 8148SOL    HW136080   3.731   1.953   8.288  1.2072 -1.4727  0.4419
 8148SOL    HW236081   3.851   2.051   8.278  0.7930  1.9498  1.3022
 8149SOL     OW36082   1.211   3.505   2.042  0.0934 -0.1236 -0.3711
 8149SOL    HW136083   1.207   3.470   1.953  0.7151  1.0010 -0.8389
 8149SOL    HW236084   1.289   3.560   2.042 -0.1511  0.2221 -0.8865
 8150SOL     OW36085   2.481   4.596  17.711 -0.2653  0.4076  0.0442
 8150SOL    HW136086   2.500   4.683  17.675 -0.3794  0.9485  1.3043
 8150SOL    HW236087   2.385   4.592  17.710 -0.2715  0.4965  0.6844
 8151SOL     OW36088   3.472   1.566   7.833  0.1759 -0.2823 -0.0228
 8151SOL    HW136089   3.562   1.596   7.846 -0.9190  3.1434 -0.3170
 8151SOL    HW236090   3.454   1.597   7.744  2.2736  0.7131 -0.0979
 8152SOL     OW36091   2.859   0.951   0.856  0.4693 -0.2509  0.3089
 8152SOL    HW136092   2.890   1.015   0.792  0.5011 -0.0033  0.5729
 8152SOL    HW236093   2.838   1.001   0.935  0.7748 -0.6882  0.6689
 8153SOL     OW36094   2.193   1.251   4.927  0.2552  0.3800 -0.2070
 8153SOL    HW136095   2.177   1.197   5.005  1.7322 -0.1535 -0.2780
 8153SOL    HW236096   2.116   1.307   4.941  1.9135  1.9233  2.8060
 8154SOL     OW36097   1.553   4.013   5.780  0.3875 -0.2603 -0.6487
 8154SOL    HW136098   1.519   3.939   5.729 -1.5473 -0.1141  0.4011
 8154SOL    HW236099   1.646   3.995   5.776 -0.0790 -2.6721 -0.6498
 8155SOL     OW36100   2.946   2.727  10.805 -0.1993  0.4525  0.3767
 8155SOL    HW136101   2.951   2.698  10.896 -0.0278  0.5706  0.4062
 8155SOL    HW236102   3.029   2.775  10.799  0.5678 -1.1183 -1.5774
 8156SOL     OW36103   3.401   0.508   6.451 -0.1232  0.1240 -0.2234
 8156SOL    HW136104   3.415   0.545   6.539 -0.8276  0.8002 -0.3978
 8156SOL    HW236105   3.469   0.441   6.448  0.7718  0.9505  1.6728
 8157SOL     OW36106   2.040   2.767   2.274 -0.4657  0.6326 -0.5370
 8157SOL    HW136107   2.039   2.680   2.313 -0.1852  1.8103  2.1385
 8157SOL    HW236108   2.133   2.790   2.281 -0.1740 -1.0579  1.1434
 8158SOL     OW36109   1.775   0.880   2.690 -0.1769  0.2485  0.6948
 8158SOL    HW136110   1.786   0.879   2.785  1.3656  0.9057  0.5291
 8158SOL    HW236111   1.729   0.964   2.679  0.5847  0.7766  1.5597
 8159SOL     OW36112   1.720   4.623  13.134 -0.3300 -0.0665 -0.1619
 8159SOL    HW136113   1.713   4.537  13.094 -0.3135 -0.2449  0.2181
 8159SOL    HW236114   1.628   4.647  13.124 -1.1906 -2.1510  2.7564
 8160SOL     OW36115   0.278   1.039   9.408  0.3232 -1.1169  0.9705
 8160SOL    HW136116   0.305   0.948   9.415  0.2012 -0.8164  5.4466
 8160SOL    HW236117   0.295   1.071   9.497 -0.3363  1.7447  0.0609
 8161SOL     OW36118   3.721   3.261   9.902  0.1497  0.1249 -1.0115
 8161SOL    HW136119   3.731   3.218   9.817  1.8267 -2.2498  0.3979
 8161SOL    HW236120   3.654   3.325   9.876  0.1979  0.1260 -1.1345
 8162SOL     OW36121   0.515   0.814   7.022 -0.2025 -0.2983 -0.1561
 8162SOL    HW136122   0.449   0.836   6.957 -1.1139 -1.9886  0.1893
 8162SOL    HW236123   0.464   0.800   7.102  3.6253 -0.6153  2.2367
 8163SOL     OW36124   2.623   3.323   5.199  0.0116  0.1571  0.2475
 8163SOL    HW136125   2.548   3.265   5.216 -0.9879  0.6814 -2.4070
 8163SOL    HW236126   2.600   3.361   5.114  0.1814  1.3110  0.7200
 8164SOL     OW36127   2.174   3.488   7.789  0.1743 -0.0996 -0.9081
 8164SOL    HW136128   2.093   3.445   7.761 -1.7787  2.2568  1.0008
 8164SOL    HW236129   2.243   3.439   7.745 -0.4859 -1.2155 -0.7025
 8165SOL     OW36130   3.674   2.215   6.379  0.0161  0.1487  0.8692
 8165SOL    HW136131   3.685   2.208   6.284 -2.0864 -1.3746  0.7220
 8165SOL    HW236132   3.758   2.176   6.403  1.2319  1.9982 -0.4162
 8166SOL     OW36133   1.514   1.178   1.840  0.1796  0.0151 -0.2380
 8166SOL    HW136134   1.525   1.244   1.772 -0.3833  1.0521  0.6914
 8166SOL    HW236135   1.458   1.218   1.906 -1.2376  1.6390 -2.4444
 8167SOL     OW36136   4.328   2.872   5.660 -0.4614 -0.1665 -0.8058
 8167SOL    HW136137   4.269   2.878   5.585 -0.2828  1.5036 -0.8129
 8167SOL    HW236138   4.414   2.856   5.621  0.2498  2.4447 -0.2537
 8168SOL     OW36139   2.117   4.660  14.538  0.7814  0.3693  0.1215
 8168SOL    HW136140   2.181   4.727  14.513 -1.4461  2.5235  0.0907
 8168SOL    HW236141   2.171   4.583  14.557 -0.6215 -0.6430 -0.0332
 8169SOL     OW36142   3.262   0.464  11.998  0.0683 -0.0329  0.1384
 8169SOL    HW136143   3.284   0.495  11.910  0.2377  0.0078  0.1937
 8169SOL    HW236144   3.175   0.429  11.981 -0.6873  1.3772  1.1108
 8170SOL     OW36145   0.928   3.165   9.296 -0.0996  0.0745  0.1124
 8170SOL    HW136146   1.002   3.191   9.350 -0.6334  0.2969  0.7388
 8170SOL    HW236147   0.967   3.093   9.246  0.5645  1.1556 -0.9446
 8171SOL     OW36148   4.577   2.556   9.482 -0.0233  0.1310 -0.5762
 8171SOL    HW136149   4.563   2.517   9.395 -1.1064  1.7874 -1.1518
 8171SOL    HW236150   4.671   2.542   9.495 -0.2367 -0.5750  0.1642
 8172SOL     OW36151   2.064   0.712   5.855 -0.3193  0.0255  0.1812
 8172SOL    HW136152   2.113   0.772   5.798 -0.4587 -1.4971 -1.5200
 8172SOL    HW236153   2.012   0.778   5.901 -2.5166 -3.3065  2.4698
 8173SOL     OW36154   4.345   0.132   5.461  0.1792 -0.6258 -0.0228
 8173SOL    HW136155   4.267   0.170   5.420  1.3459  1.2609 -0.5269
 8173SOL    HW236156   4.378   0.214   5.499 -1.8898 -0.4617  1.4798
 8174SOL     OW36157   0.947   2.416  10.811 -0.1588 -0.3484  0.3193
 8174SOL    HW136158   0.948   2.366  10.892 -2.0704 -0.2365  0.4139
 8174SOL    HW236159   0.954   2.347  10.745 -0.4715 -0.8722  0.8471
 8175SOL     OW36160   2.715   0.925   1.184  0.2989 -0.5851  0.5648
 8175SOL    HW136161   2.798   0.905   1.225 -0.7974 -2.7497  1.7398
 8175SOL    HW236162   2.737   1.004   1.134 -1.5556  0.0777  0.8003
 8176SOL     OW36163   4.115   4.126  14.104 -0.1141  0.6749  0.3763
 8176SOL    HW136164   4.100   4.154  14.013 -0.4168 -0.9342 -0.0743
 8176SOL    HW236165   4.052   4.178  14.155 -0.4200  0.2337  0.4470
 8177SOL     OW36166   2.321   2.457   5.817 -0.5274 -0.0844  0.1765
 8177SOL    HW136167   2.368   2.423   5.894  3.5066  1.6937 -1.4918
 8177SOL    HW236168   2.400   2.476   5.766  0.1896 -1.0308  0.9191
 8178SOL     OW36169   2.871   3.394   4.468 -0.1497  0.3694  0.9996
 8178SOL    HW136170   2.828   3.329   4.413 -0.7469  0.6536  1.1370
 8178SOL    HW236171   2.920   3.337   4.527 -1.8079 -2.9105 -0.7674
 8179SOL     OW36172   2.271   0.252   4.932  0.2783  0.0078  0.0395
 8179SOL    HW136173   2.276   0.183   4.998  0.0664  0.2872  0.3474
 8179SOL    HW236174   2.354   0.299   4.937  0.1671  0.2249 -0.1451
 8180SOL     OW36175   0.203   2.706  13.840  0.7631 -0.5134 -0.2166
 8180SOL    HW136176   0.258   2.783  13.824  0.9453 -0.3855  0.9763
 8180SOL    HW236177   0.223   2.652  13.764  1.0083 -1.0918  0.2679
 8181SOL     OW36178   0.909   3.758   6.200  0.0875 -0.5867 -0.0859
 8181SOL    HW136179   0.878   3.680   6.246  1.5696  0.5123  2.7173
 8181SOL    HW236180   0.956   3.721   6.125 -1.8799  0.7027 -1.9708
 8182SOL     OW36181   0.338   2.309   2.478 -0.5636 -0.0417 -0.1578
 8182SOL    HW136182   0.299   2.306   2.565  1.4318 -0.6694  0.7074
 8182SOL    HW236183   0.263   2.277   2.427 -1.2553  2.4262 -0.6616
 8183SOL     OW36184   1.654   1.663   7.211 -0.0187 -0.6277  0.1746
 8183SOL    HW136185   1.683   1.574   7.231  0.7792 -0.2655  0.5883
 8183SOL    HW236186   1.621   1.680   7.299  1.4421 -0.5900  0.7079
 8184SOL     OW36187   3.524   0.300   7.996 -0.0800 -0.0980 -0.5602
 8184SOL    HW136188   3.437   0.334   8.013  0.0484  0.0314 -0.1520
 8184SOL    HW236189   3.573   0.382   8.000 -1.5113  0.8337 -2.4253
 8185SOL     OW36190   1.946   2.512   3.902 -0.0860 -0.2166 -0.1835
 8185SOL    HW136191   2.013   2.577   3.923 -0.9713  1.5022 -2.6002
 8185SOL    HW236192   1.905   2.555   3.827  0.8809  0.4351 -0.3472
 8186SOL     OW36193   2.733   1.315   6.138  0.2075  0.1994  0.0497
 8186SOL    HW136194   2.827   1.333   6.146  0.3995 -0.7500 -0.1187
 8186SOL    HW236195   2.703   1.331   6.227  1.0399 -0.0925  0.3811
 8187SOL     OW36196   4.193   0.929  16.479 -0.0537 -0.4088  0.8457
 8187SOL    HW136197   4.229   1.006  16.435  0.3544 -0.4270  1.1507
 8187SOL    HW236198   4.273   0.896  16.520 -0.3107 -0.3661  1.3852
 8188SOL     OW36199   2.634   1.406  16.726  0.2565  0.9601  0.4755
 8188SOL    HW136200   2.694   1.362  16.666 -3.1944 -1.9759 -0.7905
 8188SOL    HW236201   2.692   1.455  16.785  2.3218 -2.2310  1.0928
 8189SOL     OW36202   1.839   3.899   4.312  0.0621  0.0617  0.7405
 8189SOL    HW136203   1.759   3.949   4.331  0.1649  0.6585 -0.3999
 8189SOL    HW236204   1.901   3.960   4.352  0.4085  1.1028 -1.3824
 8190SOL     OW36205   0.870   1.625   4.877  0.2892 -0.1795  0.3072
 8190SOL    HW136206   0.938   1.676   4.921 -1.2203  0.6692  1.6886
 8190SOL    HW236207   0.795   1.648   4.932  0.6723  2.6951 -0.3813
 8191SOL     OW36208   2.682   2.285   8.493 -0.1624 -0.2584 -0.5222
 8191SOL    HW136209   2.729   2.220   8.441 -0.1669 -0.1609 -0.6481
 8191SOL    HW236210   2.605   2.231   8.513 -0.3839 -0.1670 -1.1374
 8192SOL     OW36211   1.239   0.831   3.931 -0.2438 -0.4607 -0.0368
 8192SOL    HW136212   1.175   0.818   4.001  0.6379 -1.8604  0.5132
 8192SOL    HW236213   1.256   0.743   3.898 -2.3674 -0.6593 -0.6489
 8193SOL     OW36214   2.085   1.426   4.181 -0.2495  0.3285  0.5590
 8193SOL    HW136215   1.996   1.392   4.172 -0.2032  0.0142  1.2330
 8193SOL    HW236216   2.111   1.397   4.094  0.5635  0.6146  0.7113
 8194SOL     OW36217   4.311   1.037   3.350  0.0656  0.0801  0.7504
 8194SOL    HW136218   4.343   0.969   3.291  1.1274 -1.1068  2.6894
 8194SOL    HW236219   4.341   1.113   3.301 -0.4856 -0.0762  0.1702
 8195SOL     OW36220   2.220   0.245   7.995  0.8517  0.5053 -0.3498
 8195SOL    HW136221   2.127   0.261   7.979  0.5184 -2.3688 -1.1273
 8195SOL    HW236222   2.239   0.168   7.942 -0.3153  0.4278 -0.6511
 8196SOL     OW36223   2.366   3.963   8.751  0.6937  0.7586 -0.2473
 8196SOL    HW136224   2.390   4.035   8.692 -0.2196  0.3382 -1.1452
 8196SOL    HW236225   2.448   3.914   8.756 -0.5490 -1.4428 -1.2523
 8197SOL     OW36226   3.110   1.030   6.074 -0.1998 -0.1251 -0.4904
 8197SOL    HW136227   3.178   1.050   6.010  0.5769  0.7108  0.5766
 8197SOL    HW236228   3.047   0.988   6.016 -0.1532 -0.0226 -0.6150
 8198SOL     OW36229   1.394   3.615  10.065  0.0183 -0.0248 -0.5451
 8198SOL    HW136230   1.309   3.624  10.106 -0.1436  3.5772 -1.6045
 8198SOL    HW236231   1.425   3.705  10.075 -2.1201  0.2204  3.4722
 8199SOL     OW36232   3.554   2.103   7.072 -0.6386 -0.4359  0.0806
 8199SOL    HW136233   3.479   2.084   7.014  0.2076  0.1444 -1.2123
 8199SOL    HW236234   3.523   2.185   7.112 -0.7771 -1.2218  1.5694
 8200SOL     OW36235   3.414   3.719   4.522 -0.2013  0.4974 -0.3283
 8200SOL    HW136236   3.480   3.748   4.585 -1.1469  0.0428  0.8835
 8200SOL    HW236237   3.455   3.633   4.507  0.4155  0.2267  2.8192
 8201SOL     OW36238   1.586   2.908   7.438  0.6646  0.2960  0.4040
 8201SOL    HW136239   1.534   2.986   7.452  1.5185  0.9751 -0.2199
 8201SOL    HW236240   1.532   2.845   7.389 -1.9925  1.2929  2.0706
 8202SOL     OW36241   3.106   1.644  15.015 -0.4911  0.2134  0.0229
 8202SOL    HW136242   3.149   1.609  14.936 -0.0616  0.4622  0.1446
 8202SOL    HW236243   3.096   1.736  14.991 -0.0406  0.3227  0.2494
 8203SOL     OW36244   3.940   1.327   3.308 -1.0558  0.3643 -0.2354
 8203SOL    HW136245   3.946   1.304   3.216 -2.3141  1.1992 -0.5227
 8203SOL    HW236246   3.857   1.373   3.302 -0.3048  1.6425 -1.0052
 8204SOL     OW36247   1.757   4.105   3.111 -0.7270 -0.1798  0.0795
 8204SOL    HW136248   1.705   4.083   3.034 -1.5448  0.9433  0.3083
 8204SOL    HW236249   1.699   4.168   3.155  0.4419  1.0476 -0.1126
 8205SOL     OW36250   3.387   0.510  13.313  0.5338 -0.1042  0.1315
 8205SOL    HW136251   3.322   0.526  13.244  0.3199 -2.5520 -0.2550
 8205SOL    HW236252   3.460   0.560  13.277  0.8812 -1.9703 -1.7708
 8206SOL     OW36253   1.106   3.978   1.610  0.2974  0.0248  0.2684
 8206SOL    HW136254   1.125   4.035   1.685 -0.1226 -1.7928  1.7384
 8206SOL    HW236255   1.187   3.987   1.560  1.3817 -1.4383  1.7562
 8207SOL     OW36256   0.451   1.567   7.877  0.0874  0.1194 -0.0331
 8207SOL    HW136257   0.453   1.518   7.795 -3.2305 -0.5245  0.2894
 8207SOL    HW236258   0.513   1.511   7.924  0.7306  2.0163  1.3993
 8208SOL     OW36259   0.637   1.553   1.499  0.4650  0.4544 -0.1069
 8208SOL    HW136260   0.619   1.591   1.585  0.8708 -0.5418  0.4176
 8208SOL    HW236261   0.634   1.635   1.450 -1.0386  0.1850 -0.4733
 8209SOL     OW36262   4.430   1.395   8.411  0.2090  0.3829  0.4714
 8209SOL    HW136263   4.438   1.316   8.358  0.0516  0.9236 -0.3566
 8209SOL    HW236264   4.341   1.424   8.393  1.5179  3.8156 -0.3829
 8210SOL     OW36265   4.328   4.002   3.607 -0.3742 -0.2010  0.2522
 8210SOL    HW136266   4.373   3.918   3.596  1.2560  0.6462  0.5090
 8210SOL    HW236267   4.254   3.993   3.548  0.5184  2.8860 -1.2921
 8211SOL     OW36268   0.542   0.376   6.614  0.5674 -0.5590  0.1917
 8211SOL    HW136269   0.515   0.329   6.693 -0.8737  1.1200  0.7010
 8211SOL    HW236270   0.616   0.426   6.647  0.4625  0.8297 -1.6602
 8212SOL     OW36271   3.257   3.850   4.907 -0.6295  0.0013  0.3191
 8212SOL    HW136272   3.222   3.932   4.873  0.6217  0.4338  0.0846
 8212SOL    HW236273   3.335   3.849   4.852 -0.5657  3.4997  0.3794
 8213SOL     OW36274   1.356   0.659   2.867  0.1146 -0.4147 -0.2525
 8213SOL    HW136275   1.431   0.642   2.811  0.7261  0.5653  0.2746
 8213SOL    HW236276   1.398   0.700   2.942 -1.3221 -1.0432  0.9166
 8214SOL     OW36277   3.094   1.129   3.505  0.4607  0.3761 -0.1006
 8214SOL    HW136278   3.075   1.035   3.507 -1.1074  0.6332 -2.1454
 8214SOL    HW236279   3.039   1.150   3.580  0.9689 -2.9232  1.1847
 8215SOL     OW36280   3.785   0.823   7.734  0.0669 -0.3113  0.0621
 8215SOL    HW136281   3.875   0.792   7.729 -0.5408 -1.7982 -1.4842
 8215SOL    HW236282   3.786   0.918   7.718  2.9832 -0.4558 -0.5797
 8216SOL     OW36283   0.031   1.949   2.469  0.6422  0.1310 -0.0617
 8216SOL    HW136284   4.678   1.953   2.504  1.4918  0.8971  2.0638
 8216SOL    HW236285   0.019   1.880   2.405  3.0323 -1.1774  0.8920
 8217SOL     OW36286   1.765   3.324   3.312 -0.4886  0.1123  0.2906
 8217SOL    HW136287   1.761   3.321   3.407 -0.6097 -0.4536  0.2719
 8217SOL    HW236288   1.857   3.340   3.291 -0.4909  0.3936  0.4996
 8218SOL     OW36289   0.323   4.717   4.094 -0.0043 -0.0254  0.5471
 8218SOL    HW136290   0.236   4.716   4.133  0.4241  0.3062  1.5290
 8218SOL    HW236291   0.373   0.039   4.152  0.2188  0.2209  0.1090
 8219SOL     OW36292   0.897   2.837   6.670 -0.5682  0.4370  0.2672
 8219SOL    HW136293   0.912   2.744   6.687 -0.3506  0.2010 -1.2198
 8219SOL    HW236294   0.809   2.839   6.633  0.7180 -0.0427 -2.7712
 8220SOL     OW36295   0.183   3.502   3.875  0.4270 -0.0159 -0.4840
 8220SOL    HW136296   0.117   3.439   3.847  0.4135 -0.0707 -0.3276
 8220SOL    HW236297   0.214   3.469   3.959  0.4141 -2.4193 -1.4389
 8221SOL     OW36298   4.596   4.194   6.227  0.1798 -0.8478 -0.0678
 8221SOL    HW136299   4.507   4.195   6.263 -0.3186  0.1853 -1.3554
 8221SOL    HW236300   4.642   4.230   6.303 -1.5951 -0.0095  0.6149
 8222SOL     OW36301   1.253   4.202  15.609 -0.1916 -0.6519 -0.1203
 8222SOL    HW136302   1.196   4.169  15.539 -1.4910  1.0428  0.1439
 8222SOL    HW236303   1.275   4.291  15.582 -1.6863  0.2889  1.7635
 8223SOL     OW36304   2.570   0.769   0.882  0.5656  0.0642  0.1066
 8223SOL    HW136305   2.640   0.749   0.820 -0.5557  0.3543 -1.2631
 8223SOL    HW236306   2.583   0.860   0.908 -2.8676  1.0457 -1.5232
 8224SOL     OW36307   2.277   4.431   7.314  0.4196 -0.5896 -0.0575
 8224SOL    HW136308   2.298   4.358   7.255 -1.1034  0.1916 -1.5642
 8224SOL    HW236309   2.194   4.400   7.350  0.3007 -0.3421 -0.1233
 8225SOL     OW36310   0.380   0.645   5.325  0.0396  0.3556  0.3675
 8225SOL    HW136311   0.331   0.596   5.391 -0.0654  0.7885  0.6124
 8225SOL    HW236312   0.468   0.648   5.362 -0.4654  1.6810  1.4355
 8226SOL     OW36313   0.035   3.783  15.017  0.0271  0.3230  0.4294
 8226SOL    HW136314   4.735   3.777  15.105 -2.0753 -1.3430 -0.5447
 8226SOL    HW236315   4.690   3.800  14.970  0.1431 -0.7978 -0.1730
 8227SOL     OW36316   2.971   2.599   8.433  0.3625 -0.6522 -0.3257
 8227SOL    HW136317   2.876   2.605   8.427  0.2363 -1.5351  0.8704
 8227SOL    HW236318   2.971   2.513   8.475 -1.8447 -0.3372  0.2941
 8228SOL     OW36319   3.695   2.335  12.359 -0.2513  0.1538 -0.4970
 8228SOL    HW136320   3.693   2.306  12.450  1.6078 -2.0564 -1.1614
 8228SOL    HW236321   3.650   2.269  12.305  0.5219 -0.1461 -0.7798
 8229SOL     OW36322   0.754   4.640   1.914 -0.4038  0.6391 -0.1022
 8229SOL    HW136323   0.730   4.548   1.927  1.0432  1.1604  5.9398
 8229SOL    HW236324   0.805   4.659   1.992  2.6767 -1.7447 -1.5577
 8230SOL     OW36325   3.363   1.920   8.660 -0.4547 -0.0843  0.0845
 8230SOL    HW136326   3.375   1.992   8.598 -2.3516  0.3840  0.2525
 8230SOL    HW236327   3.449   1.913   8.701 -0.0062 -1.1290 -1.0427
 8231SOL     OW36328   4.414   3.262  11.970  0.0399 -0.0204 -0.6244
 8231SOL    HW136329   4.334   3.295  11.929  1.2824  1.2667 -2.0830
 8231SOL    HW236330   4.373   3.213  12.040 -0.6798  0.3788 -0.7688
 8232SOL     OW36331   1.512   4.695  16.245 -0.0080  0.2092  0.1844
 8232SOL    HW136332   1.515   4.620  16.304  1.9880  0.7698  0.8174
 8232SOL    HW236333   1.460   0.018  16.299 -1.2263 -2.3135  1.7723
 8233SOL     OW36334   4.051   3.367   5.916  0.0606  0.0931  0.1964
 8233SOL    HW136335   4.036   3.374   5.822 -3.6154  1.1970  0.8886
 8233SOL    HW236336   4.053   3.272   5.925 -1.5739  0.1634  1.1647
 8234SOL     OW36337   0.059   2.219   3.560 -0.4418  0.3558 -0.0587
 8234SOL    HW136338   0.154   2.235   3.562 -0.4150  0.1784  0.1235
 8234SOL    HW236339   0.044   2.127   3.536 -2.6152  0.5687  0.5049
 8235SOL     OW36340   2.369   3.052   2.118  0.0607  0.0320  0.7659
 8235SOL    HW136341   2.324   2.989   2.173  0.1798 -0.3784  0.3971
 8235SOL    HW236342   2.457   3.047   2.156  0.6272  1.1124 -0.4066
 8236SOL     OW36343   1.938   4.707   1.583 -0.5344  0.4293  0.2124
 8236SOL    HW136344   2.002   4.736   1.519 -1.7645  1.9731 -0.3254
 8236SOL    HW236345   1.984   4.706   1.667  0.7799 -1.2523 -0.5293
 8237SOL     OW36346   3.934   1.530   8.362 -0.3234  0.0981  0.4537
 8237SOL    HW136347   3.838   1.526   8.361 -0.2802 -0.8165  0.1121
 8237SOL    HW236348   3.960   1.466   8.296 -2.9205 -1.0116  0.5281
 8238SOL     OW36349   0.606   1.705   9.344 -0.5388  0.4496 -0.2414
 8238SOL    HW136350   0.646   1.781   9.300  1.3718  0.3760  1.3590
 8238SOL    HW236351   0.619   1.730   9.435  0.8995  0.0963 -0.3409
 8239SOL     OW36352   2.930   2.927   6.582 -0.4866  0.4233 -0.4308
 8239SOL    HW136353   2.940   3.014   6.542 -0.6534  1.6162  2.0746
 8239SOL    HW236354   2.988   2.945   6.656 -1.7691 -0.8995  0.8816
 8240SOL     OW36355   0.822   0.455  11.449  0.0265  0.1583 -0.3044
 8240SOL    HW136356   0.903   0.495  11.481 -0.3277  1.2235 -0.7428
 8240SOL    HW236357   0.795   0.389  11.514 -0.6556 -0.1672 -0.9166
 8241SOL     OW36358   4.711   4.675   0.996  0.7216  0.1859 -0.2977
 8241SOL    HW136359   0.031   4.598   0.992  0.6244  0.0455  1.0125
 8241SOL    HW236360   4.629   4.630   1.019  0.4273  0.5767 -0.5840
 8242SOL     OW36361   0.292   4.608  14.690 -0.1061 -0.3861  0.0758
 8242SOL    HW136362   0.235   4.595  14.765 -1.1448 -2.3020 -1.0474
 8242SOL    HW236363   0.379   4.604  14.730 -0.2469 -2.4122  0.1643
 8243SOL     OW36364   1.877   2.326   5.952 -0.4094  0.1603 -0.0180
 8243SOL    HW136365   1.833   2.334   6.037 -0.1974  1.3142 -0.0121
 8243SOL    HW236366   1.925   2.409   5.944 -1.1436  0.3814 -1.9819
 8244SOL     OW36367   1.292   3.489  12.023  0.5945 -0.1077 -0.0679
 8244SOL    HW136368   1.368   3.431  12.024  0.2612 -0.5218  2.2257
 8244SOL    HW236369   1.319   3.544  11.950 -1.7099  0.9780 -0.1005
 8245SOL     OW36370   4.002   0.377   4.021  0.3442 -0.1335 -0.6793
 8245SOL    HW136371   4.097   0.378   4.031  0.2079  1.9263  0.2245
 8245SOL    HW236372   3.988   0.290   3.982  2.2209 -1.5640  1.8782
 8246SOL     OW36373   2.301   0.347   2.044 -0.1650 -0.3071 -0.3173
 8246SOL    HW136374   2.379   0.297   2.066  0.3695  1.5240  1.8671
 8246SOL    HW236375   2.249   0.285   1.994 -0.7381 -0.1188  0.0476
 8247SOL     OW36376   0.989   3.341  13.815 -0.2125 -0.6547  0.1108
 8247SOL    HW136377   1.058   3.276  13.804  0.4960 -0.1368  1.4152
 8247SOL    HW236378   1.037   3.420  13.791  1.3181 -0.7209  2.9856
 8248SOL     OW36379   2.196   0.682   4.464  0.1427 -0.2242  0.3835
 8248SOL    HW136380   2.232   0.625   4.531  0.6654 -1.3813 -0.8820
 8248SOL    HW236381   2.216   0.631   4.386 -2.4648  5.1653 -3.8440
 8249SOL     OW36382   2.140   0.509   2.728 -0.6404  0.4904  0.8275
 8249SOL    HW136383   2.218   0.484   2.778 -0.2596 -0.4572 -0.2406
 8249SOL    HW236384   2.161   0.602   2.717  1.7799  0.1540  2.5455
 8250SOL     OW36385   3.290   3.488   6.215 -0.3740  0.1010 -0.0005
 8250SOL    HW136386   3.212   3.435   6.198  0.9876 -2.2050  0.8892
 8250SOL    HW236387   3.354   3.419   6.234  0.2987  0.2474 -1.7044
 8251SOL     OW36388   0.167   3.121   3.919 -0.5483  0.0888 -0.2127
 8251SOL    HW136389   0.258   3.149   3.920 -0.5419  0.1103 -1.4751
 8251SOL    HW236390   0.163   3.037   3.965 -0.6124  0.2621  0.0919
 8252SOL     OW36391   3.186   0.546   9.934  0.0168 -0.3768 -0.2151
 8252SOL    HW136392   3.171   0.544  10.029  2.3255  2.2533  0.2127
 8252SOL    HW236393   3.267   0.494   9.931  0.2632 -0.1060  1.4738
 8253SOL     OW36394   1.022   3.019   1.852  0.0058  0.2918  0.5436
 8253SOL    HW136395   1.071   2.954   1.801 -0.3168  0.5932 -0.1451
 8253SOL    HW236396   0.935   3.019   1.813 -0.7382  2.7969  2.2401
 8254SOL     OW36397   3.720   2.437   7.211  0.0104  0.3986  0.1129
 8254SOL    HW136398   3.750   2.528   7.209  0.5559  0.1873 -1.1624
 8254SOL    HW236399   3.687   2.428   7.301 -0.1399  1.3811  0.1561
 8255SOL     OW36400   1.079   3.276  12.066  0.5925  0.1240 -0.1597
 8255SOL    HW136401   1.152   3.214  12.065  1.7244  1.4502  0.5641
 8255SOL    HW236402   1.100   3.319  11.983  0.7143  0.1104 -0.1359
 8256SOL     OW36403   0.517   1.284   2.592  0.0043 -0.1848 -0.0253
 8256SOL    HW136404   0.424   1.282   2.612 -0.2812 -1.2970 -1.4477
 8256SOL    HW236405   0.556   1.279   2.680 -3.8358  2.0696  1.7759
 8257SOL     OW36406   2.145   2.525   3.371 -0.4809 -0.4209  0.4280
 8257SOL    HW136407   2.210   2.510   3.439  1.1506  1.5195 -0.7180
 8257SOL    HW236408   2.127   2.618   3.378  1.4363 -0.0442  0.2801
 8258SOL     OW36409   2.104   4.472   1.090 -0.2678 -0.4218 -0.5257
 8258SOL    HW136410   2.069   4.409   1.153 -2.6302 -1.1843 -2.5973
 8258SOL    HW236411   2.042   4.449   1.021  0.1118  0.1545 -1.0604
 8259SOL     OW36412   4.582   0.379   2.843  0.0077  0.0781 -0.1952
 8259SOL    HW136413   4.551   0.461   2.881 -0.3812  0.4692 -1.3591
 8259SOL    HW236414   4.585   0.331   2.926 -0.9481 -1.5695 -1.1146
 8260SOL     OW36415   4.353   2.699   1.968  0.3295  0.4304 -0.3322
 8260SOL    HW136416   4.311   2.729   1.888 -1.6140 -0.7468  0.2414
 8260SOL    HW236417   4.285   2.640   2.002  2.7320  0.0166  3.8350
 8261SOL     OW36418   3.615   0.650   5.933  0.1816 -0.3705 -0.1836
 8261SOL    HW136419   3.622   0.709   6.008  1.2099 -2.0696  1.0822
 8261SOL    HW236420   3.522   0.629   5.925  0.1986  0.3124 -2.1118
 8262SOL     OW36421   2.233   3.980   1.065 -0.1127  0.3727  0.1132
 8262SOL    HW136422   2.163   3.961   1.003  1.1732 -2.1389 -0.5373
 8262SOL    HW236423   2.307   3.990   1.005 -0.1551  0.3222  0.0538
 8263SOL     OW36424   2.056   4.148   5.572 -0.2339  0.3720  0.1153
 8263SOL    HW136425   2.056   4.062   5.529 -0.2852 -0.8069  2.4588
 8263SOL    HW236426   2.024   4.211   5.508 -0.8378 -0.5409 -0.4929
 8264SOL     OW36427   4.040   3.918   1.794 -0.2813 -0.0560 -0.0744
 8264SOL    HW136428   4.107   3.859   1.760  0.2050 -0.5782  1.8192
 8264SOL    HW236429   4.014   3.872   1.874  2.5260 -1.2250  0.1523
 8265SOL     OW36430   1.467   1.430   6.103 -0.0611 -1.1061 -0.1134
 8265SOL    HW136431   1.490   1.372   6.029 -1.4009 -0.0821 -1.3251
 8265SOL    HW236432   1.411   1.381   6.163 -1.3568  0.3661 -0.1287
 8266SOL     OW36433   2.040   1.436   7.120  0.2335 -0.1433  0.8435
 8266SOL    HW136434   2.035   1.345   7.091  3.1389 -0.1825  0.4788
 8266SOL    HW236435   2.053   1.480   7.036 -1.8932  0.2251  0.6914
 8267SOL     OW36436   3.145   3.456  13.801 -0.0177 -0.2204  0.1062
 8267SOL    HW136437   3.205   3.383  13.816  3.3461  2.2780 -1.2299
 8267SOL    HW236438   3.108   3.463  13.889 -1.8316  0.2473 -0.7033
 8268SOL     OW36439   2.663   1.273   2.173  0.4904  0.1101 -0.0344
 8268SOL    HW136440   2.589   1.216   2.153 -1.8473  2.4365  2.0295
 8268SOL    HW236441   2.698   1.245   2.257 -3.2511 -0.3104  1.3447
 8269SOL     OW36442   2.781   0.100   2.670 -0.0567  0.4709  0.2503
 8269SOL    HW136443   2.808   0.071   2.583 -0.0730  1.6665 -0.1535
 8269SOL    HW236444   2.744   0.188   2.658  1.8851  1.3300  0.4582
 8270SOL     OW36445   1.850   3.008   4.604 -0.5317 -0.5096  0.2347
 8270SOL    HW136446   1.807   3.008   4.519  0.8055 -0.9655 -0.4373
 8270SOL    HW236447   1.814   3.084   4.650 -1.6539  0.7440 -2.7501
 8271SOL     OW36448   2.075   2.166  14.135  0.3363 -0.1976 -0.1250
 8271SOL    HW136449   2.121   2.218  14.069  0.4392  0.2035  0.2620
 8271SOL    HW236450   2.141   2.107  14.172 -0.4643 -0.8790  0.2197
 8272SOL     OW36451   4.142   4.649  10.686  0.0316  0.5591 -0.2666
 8272SOL    HW136452   4.191   4.638  10.605  1.2448 -0.1905  0.5656
 8272SOL    HW236453   4.214   4.681  10.741  0.3002 -0.0958 -0.2376
 8273SOL     OW36454   0.444   1.804   2.247  0.0310  0.8246 -0.0169
 8273SOL    HW136455   0.395   1.749   2.309  2.6588  0.2300  1.5422
 8273SOL    HW236456   0.378   1.872   2.237 -1.1753 -0.5900 -1.7155
 8274SOL     OW36457   0.859   3.567  14.075 -0.0542  0.5651  0.2347
 8274SOL    HW136458   0.767   3.571  14.102 -0.1242 -0.6057  0.1803
 8274SOL    HW236459   0.891   3.493  14.127  0.3871  0.8821  0.4046
 8275SOL     OW36460   3.135   2.816  15.780  0.3438 -0.4609  0.3154
 8275SOL    HW136461   3.202   2.858  15.834  0.7011  0.8589 -1.1437
 8275SOL    HW236462   3.177   2.821  15.694 -0.0775 -2.0627  0.0185
 8276SOL     OW36463   2.207   0.831   5.673 -0.5514 -0.1699  0.0149
 8276SOL    HW136464   2.175   0.803   5.586  1.0473  0.4423 -0.7649
 8276SOL    HW236465   2.223   0.925   5.663  0.3481 -0.2341  0.8425
 8277SOL     OW36466   0.407   2.682  17.620  0.1558  0.6312 -0.2365
 8277SOL    HW136467   0.365   2.767  17.604  1.5730  1.4509  0.4428
 8277SOL    HW236468   0.347   2.639  17.681  1.2842 -0.0484  0.3845
 8278SOL     OW36469   1.220   2.187   8.039  0.0418 -0.3167  0.0228
 8278SOL    HW136470   1.311   2.157   8.027 -0.0050 -1.5899  2.8650
 8278SOL    HW236471   1.204   2.157   8.129  1.4751 -0.3133  0.2912
 8279SOL     OW36472   1.845   0.539  10.137  0.0928 -0.8767  0.8799
 8279SOL    HW136473   1.891   0.468  10.182  1.0483 -0.4988  0.5118
 8279SOL    HW236474   1.792   0.574  10.209 -1.5478 -0.2052 -0.6697
 8280SOL     OW36475   1.607   0.948   6.316  0.1953  0.2804 -0.7096
 8280SOL    HW136476   1.599   1.041   6.339  1.6736  0.3964 -0.6529
 8280SOL    HW236477   1.561   0.901   6.385 -0.9290  2.3829 -0.0274
 8281SOL     OW36478   2.619   2.892   6.274 -0.6096  0.2319  0.3428
 8281SOL    HW136479   2.638   2.820   6.334 -2.5776 -0.3976  0.1988
 8281SOL    HW236480   2.681   2.952   6.316  0.2531 -0.2985 -0.1617
 8282SOL     OW36481   4.204   3.984  10.769  0.0377 -0.0434  0.4178
 8282SOL    HW136482   4.278   3.932  10.800 -0.0642 -0.1484  0.4837
 8282SOL    HW236483   4.231   4.075  10.779  1.0815 -0.2573 -0.3913
 8283SOL     OW36484   3.707   4.360   4.311  0.2296  0.0732 -0.2326
 8283SOL    HW136485   3.670   4.306   4.241  1.7948 -2.1600  0.6476
 8283SOL    HW236486   3.690   4.305   4.388 -0.0619  1.6656  0.8351
 8284SOL     OW36487   3.965   3.365   3.296 -0.1113 -0.0180 -0.0370
 8284SOL    HW136488   3.999   3.428   3.233 -0.8720  1.5440  1.1235
 8284SOL    HW236489   4.025   3.292   3.286 -0.0593  0.4533 -3.2975
 8285SOL     OW36490   1.751   4.325   2.099  0.6138  0.3537  0.1137
 8285SOL    HW136491   1.708   4.355   2.179  0.8326  1.7065 -0.2723
 8285SOL    HW236492   1.774   4.413   2.068  0.5012  1.0647  1.9965
 8286SOL     OW36493   1.883   0.448   7.620 -0.3253 -0.1466 -0.2397
 8286SOL    HW136494   1.836   0.460   7.537 -1.7465 -1.3451  0.4034
 8286SOL    HW236495   1.856   0.360   7.646  1.3675 -0.6489 -0.2302
 8287SOL     OW36496   0.743   2.339   2.891 -0.0387  0.2570 -0.0393
 8287SOL    HW136497   0.718   2.256   2.848  1.9111  0.2315 -1.1263
 8287SOL    HW236498   0.838   2.339   2.878 -0.1887 -0.0735 -1.1226
 8288SOL     OW36499   2.376   2.187   7.012 -0.2520 -0.5076 -0.5110
 8288SOL    HW136500   2.333   2.103   6.996  1.6101 -1.2061 -1.8099
 8288SOL    HW236501   2.468   2.164   7.018 -0.1636  0.3533  1.6187
 8289SOL     OW36502   3.147   1.505   1.007 -0.1633  0.0847 -0.5544
 8289SOL    HW136503   3.141   1.415   1.041 -0.5807  0.8862  1.5306
 8289SOL    HW236504   3.240   1.524   0.996  0.2235 -1.2944  0.2782
 8290SOL     OW36505   0.154   1.425   8.476 -0.3665 -0.2071 -0.1227
 8290SOL    HW136506   0.072   1.423   8.526 -1.2197  0.0775 -1.5039
 8290SOL    HW236507   0.127   1.382   8.394 -0.0489  1.2020 -0.9659
 8291SOL     OW36508   2.135   2.448   6.107  0.1487  0.1756  0.1161
 8291SOL    HW136509   2.190   2.375   6.079  0.6001  0.1050  1.1975
 8291SOL    HW236510   2.139   2.517   6.041 -1.9393  0.9770  0.8355
 8292SOL     OW36511   1.751   4.516  10.112  0.2394  0.3080 -0.0804
 8292SOL    HW136512   1.752   4.526  10.017  0.2886  0.7619 -0.0320
 8292SOL    HW236513   1.725   4.602  10.144 -1.3920  0.0788 -0.7821
 8293SOL     OW36514   3.394   1.207  14.613 -0.6862  0.2366 -0.3785
 8293SOL    HW136515   3.355   1.192  14.528  0.0409 -0.5674 -0.5811
 8293SOL    HW236516   3.415   1.119  14.645 -0.6254 -0.5302 -2.5349
 8294SOL     OW36517   2.489   2.263  15.901  0.4947  0.0818 -0.2399
 8294SOL    HW136518   2.575   2.303  15.888  0.9704 -1.1972 -1.0142
 8294SOL    HW236519   2.516   2.184  15.948  3.2993  1.2448  0.0976
 8295SOL     OW36520   2.989   2.375   3.468  0.4847  0.2761  0.0040
 8295SOL    HW136521   2.931   2.350   3.539  1.5248 -2.0501  0.0194
 8295SOL    HW236522   2.932   2.342   3.399  1.4319 -0.2257 -0.5331
 8296SOL     OW36523   0.639   3.057   5.498  0.5595  0.0118 -0.4048
 8296SOL    HW136524   0.609   3.127   5.439 -2.1032  0.5312  1.5934
 8296SOL    HW236525   0.589   3.083   5.575  1.5894 -0.3194  0.3686
 8297SOL     OW36526   1.967   4.676   6.643  0.2755  0.3571  0.1603
 8297SOL    HW136527   2.007   4.687   6.556 -0.9785  0.6152 -0.3792
 8297SOL    HW236528   1.982   0.026   6.681  1.9004  0.6080 -1.0379
 8298SOL     OW36529   3.430   4.256   9.916  0.6600 -0.4574 -0.1892
 8298SOL    HW136530   3.375   4.307   9.975  0.9184 -1.9848  1.3436
 8298SOL    HW236531   3.476   4.203   9.980  2.2539 -0.3721 -1.2655
 8299SOL     OW36532   2.038   3.611  12.803  0.2503  0.2884  0.0456
 8299SOL    HW136533   1.981   3.650  12.869  2.0922  1.4615  0.9451
 8299SOL    HW236534   2.036   3.518  12.827 -0.8825  0.7355  1.6723
 8300SOL     OW36535   3.659   3.646   6.905  0.0988  0.0638  0.4512
 8300SOL    HW136536   3.629   3.695   6.981 -1.5255 -0.6747  0.2667
 8300SOL    HW236537   3.580   3.599   6.879  0.0588  0.0918  0.5239
 8301SOL     OW36538   4.331   3.964   8.763  1.0329  0.1832  0.0365
 8301SOL    HW136539   4.289   3.884   8.796  2.1807  0.5377  2.3767
 8301SOL    HW236540   4.282   4.034   8.805 -0.6157  0.0996 -1.7545
 8302SOL     OW36541   1.297   1.637   1.742 -0.2343  0.2561 -0.1745
 8302SOL    HW136542   1.363   1.626   1.675 -0.1840  1.2311 -0.2879
 8302SOL    HW236543   1.291   1.559   1.797  0.5294 -1.4116 -2.4572
 8303SOL     OW36544   4.105   4.678   2.673 -0.0646 -0.2335 -0.0984
 8303SOL    HW136545   4.093   4.715   2.585  0.3083  0.4570  0.1390
 8303SOL    HW236546   4.020   4.637   2.687 -0.9183  1.3960 -0.4350
 8304SOL     OW36547   1.806   3.317   3.616  0.2266  0.0421 -0.5377
 8304SOL    HW136548   1.889   3.342   3.658 -0.0564 -0.0625  0.0877
 8304SOL    HW236549   1.756   3.398   3.609  1.0266  0.4175 -1.8141
 8305SOL     OW36550   0.106   1.087   1.967  0.0568  0.3111  0.4095
 8305SOL    HW136551   0.033   1.106   2.025  1.2311  2.6844  1.0988
 8305SOL    HW236552   0.059   1.113   1.887  0.2581 -0.3636  0.0710
 8306SOL     OW36553   0.792   0.362   1.002  0.6152  0.4188 -0.7650
 8306SOL    HW136554   0.862   0.378   1.065 -1.0446 -1.2865  1.4758
 8306SOL    HW236555   0.825   0.279   0.969  1.1553 -0.0189  0.9283
 8307SOL     OW36556   1.683   4.134   3.894  0.6792  0.6397 -0.3225
 8307SOL    HW136557   1.610   4.072   3.894  0.8166  0.4844 -2.5371
 8307SOL    HW236558   1.652   4.197   3.960 -0.0248 -0.8472  0.7669
 8308SOL     OW36559   0.179   1.468   9.546 -0.2896  0.0895 -0.3224
 8308SOL    HW136560   0.124   1.404   9.502 -0.0246  1.1719 -2.2427
 8308SOL    HW236561   0.178   1.538   9.481 -2.9057 -0.1156 -0.4882
 8309SOL     OW36562   3.314   0.900   5.079  0.2370 -0.2658 -0.0791
 8309SOL    HW136563   3.263   0.978   5.061 -2.6378 -2.0434  0.4195
 8309SOL    HW236564   3.331   0.918   5.172  2.5274  2.4961 -1.0085
 8310SOL     OW36565   2.958   0.544   0.987  0.4507  0.0464 -0.3750
 8310SOL    HW136566   3.016   0.584   1.052 -1.0533  0.4756  0.6886
 8310SOL    HW236567   2.893   0.503   1.044 -0.5094  0.1014 -1.4236
 8311SOL     OW36568   4.539   4.076  10.914  0.2094 -0.1387 -0.1552
 8311SOL    HW136569   4.565   4.134  10.986  0.6344  0.5053 -0.8334
 8311SOL    HW236570   4.496   4.003  10.959  1.5019  1.5456  3.8221
 8312SOL     OW36571   4.352   4.702  15.157  0.0084 -0.3624  0.0149
 8312SOL    HW136572   4.374   4.730  15.069  0.0378  0.5975  0.3250
 8312SOL    HW236573   4.385   4.612  15.159 -0.8763 -0.6828  0.4667
 8313SOL     OW36574   2.865   0.559  10.207  0.3789  0.1917 -0.1376
 8313SOL    HW136575   2.798   0.530  10.270  1.8705 -2.0386  0.4202
 8313SOL    HW236576   2.929   0.488  10.216  2.0550  1.7559  0.2082
 8314SOL     OW36577   3.993   3.322   3.882 -0.0273  0.4466  0.1665
 8314SOL    HW136578   3.987   3.229   3.904  0.2373  0.4283  0.1636
 8314SOL    HW236579   3.908   3.335   3.840  0.3383  2.4364  0.0468
 8315SOL     OW36580   1.017   1.418   1.116  0.1901 -0.1143  0.2215
 8315SOL    HW136581   0.967   1.477   1.060  1.7701 -0.4902 -1.5695
 8315SOL    HW236582   0.948   1.360   1.149  0.3695  0.9437  2.3991
 8316SOL     OW36583   3.927   1.765   8.521  0.2945 -0.1128  0.1109
 8316SOL    HW136584   3.932   1.673   8.493 -2.4499 -1.4646  4.1194
 8316SOL    HW236585   3.938   1.817   8.441 -0.8539 -0.8473 -0.5390
 8317SOL     OW36586   0.921   1.876  10.290 -0.1786  0.8320 -0.2102
 8317SOL    HW136587   0.844   1.819  10.279 -0.0474  0.3992  1.0997
 8317SOL    HW236588   0.890   1.953  10.338  1.7754  1.2494  0.3965
 8318SOL     OW36589   0.210   1.665   6.832 -0.1771  0.3682  0.1808
 8318SOL    HW136590   0.301   1.635   6.835 -0.2610  0.0903 -0.1316
 8318SOL    HW236591   0.214   1.752   6.792 -1.2037  0.0871 -0.5169
 8319SOL     OW36592   2.066   3.755   2.789 -0.1559  0.1676  0.4571
 8319SOL    HW136593   1.974   3.782   2.797 -0.7800 -1.5043 -1.0889
 8319SOL    HW236594   2.071   3.685   2.723  2.8682  1.6574 -0.9263
 8320SOL     OW36595   2.107   1.176   4.522 -0.6370  0.0384 -0.0289
 8320SOL    HW136596   2.115   1.086   4.554 -0.3514  0.1182  0.1238
 8320SOL    HW236597   2.148   1.177   4.436  0.7248 -0.5379  0.6151
 8321SOL     OW36598   2.282   1.276   0.415  0.0524  0.0448 -0.3264
 8321SOL    HW136599   2.259   1.341   0.350  0.2118  1.7102  1.2905
 8321SOL    HW236600   2.287   1.323   0.498  0.4290 -0.2305 -0.1904
 8322SOL     OW36601   3.724   1.593  14.180  0.4955  0.0431  0.1516
 8322SOL    HW136602   3.680   1.575  14.097  0.0489 -0.7370  0.5506
 8322SOL    HW236603   3.798   1.533  14.173 -1.1774 -2.0639  0.4017
 8323SOL     OW36604   3.951   1.253  11.540 -0.1745  0.4745 -0.2089
 8323SOL    HW136605   3.921   1.193  11.609 -0.2576  0.7549 -0.0001
 8323SOL    HW236606   3.988   1.192  11.477  3.2732  1.0920  1.2081
 8324SOL     OW36607   3.765   1.275   8.498  0.6327  0.5652  0.0798
 8324SOL    HW136608   3.736   1.251   8.586 -2.2364 -0.1151 -1.0311
 8324SOL    HW236609   3.794   1.194   8.456 -0.7719  0.8572 -1.4376
 8325SOL     OW36610   0.282   0.809   3.940  0.0276  0.0470  0.5343
 8325SOL    HW136611   0.331   0.758   3.876 -0.7162  3.0217 -2.4020
 8325SOL    HW236612   0.205   0.824   3.885 -0.7949 -1.1229  1.3702
 8326SOL     OW36613   1.448   1.323   7.358 -0.9001 -0.3666  0.3797
 8326SOL    HW136614   1.355   1.327   7.379 -0.9393  1.1437 -0.0995
 8326SOL    HW236615   1.435   1.332   7.263 -1.1034  0.0314  0.4468
 8327SOL     OW36616   0.487   1.868   3.078 -0.5651  0.2670 -0.4387
 8327SOL    HW136617   0.401   1.863   3.036 -1.5362  1.4995  1.3678
 8327SOL    HW236618   0.471   1.862   3.173  2.5635 -2.0119 -0.0724
 8328SOL     OW36619   1.187   4.717   6.990  0.2194  0.2047  0.6941
 8328SOL    HW136620   1.248   4.643   6.999 -1.0266 -0.7223  1.5793
 8328SOL    HW236621   1.231   0.044   7.046 -1.3953  2.0036 -0.0593
 8329SOL     OW36622   0.330   4.384  12.480 -0.1999  0.1176 -0.2038
 8329SOL    HW136623   0.397   4.323  12.510  1.1834  0.4214 -2.6680
 8329SOL    HW236624   0.374   4.435  12.412  1.3539 -0.3716  0.4561
 8330SOL     OW36625   3.607   3.664   4.973  0.0696  0.4400 -0.1149
 8330SOL    HW136626   3.637   3.596   4.913  0.4540  0.4410  0.0736
 8330SOL    HW236627   3.526   3.624   5.006 -0.5792  1.2217 -0.7701
 8331SOL     OW36628   2.187   1.980   3.466  0.7007 -0.0071  1.1150
 8331SOL    HW136629   2.274   2.018   3.476 -0.3267  2.4511  0.9166
 8331SOL    HW236630   2.200   1.926   3.388 -0.6783  0.2753  0.6918
 8332SOL     OW36631   0.233   0.538   3.439 -0.0830  0.2703  0.2652
 8332SOL    HW136632   0.145   0.573   3.422  0.0707 -1.3363 -3.9357
 8332SOL    HW236633   0.280   0.620   3.425 -0.0104  0.2413  0.3417
 8333SOL     OW36634   2.800   1.296   4.088 -0.6958 -0.1359  0.4348
 8333SOL    HW136635   2.787   1.388   4.066  0.0213 -0.0077  0.5664
 8333SOL    HW236636   2.770   1.254   4.008  1.4505 -1.1472  0.1703
 8334SOL     OW36637   2.384   4.134  16.038 -0.2814  0.2379 -0.3950
 8334SOL    HW136638   2.321   4.150  16.108 -0.3834  0.0055 -0.4323
 8334SOL    HW236639   2.339   4.153  15.956  1.5048 -2.7360 -2.0740
 8335SOL     OW36640   4.695   2.786   6.543 -0.0194  0.0048  0.0185
 8335SOL    HW136641   0.032   2.844   6.564 -0.9742  1.1504  0.1659
 8335SOL    HW236642   4.629   2.855   6.543  0.9038  0.8916 -0.4604
 8336SOL     OW36643   0.609   2.172   6.553  0.1996 -0.0312  0.5074
 8336SOL    HW136644   0.649   2.153   6.468 -1.9805 -0.2780 -0.4559
 8336SOL    HW236645   0.638   2.263   6.557  0.9060 -0.2451  0.1971
 8337SOL     OW36646   3.220   1.443   5.455  0.0770  0.4557  0.0034
 8337SOL    HW136647   3.220   1.502   5.380  0.7934 -0.0443 -0.3902
 8337SOL    HW236648   3.225   1.498   5.534  0.5462  1.6583 -0.8521
 8338SOL     OW36649   4.202   2.466   4.608  0.1054  0.6492  0.1420
 8338SOL    HW136650   4.252   2.396   4.650 -1.0793  1.2981  2.6666
 8338SOL    HW236651   4.135   2.418   4.559 -0.8928 -0.1456  2.2988
 8339SOL     OW36652   1.786   4.008   6.964 -0.4924  0.6467  0.1761
 8339SOL    HW136653   1.751   4.092   6.993  2.7777  2.0683  0.0984
 8339SOL    HW236654   1.875   4.042   6.949 -0.1371 -0.2360  0.2576
 8340SOL     OW36655   3.743   0.230   3.536 -0.0794  0.0681  0.4401
 8340SOL    HW136656   3.653   0.217   3.567  0.5801  0.0447  2.3106
 8340SOL    HW236657   3.756   0.154   3.479  0.6439 -1.0014  2.0566
 8341SOL     OW36658   0.777   0.902   5.453  0.3775  0.0583 -0.1729
 8341SOL    HW136659   0.851   0.873   5.401  0.6067  0.2617  0.0397
 8341SOL    HW236660   0.706   0.895   5.389  0.9750 -2.6876 -0.5370
 8342SOL     OW36661   4.324   4.100   5.142  0.0183 -0.0342 -0.1894
 8342SOL    HW136662   4.271   4.036   5.095  1.6940 -0.6739 -1.2036
 8342SOL    HW236663   4.412   4.066   5.128  0.4901  1.0973 -0.0296
 8343SOL     OW36664   0.521   1.640   0.996  0.2677 -0.1002  0.5142
 8343SOL    HW136665   0.586   1.668   0.932  1.0900 -1.9228  0.5235
 8343SOL    HW236666   0.591   1.637   1.062 -0.5452  0.0240  1.3799
 8344SOL     OW36667   2.548   2.606   7.868  0.2268 -0.1125 -0.6923
 8344SOL    HW136668   2.545   2.513   7.892 -2.4440  0.4670  1.2480
 8344SOL    HW236669   2.594   2.611   7.784  1.5895 -0.9016 -0.0036
 8345SOL     OW36670   3.526   2.629   8.032  0.4679  0.9214 -0.2459
 8345SOL    HW136671   3.609   2.629   7.986  1.1530  0.7414  0.9960
 8345SOL    HW236672   3.551   2.588   8.115 -0.9698  0.3556 -0.0813
 8346SOL     OW36673   0.391   0.573   1.485 -0.6484 -0.4557  0.1192
 8346SOL    HW136674   0.309   0.619   1.503 -0.3728  0.5735 -1.2552
 8346SOL    HW236675   0.366   0.522   1.408 -0.8661  0.0656 -0.1493
 8347SOL     OW36676   3.392   0.947   8.850 -0.6328  0.0388  0.0341
 8347SOL    HW136677   3.315   0.970   8.903 -0.1887 -1.4326  1.3303
 8347SOL    HW236678   3.434   0.885   8.910  2.0057  4.2551  2.4463
 8348SOL     OW36679   1.187   1.241   9.720  0.0640 -0.4498  0.3989
 8348SOL    HW136680   1.149   1.269   9.803 -2.9699  0.3443 -1.2254
 8348SOL    HW236681   1.182   1.145   9.720  3.7460 -0.6164  1.5231
 8349SOL     OW36682   4.231   2.883   3.934  0.3622 -0.4057  0.0150
 8349SOL    HW136683   4.293   2.910   3.866 -2.6971  0.4674 -2.4577
 8349SOL    HW236684   4.290   2.826   3.983 -0.7743 -1.1006  0.5924
 8350SOL     OW36685   0.760   2.359  15.120 -0.2266 -0.5141  0.1370
 8350SOL    HW136686   0.677   2.405  15.137 -0.4354 -2.0550  3.4638
 8350SOL    HW236687   0.742   2.338  15.028  0.0975  0.1883 -0.0844
 8351SOL     OW36688   3.056   0.614   5.794 -0.2913  0.1156  0.0013
 8351SOL    HW136689   3.145   0.611   5.759  0.9054  0.7856  2.9854
 8351SOL    HW236690   3.058   0.687   5.856 -0.3882  1.6714 -1.8029
 8352SOL     OW36691   1.461   4.568   7.007  0.0664 -0.0450 -0.0365
 8352SOL    HW136692   1.475   4.473   7.006  0.8602  0.0746 -0.2470
 8352SOL    HW236693   1.416   4.582   6.923 -1.7038  1.4784  1.1682
 8353SOL     OW36694   0.205   0.845   2.389 -0.2653  0.2044  0.0770
 8353SOL    HW136695   0.291   0.803   2.392 -0.1016  0.6535  1.7822
 8353SOL    HW236696   0.217   0.938   2.408  0.2263  0.3290 -0.8366
 8354SOL     OW36697   4.146   1.985  14.661 -0.1728 -0.3902  0.1877
 8354SOL    HW136698   4.062   1.979  14.615 -0.0496  0.6868 -0.1585
 8354SOL    HW236699   4.208   1.954  14.595 -1.5187 -2.8467  0.0502
 8355SOL     OW36700   0.975   2.227   9.045 -0.1367 -0.1771 -0.3841
 8355SOL    HW136701   0.913   2.167   9.003 -0.1457  0.2685 -0.9976
 8355SOL    HW236702   0.912   2.294   9.074  1.7141  0.9997  0.8903
 8356SOL     OW36703   4.200   4.109  13.518 -0.0233  0.3891 -0.0442
 8356SOL    HW136704   4.205   4.029  13.466 -0.1288 -0.9129  2.0027
 8356SOL    HW236705   4.110   4.140  13.511  0.6267  1.6050 -3.1591
 8357SOL     OW36706   1.251   0.240   2.091 -0.2405  0.4773  0.1685
 8357SOL    HW136707   1.215   0.294   2.161  0.2181 -0.2851  0.9768
 8357SOL    HW236708   1.193   0.259   2.016 -0.6647 -2.4541 -0.2604
 8358SOL     OW36709   1.229   4.335  12.773  0.4126 -0.4490  0.0183
 8358SOL    HW136710   1.185   4.402  12.825  1.1135 -0.3719  0.5179
 8358SOL    HW236711   1.156   4.320  12.713 -0.9124  0.0890  1.4756
 8359SOL     OW36712   4.629   1.442   3.831  1.0086 -0.3412  0.2803
 8359SOL    HW136713   4.537   1.440   3.856  0.8349 -0.0015 -0.3379
 8359SOL    HW236714   4.640   1.347   3.827 -0.9116 -0.4007 -3.7365
 8360SOL     OW36715   1.508   2.824  15.104 -0.3380 -0.2605  0.4644
 8360SOL    HW136716   1.471   2.890  15.163  0.8155  0.7567  0.0531
 8360SOL    HW236717   1.559   2.788  15.177  1.8780  0.2299 -0.8460
 8361SOL     OW36718   0.478   2.361   3.904  0.6292 -0.0403 -0.0457
 8361SOL    HW136719   0.501   2.310   3.827  0.8339 -0.3887  0.2425
 8361SOL    HW236720   0.420   2.426   3.866 -0.3801 -1.3494 -0.7514
 8362SOL     OW36721   1.557   4.323   4.032 -0.1952 -0.0990  0.1622
 8362SOL    HW136722   1.487   4.383   4.005  1.3399  2.6422  2.2615
 8362SOL    HW236723   1.602   4.368   4.104 -3.1192  1.0667  1.2392
 8363SOL     OW36724   4.322   1.585   2.625 -0.0396  0.4743 -0.1353
 8363SOL    HW136725   4.376   1.579   2.703  0.6907  0.5674 -0.6383
 8363SOL    HW236726   4.284   1.499   2.646  2.8600 -1.0746 -1.3701
 8364SOL     OW36727   3.026   4.307  10.789 -0.6968  0.0893 -0.7199
 8364SOL    HW136728   3.088   4.300  10.861  1.0655  1.5584 -2.0765
 8364SOL    HW236729   2.950   4.257  10.817  0.2573 -0.0895  1.5272
 8365SOL     OW36730   0.824   0.750   9.234  0.0912 -0.0655  0.5896
 8365SOL    HW136731   0.839   0.842   9.213 -0.4218 -0.4084 -1.3726
 8365SOL    HW236732   0.882   0.754   9.309  1.0213 -0.4584 -0.1152
 8366SOL     OW36733   0.452   3.685   8.976  0.0171  0.8200 -0.1057
 8366SOL    HW136734   0.544   3.658   8.976 -0.3042 -0.2743 -0.3889
 8366SOL    HW236735   0.454   3.753   9.043  0.3724 -0.3944  1.1213
 8367SOL     OW36736   2.683   2.324  16.717 -0.3582  0.1175 -0.0744
 8367SOL    HW136737   2.638   2.239  16.721 -0.5079  0.1748 -0.5416
 8367SOL    HW236738   2.771   2.289  16.703  0.2771  0.8291  2.1588
 8368SOL     OW36739   4.525   2.219  16.852 -0.7065 -0.0656  0.1243
 8368SOL    HW136740   4.442   2.262  16.830 -0.8230  0.9034  2.5201
 8368SOL    HW236741   4.588   2.270  16.800 -1.1145  0.3662  0.0424
 8369SOL     OW36742   4.622   1.385   4.519 -0.1666  0.1968 -0.3425
 8369SOL    HW136743   4.650   1.436   4.595 -1.3081  0.2619  0.0311
 8369SOL    HW236744   4.528   1.399   4.522  0.1570  2.3106 -0.3871
 8370SOL     OW36745   3.565   0.190   4.825 -0.2116 -0.3378  0.1028
 8370SOL    HW136746   3.563   0.284   4.811 -2.5230 -0.2102  1.3441
 8370SOL    HW236747   3.516   0.160   4.748 -0.3212 -1.5219  0.6290
 8371SOL     OW36748   1.118   2.731   6.423  0.4331  0.3179  0.0279
 8371SOL    HW136749   1.045   2.711   6.482 -0.4374  1.5320 -0.6395
 8371SOL    HW236750   1.140   2.644   6.390  0.0902  0.5988 -0.9383
 8372SOL     OW36751   2.226   3.931   4.542  0.3305 -0.2434 -0.3718
 8372SOL    HW136752   2.136   3.935   4.508  1.2725 -0.2888 -2.8923
 8372SOL    HW236753   2.278   3.931   4.462  0.1022  2.4808 -0.5255
 8373SOL     OW36754   3.611   2.951   4.805 -0.3124  0.0243 -0.2785
 8373SOL    HW136755   3.660   2.913   4.878  0.0764  0.9422 -0.0638
 8373SOL    HW236756   3.535   2.894   4.810 -0.4740  0.2321 -0.3550
 8374SOL     OW36757   3.367   4.349   4.634  0.2950  0.2882 -0.0789
 8374SOL    HW136758   3.282   4.325   4.672  1.7425 -0.3099  2.8145
 8374SOL    HW236759   3.418   4.268   4.638  0.4274  0.4333  1.2003
 8375SOL     OW36760   3.380   1.113   6.268  0.2020 -0.0742 -0.1265
 8375SOL    HW136761   3.319   1.042   6.286 -0.3225  0.4225  0.0669
 8375SOL    HW236762   3.348   1.177   6.332 -0.3505  0.6882 -1.1738
 8376SOL     OW36763   3.944   1.790  15.825 -0.5703  0.3443 -0.1435
 8376SOL    HW136764   3.931   1.870  15.876 -1.9972 -2.7640  4.3689
 8376SOL    HW236765   3.944   1.829  15.737  1.1751 -0.0078 -0.2950
 8377SOL     OW36766   4.681   0.422   9.795  0.1178  0.1855 -0.2305
 8377SOL    HW136767   4.695   0.516   9.808  0.9963  0.3804 -2.5379
 8377SOL    HW236768   0.017   0.382   9.844  1.0221  2.2208  0.0828
 8378SOL     OW36769   2.551   0.312   3.992 -0.0039  0.5039 -0.1680
 8378SOL    HW136770   2.543   0.312   3.897 -0.2460  0.4814 -0.1482
 8378SOL    HW236771   2.612   0.241   4.013 -2.2095 -1.3958 -0.2237
 8379SOL     OW36772   3.925   3.109   4.895 -0.1734  0.4425  0.2331
 8379SOL    HW136773   3.879   3.078   4.972 -1.0703  0.9804 -0.0917
 8379SOL    HW236774   3.851   3.152   4.852 -0.5675 -2.4960 -2.1277
 8380SOL     OW36775   1.912   1.007   2.243  0.1407 -0.3132  0.6250
 8380SOL    HW136776   1.947   1.084   2.200 -1.7278  0.6267  0.7795
 8380SOL    HW236777   1.920   1.044   2.331  0.1319  1.0011  0.0607
 8381SOL     OW36778   2.824   3.431   5.792  0.4628  0.8060  0.5863
 8381SOL    HW136779   2.839   3.336   5.786  1.3749  0.9542  0.4739
 8381SOL    HW236780   2.745   3.438   5.846 -0.2330 -0.9573 -0.1973
 8382SOL     OW36781   4.011   4.336   9.779 -0.0571 -0.2090  0.6665
 8382SOL    HW136782   4.036   4.428   9.773 -1.0131  0.0142  0.0764
 8382SOL    HW236783   3.918   4.338   9.804 -0.3336  1.8153 -0.5475
 8383SOL     OW36784   1.256   3.778   7.390 -0.1616  0.0685  0.0898
 8383SOL    HW136785   1.342   3.805   7.422  0.7787 -0.1452 -2.1931
 8383SOL    HW236786   1.233   3.758   7.481  2.6695  0.3067  0.8565
 8384SOL     OW36787   3.310   1.037  14.419  0.1927  0.1090  0.1160
 8384SOL    HW136788   3.274   1.085  14.344 -0.3362 -0.4448  0.0187
 8384SOL    HW236789   3.256   0.958  14.422  0.3113 -0.0284 -1.1632
 8385SOL     OW36790   1.973   4.118   1.936  0.4412  0.3324  0.0181
 8385SOL    HW136791   1.955   4.166   1.855 -0.1587 -0.8408 -0.5465
 8385SOL    HW236792   1.887   4.088   1.967  0.4922 -0.1599 -0.3125
 8386SOL     OW36793   0.697   3.834   7.621  0.0842  0.2668  0.1727
 8386SOL    HW136794   0.627   3.849   7.559  0.5560 -2.1982 -0.9505
 8386SOL    HW236795   0.742   3.919   7.624 -0.3824  0.4722  1.6495
 8387SOL     OW36796   1.975   2.349   8.813 -0.1120  0.0063  0.1152
 8387SOL    HW136797   2.035   2.404   8.762  1.3556 -1.1967  0.5785
 8387SOL    HW236798   1.914   2.339   8.740 -1.2709 -2.1358  1.3592
 8388SOL     OW36799   4.549   0.903   6.020 -0.9266 -0.2459 -0.8236
 8388SOL    HW136800   4.462   0.893   5.984 -0.6713  0.8299 -1.7309
 8388SOL    HW236801   4.520   0.885   6.110  0.6697 -0.1394 -0.2768
 8389SOL     OW36802   1.204   3.147   5.200 -0.7266 -0.4930 -0.0829
 8389SOL    HW136803   1.239   3.145   5.289  0.4620  1.2493 -0.5116
 8389SOL    HW236804   1.155   3.065   5.205  0.1953 -1.1064 -0.9876
 8390SOL     OW36805   3.380   3.196   4.822 -0.4971 -0.0542  0.0171
 8390SOL    HW136806   3.397   3.148   4.903 -0.2213  1.5714  0.9286
 8390SOL    HW236807   3.446   3.156   4.766 -0.1278 -1.8476  1.7360
 8391SOL     OW36808   4.474   2.262   7.558  0.1391  0.6982  0.4986
 8391SOL    HW136809   4.563   2.293   7.574 -0.4342  1.7512  1.6051
 8391SOL    HW236810   4.468   2.202   7.633 -1.0399 -0.7227 -0.7164
 8392SOL     OW36811   4.246   2.123  17.534 -0.5260  0.6297  0.2118
 8392SOL    HW136812   4.214   2.081  17.454 -0.3937 -0.1612  0.5695
 8392SOL    HW236813   4.220   2.213  17.521  0.2500  0.5130 -2.0457
 8393SOL     OW36814   2.300   0.624   2.352  0.3432  0.5397 -0.6667
 8393SOL    HW136815   2.242   0.548   2.347  1.0013  0.0138 -0.1066
 8393SOL    HW236816   2.239   0.698   2.352  0.9670  1.0506 -0.6772
 8394SOL     OW36817   4.466   1.243   6.400 -0.2806 -0.2036  0.2957
 8394SOL    HW136818   4.374   1.269   6.403 -0.4055 -0.5514 -0.4192
 8394SOL    HW236819   4.494   1.255   6.491 -0.0379  2.3395 -0.1063
 8395SOL     OW36820   1.359   1.981   4.975 -0.5785 -0.3522 -0.0769
 8395SOL    HW136821   1.333   2.029   5.054 -0.3746 -1.5023  0.6797
 8395SOL    HW236822   1.453   2.000   4.974 -0.5691 -0.4253 -0.6621
 8396SOL     OW36823   1.662   1.596  10.899  0.6553  0.4461  0.1129
 8396SOL    HW136824   1.602   1.651  10.849 -1.5119 -0.9572  1.1360
 8396SOL    HW236825   1.741   1.620  10.852  0.5831 -1.3555 -0.9360
 8397SOL     OW36826   0.879   3.693   8.446  0.0264 -0.0069  0.3321
 8397SOL    HW136827   0.937   3.758   8.407  1.0809 -0.6087  0.8826
 8397SOL    HW236828   0.924   3.659   8.524 -0.9066 -0.1083  0.8314
 8398SOL     OW36829   3.182   1.799   5.671  0.2345 -0.3276  0.1746
 8398SOL    HW136830   3.131   1.720   5.659 -0.9551  0.3512  0.8258
 8398SOL    HW236831   3.119   1.854   5.717  0.8662 -0.9029  1.7279
 8399SOL     OW36832   1.018   1.120   7.695  0.1104  0.1974 -0.3432
 8399SOL    HW136833   1.086   1.053   7.686  0.8303  1.0621 -1.3080
 8399SOL    HW236834   1.044   1.154   7.780 -2.6708  3.0325 -0.6187
 8400SOL     OW36835   2.115   3.825   6.601  0.1459  0.5996 -0.3882
 8400SOL    HW136836   2.179   3.894   6.583 -0.2491  0.7365 -1.2911
 8400SOL    HW236837   2.174   3.773   6.654  0.0501  0.0389 -0.8342
 8401SOL     OW36838   2.926   1.599   7.349  0.5028  0.1482  0.3659
 8401SOL    HW136839   2.929   1.513   7.392 -0.9852 -0.1066 -0.0455
 8401SOL    HW236840   3.016   1.623   7.371 -0.4408  1.0887  3.1929
 8402SOL     OW36841   4.344   3.860   1.892 -0.4797 -0.2099 -0.2409
 8402SOL    HW136842   4.405   3.927   1.861 -2.0782  0.5438 -1.7422
 8402SOL    HW236843   4.325   3.828   1.804 -1.8220  0.5959 -0.2400
 8403SOL     OW36844   4.100   0.256   8.720  0.4333  0.4535  0.2963
 8403SOL    HW136845   4.015   0.282   8.755  0.6163 -2.2481  2.7203
 8403SOL    HW236846   4.152   0.232   8.796  1.3741 -2.4011 -1.2437
 8404SOL     OW36847   1.450   4.201   2.740  0.4469  0.2255  0.1304
 8404SOL    HW136848   1.374   4.257   2.729 -1.5939 -2.3917  1.0237
 8404SOL    HW236849   1.510   4.236   2.674  0.8578  0.5128  0.6516
 8405SOL     OW36850   2.756   0.590   4.632 -0.1066 -0.0044 -0.1804
 8405SOL    HW136851   2.757   0.679   4.597  0.9520  0.3294  0.6874
 8405SOL    HW236852   2.722   0.547   4.553 -0.9380  1.3129 -0.5335
 8406SOL     OW36853   4.191   4.403  10.116  0.2334 -0.8059 -0.3343
 8406SOL    HW136854   4.221   4.383  10.027 -2.8221 -0.1121 -1.5332
 8406SOL    HW236855   4.135   4.326  10.118 -0.9620  0.1730  3.0250
 8407SOL     OW36856   1.414   3.900   4.429  0.3492  0.6705  0.0502
 8407SOL    HW136857   1.372   3.923   4.346 -0.3266 -0.2972  0.1259
 8407SOL    HW236858   1.411   3.808   4.402  1.4182  1.0683 -1.3863
 8408SOL     OW36859   0.943   2.171   3.828 -0.0441 -0.0123 -0.0151
 8408SOL    HW136860   0.917   2.081   3.807  0.2020 -0.2649  0.7447
 8408SOL    HW236861   0.978   2.185   3.740  1.0712 -1.6338  0.1636
 8409SOL     OW36862   4.106   1.530   4.810  0.4900  0.1887  0.6103
 8409SOL    HW136863   4.038   1.466   4.788  3.8712 -2.8946 -1.0160
 8409SOL    HW236864   4.113   1.576   4.726 -1.6063  2.4503  1.6886
 8410SOL     OW36865   0.754   2.717   0.079  0.0091 -0.4969  0.1243
 8410SOL    HW136866   0.803   2.744   0.157 -0.0411  2.9728 -1.0186
 8410SOL    HW236867   0.683   2.667   0.119 -0.6743  1.3029  1.1624
 8411SOL     OW36868   1.962   1.831  12.105 -0.3237 -0.4014 -0.0107
 8411SOL    HW136869   1.946   1.870  12.191 -0.5318  0.3413 -0.3830
 8411SOL    HW236870   1.981   1.747  12.146 -3.4540 -0.8146  0.6279
 8412SOL     OW36871   2.320   4.644   4.854 -0.3639 -0.0314 -0.0727
 8412SOL    HW136872   2.237   4.657   4.898  0.1041  0.5066  0.6577
 8412SOL    HW236873   2.379   4.696   4.909 -0.1660  0.8472 -1.1018
 8413SOL     OW36874   3.977   0.266  15.738  0.3644 -0.4667 -0.5163
 8413SOL    HW136875   4.014   0.189  15.782  0.3907 -1.4350 -2.2714
 8413SOL    HW236876   3.993   0.334  15.804 -0.1938 -2.2492  1.4909
 8414SOL     OW36877   1.998   4.398  10.213  0.1933 -0.0053 -0.4023
 8414SOL    HW136878   2.025   4.456  10.285 -0.4072  0.7349 -0.7714
 8414SOL    HW236879   1.908   4.427  10.197  0.9218  1.3463 -2.0845
 8415SOL     OW36880   3.451   0.712   4.941  0.0842 -0.0074  0.3651
 8415SOL    HW136881   3.400   0.761   5.006 -0.3223  0.5840 -0.4031
 8415SOL    HW236882   3.526   0.692   4.998  1.2921 -1.9756 -1.8995
 8416SOL     OW36883   0.158   1.661   3.200  0.3685 -0.9326 -0.6118
 8416SOL    HW136884   0.160   1.664   3.296 -3.0272 -2.3310 -0.4851
 8416SOL    HW236885   0.123   1.742   3.164  1.3924 -1.1539 -2.1148
 8417SOL     OW36886   0.109   3.147   8.105 -0.8742 -0.2076 -0.5187
 8417SOL    HW136887   0.061   3.224   8.137  0.6189 -0.2652  1.8127
 8417SOL    HW236888   0.133   3.190   8.023  1.3915 -2.4637 -1.0059
 8418SOL     OW36889   2.496   3.898   5.196  0.8968  0.1284  0.7406
 8418SOL    HW136890   2.559   3.903   5.125 -0.0784  0.6426 -0.0956
 8418SOL    HW236891   2.420   3.874   5.144  0.7323  1.7382  0.2413
 8419SOL     OW36892   2.166   2.759  11.969 -0.0740 -0.1670  0.1506
 8419SOL    HW136893   2.074   2.736  11.951  0.2255 -1.4108  0.2450
 8419SOL    HW236894   2.155   2.841  12.018  0.4469  0.8253 -1.3858
 8420SOL     OW36895   3.235   3.699   1.008 -0.0155  0.3649  0.0962
 8420SOL    HW136896   3.153   3.743   1.031 -1.0345 -1.5455  0.1631
 8420SOL    HW236897   3.265   3.676   1.096  1.1938 -0.8170 -0.6192
 8421SOL     OW36898   4.018   0.077  17.707 -0.0374  0.1675 -0.1114
 8421SOL    HW136899   4.083   0.076   0.033 -0.4376 -3.3148  0.2263
 8421SOL    HW236900   3.986   4.723  17.704  1.6328 -0.4481  0.8908
 8422SOL     OW36901   2.357   3.192   8.713 -0.6055  0.3117 -0.4443
 8422SOL    HW136902   2.442   3.176   8.753 -0.2032 -1.3615 -1.9535
 8422SOL    HW236903   2.384   3.224   8.627 -1.4069 -0.1192 -0.8544
 8423SOL     OW36904   1.731   0.629   3.886 -0.1057 -0.6090 -0.5533
 8423SOL    HW136905   1.782   0.549   3.889  0.0730 -0.4596  0.3934
 8423SOL    HW236906   1.687   0.624   3.801  1.0489  0.5643 -1.2195
 8424SOL     OW36907   2.215   2.207   4.652  0.2605  0.0438 -0.1128
 8424SOL    HW136908   2.176   2.128   4.689 -0.6814  1.1820  1.3422
 8424SOL    HW236909   2.140   2.239   4.602  0.6425 -0.3256 -0.9160
 8425SOL     OW36910   1.512   3.286   4.097  0.2444 -0.1618  0.0850
 8425SOL    HW136911   1.468   3.326   4.172 -4.5685 -1.1574 -2.2154
 8425SOL    HW236912   1.479   3.196   4.103 -0.4838  0.1451  0.6595
 8426SOL     OW36913   3.777   1.274   6.278 -0.3661  0.6995 -0.0670
 8426SOL    HW136914   3.759   1.270   6.184  3.2898  0.7394 -0.7504
 8426SOL    HW236915   3.835   1.349   6.290  1.2770 -0.5080 -0.4206
 8427SOL     OW36916   2.608   0.902   2.918  0.6808 -0.3478  0.6640
 8427SOL    HW136917   2.587   0.846   2.993 -0.6086 -1.4281 -0.5095
 8427SOL    HW236918   2.697   0.870   2.903  0.4652 -0.9950  0.7660
 8428SOL     OW36919   2.128   4.335  16.894  0.2908  0.2205  0.4965
 8428SOL    HW136920   2.075   4.374  16.824 -0.2912  0.3775  1.0212
 8428SOL    HW236921   2.212   4.380  16.891  0.5415 -0.4027 -1.6660
 8429SOL     OW36922   0.278   3.020   4.418  0.0606  0.2787 -0.5058
 8429SOL    HW136923   0.281   2.967   4.498  0.0307  1.4409  0.2709
 8429SOL    HW236924   0.193   2.986   4.389 -0.7217  0.9054  1.0012
 8430SOL     OW36925   2.667   2.349  11.300 -0.4767 -0.0392  0.3935
 8430SOL    HW136926   2.714   2.408  11.241 -2.0765 -1.2470 -2.0598
 8430SOL    HW236927   2.738   2.341  11.364 -1.3168  2.2497  1.6002
 8431SOL     OW36928   2.280   0.149   9.148 -0.3776 -0.0275 -0.2037
 8431SOL    HW136929   2.240   0.217   9.202 -1.2101  0.5843 -1.6088
 8431SOL    HW236930   2.247   0.188   9.067  0.0367 -0.4189 -0.5617
 8432SOL     OW36931   0.326   3.801   2.004 -0.3492 -0.1059 -0.1786
 8432SOL    HW136932   0.390   3.828   1.938 -2.2084  0.8505 -1.5908
 8432SOL    HW236933   0.259   3.774   1.940  0.7898 -1.4192 -0.8056
 8433SOL     OW36934   1.517   2.913  12.230  0.5614  1.1011 -0.2526
 8433SOL    HW136935   1.562   2.829  12.220  0.0017  0.8377 -0.5443
 8433SOL    HW236936   1.437   2.899  12.281 -0.5452  3.3628 -1.3648
 8434SOL     OW36937   2.311   3.575   0.117 -0.4252  0.1287 -0.5859
 8434SOL    HW136938   2.251   3.637   0.076 -2.1523  0.6022  2.6250
 8434SOL    HW236939   2.387   3.579   0.059 -0.4238  1.4694 -0.4799
 8435SOL     OW36940   2.097   0.508   3.656 -0.2430  0.3534 -0.2160
 8435SOL    HW136941   2.165   0.574   3.646  1.2784 -1.1337  0.4631
 8435SOL    HW236942   2.143   0.429   3.685  2.4026  1.6758 -0.8652
 8436SOL     OW36943   0.038   0.803  13.929  0.3067  0.1191 -0.2713
 8436SOL    HW136944   0.102   0.770  13.865  0.8259  0.4401  0.0869
 8436SOL    HW236945   0.032   0.892  13.896  2.4264  1.3121  2.6061
 8437SOL     OW36946   2.499   3.806   7.385  0.0670 -0.3318 -0.2349
 8437SOL    HW136947   2.468   3.813   7.475  1.4319  2.3003  0.0373
 8437SOL    HW236948   2.419   3.789   7.336  0.4436 -2.1079 -0.2076
 8438SOL     OW36949   1.748   0.091  10.048  0.3815 -0.3752  0.1526
 8438SOL    HW136950   1.836   0.059  10.030  0.3872  0.3318 -1.0892
 8438SOL    HW236951   1.746   0.083  10.143  1.1165  0.5152  0.2489
 8439SOL     OW36952   4.341   3.648   7.638  0.3660  0.3713  0.2518
 8439SOL    HW136953   4.341   3.727   7.692 -0.7304  0.2859  0.3836
 8439SOL    HW236954   4.340   3.681   7.549 -0.2003  2.6053  1.0855
 8440SOL     OW36955   0.990   4.708   1.106  0.1955  0.2799  0.4511
 8440SOL    HW136956   0.922   4.640   1.113  0.4311  0.2065  2.0328
 8440SOL    HW236957   0.952   0.029   1.039  1.4641 -2.3197 -2.4795
 8441SOL     OW36958   1.680   1.264   5.031  0.4309  0.1499 -0.2263
 8441SOL    HW136959   1.654   1.280   4.940  0.6173  0.1230 -0.2847
 8441SOL    HW236960   1.673   1.355   5.060 -0.1216  0.1076 -0.2223
 8442SOL     OW36961   2.645   3.053   2.032 -0.4387  0.4103 -0.5776
 8442SOL    HW136962   2.693   3.035   1.950 -0.7389  2.1046 -1.1240
 8442SOL    HW236963   2.692   3.131   2.063 -0.4996  0.7214 -1.2515
 8443SOL     OW36964   2.920   3.212   6.558  0.4947  0.0406  0.3698
 8443SOL    HW136965   2.886   3.299   6.580  0.0153 -0.6172  2.1803
 8443SOL    HW236966   2.904   3.175   6.645 -0.0741 -0.1012  0.2081
 8444SOL     OW36967   0.704   1.116   0.880 -0.0893  0.5405 -0.3055
 8444SOL    HW136968   0.683   1.197   0.833  0.2563  1.2719  0.8075
 8444SOL    HW236969   0.716   1.066   0.799 -0.1615  0.6470 -0.3832
 8445SOL     OW36970   3.479   3.221   7.624 -0.1611  0.5554  0.2297
 8445SOL    HW136971   3.437   3.285   7.682 -4.0809 -2.5090  0.7561
 8445SOL    HW236972   3.464   3.137   7.667  0.9421  0.8903  1.2855
 8446SOL     OW36973   0.897   4.134   6.671 -0.1258 -0.2533  0.4574
 8446SOL    HW136974   0.921   4.049   6.708 -0.4721 -1.1190 -1.2823
 8446SOL    HW236975   0.977   4.183   6.692  1.9971 -3.3639 -0.3611
 8447SOL     OW36976   4.228   2.305  14.664 -0.6174 -0.0819  0.1437
 8447SOL    HW136977   4.180   2.341  14.590 -0.2117  1.8513  0.8177
 8447SOL    HW236978   4.283   2.240  14.621 -0.6385  0.0371 -0.0608
 8448SOL     OW36979   1.883   4.368   7.535  0.0021 -0.2781  0.1570
 8448SOL    HW136980   1.900   4.365   7.441 -0.8667 -0.5071  0.0078
 8448SOL    HW236981   1.965   4.410   7.557 -0.1623  0.8072 -1.2845
 8449SOL     OW36982   3.254   2.187   2.622 -0.1912 -0.5872 -0.3350
 8449SOL    HW136983   3.233   2.279   2.611 -0.6080 -0.6991 -0.4742
 8449SOL    HW236984   3.350   2.183   2.629  0.0023  0.0840 -2.6251
 8450SOL     OW36985   2.597   4.500   1.809 -0.1793 -0.5338  0.4020
 8450SOL    HW136986   2.600   4.417   1.856  0.0468 -0.1836  1.0024
 8450SOL    HW236987   2.520   4.490   1.753 -0.4826  0.8962  0.5662
 8451SOL     OW36988   4.732   4.614   3.229  0.0527 -0.1963 -0.4196
 8451SOL    HW136989   4.663   4.635   3.167  0.0782 -1.1312 -0.7672
 8451SOL    HW236990   4.678   4.589   3.303 -0.1661  1.5289  0.0125
 8452SOL     OW36991   0.861   0.477   1.835 -0.0277 -0.1433 -0.0383
 8452SOL    HW136992   0.795   0.429   1.785  1.2888 -3.1705  1.1026
 8452SOL    HW236993   0.817   0.554   1.871 -1.0334 -0.3053 -0.9570
 8453SOL     OW36994   3.674   2.681   3.143  0.2353  0.1707  0.3758
 8453SOL    HW136995   3.695   2.773   3.160  2.0122 -0.6508  2.7163
 8453SOL    HW236996   3.762   2.651   3.169  1.2418  2.7784 -0.0100
 8454SOL     OW36997   1.435   1.747   4.309  0.1877 -0.2867  0.0078
 8454SOL    HW136998   1.480   1.826   4.278 -0.2196 -0.3308 -0.6986
 8454SOL    HW236999   1.501   1.699   4.359  1.8852  0.3755 -1.5948
 8455SOL     OW37000   2.650   4.729   6.482  0.2700 -0.1419 -0.3729
 8455SOL    HW137001   2.582   0.058   6.496  0.4932  0.2134 -0.9555
 8455SOL    HW237002   2.680   0.003   6.392  0.1322  0.1531 -0.3843
 8456SOL     OW37003   0.810   0.987   9.108 -0.4614  1.0486 -0.5340
 8456SOL    HW137004   0.886   1.037   9.078  0.3498 -0.1018 -0.4292
 8456SOL    HW237005   0.748   1.005   9.038 -0.7003  1.4272 -0.2214
 8457SOL     OW37006   1.787   1.620   6.459 -0.3203  0.4371 -0.0364
 8457SOL    HW137007   1.691   1.619   6.453 -0.3366  0.2707  0.3080
 8457SOL    HW237008   1.812   1.671   6.382  0.6766  2.8471  1.8696
 8458SOL     OW37009   3.528   1.678  10.298 -0.2806  0.4001 -0.3996
 8458SOL    HW137010   3.587   1.634  10.237  0.3997  0.3838  0.2676
 8458SOL    HW237011   3.462   1.611  10.312  1.2092 -0.6766  1.5439
 8459SOL     OW37012   0.473   0.462   7.499  0.3733  0.3308 -0.1186
 8459SOL    HW137013   0.449   0.371   7.482 -0.2007  0.9152 -2.3298
 8459SOL    HW237014   0.529   0.449   7.576 -0.8883 -2.7724  0.2716
 8460SOL     OW37015   1.975   0.929   4.222 -0.3637 -0.1046 -0.1736
 8460SOL    HW137016   1.911   0.899   4.158 -2.4063 -2.4019  2.9548
 8460SOL    HW237017   2.059   0.909   4.181 -0.0885  0.5826  0.0521
 8461SOL     OW37018   0.078   0.830   2.118 -0.0836  0.6159 -0.2751
 8461SOL    HW137019   0.117   0.837   2.205  3.1744 -0.7657 -1.6052
 8461SOL    HW237020   0.151   0.861   2.066 -0.6513  1.4259 -0.5868
 8462SOL     OW37021   0.456   1.204   1.206 -0.7274 -0.1282  0.1350
 8462SOL    HW137022   0.533   1.250   1.240  0.2790 -3.1512  1.9788
 8462SOL    HW237023   0.505   1.152   1.143 -1.5489  1.6165 -1.9309
 8463SOL     OW37024   4.290   0.360  15.008 -0.2674  0.2072 -0.2328
 8463SOL    HW137025   4.249   0.347  15.094  0.2883  0.7633  0.1166
 8463SOL    HW237026   4.225   0.332  14.943  0.6675 -0.1991 -0.9903
 8464SOL     OW37027   0.762   2.129   4.242 -0.3018  0.4898  0.0987
 8464SOL    HW137028   0.844   2.156   4.201  0.5995  0.0494  1.6122
 8464SOL    HW237029   0.697   2.178   4.191  0.3208  0.2464 -0.9358
 8465SOL     OW37030   3.319   2.197   6.897  0.1724  0.0851 -0.0557
 8465SOL    HW137031   3.278   2.259   6.958 -0.7763  1.0690 -1.6818
 8465SOL    HW237032   3.245   2.197   6.836 -1.0828  0.4259  1.4749
 8466SOL     OW37033   1.531   2.929   9.273  0.4989  0.4249 -0.4642
 8466SOL    HW137034   1.451   2.967   9.308  1.3571  0.6502  1.2393
 8466SOL    HW237035   1.559   3.006   9.222 -3.1559  1.1999 -1.3381
 8467SOL     OW37036   1.296   2.968   0.634 -0.2103  0.2386  1.2118
 8467SOL    HW137037   1.236   2.913   0.684  0.3380  0.1028  1.7335
 8467SOL    HW237038   1.375   2.918   0.657 -0.4564 -0.2155  1.0745
 8468SOL     OW37039   2.974   1.034   9.220 -0.1148  0.2934 -0.0880
 8468SOL    HW137040   3.033   1.061   9.290 -0.8383  2.9063 -0.4635
 8468SOL    HW237041   2.980   0.940   9.236 -1.4036 -0.0357 -1.5230
 8469SOL     OW37042   0.101   0.439   7.942  0.0547  0.2031 -0.3177
 8469SOL    HW137043   0.100   0.419   8.036  0.9187  0.6127 -0.2173
 8469SOL    HW237044   0.195   0.456   7.934  0.0740 -0.5836 -1.5522
 8470SOL     OW37045   0.695   2.017   6.901 -0.2220 -0.5249  0.4476
 8470SOL    HW137046   0.789   2.002   6.913  0.2936  1.6314 -0.7918
 8470SOL    HW237047   0.694   2.110   6.924  2.5688  0.1607 -2.2004
 8471SOL     OW37048   1.456   1.446   8.100 -0.3551  0.0901  0.4413
 8471SOL    HW137049   1.398   1.417   8.030 -0.1203  4.5095 -1.5902
 8471SOL    HW237050   1.442   1.378   8.166 -2.1553  0.7554  0.7349
 8472SOL     OW37051   1.669   3.416   1.860  0.2612 -0.2379 -0.3108
 8472SOL    HW137052   1.654   3.368   1.779 -0.3072 -0.9779  0.2201
 8472SOL    HW237053   1.644   3.346   1.921 -0.2953  0.0638 -0.1942
 8473SOL     OW37054   2.703   0.724   3.152 -0.8008  0.1921 -0.3798
 8473SOL    HW137055   2.791   0.744   3.184  0.2284 -0.8342 -2.5928
 8473SOL    HW237056   2.728   0.670   3.077  2.2805  0.4926  0.4623
 8474SOL     OW37057   2.347   3.260   5.759  0.2371 -1.1277  0.2095
 8474SOL    HW137058   2.343   3.190   5.824  0.9252 -0.0893  1.3782
 8474SOL    HW237059   2.441   3.252   5.739  0.3382 -1.4773  0.8286
 8475SOL     OW37060   1.402   2.697  16.480 -0.0674  0.2766 -0.0437
 8475SOL    HW137061   1.417   2.774  16.535  1.3486 -0.8838  1.2155
 8475SOL    HW237062   1.476   2.643  16.507  0.1029 -0.3755 -1.8083
 8476SOL     OW37063   0.769   4.238   6.151 -0.1569  0.4823 -0.1445
 8476SOL    HW137064   0.757   4.144   6.138  2.7402  0.3927 -2.1858
 8476SOL    HW237065   0.805   4.235   6.240 -1.2085  0.8964  0.2979
 8477SOL     OW37066   3.066   4.178   7.455 -0.1549 -0.4282 -0.2515
 8477SOL    HW137067   3.072   4.264   7.413  3.1317  0.8056  2.7409
 8477SOL    HW237068   3.134   4.170   7.522 -0.2049 -0.0008 -0.1465
 8478SOL     OW37069   1.123   4.503   7.315 -0.0852 -0.2781  0.1669
 8478SOL    HW137070   1.028   4.510   7.325  0.0501  1.6294  0.0724
 8478SOL    HW237071   1.142   4.596   7.316 -1.5587  0.0191  2.0849
 8479SOL     OW37072   4.673   3.838  16.393  0.0527  0.0355  0.0211
 8479SOL    HW137073   4.668   3.860  16.300  0.1128 -0.7036 -0.1558
 8479SOL    HW237074   0.033   3.832  16.394  0.0055 -0.7713 -1.0475
 8480SOL     OW37075   0.124   4.535   9.191  0.0199 -0.0360  0.6357
 8480SOL    HW137076   0.052   4.563   9.134  0.1678  1.5489  1.2462
 8480SOL    HW237077   0.203   4.578   9.159  0.4442 -1.3712 -0.1015
 8481SOL     OW37078   0.640   4.031   5.453  0.0653  0.9252 -0.1347
 8481SOL    HW137079   0.553   4.058   5.484  0.9561  1.6323  1.7377
 8481SOL    HW237080   0.691   4.107   5.481 -1.2495  1.4928  0.7438
 8482SOL     OW37081   0.530   3.262   7.828  0.9472  0.6940 -0.3863
 8482SOL    HW137082   0.557   3.353   7.811  1.3256  0.3139 -1.8106
 8482SOL    HW237083   0.599   3.227   7.884  0.7977 -2.3398 -2.1031
 8483SOL     OW37084   4.413   0.136  16.042  0.3083 -0.1734  0.1843
 8483SOL    HW137085   4.461   0.142  16.125 -2.2105 -2.9996  1.8631
 8483SOL    HW237086   4.343   0.072  16.059  0.2037 -0.2526 -0.5316
 8484SOL     OW37087   3.497   1.669   4.155 -0.1419  0.3770  0.1461
 8484SOL    HW137088   3.566   1.670   4.221  0.5039  2.0152 -0.5588
 8484SOL    HW237089   3.450   1.587   4.171  0.8940 -0.3187 -0.4070
 8485SOL     OW37090   2.483   1.516   0.373  0.2371 -0.4328 -0.9166
 8485SOL    HW137091   2.432   1.502   0.453  1.5917 -0.4775 -0.0667
 8485SOL    HW237092   2.538   1.438   0.372 -1.4232 -1.6240  1.1349
 8486SOL     OW37093   1.848   1.527   3.109  0.5512 -0.1198 -0.1429
 8486SOL    HW137094   1.821   1.576   3.032 -0.0138 -0.9968 -0.5024
 8486SOL    HW237095   1.839   1.439   3.073 -2.1595  0.0563  0.1138
 8487SOL     OW37096   1.646   1.921   9.623  0.2049  0.4757 -0.3198
 8487SOL    HW137097   1.634   1.828   9.640  0.1129  0.4895 -0.3063
 8487SOL    HW237098   1.700   1.916   9.545 -0.3287  1.1893 -0.7324
 8488SOL     OW37099   1.343   2.596   1.063  0.6042  0.1603 -0.2756
 8488SOL    HW137100   1.272   2.558   1.116  0.8140  1.9176  1.2721
 8488SOL    HW237101   1.401   2.619   1.136  0.9893  0.3233 -0.6388
 8489SOL     OW37102   2.750   0.555  16.016 -0.1881  0.2183  0.2340
 8489SOL    HW137103   2.788   0.626  15.964  2.0241 -2.1206 -1.3290
 8489SOL    HW237104   2.757   0.573  16.109 -0.2609  0.9133  0.1054
 8490SOL     OW37105   0.739   4.328   2.249  0.1294  0.7130 -0.4764
 8490SOL    HW137106   0.751   4.422   2.240  0.5030  0.6325 -0.8171
 8490SOL    HW237107   0.649   4.325   2.282 -0.2819 -0.0155 -1.6488
 8491SOL     OW37108   1.639   3.633   5.054 -0.0414 -0.6471 -0.3243
 8491SOL    HW137109   1.667   3.563   5.112  0.6382 -0.3252 -0.2637
 8491SOL    HW237110   1.569   3.589   5.005  1.5058 -2.9080 -0.5050
 8492SOL     OW37111   0.666   3.337   4.014  0.0800  0.2196  0.7755
 8492SOL    HW137112   0.674   3.430   3.990 -1.7951  1.1204  3.6774
 8492SOL    HW237113   0.674   3.341   4.109  0.5008 -0.6368  0.7764
 8493SOL     OW37114   0.065   0.635   3.087 -0.2567 -0.1229  0.4794
 8493SOL    HW137115   0.108   0.550   3.096 -1.7577 -0.9419 -0.0508
 8493SOL    HW237116   0.054   0.633   2.992  1.2856  0.7492  0.2816
 8494SOL     OW37117   3.591   2.435   7.437 -0.2169  0.0659 -0.3975
 8494SOL    HW137118   3.577   2.363   7.498  2.0365 -0.1527 -0.1376
 8494SOL    HW237119   3.566   2.516   7.482 -1.5870 -1.0187  0.8152
 8495SOL     OW37120   1.214   4.546  16.705 -0.6938  0.1858  0.8119
 8495SOL    HW137121   1.151   4.616  16.691  0.8595  1.3666 -0.2301
 8495SOL    HW237122   1.167   4.471  16.668 -0.2283  0.5091 -0.4525
 8496SOL     OW37123   4.134   1.538   0.757  0.1807  0.3508 -0.1745
 8496SOL    HW137124   4.087   1.603   0.704 -1.3266 -0.3490  0.3062
 8496SOL    HW237125   4.127   1.586   0.840 -2.4171 -0.0897 -0.1274
 8497SOL     OW37126   0.085   3.720   7.077 -0.1541  0.2425  0.4141
 8497SOL    HW137127   4.729   3.701   7.099 -0.1990  1.3878  1.2330
 8497SOL    HW237128   0.126   3.667   7.145 -1.1274  0.0489  0.8613
 8498SOL     OW37129   4.096   1.910   4.669 -0.0339 -0.5869  0.6751
 8498SOL    HW137130   4.001   1.916   4.679 -0.0655 -1.7240  1.1351
 8498SOL    HW237131   4.095   1.889   4.576 -1.4849  4.4961 -0.4210
 8499SOL     OW37132   2.996   1.420   6.124 -0.2733  0.1623  0.4616
 8499SOL    HW137133   3.072   1.463   6.086 -0.4973  2.0079  2.1038
 8499SOL    HW237134   2.948   1.498   6.152  0.6031  0.9371 -0.2288
 8500SOL     OW37135   3.716   2.935   5.071  0.1161  0.3014  0.0146
 8500SOL    HW137136   3.728   2.840   5.074 -0.7930  0.2303  1.2146
 8500SOL    HW237137   3.640   2.947   5.127 -0.0885  0.2810 -0.2568
 8501SOL     OW37138   2.891   4.630   7.499  0.0648 -0.3639 -0.5667
 8501SOL    HW137139   2.864   4.544   7.466  1.7820 -0.6421 -1.2735
 8501SOL    HW237140   2.907   4.673   7.415  1.1960  0.2074 -0.0632
 8502SOL     OW37141   3.743   0.971  17.632  0.2483 -0.2715 -0.5505
 8502SOL    HW137142   3.688   1.048  17.625  1.3772  0.5472 -0.4008
 8502SOL    HW237143   3.687   0.922  17.571 -1.2396 -0.2154  0.7566
 8503SOL     OW37144   2.639   2.772   8.244 -0.5652 -0.0735 -0.0408
 8503SOL    HW137145   2.624   2.689   8.290  0.3737 -0.0557  0.3055
 8503SOL    HW237146   2.624   2.825   8.323  0.1521  0.9561 -0.5910
 8504SOL     OW37147   0.844   3.157   3.999 -0.9578  0.0539 -0.2598
 8504SOL    HW137148   0.759   3.198   4.013 -0.5782  0.9810 -0.6271
 8504SOL    HW237149   0.838   3.149   3.904  1.8597  0.4681 -0.4977
 8505SOL     OW37150   0.169   0.275   4.293  0.7970  0.2484 -0.1840
 8505SOL    HW137151   0.107   0.345   4.316 -0.4832 -0.1342 -2.4146
 8505SOL    HW237152   0.158   0.216   4.368 -2.1717  3.3165  1.8209
 8506SOL     OW37153   0.472   3.914  12.672  0.0632 -0.5583  0.5994
 8506SOL    HW137154   0.489   3.827  12.637 -4.2742 -0.7777 -0.9571
 8506SOL    HW237155   0.480   3.906  12.767  0.8984 -0.5364  0.5344
 8507SOL     OW37156   2.559   4.362   9.470  0.4796  0.2622 -0.5222
 8507SOL    HW137157   2.490   4.404   9.419 -0.9422 -1.1615  0.2451
 8507SOL    HW237158   2.580   4.293   9.407  3.7775 -0.1696  1.0052
 8508SOL     OW37159   1.899   1.911  12.347  0.1303 -0.2769 -0.2432
 8508SOL    HW137160   1.888   1.992  12.396 -1.1025 -0.5206 -0.1074
 8508SOL    HW237161   1.926   1.859  12.423 -0.8248  0.6407  0.7205
 8509SOL     OW37162   1.672   3.163   6.498 -0.0566 -0.2282 -0.0335
 8509SOL    HW137163   1.670   3.244   6.549  0.1511  0.1382 -0.5939
 8509SOL    HW237164   1.745   3.122   6.543  2.5208  0.8602 -3.2831
 8510SOL     OW37165   1.330   0.959  16.637  0.2028 -0.0864  0.1604
 8510SOL    HW137166   1.416   0.948  16.596 -0.3980  2.4300 -1.7844
 8510SOL    HW237167   1.275   0.955  16.558 -3.2898  0.2629  2.5814
 8511SOL     OW37168   0.061   0.052   8.235 -0.3486 -0.1187 -0.3317
 8511SOL    HW137169   0.040   0.049   8.142  0.4043  3.2654 -0.6057
 8511SOL    HW237170   0.001   4.722   8.270 -0.7993 -0.3636 -1.5727
 8512SOL     OW37171   2.877   3.060   3.629 -0.0648 -0.4386 -0.1560
 8512SOL    HW137172   2.896   2.976   3.588 -0.0090 -0.3511 -0.3073
 8512SOL    HW237173   2.958   3.108   3.614 -0.8363  1.0716  0.5212
 8513SOL     OW37174   4.064   2.839   2.696  0.0096 -0.8017  0.5455
 8513SOL    HW137175   4.086   2.748   2.674  2.0256 -0.0234 -0.5866
 8513SOL    HW237176   4.135   2.851   2.759 -1.0229 -0.1257  1.5961
 8514SOL     OW37177   1.781   1.966   8.710 -0.3102  0.1332 -0.1821
 8514SOL    HW137178   1.796   2.057   8.684  2.7155 -1.2141 -3.2293
 8514SOL    HW237179   1.716   1.942   8.644 -1.5144  1.2231  0.6086
 8515SOL     OW37180   0.986   1.180   6.475 -0.1527  0.3811  0.1265
 8515SOL    HW137181   1.021   1.264   6.505  0.3992 -0.3993  1.6902
 8515SOL    HW237182   0.943   1.202   6.392 -1.2835 -1.8581  0.1209
 8516SOL     OW37183   1.182   0.302   4.028  0.4602 -0.3634 -0.4275
 8516SOL    HW137184   1.181   0.282   4.122  1.5468  3.6999  0.4314
 8516SOL    HW237185   1.276   0.317   4.020  0.1020  1.1075 -1.7716
 8517SOL     OW37186   0.674   3.807   4.580 -0.1038  0.0490  0.0997
 8517SOL    HW137187   0.612   3.876   4.557  0.0115  0.3919  0.8240
 8517SOL    HW237188   0.725   3.857   4.643 -2.5588 -0.0305  2.1537
 8518SOL     OW37189   0.296   3.621   3.203 -0.5195  0.5367 -0.1169
 8518SOL    HW137190   0.259   3.668   3.278 -0.5686  1.6487 -0.8430
 8518SOL    HW237191   0.328   3.703   3.165  1.1466 -1.2437 -2.5153
 8519SOL     OW37192   4.241   2.556   8.782 -0.2770  0.0484  0.1591
 8519SOL    HW137193   4.257   2.486   8.719 -0.0434  1.6669 -1.6044
 8519SOL    HW237194   4.319   2.608   8.761  0.9228 -1.5651  0.6857
 8520SOL     OW37195   4.563   0.872  12.535  0.9592  0.0751  0.3014
 8520SOL    HW137196   4.468   0.862  12.524  0.6091  1.8861  1.6318
 8520SOL    HW237197   4.575   0.783  12.569 -0.1308  0.0035  0.5173
 8521SOL     OW37198   2.442   4.734  14.624  0.2646  0.2020 -0.4783
 8521SOL    HW137199   2.417   4.645  14.648  0.9327  0.2251  0.3030
 8521SOL    HW237200   2.442   4.728  14.529 -0.9913  0.9822 -0.5334
 8522SOL     OW37201   0.951   1.670   2.756 -0.2816  0.4662 -0.5261
 8522SOL    HW137202   1.009   1.631   2.821 -0.0763 -0.7396 -1.4188
 8522SOL    HW237203   1.013   1.707   2.694  0.8036 -3.0853 -1.5637
 8523SOL     OW37204   4.727   1.090  12.435 -0.2976  0.1755 -0.6329
 8523SOL    HW137205   4.672   1.017  12.464  0.6197 -0.8325 -1.4261
 8523SOL    HW237206   4.728   1.065  12.342  2.1202 -2.6027  0.1647
 8524SOL     OW37207   2.247   3.018   4.354  0.2873 -0.1367  0.4856
 8524SOL    HW137208   2.287   3.103   4.335  1.7684 -0.3278  2.6579
 8524SOL    HW237209   2.169   3.020   4.299  0.7648  3.6397 -0.0391
 8525SOL     OW37210   4.334   0.240   8.108  0.3516  0.1618 -0.0173
 8525SOL    HW137211   4.404   0.238   8.043 -0.9063  2.1590 -1.4437
 8525SOL    HW237212   4.375   0.265   8.191 -0.0880 -2.8064  1.1007
 8526SOL     OW37213   2.809   1.177   8.443 -0.5989 -0.1764  0.2605
 8526SOL    HW137214   2.780   1.179   8.534  0.3877  0.8441  0.5476
 8526SOL    HW237215   2.836   1.085   8.450  2.9682  0.8951  0.4918
 8527SOL     OW37216   1.958   3.739   1.908  0.1073  0.0573 -0.1818
 8527SOL    HW137217   2.042   3.763   1.949 -1.2014  1.4036  1.7608
 8527SOL    HW237218   1.967   3.770   1.818 -0.2366  2.3901  0.5757
 8528SOL     OW37219   0.510   4.184  12.592 -0.4094 -0.6972 -0.3296
 8528SOL    HW137220   0.489   4.092  12.607  0.6618 -0.6228  1.5893
 8528SOL    HW237221   0.532   4.205  12.682  0.2925  2.3732 -1.2284
 8529SOL     OW37222   3.237   0.737   1.032 -0.4012  0.2370 -0.3586
 8529SOL    HW137223   3.321   0.736   1.078 -0.8829 -1.6629  0.4876
 8529SOL    HW237224   3.260   0.689   0.952  1.8343 -0.5365  0.7433
 8530SOL     OW37225   1.441   0.416   5.527 -0.2196 -0.1439 -0.4711
 8530SOL    HW137226   1.443   0.379   5.438  3.2911  1.4854 -1.0652
 8530SOL    HW237227   1.509   0.362   5.569  0.2779  1.1856  0.4130
 8531SOL     OW37228   1.862   4.628   2.927 -0.2659 -0.7215 -0.1388
 8531SOL    HW137229   1.847   4.639   2.833  0.4859  0.7476 -0.0838
 8531SOL    HW237230   1.871   4.533   2.934  0.0195 -0.6240  0.8594
 8532SOL     OW37231   4.219   2.150   8.803 -0.1071  0.2897  0.1890
 8532SOL    HW137232   4.217   2.064   8.761 -0.8771 -0.4065  1.6681
 8532SOL    HW237233   4.315   2.157   8.809 -0.0059 -0.1841 -0.9026
 8533SOL     OW37234   1.752   3.132   2.799  0.0803  0.2396 -0.0009
 8533SOL    HW137235   1.707   3.058   2.840 -0.0148 -0.2980 -1.0732
 8533SOL    HW237236   1.715   3.211   2.839  0.7564  0.5503  0.0119
 8534SOL     OW37237   4.584   4.304   6.804 -0.4069 -0.3068 -0.3821
 8534SOL    HW137238   4.650   4.241   6.775  0.2334 -0.6228  1.8252
 8534SOL    HW237239   4.643   4.357   6.857  0.2204 -1.6892  0.3034
 8535SOL     OW37240   1.033   3.965   0.773  0.4015 -0.2062 -0.0946
 8535SOL    HW137241   1.057   4.049   0.733 -1.6300 -0.4963 -1.8537
 8535SOL    HW237242   1.023   3.912   0.694 -0.9142 -1.4292  0.8899
 8536SOL     OW37243   1.858   1.378  12.890  0.2514  0.2228 -0.0861
 8536SOL    HW137244   1.825   1.354  12.977  2.2504 -1.8985  0.0824
 8536SOL    HW237245   1.914   1.302  12.882  0.2133  0.2981 -1.0451
 8537SOL     OW37246   1.279   4.447   6.771 -0.1185  0.1915 -0.1767
 8537SOL    HW137247   1.228   4.495   6.706  0.4284 -0.2747 -0.9617
 8537SOL    HW237248   1.218   4.374   6.778  1.5134 -1.2410 -0.9458
 8538SOL     OW37249   4.205   2.547   7.499  0.4224  0.1778 -0.3972
 8538SOL    HW137250   4.114   2.520   7.515 -0.2169  2.5360 -0.0442
 8538SOL    HW237251   4.229   2.490   7.426 -2.4187  0.2113 -1.3628
 8539SOL     OW37252   2.825   0.476   6.635  0.5594 -0.3930  0.1300
 8539SOL    HW137253   2.778   0.405   6.677  2.3335 -1.9790 -0.5443
 8539SOL    HW237254   2.813   0.444   6.546 -0.8220 -1.1401  0.5847
 8540SOL     OW37255   0.117   2.096   9.696  0.0457 -0.6529  0.5532
 8540SOL    HW137256   0.176   2.066   9.765  0.9944 -0.0732 -0.0145
 8540SOL    HW237257   0.039   2.042   9.711  1.8486 -3.4342  0.0223
 8541SOL     OW37258   0.542   4.136   7.576 -0.8108  0.2262 -0.0411
 8541SOL    HW137259   0.535   4.056   7.523  0.3637 -0.3621  0.6770
 8541SOL    HW237260   0.465   4.183   7.546 -1.0016  0.4571  0.8278
 8542SOL     OW37261   4.392   1.496  12.098 -0.5672  0.0742 -0.3276
 8542SOL    HW137262   4.405   1.573  12.042 -0.3287 -0.0546 -0.4473
 8542SOL    HW237263   4.320   1.448  12.057  1.8549 -2.4823 -1.5900
 8543SOL     OW37264   3.741   0.919   3.463 -0.3120  0.2279 -0.4254
 8543SOL    HW137265   3.758   1.013   3.468  1.3261 -0.3331  4.0212
 8543SOL    HW237266   3.744   0.879   3.550 -2.0773  0.9095 -0.0426
 8544SOL     OW37267   4.066   0.480  13.026 -0.2642  0.3907 -0.3397
 8544SOL    HW137268   4.133   0.477  12.958  1.4037  0.8888  1.2788
 8544SOL    HW237269   4.114   0.515  13.100 -0.1895  1.0289 -0.6921
 8545SOL     OW37270   4.672   4.619   4.522 -0.6389 -0.5484  0.2459
 8545SOL    HW137271   4.599   4.564   4.494 -1.9432 -0.5877  3.7281
 8545SOL    HW237272   4.673   4.606   4.616 -2.4676 -0.4760  0.2687
 8546SOL     OW37273   0.582   1.321   8.645  0.4042 -0.0409 -0.1464
 8546SOL    HW137274   0.535   1.402   8.627 -0.5599 -1.1463 -2.5323
 8546SOL    HW237275   0.620   1.353   8.727  0.7339  3.0949 -1.5321
 8547SOL     OW37276   3.800   0.577  17.636 -0.1077 -0.5568 -0.3984
 8547SOL    HW137277   3.887   0.596  17.672 -0.0512 -0.1672 -0.7371
 8547SOL    HW237278   3.822   0.545  17.549  1.5455 -1.0777  0.2131
 8548SOL     OW37279   2.342   0.047   1.754 -0.0693 -0.4812 -0.4479
 8548SOL    HW137280   2.331   4.732   1.674 -0.9164 -1.4397  0.2815
 8548SOL    HW237281   2.435   0.067   1.739 -0.2532  0.9754  0.3657
 8549SOL     OW37282   2.650   1.263   8.886 -0.5459 -0.1223  0.0099
 8549SOL    HW137283   2.677   1.355   8.886  1.9366 -0.8715 -4.0678
 8549SOL    HW237284   2.710   1.214   8.943 -0.3115  1.4213  1.1012
 8550SOL     OW37285   3.573   1.858   8.198  0.2816  0.2637 -0.1042
 8550SOL    HW137286   3.500   1.905   8.157  0.4579  0.3978 -0.2689
 8550SOL    HW237287   3.529   1.818   8.273 -1.2042  0.5839 -0.8011
 8551SOL     OW37288   2.855   1.970   8.111  0.6797 -0.2322 -0.2267
 8551SOL    HW137289   2.873   1.976   8.018  1.1358 -0.9293 -0.1846
 8551SOL    HW237290   2.774   1.921   8.122  2.6907 -3.1889  1.5079
 8552SOL     OW37291   3.924   3.966   3.345  0.7445  0.3000  0.0032
 8552SOL    HW137292   3.935   3.902   3.415  0.2480  1.4046  1.0949
 8552SOL    HW237293   3.867   3.921   3.283 -0.6439  1.5784  0.3627
 8553SOL     OW37294   0.581   1.919   2.827 -0.9954 -0.0395  0.1338
 8553SOL    HW137295   0.570   1.893   2.918  3.3690 -1.0798  0.3662
 8553SOL    HW237296   0.522   1.862   2.779 -0.0087 -0.9309 -0.0363
 8554SOL     OW37297   2.666   3.669  11.282  0.1193 -0.9351 -0.0863
 8554SOL    HW137298   2.600   3.730  11.315 -0.9017 -0.8734 -2.2578
 8554SOL    HW237299   2.739   3.726  11.257  0.6601 -0.2872  3.0412
 8555SOL     OW37300   0.815   2.017   2.396  0.3246 -0.1824  0.2173
 8555SOL    HW137301   0.773   1.940   2.434 -1.9062  0.4059 -1.0602
 8555SOL    HW237302   0.739   2.042   2.344  1.8453  0.7442 -1.5643
 8556SOL     OW37303   3.465   3.895   2.237 -0.1789 -0.5841  0.1849
 8556SOL    HW137304   3.386   3.949   2.227 -0.6587 -0.8215  2.6302
 8556SOL    HW237305   3.525   3.969   2.234 -2.1254  0.9749  0.0564
 8557SOL     OW37306   2.934   1.995  17.153  0.1513 -0.2960 -0.7720
 8557SOL    HW137307   2.846   1.995  17.116  0.2575 -1.0453 -1.0174
 8557SOL    HW237308   2.931   2.082  17.194 -1.9562 -1.2523  1.0953
 8558SOL     OW37309   1.712   0.320   1.499 -0.3437 -0.3583 -0.0884
 8558SOL    HW137310   1.753   0.388   1.552 -2.0062  0.5005  0.0991
 8558SOL    HW237311   1.643   0.371   1.457  1.2016  0.4338 -1.6372
 8559SOL     OW37312   2.660   4.237   3.731 -0.0800 -0.3740  0.3550
 8559SOL    HW137313   2.589   4.176   3.753  0.8931 -1.7969 -0.4212
 8559SOL    HW237314   2.725   4.178   3.768 -0.7822 -2.0356 -1.0411
 8560SOL     OW37315   2.711   3.895   8.020  0.1885 -0.0683 -0.0949
 8560SOL    HW137316   2.751   3.852   7.944 -0.4267 -1.3927  0.3149
 8560SOL    HW237317   2.762   3.974   8.036  1.3835 -1.5208  3.3424
 8561SOL     OW37318   4.677   3.898   1.977  0.1087  0.7151  0.2801
 8561SOL    HW137319   4.615   3.952   2.026  0.2578 -1.3245  2.7127
 8561SOL    HW237320   4.735   3.886   2.052  0.8356  0.0954 -0.3856
 8562SOL     OW37321   0.336   0.052  15.235 -0.3784 -0.6728 -0.4176
 8562SOL    HW137322   0.320   0.134  15.283 -2.8620 -0.6964 -1.1786
 8562SOL    HW237323   0.348   4.727  15.308 -1.2307 -0.7053 -0.3021
 8563SOL     OW37324   1.985   1.613  12.821 -0.1675  0.0187  0.0057
 8563SOL    HW137325   2.056   1.597  12.882 -1.0641 -0.5294  0.9036
 8563SOL    HW237326   1.952   1.524  12.832 -2.5397  1.1949  2.3248
 8564SOL     OW37327   3.407   2.746   3.541 -0.6873 -0.3104 -1.1326
 8564SOL    HW137328   3.464   2.791   3.478  0.0721  0.1061 -0.1446
 8564SOL    HW237329   3.413   2.654   3.513 -0.4101  0.4464 -3.5506
 8565SOL     OW37330   3.179   1.729   9.935 -0.0744 -0.1684 -0.1552
 8565SOL    HW137331   3.107   1.666   9.937  0.3867 -0.7061 -0.6351
 8565SOL    HW237332   3.176   1.767   9.847 -2.0960 -1.8471 -0.8200
 8566SOL     OW37333   1.361   1.479  13.051 -0.0421  0.3008 -0.0086
 8566SOL    HW137334   1.394   1.502  13.137  1.6357  1.0622 -0.8583
 8566SOL    HW237335   1.430   1.422  13.016 -0.1680 -1.2408  2.2678
 8567SOL     OW37336   4.261   1.295   6.772  0.7113 -0.3890  0.4382
 8567SOL    HW137337   4.238   1.280   6.864 -1.1188  1.3922  0.2429
 8567SOL    HW237338   4.188   1.253   6.727  0.8436 -0.1794  0.0269
 8568SOL     OW37339   0.170   1.195  16.301 -0.3995  0.0919 -0.4788
 8568SOL    HW137340   0.156   1.289  16.292 -0.7536  0.3006  2.0323
 8568SOL    HW237341   0.081   1.163  16.319 -0.7955  1.2554 -0.3408
 8569SOL     OW37342   4.455   2.661  16.735 -0.1384  0.2723 -0.2730
 8569SOL    HW137343   4.392   2.589  16.727 -0.0684  0.1736  0.0814
 8569SOL    HW237344   4.515   2.639  16.664 -0.5143 -0.4317 -0.3703
 8570SOL     OW37345   1.299   2.696   8.659 -0.4443  0.1762  0.5147
 8570SOL    HW137346   1.313   2.603   8.676  0.1889 -0.1840 -2.1091
 8570SOL    HW237347   1.384   2.726   8.628 -0.4473 -1.1561 -0.7840
 8571SOL     OW37348   4.676   1.126   8.510 -0.2976  0.0938  0.3864
 8571SOL    HW137349   4.705   1.159   8.425  0.9937 -0.5822  0.5637
 8571SOL    HW237350   0.027   1.104   8.544 -0.2691 -0.9242 -0.3507
 8572SOL     OW37351   3.202   2.331   5.192  0.0155  0.2178 -0.4372
 8572SOL    HW137352   3.146   2.273   5.142 -3.4376  1.8407  1.5901
 8572SOL    HW237353   3.248   2.266   5.245  2.2631  0.8377 -1.6229
 8573SOL     OW37354   0.481   4.296   8.993 -0.7208 -0.2214  0.2983
 8573SOL    HW137355   0.476   4.390   9.012 -1.3463 -0.0143 -0.9032
 8573SOL    HW237356   0.574   4.293   8.972  0.0144  0.3187  3.3630
 8574SOL     OW37357   3.045   3.029  13.440 -0.1858 -0.6827  0.3694
 8574SOL    HW137358   2.975   3.034  13.505  1.0358  0.7212  1.5924
 8574SOL    HW237359   3.068   2.937  13.442 -1.4163 -1.0400 -1.9008
 8575SOL     OW37360   4.462   3.818   3.308 -0.3053  0.1054 -0.5783
 8575SOL    HW137361   4.367   3.806   3.309 -0.3934  0.6839 -1.9868
 8575SOL    HW237362   4.492   3.764   3.235  1.1418 -0.1111  0.1681
 8576SOL     OW37363   3.652   3.541  14.399  0.0272 -0.6820 -0.2945
 8576SOL    HW137364   3.647   3.464  14.342 -0.5094  0.1973 -1.4240
 8576SOL    HW237365   3.688   3.599  14.333 -1.2353  0.3417 -0.0843
 8577SOL     OW37366   1.884   1.185   8.969  0.1171  0.4657 -0.2352
 8577SOL    HW137367   1.803   1.197   9.017  0.0552 -0.0290 -0.2195
 8577SOL    HW237368   1.853   1.228   8.889 -1.1784  1.2544  0.6994
 8578SOL     OW37369   2.328   1.847   1.412  0.4561  0.3429  0.0609
 8578SOL    HW137370   2.318   1.918   1.476 -1.3912  1.8375 -1.8619
 8578SOL    HW237371   2.247   1.854   1.361 -0.1378  0.2292  0.9992
 8579SOL     OW37372   1.592   0.690   9.905 -0.0711  0.3137 -0.0545
 8579SOL    HW137373   1.563   0.718   9.991  2.1771 -1.0880  1.1619
 8579SOL    HW237374   1.510   0.654   9.871 -0.5993 -0.5124  2.0661
 8580SOL     OW37375   2.942   3.472   2.307 -0.4404 -0.7117 -0.3905
 8580SOL    HW137376   3.005   3.499   2.240 -1.3235  2.9836  0.2714
 8580SOL    HW237377   2.902   3.559   2.315  2.0128  0.4611 -0.8232
 8581SOL     OW37378   0.897   2.545  14.497  0.3933  0.4299 -0.6518
 8581SOL    HW137379   0.991   2.565  14.496  0.2167  1.2638 -0.4676
 8581SOL    HW237380   0.865   2.582  14.415  0.3540  1.5012 -0.1514
 8582SOL     OW37381   2.461   0.336   6.274 -0.4873  0.9876 -0.1447
 8582SOL    HW137382   2.412   0.387   6.209  0.0497  0.7987 -0.7024
 8582SOL    HW237383   2.532   0.396   6.298  1.3221 -0.7808 -1.1087
 8583SOL     OW37384   0.064   2.294   8.150  0.2285  0.4119  0.3597
 8583SOL    HW137385   0.145   2.258   8.114  0.9878  2.6329 -0.1261
 8583SOL    HW237386   0.091   2.354   8.219 -0.4667  0.9410  0.1718
 8584SOL     OW37387   1.418   1.293   2.679  0.5032  0.2510  0.1770
 8584SOL    HW137388   1.333   1.323   2.712  0.5836  1.1270 -0.3856
 8584SOL    HW237389   1.461   1.365   2.724  0.1993 -0.0264  0.9103
 8585SOL     OW37390   2.223   2.736   7.908  0.0005  0.1343  0.5601
 8585SOL    HW137391   2.308   2.764   7.942  0.8516 -0.7185 -0.8931
 8585SOL    HW237392   2.206   2.658   7.961 -0.3817 -0.4540 -0.4453
 8586SOL     OW37393   1.732   2.846   9.853 -0.0851  0.3944  0.1417
 8586SOL    HW137394   1.686   2.912   9.800 -2.4074  0.3163  2.0601
 8586SOL    HW237395   1.678   2.769   9.869  0.7038 -0.1225  0.2601
 8587SOL     OW37396   0.996   3.409  11.360 -0.0815  0.1115  0.5344
 8587SOL    HW137397   1.044   3.488  11.383  1.1730 -0.0898 -1.3472
 8587SOL    HW237398   1.040   3.391  11.277 -0.8943  0.9395 -0.0795
 8588SOL     OW37399   2.860   0.601   5.164  0.4524 -0.3967 -0.2921
 8588SOL    HW137400   2.886   0.665   5.230 -0.5487 -2.7754  2.3865
 8588SOL    HW237401   2.940   0.598   5.110  0.4459  1.0450 -0.3867
 8589SOL     OW37402   1.727   1.379  12.137 -0.4732  0.6618  0.6002
 8589SOL    HW137403   1.700   1.403  12.048 -0.1805  0.0778  0.3545
 8589SOL    HW237404   1.762   1.461  12.172  0.0297 -0.0515  1.7820
 8590SOL     OW37405   4.575   4.272   9.382 -0.0665 -0.2399 -0.4407
 8590SOL    HW137406   4.609   4.345   9.433  1.4433 -0.6729 -0.8187
 8590SOL    HW237407   4.614   4.292   9.297  1.8130  0.6908  0.6439
 8591SOL     OW37408   0.057   4.275  17.250  0.6380  0.5419  0.0647
 8591SOL    HW137409   0.121   4.336  17.285 -0.7121  2.1833 -0.3429
 8591SOL    HW237410   0.090   4.257  17.161 -1.5829  1.2752 -0.9106
 8592SOL     OW37411   1.028   1.173   3.541  0.2788 -0.4243  0.1747
 8592SOL    HW137412   1.073   1.138   3.618 -0.6774  1.0083  1.3765
 8592SOL    HW237413   0.942   1.191   3.580  0.6572  1.0324  0.3389
 8593SOL     OW37414   0.382   0.297   3.340  0.0300  0.0121  0.4947
 8593SOL    HW137415   0.310   0.351   3.373 -1.9886 -2.7212  0.6621
 8593SOL    HW237416   0.334   0.231   3.290  3.4558 -2.0014 -0.1566
 8594SOL     OW37417   3.499   1.821   7.360  0.3486  0.9145 -0.0213
 8594SOL    HW137418   3.490   1.756   7.290 -0.6607  2.5516 -1.3819
 8594SOL    HW237419   3.425   1.880   7.347 -0.8981 -0.7119 -0.3164
 8595SOL     OW37420   4.010   3.701   9.313 -0.0849  0.9586  0.3767
 8595SOL    HW137421   3.995   3.782   9.264 -0.0974  0.0027 -1.1913
 8595SOL    HW237422   4.000   3.726   9.405  0.9489  1.0075  0.4779
 8596SOL     OW37423   0.881   2.346   5.538 -0.4908 -0.2874 -0.5894
 8596SOL    HW137424   0.843   2.393   5.464  2.3105 -0.6379 -2.2326
 8596SOL    HW237425   0.963   2.394   5.550 -0.4679 -0.4021 -0.2875
 8597SOL     OW37426   2.753   3.465  17.543 -0.2592 -0.6069  0.3134
 8597SOL    HW137427   2.836   3.511  17.550 -1.5531  2.0929 -2.1727
 8597SOL    HW237428   2.771   3.425  17.458 -1.8240 -0.8468  0.0874
 8598SOL     OW37429   3.307   3.749   6.177  0.7675 -0.4033 -0.0781
 8598SOL    HW137430   3.212   3.763   6.173  0.8424 -0.3088 -1.4911
 8598SOL    HW237431   3.307   3.653   6.168  1.2762 -0.2209 -1.8926
 8599SOL     OW37432   0.474   0.544  16.369  0.3631 -0.0157  0.6390
 8599SOL    HW137433   0.496   0.623  16.418 -1.3153  1.2404 -0.6450
 8599SOL    HW237434   0.430   0.507  16.445 -2.0771  1.7160  0.0723
 8600SOL     OW37435   2.472   2.156   9.093  0.3946 -0.0132  0.5927
 8600SOL    HW137436   2.507   2.235   9.133 -1.8229  0.6666  1.2054
 8600SOL    HW237437   2.396   2.196   9.050  0.9322  0.1381 -0.2187
 8601SOL     OW37438   3.683   3.603   3.662 -0.1584 -0.1030  0.2924
 8601SOL    HW137439   3.694   3.696   3.643  0.3224  0.1143  1.7046
 8601SOL    HW237440   3.599   3.572   3.627 -1.2814  2.2275  0.8852
 8602SOL     OW37441   0.912   1.335   8.827 -0.6024  0.0957 -0.6438
 8602SOL    HW137442   0.852   1.407   8.848  2.5112  2.3638  0.6836
 8602SOL    HW237443   0.947   1.366   8.744  0.7128 -1.7754 -0.7927
 8603SOL     OW37444   1.820   2.328   3.506  0.8156 -0.0255  0.5427
 8603SOL    HW137445   1.898   2.277   3.524  0.9526 -0.1002 -0.2603
 8603SOL    HW237446   1.827   2.357   3.415 -1.2797 -0.1030  0.3375
 8604SOL     OW37447   0.464   4.553   9.160  0.2442 -0.2415 -0.1038
 8604SOL    HW137448   0.509   4.558   9.245 -1.0786  0.4660  0.5644
 8604SOL    HW237449   0.394   4.612   9.188  0.3016 -0.1071 -0.2460
 8605SOL     OW37450   2.010   4.607   8.470 -0.0245  0.4598 -0.0886
 8605SOL    HW137451   2.005   4.579   8.561 -1.5493  0.7678 -0.0659
 8605SOL    HW237452   2.047   4.526   8.435 -1.7162 -1.5799  2.8738
 8606SOL     OW37453   2.796   3.337   7.372  0.3141 -0.3520 -0.0476
 8606SOL    HW137454   2.759   3.418   7.336 -2.3062 -0.9009  1.4208
 8606SOL    HW237455   2.832   3.294   7.295  1.5132  0.8935 -0.1989
 8607SOL     OW37456   0.081   2.442  15.847 -0.3614  0.4698 -0.4505
 8607SOL    HW137457   0.141   2.460  15.920  0.4380  1.4201 -1.3538
 8607SOL    HW237458   0.115   2.362  15.806  0.4185  1.4208 -1.6364
 8608SOL     OW37459   1.361   0.284   6.450  0.1003  0.0520  0.1562
 8608SOL    HW137460   1.450   0.257   6.426  0.2380  0.6580 -0.0290
 8608SOL    HW237461   1.366   0.380   6.447  1.1137  0.0186  0.6056
 8609SOL     OW37462   2.019   0.715   8.101 -0.2142  0.2962 -0.6960
 8609SOL    HW137463   1.995   0.635   8.054  0.0183 -1.7518  2.7337
 8609SOL    HW237464   2.107   0.739   8.071  0.3657 -3.0773 -1.6596
 8610SOL     OW37465   0.876   2.641  14.950 -0.0427  0.1179 -0.3853
 8610SOL    HW137466   0.852   2.575  14.885 -0.3798 -0.6580  0.5241
 8610SOL    HW237467   0.876   2.715  14.889  0.5308  1.4037  1.1764
 8611SOL     OW37468   1.223   2.734   6.784 -0.4820 -0.2554 -0.4513
 8611SOL    HW137469   1.202   2.807   6.842  0.9406  0.3717 -0.7292
 8611SOL    HW237470   1.269   2.782   6.715 -2.3244  2.6347  0.3354
 8612SOL     OW37471   2.479   0.417   0.282 -0.2894  0.8661  0.7038
 8612SOL    HW137472   2.511   0.386   0.367  0.5414  1.8443  0.7459
 8612SOL    HW237473   2.560   0.418   0.231 -1.8273 -1.6921 -1.7712
 8613SOL     OW37474   3.174   0.800   9.638 -0.4236 -0.6408  0.6662
 8613SOL    HW137475   3.172   0.896   9.644 -2.2733 -0.6131 -0.4508
 8613SOL    HW237476   3.268   0.793   9.617 -0.4026 -0.9772  0.8766
 8614SOL     OW37477   1.701   3.039   4.856  0.3960 -0.0570 -0.4005
 8614SOL    HW137478   1.755   3.072   4.928 -0.8621 -0.6345  0.8131
 8614SOL    HW237479   1.754   2.964   4.830  0.0409 -1.0871  1.7889
 8615SOL     OW37480   0.898   1.815   8.260 -0.1010  0.3799  0.1080
 8615SOL    HW137481   0.986   1.853   8.260  0.1894 -0.2799 -0.5998
 8615SOL    HW237482   0.919   1.726   8.230  1.0099  0.4337  0.7293
 8616SOL     OW37483   4.371   3.123   5.985 -0.1450  0.0983  0.1901
 8616SOL    HW137484   4.308   3.143   5.916  0.1695 -0.7335 -0.3337
 8616SOL    HW237485   4.449   3.103   5.933  0.4332  1.6690  0.4465
 8617SOL     OW37486   0.891   2.838   2.952 -0.3720 -0.2251 -0.6654
 8617SOL    HW137487   0.818   2.838   3.014  0.1404 -1.4074 -0.0570
 8617SOL    HW237488   0.971   2.817   3.001  0.1862 -3.3118 -2.8920
 8618SOL     OW37489   0.425   3.704   5.936 -0.3677  0.4102  0.1024
 8618SOL    HW137490   0.360   3.761   5.895 -0.5271  1.0827  1.2804
 8618SOL    HW237491   0.503   3.734   5.888 -0.5722  1.5033  0.4575
 8619SOL     OW37492   4.727   1.218  12.847  0.2240 -0.0749  0.1421
 8619SOL    HW137493   0.052   1.154  12.811  1.1223  0.3360  0.9072
 8619SOL    HW237494   4.645   1.170  12.837  1.5134 -2.5726  1.6350
 8620SOL     OW37495   2.234   4.589  12.605 -0.1642  0.2986 -0.3929
 8620SOL    HW137496   2.152   4.559  12.644  0.5978  0.0250  1.0208
 8620SOL    HW237497   2.296   4.544  12.663 -0.7981  0.4448  0.3985
 8621SOL     OW37498   3.066   3.679   7.960 -0.5679  0.3843 -0.2057
 8621SOL    HW137499   3.034   3.608   8.015  2.6002 -1.0081 -0.1789
 8621SOL    HW237500   3.078   3.750   8.022 -0.7151  0.2098  0.0235
 8622SOL     OW37501   4.438   1.657   1.709 -0.4020  0.5882 -0.8344
 8622SOL    HW137502   4.386   1.719   1.659 -0.1217  2.0224  0.6579
 8622SOL    HW237503   4.514   1.656   1.651  1.8754  0.7369  2.1386
 8623SOL     OW37504   2.132   3.674   7.993 -0.3925  0.0724 -0.0670
 8623SOL    HW137505   2.125   3.595   7.939 -1.4995  0.2768 -0.2228
 8623SOL    HW237506   2.107   3.636   8.077  1.3317 -2.3967 -0.6828
 8624SOL     OW37507   0.404   2.993   4.760  0.4251 -0.1643 -0.5194
 8624SOL    HW137508   0.414   2.944   4.841  0.5880 -2.1357 -1.7351
 8624SOL    HW237509   0.399   3.082   4.795  0.6193 -0.0653 -0.7331
 8625SOL     OW37510   4.215   4.656   6.167  0.0925  0.0399  0.0621
 8625SOL    HW137511   4.278   4.729   6.169  0.5244 -0.2761 -2.2358
 8625SOL    HW237512   4.199   4.645   6.073  0.9410 -0.6181 -0.0070
 8626SOL     OW37513   0.668   0.820  16.359 -0.5029  0.4040  0.5097
 8626SOL    HW137514   0.741   0.857  16.408  0.0441  0.7279 -0.5596
 8626SOL    HW237515   0.628   0.781  16.437 -1.7344  0.5439 -0.0499
 8627SOL     OW37516   0.922   1.717   9.688 -0.0987  0.3278  1.1414
 8627SOL    HW137517   0.965   1.802   9.684  1.2880 -0.3349  1.9472
 8627SOL    HW237518   0.833   1.732   9.655  0.9450 -2.4843 -2.9151
 8628SOL     OW37519   1.194   1.961  15.464 -0.7747  0.1928 -0.1276
 8628SOL    HW137520   1.289   1.954  15.455 -0.6248  0.1979  1.4596
 8628SOL    HW237521   1.172   1.883  15.412 -1.6708  0.6026 -0.3646
 8629SOL     OW37522   0.719   3.773   8.193 -0.3211 -0.2249 -0.4663
 8629SOL    HW137523   0.734   3.692   8.145 -1.3697 -0.2887 -0.6825
 8629SOL    HW237524   0.791   3.769   8.256  1.7445  0.0009 -2.8206
 8630SOL     OW37525   0.559   1.885  12.214  0.2556  0.1529 -0.2431
 8630SOL    HW137526   0.583   1.831  12.138 -1.5027  0.7007 -1.1870
 8630SOL    HW237527   0.617   1.845  12.279  0.4302  0.0040 -0.4869
 8631SOL     OW37528   0.720   4.596   5.682 -0.2845  0.0379  0.3297
 8631SOL    HW137529   0.707   4.606   5.776 -0.4962  0.0242  0.3009
 8631SOL    HW237530   0.815   4.609   5.674 -0.4624  3.4349  3.6606
 8632SOL     OW37531   3.894   4.482   6.658 -0.5090  0.1293 -0.3098
 8632SOL    HW137532   3.909   4.565   6.704  3.0765 -1.7785  1.9715
 8632SOL    HW237533   3.953   4.497   6.584 -0.2985 -0.1433 -0.1978
 8633SOL     OW37534   3.140   0.666   6.482 -0.7023  0.2531 -0.1414
 8633SOL    HW137535   3.173   0.594   6.428 -0.5031  1.4391 -1.5943
 8633SOL    HW237536   3.192   0.661   6.562 -0.3448  1.8558 -0.2612
 8634SOL     OW37537   0.624   4.225   0.563 -0.1421 -0.4661  0.7972
 8634SOL    HW137538   0.609   4.159   0.495  3.1500 -1.7288  1.2812
 8634SOL    HW237539   0.544   4.276   0.557  0.4841  0.6958  2.3057
 8635SOL     OW37540   4.572   1.564   1.083  0.2935 -0.1894  0.5078
 8635SOL    HW137541   4.651   1.538   1.037 -0.8982 -2.6601 -0.1308
 8635SOL    HW237542   4.505   1.586   1.017  1.6671  0.4090 -0.6782
 8636SOL     OW37543   2.374   2.905  13.838 -0.1227 -0.2573  0.5885
 8636SOL    HW137544   2.410   2.988  13.807 -0.6970 -0.5718 -0.9027
 8636SOL    HW237545   2.440   2.845  13.803 -1.0804  0.3829 -2.2768
 8637SOL     OW37546   0.466   2.976   8.783 -0.5093  0.4474 -0.3972
 8637SOL    HW137547   0.442   2.990   8.691  2.8767  1.2165 -1.1596
 8637SOL    HW237548   0.521   2.898   8.780  0.3853  1.1482 -1.8290
 8638SOL     OW37549   3.427   1.887  10.139 -0.3393 -0.7433 -0.0068
 8638SOL    HW137550   3.460   1.964  10.185  0.7702 -1.1087 -0.1715
 8638SOL    HW237551   3.470   1.819  10.191  1.6205  0.2363 -0.3468
 8639SOL     OW37552   4.350   1.144   2.527 -0.0369  0.8696  0.7948
 8639SOL    HW137553   4.306   1.220   2.565 -0.7591  0.9843 -0.2617
 8639SOL    HW237554   4.280   1.081   2.512 -1.9323  3.1186  0.1855
 8640SOL     OW37555   1.825   2.982   1.234 -0.4971 -0.2010  0.3158
 8640SOL    HW137556   1.789   3.063   1.198 -0.9149 -0.2000  0.7311
 8640SOL    HW237557   1.916   3.006   1.249 -0.4048  0.0507 -0.6599
 8641SOL     OW37558   0.569   4.497   4.475  0.2938 -0.0857 -0.1174
 8641SOL    HW137559   0.544   4.565   4.537 -0.3358  0.8441 -1.3726
 8641SOL    HW237560   0.613   4.552   4.411  0.7395  1.3089  1.4053
 8642SOL     OW37561   1.496   1.758   3.922 -0.6254  0.4126  0.0277
 8642SOL    HW137562   1.519   1.830   3.862  3.2711 -1.2807 -0.4922
 8642SOL    HW237563   1.425   1.791   3.977  1.5166  2.3322  1.6328
 8643SOL     OW37564   1.375   1.146   8.520  0.2618 -0.5203 -0.0397
 8643SOL    HW137565   1.288   1.123   8.488  0.3689 -1.5753  0.4441
 8643SOL    HW237566   1.353   1.227   8.564 -0.0456  0.5476 -2.1381
 8644SOL     OW37567   3.059   2.571   4.113  0.2007  0.3429 -0.5442
 8644SOL    HW137568   3.053   2.572   4.018  0.1155  0.5775 -0.5366
 8644SOL    HW237569   2.983   2.626   4.134 -0.4527 -0.2653 -1.2888
 8645SOL     OW37570   2.597   2.325  14.307  0.5812  0.8865  0.0367
 8645SOL    HW137571   2.565   2.400  14.357 -2.5244 -1.4324  1.4891
 8645SOL    HW237572   2.677   2.369  14.278  2.0251 -0.6839  1.6573
 8646SOL     OW37573   3.423   4.101   7.827 -0.1686 -0.1277  0.4772
 8646SOL    HW137574   3.471   4.128   7.905  1.3840  4.1722 -2.0109
 8646SOL    HW237575   3.347   4.062   7.872  0.1076 -1.2805 -0.0548
 8647SOL     OW37576   1.502   1.121  11.480  0.2886  0.2663  0.1207
 8647SOL    HW137577   1.482   1.028  11.468 -0.8746  0.7521 -1.7738
 8647SOL    HW237578   1.545   1.126  11.565 -0.6498  0.3192  0.5907
 8648SOL     OW37579   0.003   2.457  17.670  0.1664 -0.2618  0.0288
 8648SOL    HW137580   4.661   2.497  17.631  0.5651 -1.3007 -1.8259
 8648SOL    HW237581   4.712   2.448   0.018  3.2285 -5.1617  0.3977
 8649SOL     OW37582   2.547   1.652   2.318 -0.2897  0.1439 -0.2734
 8649SOL    HW137583   2.516   1.570   2.357 -0.0019  1.1204  1.9537
 8649SOL    HW237584   2.586   1.616   2.238  2.2742  0.3201  0.8938
 8650SOL     OW37585   0.452   0.018   2.661 -0.0040 -0.2808  0.1863
 8650SOL    HW137586   0.413   4.675   2.623  0.2772 -0.7906  0.9567
 8650SOL    HW237587   0.382   0.072   2.697  2.3680  1.7800  1.6433
 8651SOL     OW37588   3.964   2.216   4.024  0.2238 -0.2718  0.6401
 8651SOL    HW137589   3.895   2.187   3.965 -0.0327  1.4050  0.1074
 8651SOL    HW237590   3.928   2.305   4.031 -0.2234 -0.4266  0.2732
 8652SOL     OW37591   3.999   3.100   5.936  0.3828  0.0094 -0.1381
 8652SOL    HW137592   3.914   3.064   5.909 -1.0578  2.2917  1.4162
 8652SOL    HW237593   4.058   3.084   5.862 -0.5259 -0.4793 -0.7672
 8653SOL     OW37594   2.191   3.783  17.709 -0.4627 -0.8481  0.2504
 8653SOL    HW137595   2.148   3.842  17.647 -2.4844 -2.3667  0.2204
 8653SOL    HW237596   2.135   3.799   0.041 -3.0013 -2.5754 -1.2698
 8654SOL     OW37597   3.996   0.489   6.495  0.5428  0.5305  0.5159
 8654SOL    HW137598   3.931   0.464   6.560 -0.4022 -2.8755 -1.7151
 8654SOL    HW237599   4.078   0.463   6.536 -0.4893 -0.1341  2.1568
 8655SOL     OW37600   3.320   4.157  14.851  0.1756  0.1632  0.0594
 8655SOL    HW137601   3.276   4.083  14.809  0.4113 -0.1792  0.4123
 8655SOL    HW237602   3.405   4.163  14.806  1.3331 -0.3298  2.1936
 8656SOL     OW37603   2.740   1.605   8.021 -0.5352 -0.1672 -0.2724
 8656SOL    HW137604   2.750   1.583   7.928  0.8160  0.3708 -0.2533
 8656SOL    HW237605   2.684   1.534   8.052 -0.0485  0.3488  1.7560
 8657SOL     OW37606   2.170   3.449   4.466  0.4030 -0.0559 -0.8038
 8657SOL    HW137607   2.077   3.465   4.474  0.4957 -0.2245  0.6136
 8657SOL    HW237608   2.203   3.439   4.556 -1.9921  0.3244  0.0980
 8658SOL     OW37609   3.420   3.442   7.794 -0.2456  0.0018  0.3767
 8658SOL    HW137610   3.331   3.470   7.774  0.1758  1.6005  0.7441
 8658SOL    HW237611   3.441   3.502   7.865 -4.2180  0.1862  1.3996
 8659SOL     OW37612   3.613   1.746   8.732 -0.3228  0.0093 -0.1002
 8659SOL    HW137613   3.676   1.713   8.796  1.8056  2.8295 -0.7525
 8659SOL    HW237614   3.620   1.838   8.759 -1.5581  0.1635 -0.3159
 8660SOL     OW37615   2.951   0.003  14.462  0.3889  0.3892  0.4889
 8660SOL    HW137616   2.904   0.025  14.542 -0.5852 -0.2003  0.0806
 8660SOL    HW237617   2.875   4.732  14.404  0.4121  2.9013  0.1776
 8661SOL     OW37618   0.436   4.283  14.984  0.6338 -0.7063 -0.2877
 8661SOL    HW137619   0.417   4.216  15.050 -0.8749 -2.9938 -3.0571
 8661SOL    HW237620   0.408   4.361  15.032  2.0957 -0.3707  0.0176
 8662SOL     OW37621   2.189   1.479   3.524 -0.0349  0.2680 -1.0101
 8662SOL    HW137622   2.136   1.553   3.554  0.9415  0.5168  0.1275
 8662SOL    HW237623   2.119   1.432   3.478  1.0381 -2.2628 -0.0834
 8663SOL     OW37624   0.132   1.773   5.652 -0.0347  0.0394  0.3911
 8663SOL    HW137625   0.117   1.764   5.558 -2.3775 -2.6841  1.0255
 8663SOL    HW237626   0.055   1.824   5.677 -0.3595 -0.9683  1.4418
 8664SOL     OW37627   1.551   2.121   8.912  0.3732  0.2803  0.5076
 8664SOL    HW137628   1.480   2.091   8.968 -0.2557 -0.4782 -0.6813
 8664SOL    HW237629   1.543   2.216   8.919 -0.7040  0.4244 -2.4722
 8665SOL     OW37630   0.940   4.153   2.298  0.1284  0.1970  0.4411
 8665SOL    HW137631   0.878   4.226   2.293  1.1579  0.9868 -0.7071
 8665SOL    HW237632   1.023   4.200   2.303  0.4289 -0.1228 -1.6859
 8666SOL     OW37633   3.451   0.189   3.604  0.5941 -0.2500  0.0392
 8666SOL    HW137634   3.459   0.101   3.568  0.1799 -0.7302  1.1211
 8666SOL    HW237635   3.408   0.174   3.689  0.9650 -0.7711  0.1301
 8667SOL     OW37636   0.557   0.880   6.625  0.4802 -0.2548  0.1827
 8667SOL    HW137637   0.603   0.838   6.697  2.1374 -0.2238 -0.8589
 8667SOL    HW237638   0.603   0.832   6.557  0.3867 -0.9985  0.6447
 8668SOL     OW37639   2.680   1.653   7.424 -1.1301 -0.1194  0.3690
 8668SOL    HW137640   2.769   1.644   7.390 -1.5808 -3.7016  0.1972
 8668SOL    HW237641   2.695   1.700   7.506 -1.2548 -1.0071  0.8941
 8669SOL     OW37642   4.195   2.178  13.524 -0.0576  0.1829  0.2149
 8669SOL    HW137643   4.215   2.229  13.445 -1.5988 -2.7832 -2.0605
 8669SOL    HW237644   4.266   2.216  13.577  1.3083 -0.8413 -0.9106
 8670SOL     OW37645   4.550   3.446   6.547 -0.1859 -0.3444 -0.0364
 8670SOL    HW137646   4.492   3.391   6.600 -0.0453 -0.7669 -0.3207
 8670SOL    HW237647   4.526   3.530   6.586  2.7547  0.0959  0.8213
 8671SOL     OW37648   3.285   1.740  12.997  0.5445 -0.3938 -0.0556
 8671SOL    HW137649   3.203   1.713  13.038 -0.8327  1.3448 -1.6745
 8671SOL    HW237650   3.249   1.771  12.914  1.2524  0.6780  0.0426
 8672SOL     OW37651   3.063   1.075   3.936  0.8044  0.4941  0.2405
 8672SOL    HW137652   2.998   1.081   3.865  0.3974 -1.7823  0.4024
 8672SOL    HW237653   3.131   1.122   3.889  0.0927  0.2766 -1.0174
 8673SOL     OW37654   3.745   0.839   4.133  0.0397 -0.2821 -0.3176
 8673SOL    HW137655   3.786   0.903   4.075  2.7531 -3.0791 -1.4369
 8673SOL    HW237656   3.811   0.772   4.116  0.3859  0.1446 -0.6580
 8674SOL     OW37657   2.519   3.038   2.533  0.3231  0.7635  1.2141
 8674SOL    HW137658   2.577   3.006   2.602  1.2972 -2.5227 -1.1215
 8674SOL    HW237659   2.579   3.038   2.459 -0.4795 -2.8484  0.5880
 8675SOL     OW37660   2.448   3.000   7.824 -0.5158  0.4377  0.2148
 8675SOL    HW137661   2.429   2.934   7.891  0.9371 -0.7577 -0.5295
 8675SOL    HW237662   2.535   3.032   7.848 -0.7184  0.4660  0.8902
 8676SOL     OW37663   0.682   1.827  13.442 -0.4628  0.3541 -0.2537
 8676SOL    HW137664   0.754   1.859  13.496  0.2995 -0.6023 -0.7102
 8676SOL    HW237665   0.645   1.755  13.493 -2.5808  0.6517 -1.3732
 8677SOL     OW37666   0.044   0.137   4.967 -0.1134 -0.1189 -0.1077
 8677SOL    HW137667   0.081   0.151   5.054 -1.2505 -2.6327  0.7813
 8677SOL    HW237668   0.088   0.216   4.936 -1.8240  1.4164  1.3929
 8678SOL     OW37669   3.251   4.724   2.426  0.6618  0.2909  0.0104
 8678SOL    HW137670   3.338   4.719   2.466  0.9162 -2.2569 -0.9037
 8678SOL    HW237671   3.261   4.672   2.347  0.5210  1.1557 -0.5732
 8679SOL     OW37672   3.503   1.549   4.703 -0.3646 -0.5942 -0.1629
 8679SOL    HW137673   3.467   1.499   4.776  0.2934 -1.3314 -0.3424
 8679SOL    HW237674   3.597   1.561   4.718 -0.8555  1.1611  1.5167
 8680SOL     OW37675   2.351   3.811   0.631  0.3054 -0.8159 -0.5005
 8680SOL    HW137676   2.411   3.828   0.558  0.8397 -0.3482  0.0524
 8680SOL    HW237677   2.295   3.888   0.637  1.7329  0.2308 -0.5177
 8681SOL     OW37678   4.694   2.064   2.723 -0.5527  0.3100 -0.1009
 8681SOL    HW137679   4.624   2.005   2.751  1.2564 -1.0087  1.6800
 8681SOL    HW237680   4.716   2.036   2.634 -2.5968  0.4471 -0.6486
 8682SOL     OW37681   1.432   2.821   5.626 -0.1469 -0.3007  0.1596
 8682SOL    HW137682   1.521   2.836   5.595  0.8713 -0.5755  2.9192
 8682SOL    HW237683   1.439   2.857   5.715 -0.2889  1.2471 -0.4640
 8683SOL     OW37684   4.634   2.720  10.678 -0.5838 -0.6905  0.2018
 8683SOL    HW137685   4.573   2.783  10.716 -0.6746  0.4899 -1.8588
 8683SOL    HW237686   4.627   2.734  10.583  2.0918 -0.5436  0.0313
 8684SOL     OW37687   2.581   0.333   5.930  0.5277  0.2890 -0.0623
 8684SOL    HW137688   2.575   0.423   5.962  1.5291  0.7230 -1.1087
 8684SOL    HW237689   2.487   0.320   5.921  0.5205  0.5940 -0.4179
 8685SOL     OW37690   2.757   1.561   2.736  0.0133  0.2466 -0.2771
 8685SOL    HW137691   2.778   1.653   2.723  0.3304  0.3627  1.0582
 8685SOL    HW237692   2.849   1.536   2.729 -0.8912 -2.7584 -1.5628
 8686SOL     OW37693   3.709   2.821   3.621  0.0536  0.6142 -0.3135
 8686SOL    HW137694   3.703   2.802   3.715 -0.5118  1.8733 -0.0804
 8686SOL    HW237695   3.713   2.730   3.593  1.3631  0.9602 -1.2002
 8687SOL     OW37696   1.156   1.595   6.889 -0.1043 -0.4012 -0.1941
 8687SOL    HW137697   1.171   1.634   6.975 -0.1736  0.4050 -0.5452
 8687SOL    HW237698   1.062   1.612   6.890  0.1675  1.0500  2.0527
 8688SOL     OW37699   0.108   2.098   6.391  0.0202  0.3038  1.0887
 8688SOL    HW137700   0.067   2.133   6.471  1.3965  0.3931  1.7560
 8688SOL    HW237701   0.196   2.126   6.415 -0.5898  2.4697  0.7910
 8689SOL     OW37702   2.245   2.020   1.613 -0.3471  0.9085  0.1945
 8689SOL    HW137703   2.286   1.995   1.696  1.5476  0.7273 -0.7801
 8689SOL    HW237704   2.192   2.096   1.636  0.5782  1.6247 -0.0486
 8690SOL     OW37705   2.555   1.874   8.323  0.4124  0.1808  0.3328
 8690SOL    HW137706   2.470   1.831   8.337 -0.1570  0.9862 -0.6699
 8690SOL    HW237707   2.559   1.870   8.228  1.1785 -1.2937  0.4143
 8691SOL     OW37708   0.788   2.397   9.466 -0.2686 -0.3988 -0.3235
 8691SOL    HW137709   0.848   2.402   9.539  0.1632  0.1336 -0.7109
 8691SOL    HW237710   0.722   2.461   9.493  0.4638  1.0309 -1.9076
 8692SOL     OW37711   4.357   1.988   2.238  0.3546  0.0013  0.9382
 8692SOL    HW137712   4.314   2.011   2.156 -0.8324  0.9436  1.8256
 8692SOL    HW237713   4.398   1.908   2.203 -1.1739  0.5777 -2.1573
 8693SOL     OW37714   1.986   2.526   5.630  0.1590  0.4880 -0.3114
 8693SOL    HW137715   1.946   2.578   5.561 -1.1183 -0.8429 -0.5759
 8693SOL    HW237716   1.930   2.448   5.638  0.9433 -0.1393 -0.9862
 8694SOL     OW37717   2.875   0.941   6.842  0.0817 -0.4099  0.0767
 8694SOL    HW137718   2.826   0.862   6.820 -0.5364 -0.0151  0.0113
 8694SOL    HW237719   2.925   0.909   6.916  0.9979 -0.7138 -0.6805
 8695SOL     OW37720   0.540   2.937  10.819 -0.3339 -0.2071  0.2768
 8695SOL    HW137721   0.614   2.979  10.862 -0.8970 -0.6221  1.6384
 8695SOL    HW237722   0.580   2.922  10.733  0.2176  1.2172  0.2772
 8696SOL     OW37723   0.376   2.868  12.590  0.0631 -0.3041  0.7452
 8696SOL    HW137724   0.379   2.833  12.679  1.1057  2.2911  1.7280
 8696SOL    HW237725   0.459   2.915  12.592 -0.9461  1.4998  0.7829
 8697SOL     OW37726   0.594   3.592   4.961 -0.2604  0.2106 -0.0344
 8697SOL    HW137727   0.650   3.616   4.887  2.8038 -1.3690  1.7452
 8697SOL    HW237728   0.513   3.609   4.913  0.0719  1.0825 -0.2958
 8698SOL     OW37729   1.813   1.622  14.009  0.1346 -0.8909  0.2760
 8698SOL    HW137730   1.867   1.649  14.084  1.3639  1.8813 -1.6199
 8698SOL    HW237731   1.738   1.679  14.024  1.1670  0.2306  1.2206
 8699SOL     OW37732   0.977   3.387   1.091  0.0167  0.3396  0.1626
 8699SOL    HW137733   0.924   3.438   1.029 -2.4260 -0.9883  1.1666
 8699SOL    HW237734   1.054   3.445   1.091 -0.7463  1.3577  3.0634
 8700SOL     OW37735   1.705   4.367   6.022  0.3390  0.0446 -0.2031
 8700SOL    HW137736   1.759   4.380   6.100 -0.3093 -0.7974  0.3857
 8700SOL    HW237737   1.775   4.344   5.961 -0.8635 -1.4467 -1.0337
 8701SOL     OW37738   0.970   0.415   5.901  0.1361 -0.8879  0.1893
 8701SOL    HW137739   0.939   0.328   5.875 -0.9028 -0.2350 -0.7427
 8701SOL    HW237740   1.037   0.431   5.834 -1.2394 -0.7264 -1.1476
 8702SOL     OW37741   2.979   1.926   6.950  0.0985  0.1757 -0.0906
 8702SOL    HW137742   2.898   1.891   6.987  0.8496 -1.6019 -0.1695
 8702SOL    HW237743   2.999   2.000   7.008  1.0003 -0.2525  0.1448
 8703SOL     OW37744   3.496   3.020   8.489 -0.3245 -0.1661  0.1349
 8703SOL    HW137745   3.467   3.107   8.460 -0.5673 -0.1869  0.3183
 8703SOL    HW237746   3.492   3.029   8.584 -1.2510  1.6182 -0.0842
 8704SOL     OW37747   0.989   2.034   5.779  0.8483  0.5168  0.6610
 8704SOL    HW137748   0.996   2.003   5.869  1.0553 -0.9428  0.1407
 8704SOL    HW237749   0.947   2.120   5.789 -2.0749 -1.0180  1.5031
 8705SOL     OW37750   3.119   1.961   8.120  0.1508  0.5465  0.8056
 8705SOL    HW137751   3.119   1.867   8.138 -0.0993  0.4642  0.3751
 8705SOL    HW237752   3.027   1.985   8.132 -0.8266 -0.8866 -3.6980
 8706SOL     OW37753   0.707   2.034  16.677  0.4844  0.4091  0.5154
 8706SOL    HW137754   0.648   1.989  16.738  0.2706  0.3677  0.2766
 8706SOL    HW237755   0.786   2.018  16.729  0.9483  1.3188  0.0814
 8707SOL     OW37756   2.808   3.508   7.610  0.1641 -0.0643 -0.2304
 8707SOL    HW137757   2.819   3.463   7.527  0.7345 -0.5699  0.1231
 8707SOL    HW237758   2.838   3.596   7.585  0.2926 -0.6099 -2.0352
 8708SOL     OW37759   2.367   3.724   6.002 -0.5171  0.0002 -0.5431
 8708SOL    HW137760   2.283   3.680   6.014 -0.4830  0.1575  0.2767
 8708SOL    HW237761   2.425   3.667   5.951 -0.8908 -2.1440  1.4547
 8709SOL     OW37762   2.793   2.473  11.102 -0.5701 -0.4664 -0.1433
 8709SOL    HW137763   2.797   2.568  11.111 -1.5170 -0.2734 -1.7426
 8709SOL    HW237764   2.885   2.450  11.087  1.0230  3.2123  4.1574
 8710SOL     OW37765   0.362   0.089   1.963  0.1384  0.6327 -0.2160
 8710SOL    HW137766   0.272   0.099   1.933  0.5062  0.5503 -1.3485
 8710SOL    HW237767   0.349   0.016   2.022  1.9848  0.5915  0.1525
 8711SOL     OW37768   4.276   3.661   6.262 -0.2867  0.3613  0.2943
 8711SOL    HW137769   4.269   3.613   6.179  3.3724 -1.1514  0.8673
 8711SOL    HW237770   4.206   3.626   6.316  0.6640 -1.1461  0.5420
 8712SOL     OW37771   4.328   2.060   7.333 -0.0625  0.2865  0.1295
 8712SOL    HW137772   4.267   2.133   7.329 -0.0887  0.4066  3.5303
 8712SOL    HW237773   4.372   2.078   7.415 -1.6838 -1.8268  1.4669
 8713SOL     OW37774   1.976   1.455   8.410  0.1400  0.6510 -0.8003
 8713SOL    HW137775   2.045   1.391   8.391  0.2702  0.2928  0.8947
 8713SOL    HW237776   1.915   1.426   8.343  0.8503 -2.4866 -0.1075
 8714SOL     OW37777   4.254   3.265   3.881  0.0681  0.5576  0.1305
 8714SOL    HW137778   4.239   3.173   3.861 -0.7208  1.4000 -3.0607
 8714SOL    HW237779   4.170   3.303   3.854 -1.1251 -0.4418  2.4724
 8715SOL     OW37780   3.548   3.961  10.546  0.2541  0.2081  0.3939
 8715SOL    HW137781   3.541   4.056  10.550 -1.6996  0.0721  0.1707
 8715SOL    HW237782   3.643   3.951  10.559  0.4415  1.4343 -0.0416
 8716SOL     OW37783   2.442   3.129   5.166 -0.3838 -0.2432  0.4222
 8716SOL    HW137784   2.415   3.094   5.251 -0.4669 -3.2174 -0.8457
 8716SOL    HW237785   2.362   3.132   5.114  0.9031  0.2309 -1.5431
 8717SOL     OW37786   3.746   2.309  14.560  0.2793  0.2451 -0.3691
 8717SOL    HW137787   3.693   2.249  14.612  1.7340  0.2974  1.1495
 8717SOL    HW237788   3.753   2.258  14.479 -0.2394 -1.5135  0.6994
 8718SOL     OW37789   2.377   1.570   1.565  0.2906 -0.2946 -0.6211
 8718SOL    HW137790   2.353   1.486   1.526  0.8882  0.9170 -3.6191
 8718SOL    HW237791   2.361   1.622   1.486  1.3002  0.0868 -0.5731
 8719SOL     OW37792   0.423   2.852   5.037  0.2913 -0.2251  0.4557
 8719SOL    HW137793   0.428   2.760   5.061  0.3606 -0.1749  0.6305
 8719SOL    HW237794   0.515   2.867   5.057  0.0667  1.2227  0.4633
 8720SOL     OW37795   0.451   1.282   9.828 -0.6368 -0.5827 -0.2661
 8720SOL    HW137796   0.536   1.310   9.794  0.5929 -1.3858  2.1200
 8720SOL    HW237797   0.485   1.247   9.910  0.8057  3.7057  0.9447
 8721SOL     OW37798   3.556   4.269   1.581  0.6336 -0.0050 -0.2523
 8721SOL    HW137799   3.645   4.249   1.554  0.3153 -0.4390 -0.9859
 8721SOL    HW237800   3.552   4.356   1.541  0.5512  0.3915  0.6229
 8722SOL     OW37801   4.241   4.102   3.105  0.4760 -0.1098  0.3359
 8722SOL    HW137802   4.239   4.151   3.022 -0.4311  0.4095  0.6597
 8722SOL    HW237803   4.214   4.170   3.168  0.3751  0.0589  0.1102
 8723SOL     OW37804   0.933   1.298  10.848  0.1186 -0.2396  0.5490
 8723SOL    HW137805   0.929   1.342  10.763 -3.0138  2.3938  2.0729
 8723SOL    HW237806   0.878   1.344  10.911 -2.5289 -0.2423 -1.7635
 8724SOL     OW37807   3.380   2.555   5.813  0.1330 -0.3753  0.2476
 8724SOL    HW137808   3.290   2.581   5.833  0.4920  2.0012 -1.2011
 8724SOL    HW237809   3.417   2.522   5.895  2.5253  0.1929 -0.6088
 8725SOL     OW37810   4.475   2.767   5.274  0.3554 -0.2781  0.0820
 8725SOL    HW137811   4.393   2.726   5.300  0.2258 -2.1123 -3.2292
 8725SOL    HW237812   4.460   2.758   5.180  0.2495  0.5820  0.0142
 8726SOL     OW37813   0.795   4.199  17.077  0.0008  0.1228 -0.0000
 8726SOL    HW137814   0.767   4.284  17.110  0.4876  1.0129 -1.8563
 8726SOL    HW237815   0.795   4.150  17.159  1.5006  0.8483  0.4288
 8727SOL     OW37816   0.369   3.630   7.171 -0.1405 -0.2311 -0.1936
 8727SOL    HW137817   0.410   3.697   7.115 -3.4996 -0.2369 -2.6554
 8727SOL    HW237818   0.447   3.594   7.214  1.7351  0.6903 -2.7692
 8728SOL     OW37819   1.748   3.646  12.314  0.0490  0.5851 -0.2682
 8728SOL    HW137820   1.810   3.624  12.384  1.5896  0.2065 -1.7458
 8728SOL    HW237821   1.661   3.645  12.354  0.2722 -1.4298  0.1934
 8729SOL     OW37822   2.518   3.853   2.010 -0.3843  0.1987 -0.2205
 8729SOL    HW137823   2.593   3.793   2.000 -0.6398  0.0137 -0.9860
 8729SOL    HW237824   2.532   3.906   1.932 -0.4115  0.0275 -0.3414
 8730SOL     OW37825   1.261   1.045   5.766  0.3204 -0.2021 -0.3414
 8730SOL    HW137826   1.192   1.111   5.768  0.3898 -0.1306 -0.2833
 8730SOL    HW237827   1.227   0.988   5.834  1.6888  1.1020  1.4557
 8731SOL     OW37828   1.347   2.552   7.638 -0.4288  0.0282  0.7185
 8731SOL    HW137829   1.340   2.463   7.674 -0.8562 -0.3622 -0.3331
 8731SOL    HW237830   1.287   2.573   7.568  1.0390  0.2827 -0.4641
 8732SOL     OW37831   1.007   1.149   2.802  0.3022  0.7133  0.0203
 8732SOL    HW137832   1.085   1.123   2.851 -0.5027 -1.4534  0.1471
 8732SOL    HW237833   1.042   1.138   2.714  1.2957  1.5959  0.2973
 8733SOL     OW37834   3.108   0.179   3.455 -0.9606  0.2930  0.1081
 8733SOL    HW137835   3.040   0.119   3.486 -1.1059  0.4078  0.0107
 8733SOL    HW237836   3.114   0.221   3.541  0.1122 -0.1659  0.2516
 8734SOL     OW37837   1.752   1.545   3.355  0.1572  0.2575 -0.0068
 8734SOL    HW137838   1.778   1.533   3.264  2.8255 -1.3153  0.9845
 8734SOL    HW237839   1.804   1.480   3.403  0.3312  0.2943 -0.1486
 8735SOL     OW37840   1.014   2.583   5.362  0.0665 -0.0778 -0.2919
 8735SOL    HW137841   1.019   2.674   5.390 -0.4417  0.6669 -2.6443
 8735SOL    HW237842   1.062   2.596   5.281  1.6865 -4.5648 -0.0601
 8736SOL     OW37843   4.150   4.326   9.129 -0.1411  0.2610  0.3175
 8736SOL    HW137844   4.232   4.357   9.089 -0.5268  1.9105  0.8214
 8736SOL    HW237845   4.174   4.339   9.221 -1.0174  1.4514  0.3755
 8737SOL     OW37846   4.213   2.095   8.043 -0.0181 -0.3065 -0.5103
 8737SOL    HW137847   4.295   2.098   7.994  0.2880 -0.6578 -0.0086
 8737SOL    HW237848   4.155   2.058   7.976 -0.5606  1.3256 -0.9410
 8738SOL     OW37849   3.994   1.214   7.452 -0.4220  0.3893 -0.3592
 8738SOL    HW137850   4.003   1.294   7.399 -1.0590  0.7883  0.1276
 8738SOL    HW237851   4.068   1.158   7.428  0.9700  1.8416  0.4992
 8739SOL     OW37852   0.066   4.623   9.958  0.1019 -0.2212  0.6062
 8739SOL    HW137853   0.032   4.636  10.047  0.1838  0.2476  0.5708
 8739SOL    HW237854   0.094   4.532   9.966 -1.9413 -0.8870  0.2079
 8740SOL     OW37855   3.902   1.534  15.490  0.5226  0.1592  0.3660
 8740SOL    HW137856   3.856   1.603  15.443  0.0436 -0.8868 -0.6937
 8740SOL    HW237857   3.826   1.491  15.529  0.5018  1.0795  1.3520
 8741SOL     OW37858   3.234   1.677   4.459  0.2466  0.3821  0.1445
 8741SOL    HW137859   3.316   1.713   4.426  0.5052 -1.5168 -1.2875
 8741SOL    HW237860   3.170   1.740   4.425 -1.6037 -0.8126  1.4037
 8742SOL     OW37861   3.095   3.602   1.759 -0.1801 -0.7744  0.3566
 8742SOL    HW137862   3.054   3.670   1.706 -0.4894 -0.2642  1.2501
 8742SOL    HW237863   3.109   3.543   1.684 -0.6387  0.5759 -0.7925
 8743SOL     OW37864   0.580   1.654  17.149  0.3628  0.1124  0.0217
 8743SOL    HW137865   0.573   1.748  17.168  2.6035  0.2630  0.0628
 8743SOL    HW237866   0.499   1.629  17.105  0.3342  0.5323 -0.1646
 8744SOL     OW37867   1.561   0.638   7.304  0.1645  0.1964 -0.6962
 8744SOL    HW137868   1.531   0.727   7.287 -0.5117 -0.2416 -1.7216
 8744SOL    HW237869   1.621   0.620   7.232  0.3049 -0.1412 -0.4931
 8745SOL     OW37870   1.298   0.129  15.361  0.4591  0.0786 -0.3084
 8745SOL    HW137871   1.313   0.216  15.325 -0.9334  1.5409  2.6567
 8745SOL    HW237872   1.206   0.137  15.384 -0.1287  1.1091 -3.0061
 8746SOL     OW37873   3.933   0.996  16.621  0.3278  0.0687 -0.2894
 8746SOL    HW137874   3.928   1.075  16.675 -0.3793  0.8741 -1.5572
 8746SOL    HW237875   4.020   0.999  16.581  0.2096  1.3125 -0.4437
 8747SOL     OW37876   4.502   4.706  16.272 -0.2862  0.2439  0.4166
 8747SOL    HW137877   4.575   4.691  16.332 -1.2671 -0.7416  1.3948
 8747SOL    HW237878   4.431   0.002  16.328 -2.3761  1.2509 -2.8483
 8748SOL     OW37879   0.862   1.361  17.700 -0.4214 -0.4219 -0.2489
 8748SOL    HW137880   0.806   1.439  17.696  1.4760  0.8351 -1.9841
 8748SOL    HW237881   0.945   1.404  17.721 -2.5706  4.0340 -1.0715
 8749SOL     OW37882   0.408   4.246   9.745  0.0379 -0.1792 -0.2961
 8749SOL    HW137883   0.385   4.197   9.666  0.4991 -1.3291  0.2797
 8749SOL    HW237884   0.470   4.309   9.710 -0.8852  0.9729  0.1240
 8750SOL     OW37885   1.731   0.121   7.312  0.4593 -0.2050  0.4132
 8750SOL    HW137886   1.741   0.074   7.229 -3.4698 -0.1297 -0.0808
 8750SOL    HW237887   1.823   0.147   7.308 -0.2984  2.5106  0.7763
 8751SOL     OW37888   1.486   3.619   4.282  0.5999  0.4463  0.1152
 8751SOL    HW137889   1.496   3.627   4.187  1.8174 -0.1567  0.1957
 8751SOL    HW237890   1.394   3.599   4.296  0.1845  0.1069 -2.9802
 8752SOL     OW37891   0.286   1.689  15.667 -0.2388  0.2642  0.3223
 8752SOL    HW137892   0.201   1.645  15.666  0.0386 -0.3265  2.3169
 8752SOL    HW237893   0.318   1.675  15.578 -2.7010  0.0513 -0.5255
 8753SOL     OW37894   2.094   0.769  10.726  0.2912  0.8765 -0.2614
 8753SOL    HW137895   2.095   0.785  10.632 -3.7402  3.2621  0.1438
 8753SOL    HW237896   2.188   0.767  10.742  0.2408  0.0325 -0.0877
 8754SOL     OW37897   1.232   2.707  15.118  0.5903  0.3100  0.3675
 8754SOL    HW137898   1.289   2.660  15.179  0.0342 -0.7561  0.0647
 8754SOL    HW237899   1.302   2.741  15.062  0.5549 -1.0961 -0.5555
 8755SOL     OW37900   2.453   2.758  17.295  0.0999 -0.5152  0.6172
 8755SOL    HW137901   2.456   2.853  17.297  1.2903 -0.5612  0.4896
 8755SOL    HW237902   2.540   2.732  17.266 -0.2857 -0.1573 -0.8503
 8756SOL     OW37903   4.134   4.556   8.553 -0.6304 -0.4338  0.2211
 8756SOL    HW137904   4.184   4.595   8.625  1.4027 -0.7358 -1.0259
 8756SOL    HW237905   4.108   4.639   8.512  0.2261 -0.1400  0.2847
 8757SOL     OW37906   1.051   2.794   8.881  0.3281  0.1504 -0.6063
 8757SOL    HW137907   0.997   2.732   8.930  1.4279  0.4849  1.0130
 8757SOL    HW237908   1.121   2.745   8.838 -1.6282 -1.2438 -2.1845
 8758SOL     OW37909   0.572   3.712   9.699 -0.0940  0.3083 -0.0275
 8758SOL    HW137910   0.634   3.642   9.720 -0.5280 -0.4117 -1.1568
 8758SOL    HW237911   0.618   3.783   9.745  2.1637 -0.1853 -1.5622
 8759SOL     OW37912   1.978   4.129   8.006  0.6122  0.1781 -0.2316
 8759SOL    HW137913   1.932   4.193   7.951 -0.1308 -0.6288 -0.5442
 8759SOL    HW237914   1.915   4.122   8.078  1.7496 -1.5612  0.5766
 8760SOL     OW37915   4.099   1.050  13.311  0.3828  0.7380 -0.4253
 8760SOL    HW137916   4.100   1.138  13.350  1.7948  0.0918  0.9440
 8760SOL    HW237917   4.191   1.053  13.287  0.3772 -0.0664 -0.5251
 8761SOL     OW37918   4.467   4.412  15.506 -0.1302  0.1161 -0.7482
 8761SOL    HW137919   4.418   4.402  15.425  0.5673  2.0058 -1.3954
 8761SOL    HW237920   4.527   4.479  15.474 -0.7237  1.6564  1.3870
 8762SOL     OW37921   3.497   3.710   0.075 -0.1726  0.6757 -0.3257
 8762SOL    HW137922   3.434   3.644   0.045  1.3849 -1.8981  1.9960
 8762SOL    HW237923   3.581   3.681   0.039 -0.0450  0.7208 -0.0655
 8763SOL     OW37924   1.654   0.422   4.400 -0.5568 -0.5828 -0.0461
 8763SOL    HW137925   1.715   0.424   4.327  1.0741 -1.9172  1.2820
 8763SOL    HW237926   1.598   0.350   4.373 -0.0591 -0.1726 -2.1542
 8764SOL     OW37927   4.621   0.025  13.235  0.0105 -0.1133  0.4353
 8764SOL    HW137928   4.639   4.686  13.180 -2.7154  0.0869 -0.7238
 8764SOL    HW237929   4.565   0.079  13.179  0.9984  1.5031  0.9817
 8765SOL     OW37930   3.012   1.185   4.280  0.3438 -0.2304 -0.5236
 8765SOL    HW137931   3.045   1.271   4.306  1.2224 -1.4079  2.2541
 8765SOL    HW237932   2.961   1.213   4.204  1.7499 -0.0613 -1.4158
 8766SOL     OW37933   3.205   0.969   0.867 -0.6673 -0.2181  0.8893
 8766SOL    HW137934   3.128   0.921   0.835 -0.4307  1.2832 -1.8939
 8766SOL    HW237935   3.236   0.901   0.927 -0.6188 -0.4538  0.5991
 8767SOL     OW37936   2.805   2.867   4.411 -0.2666  0.4299 -0.1056
 8767SOL    HW137937   2.827   2.957   4.386 -2.4401  1.2692  1.0247
 8767SOL    HW237938   2.819   2.877   4.505 -1.6264 -0.6599  0.2181
 8768SOL     OW37939   4.190   0.224   8.468 -0.1086 -0.0751  0.1635
 8768SOL    HW137940   4.168   0.248   8.558 -0.5791  1.1317 -0.2793
 8768SOL    HW237941   4.284   0.204   8.475 -0.1626  0.1791  1.5825
 8769SOL     OW37942   4.731   0.302  11.098 -0.0664  0.2780  0.2366
 8769SOL    HW137943   0.037   0.216  11.092 -0.3955  0.2151 -1.2589
 8769SOL    HW237944   0.025   0.331  11.184  0.9574 -1.1326  0.3602
 8770SOL     OW37945   2.096   3.625   8.260 -0.3435 -0.0974 -0.1133
 8770SOL    HW137946   2.095   3.553   8.324  0.2056  2.0269  2.2726
 8770SOL    HW237947   2.043   3.693   8.303  0.1090 -0.1082  0.4630
 8771SOL     OW37948   0.071   1.537   0.642  0.3678  0.1484  0.6292
 8771SOL    HW137949   0.007   1.473   0.611 -1.3378  2.3101 -0.3522
 8771SOL    HW237950   0.138   1.484   0.685  0.4985 -0.9400 -0.9039
 8772SOL     OW37951   2.082   0.138   6.037  0.3272  0.8285  0.4118
 8772SOL    HW137952   1.993   0.120   6.066  0.0418  1.5247 -0.0300
 8772SOL    HW237953   2.092   0.106   5.947 -0.1257  0.6585  0.4231
 8773SOL     OW37954   0.349   1.035  11.117 -0.1913  0.0875 -0.1549
 8773SOL    HW137955   0.427   0.980  11.116 -1.6305 -1.9305  0.2586
 8773SOL    HW237956   0.347   1.088  11.196 -1.3683  0.5417 -0.4844
 8774SOL     OW37957   2.142   0.843   4.916  0.3164 -1.0535  0.3569
 8774SOL    HW137958   2.168   0.760   4.957 -1.3182 -1.2126  1.1088
 8774SOL    HW237959   2.195   0.904   4.966 -0.5249  0.2584 -0.3568
 8775SOL     OW37960   3.313   3.718   7.333  0.1907  0.2122  0.6419
 8775SOL    HW137961   3.255   3.785   7.369 -0.3959 -0.6631  1.3263
 8775SOL    HW237962   3.260   3.638   7.335  2.0437 -1.0115  1.1797
 8776SOL     OW37963   0.880   0.524   4.263  0.3176  0.1271 -0.2510
 8776SOL    HW137964   0.968   0.505   4.296 -0.1108  0.6566  1.1651
 8776SOL    HW237965   0.817   0.480   4.320 -0.8926  1.7981 -0.3141
 8777SOL     OW37966   4.265   2.558   5.787  0.3919  0.3629 -0.0837
 8777SOL    HW137967   4.314   2.626   5.742  0.2920  1.9662  2.2385
 8777SOL    HW237968   4.271   2.483   5.727  0.5264 -0.3998  0.8659
 8778SOL     OW37969   3.099   2.976   6.777  0.4435 -0.4816  0.7387
 8778SOL    HW137970   3.178   3.017   6.812 -0.1399  0.5039  0.8908
 8778SOL    HW237971   3.075   2.911   6.843 -0.7929  0.1945  0.9668
 8779SOL     OW37972   0.577   3.898  11.228 -1.1139 -0.1220 -0.4513
 8779SOL    HW137973   0.482   3.904  11.231 -1.2244 -2.3574  0.6811
 8779SOL    HW237974   0.591   3.897  11.134 -0.6378  0.3177 -0.3899
 8780SOL     OW37975   4.371   1.461   5.596  0.5441 -0.5662  0.6523
 8780SOL    HW137976   4.391   1.444   5.504 -3.0115  0.0738 -0.1971
 8780SOL    HW237977   4.425   1.537   5.618  3.6529 -2.3164 -0.8865
 8781SOL     OW37978   2.668   0.860   6.067  0.0954 -0.1472  0.0563
 8781SOL    HW137979   2.635   0.777   6.033  0.3434 -0.1095 -0.2718
 8781SOL    HW237980   2.578   0.892   6.058 -0.2873 -1.2845 -0.2409
 8782SOL     OW37981   1.824   4.038   3.605  0.1311 -0.1437 -0.0414
 8782SOL    HW137982   1.865   3.956   3.633  0.2457  0.8766  2.7281
 8782SOL    HW237983   1.775   4.069   3.681  0.7042  1.5069 -0.3662
 8783SOL     OW37984   4.427   4.122   7.272  0.0082 -1.0386 -0.1590
 8783SOL    HW137985   4.365   4.174   7.324 -0.4147 -0.5039 -1.1856
 8783SOL    HW237986   4.476   4.074   7.338  1.0120  1.3209  0.7997
 8784SOL     OW37987   2.038   0.254   2.824 -0.1035 -0.0732 -0.1277
 8784SOL    HW137988   2.097   0.325   2.802  0.4374  0.0872  1.8358
 8784SOL    HW237989   1.948   0.288   2.827  0.7960  2.2221  0.3934
 8785SOL     OW37990   3.851   3.367   8.861  0.6181 -0.5530  0.2833
 8785SOL    HW137991   3.833   3.428   8.790  1.0900  1.3358  1.7765
 8785SOL    HW237992   3.763   3.331   8.877 -0.0283  1.6107  1.6816
 8786SOL     OW37993   0.991   3.721   1.184  0.4448 -0.1409  0.3352
 8786SOL    HW137994   0.941   3.667   1.246 -0.4433 -0.2243 -0.4324
 8786SOL    HW237995   0.918   3.752   1.129 -0.4949 -2.7594  0.0831
 8787SOL     OW37996   2.887   0.847   9.785 -0.0477 -0.2537 -0.2878
 8787SOL    HW137997   2.855   0.828   9.697  3.1852 -1.1029 -1.2974
 8787SOL    HW237998   2.923   0.936   9.784  0.2254 -0.3855 -1.8943
 8788SOL     OW37999   3.265   1.227   1.005 -0.9476  0.0071 -0.0836
 8788SOL    HW138000   3.237   1.153   0.952 -0.7041 -0.9864  1.1679
 8788SOL    HW238001   3.353   1.238   0.970  0.8035  0.2071  4.3149
 8789SOL     OW38002   0.173   4.470   4.503  0.5650 -0.3713  0.0236
 8789SOL    HW138003   0.119   4.541   4.468  0.6128 -0.1391  0.4240
 8789SOL    HW238004   0.182   4.506   4.592  0.1578 -0.9416  0.2959
 8790SOL     OW38005   1.092   2.559   2.560  0.5659 -0.1651  0.3834
 8790SOL    HW138006   1.017   2.532   2.614  0.6088 -0.7580  0.1447
 8790SOL    HW238007   1.133   2.473   2.548  0.8214 -0.2167  1.7042
 8791SOL     OW38008   0.093   2.023   9.419 -0.3758  0.4137  0.5828
 8791SOL    HW138009   0.117   2.070   9.499  0.6376 -0.2336  0.6595
 8791SOL    HW238010   0.181   2.000   9.388 -0.1043 -0.8809  2.2754
 8792SOL     OW38011   2.667   4.040   6.532  0.4043 -0.0350  0.1071
 8792SOL    HW138012   2.752   4.072   6.561 -0.2916  0.7874  1.2377
 8792SOL    HW238013   2.617   4.122   6.534  2.1060  0.9563  2.7717
 8793SOL     OW38014   3.911   4.356   3.330 -0.0235  0.3720 -0.4773
 8793SOL    HW138015   3.999   4.375   3.362 -0.8741  0.7446  1.6894
 8793SOL    HW238016   3.889   4.445   3.302  0.5742  0.3043 -1.1603
 8794SOL     OW38017   0.889   1.304   3.127 -0.3171 -0.3800 -0.2278
 8794SOL    HW138018   0.860   1.273   3.041 -3.7226  1.1336  0.3745
 8794SOL    HW238019   0.804   1.322   3.166 -0.3144 -0.1141 -0.3470
 8795SOL     OW38020   1.705   3.045   7.820 -0.1709 -0.1678  0.7962
 8795SOL    HW138021   1.648   2.981   7.777 -0.5414 -0.7468  2.1451
 8795SOL    HW238022   1.644   3.117   7.837  0.9712  0.4025  2.4389
 8796SOL     OW38023   1.135   2.377  15.736  0.8055  0.2668 -0.0078
 8796SOL    HW138024   1.062   2.315  15.733  1.6156 -0.6982  0.0972
 8796SOL    HW238025   1.185   2.343  15.662 -0.5337 -1.2064 -0.2443
 8797SOL     OW38026   4.600   0.993   2.479 -0.6525 -0.0223 -0.0260
 8797SOL    HW138027   4.616   0.960   2.391  1.6472  1.8122 -0.3188
 8797SOL    HW238028   4.517   1.038   2.467 -0.2410  0.7773  0.1024
 8798SOL     OW38029   3.429   3.548   3.566  0.0902  0.8162 -0.2159
 8798SOL    HW138030   3.357   3.518   3.622 -0.0356  1.9575  0.2297
 8798SOL    HW238031   3.378   3.583   3.493 -0.0263  1.2126  0.0623
 8799SOL     OW38032   1.542   4.303  12.763  0.5456 -0.2166 -0.0589
 8799SOL    HW138033   1.473   4.258  12.714  0.7904  0.6665 -1.2121
 8799SOL    HW238034   1.488   4.360  12.818 -0.2614 -0.2569 -0.8128
 8800SOL     OW38035   1.879   4.516  13.542  0.0281 -0.9644 -0.2136
 8800SOL    HW138036   1.784   4.522  13.526  0.2648 -1.8237 -1.9188
 8800SOL    HW238037   1.879   4.594  13.598  0.5235 -0.1178 -1.3714
 8801SOL     OW38038   0.935   4.425   7.733  0.4207 -0.1340 -0.4626
 8801SOL    HW138039   0.959   4.477   7.810 -2.2596  2.0881 -1.1056
 8801SOL    HW238040   0.953   4.492   7.667 -2.3339 -0.8762 -1.9710
 8802SOL     OW38041   2.205   3.861  11.232 -0.1521 -0.3671 -0.6452
 8802SOL    HW138042   2.275   3.825  11.286  0.4495  1.1862 -0.3984
 8802SOL    HW238043   2.203   3.954  11.256  0.9867 -0.8475  1.3355
 8803SOL     OW38044   4.125   0.129   6.656 -0.2478  0.9236 -0.8329
 8803SOL    HW138045   4.072   0.186   6.713 -1.2397  1.9836 -2.8220
 8803SOL    HW238046   4.052   0.090   6.608  1.3911 -3.1978  0.0796
 8804SOL     OW38047   4.569   4.431   7.555  0.2553  0.2820 -0.3719
 8804SOL    HW138048   4.585   4.384   7.636 -0.2933 -1.7150 -1.4056
 8804SOL    HW238049   4.500   4.484   7.594  0.2183  0.3195 -0.4863
 8805SOL     OW38050   3.600   2.258   5.319  0.1310 -0.5739  0.5153
 8805SOL    HW138051   3.608   2.348   5.288 -0.7998 -1.3503 -2.0454
 8805SOL    HW238052   3.513   2.257   5.359 -0.7440 -1.5998 -1.3892
 8806SOL     OW38053   4.449   1.958   8.543  0.1558 -0.5927  0.3080
 8806SOL    HW138054   4.460   1.866   8.567  0.7111 -0.8178 -0.7892
 8806SOL    HW238055   4.420   1.955   8.452 -2.8471 -3.2403  1.3704
 8807SOL     OW38056   1.209   1.822   7.408 -0.7896 -0.0248  0.6093
 8807SOL    HW138057   1.127   1.848   7.449 -1.4814 -1.6118  0.2296
 8807SOL    HW238058   1.187   1.869   7.328 -1.8080  0.9162  1.4542
 8808SOL     OW38059   2.375   4.092  16.451  0.7868 -0.1871 -0.3251
 8808SOL    HW138060   2.434   4.127  16.518  0.5911  1.2862 -0.9309
 8808SOL    HW238061   2.336   4.015  16.491 -1.1985 -0.0471 -2.0356
 8809SOL     OW38062   2.624   2.700  11.897  0.5081 -0.7136  0.1228
 8809SOL    HW138063   2.581   2.675  11.816  0.0205  1.2256 -0.2168
 8809SOL    HW238064   2.590   2.789  11.911 -1.8248 -1.5245 -0.4764
 8810SOL     OW38065   3.022   1.069  11.315  0.4163 -0.5191 -0.3554
 8810SOL    HW138066   3.074   0.988  11.311 -1.3660 -1.6196 -1.0880
 8810SOL    HW238067   3.043   1.122  11.239  0.3124 -0.2280 -0.1781
 8811SOL     OW38068   0.616   2.353   4.397  0.2072 -0.1454 -0.2694
 8811SOL    HW138069   0.536   2.306   4.373 -0.3573 -0.1739  1.6372
 8811SOL    HW238070   0.631   2.313   4.483  2.0538  1.7568  0.2946
 8812SOL     OW38071   1.307   2.742   4.922 -0.4883 -0.6248  0.0266
 8812SOL    HW138072   1.347   2.819   4.881  1.1354 -1.7080 -0.4120
 8812SOL    HW238073   1.259   2.720   4.842  0.5384 -1.5223 -0.3353
 8813SOL     OW38074   0.757   0.395  10.078 -0.1973 -0.0967  0.2350
 8813SOL    HW138075   0.758   0.428  10.168 -0.9183  0.9169 -0.1368
 8813SOL    HW238076   0.836   0.341  10.082 -2.1513 -2.8839  0.7405
 8814SOL     OW38077   4.389   0.684   2.657 -0.5437 -0.6488  0.1735
 8814SOL    HW138078   4.336   0.605   2.667 -0.4241 -0.5805  1.3951
 8814SOL    HW238079   4.396   0.691   2.562  0.5183  0.7346  0.3451
 8815SOL     OW38080   2.002   4.715   5.259  0.2581  0.2619  0.0622
 8815SOL    HW138081   2.051   4.713   5.341 -2.8016 -1.0545  1.8365
 8815SOL    HW238082   1.974   0.069   5.240  1.0066  0.1131 -1.7288
 8816SOL     OW38083   1.912   3.524   7.508  0.1144 -0.2787 -0.1261
 8816SOL    HW138084   1.949   3.437   7.496  0.5031  0.5290 -4.8097
 8816SOL    HW238085   1.873   3.513   7.595  0.9230 -1.8523  0.0336
 8817SOL     OW38086   2.339   3.122   9.041 -0.3715 -0.4684 -0.2309
 8817SOL    HW138087   2.330   3.145   9.133  1.7642 -2.7075  0.5422
 8817SOL    HW238088   2.255   3.152   9.006  0.2025  0.5561 -0.7168
 8818SOL     OW38089   1.955   1.107   3.954  0.5750 -0.5100 -0.0461
 8818SOL    HW138090   1.936   1.126   3.863  0.2521 -1.2591 -0.1340
 8818SOL    HW238091   2.048   1.098   3.938  0.7310  2.5537 -0.8476
 8819SOL     OW38092   4.561   1.139   7.165  0.2097 -1.0058  0.5762
 8819SOL    HW138093   4.539   1.088   7.087 -3.3714  0.2101  0.7732
 8819SOL    HW238094   4.488   1.200   7.180 -0.4329 -1.5368 -0.4150
 8820SOL     OW38095   0.453   0.643   5.631 -0.4478 -0.1292  0.5018
 8820SOL    HW138096   0.543   0.632   5.661 -0.4830  1.5855  1.2380
 8820SOL    HW238097   0.412   0.677   5.712 -2.6174  1.9559 -1.4606
 8821SOL     OW38098   0.186   0.146   5.718 -0.4685 -0.0806  0.0201
 8821SOL    HW138099   0.267   0.095   5.712 -0.9997 -0.6205 -2.7175
 8821SOL    HW238100   0.133   0.098   5.653  0.0382 -2.4294  1.3457
 8822SOL     OW38101   3.150   0.387   8.383  0.1401  0.2072 -0.4197
 8822SOL    HW138102   3.156   0.352   8.472  0.1911  1.1539 -0.0512
 8822SOL    HW238103   3.219   0.453   8.380 -0.1973  0.4709 -2.1745
 8823SOL     OW38104   2.834   3.774   7.789 -0.6926 -0.2902  0.2327
 8823SOL    HW138105   2.880   3.835   7.732 -1.0717 -0.7308 -0.5470
 8823SOL    HW238106   2.907   3.729   7.832  1.4439  0.5911 -2.4396
 8824SOL     OW38107   0.577   0.598   3.265  0.0834 -0.3968  0.4774
 8824SOL    HW138108   0.656   0.652   3.259  0.1168 -0.7302 -2.0987
 8824SOL    HW238109   0.507   0.657   3.291 -1.1426 -2.3049  1.5085
 8825SOL     OW38110   4.205   2.241   4.142  0.5549  0.1629 -0.0856
 8825SOL    HW138111   4.225   2.334   4.148 -0.1870  0.3038  0.2346
 8825SOL    HW238112   4.111   2.249   4.128  0.5840  0.2910 -0.2090
 8826SOL     OW38113   2.155   2.129   4.353  0.0265 -0.4242  0.4018
 8826SOL    HW138114   2.244   2.138   4.386  0.4488 -0.0181 -0.8184
 8826SOL    HW238115   2.171   2.157   4.263 -0.8952  0.5841  0.5525
 8827SOL     OW38116   3.963   0.210   7.973 -0.1754  0.4531  0.5968
 8827SOL    HW138117   4.040   0.172   8.016 -0.8130  2.2185  3.2823
 8827SOL    HW238118   3.887   0.194   8.029 -0.2711 -0.9656  0.0547
 8828SOL     OW38119   4.435   3.972   6.096 -0.1341  0.5553 -0.2187
 8828SOL    HW138120   4.385   4.028   6.037 -0.1592  0.8545  0.0802
 8828SOL    HW238121   4.525   3.980   6.063 -0.8449  1.5763 -1.8699
 8829SOL     OW38122   1.324   4.004  16.655 -0.0923 -0.8630  0.4823
 8829SOL    HW138123   1.249   3.951  16.683 -1.9480  1.8972  0.6535
 8829SOL    HW238124   1.351   3.959  16.575  1.0508  0.3321  0.1911
 8830SOL     OW38125   1.308   2.432   8.724 -1.1032 -0.8467  0.5372
 8830SOL    HW138126   1.386   2.407   8.773 -0.4129  0.9924  0.3460
 8830SOL    HW238127   1.243   2.397   8.785 -0.5243 -2.0529  0.4741
 8831SOL     OW38128   0.659   2.696   5.738 -0.4487  0.3135 -0.5572
 8831SOL    HW138129   0.704   2.731   5.815 -0.4813 -0.7832 -0.0321
 8831SOL    HW238130   0.721   2.719   5.670 -1.1985 -1.0394 -1.6881
 8832SOL     OW38131   4.702   0.786   1.360  0.1308 -0.1058 -0.5049
 8832SOL    HW138132   0.026   0.731   1.309  0.2636  0.4318 -0.9283
 8832SOL    HW238133   0.013   0.784   1.443 -0.4943  1.5287 -0.1165
 8833SOL     OW38134   4.564   2.395  15.335 -0.2282 -0.5061 -0.1827
 8833SOL    HW138135   4.531   2.365  15.420  0.9474  2.0523  1.1831
 8833SOL    HW238136   4.646   2.434  15.365  1.0933 -2.8311 -0.7660
 8834SOL     OW38137   0.662   2.554  16.068 -0.5026  0.1052 -0.7170
 8834SOL    HW138138   0.686   2.502  16.145 -0.2366 -0.6250 -1.2844
 8834SOL    HW238139   0.733   2.619  16.070  0.7592 -1.2092 -2.4739
 8835SOL     OW38140   3.189   1.082   9.649  0.2299  0.4993  0.2834
 8835SOL    HW138141   3.186   1.165   9.696  2.3871  0.5548  0.3296
 8835SOL    HW238142   3.190   1.118   9.560 -2.7349  1.4794  0.6573
 8836SOL     OW38143   0.561   4.549   7.782 -0.4963  0.0051  0.3052
 8836SOL    HW138144   0.621   4.622   7.764  0.0996 -0.4438  0.4826
 8836SOL    HW238145   0.525   4.542   7.694  1.6922 -0.2710 -0.5486
 8837SOL     OW38146   3.906   1.170  12.217  0.2275  0.3933 -0.0452
 8837SOL    HW138147   3.996   1.197  12.201  0.0395  1.8139  1.1938
 8837SOL    HW238148   3.872   1.242  12.272  2.0632  1.1984  0.0283
 8838SOL     OW38149   1.195   1.747   4.188 -0.4374  0.3695 -0.0056
 8838SOL    HW138150   1.195   1.838   4.157 -1.1451  0.9175  1.6175
 8838SOL    HW238151   1.279   1.748   4.234 -0.3641 -3.0490 -0.0343
 8839SOL     OW38152   0.882   4.071   9.341  0.6131 -0.4584 -0.2599
 8839SOL    HW138153   0.808   4.080   9.282  2.6896  0.1210 -2.7880
 8839SOL    HW238154   0.905   3.979   9.330 -1.7095 -1.0550  0.0084
 8840SOL     OW38155   3.744   1.822   0.525  0.0033 -0.5829 -0.9836
 8840SOL    HW138156   3.744   1.899   0.582  0.9679  0.3884 -2.2816
 8840SOL    HW238157   3.775   1.854   0.441  0.0837  1.4453 -0.1825
 8841SOL     OW38158   3.034   4.564   1.736 -0.3218 -0.2335 -0.3839
 8841SOL    HW138159   3.122   4.602   1.740 -0.0867 -0.9202  0.9334
 8841SOL    HW238160   2.980   4.641   1.757 -0.2230 -0.6479  1.3218
 8842SOL     OW38161   3.976   0.728   6.131  0.1356 -0.0079  0.1156
 8842SOL    HW138162   3.886   0.747   6.158  0.6579  1.3488  0.9181
 8842SOL    HW238163   3.987   0.635   6.150  1.3856  0.3527  1.1890
 8843SOL     OW38164   0.162   1.083   3.677  0.2274  0.7735 -0.1281
 8843SOL    HW138165   0.256   1.072   3.665 -0.5681 -2.4835 -3.2245
 8843SOL    HW238166   0.137   0.997   3.709 -0.4989  0.4678 -1.5348
 8844SOL     OW38167   1.212   4.162   8.202 -0.0321 -0.1834  0.2303
 8844SOL    HW138168   1.159   4.105   8.147 -1.5553  1.6198 -0.1570
 8844SOL    HW238169   1.248   4.094   8.259  0.1142 -0.9827 -0.8127
 8845SOL     OW38170   1.892   4.486   6.172  0.0905  0.2539 -0.4866
 8845SOL    HW138171   1.840   4.558   6.211  2.1837  1.9106 -0.7684
 8845SOL    HW238172   1.934   4.459   6.254  0.5260 -2.5883 -1.6833
 8846SOL     OW38173   3.610   4.414   7.448 -0.4294 -0.0758 -0.1416
 8846SOL    HW138174   3.630   4.507   7.460 -1.5063  0.1225  0.0725
 8846SOL    HW238175   3.551   4.422   7.373  0.3335  0.5308 -0.6877
 8847SOL     OW38176   3.407   1.382   9.364 -0.4193  0.8977 -0.3323
 8847SOL    HW138177   3.363   1.456   9.322  0.4436  0.8606 -1.2876
 8847SOL    HW238178   3.485   1.374   9.310 -0.8430 -0.4345 -0.7521
 8848SOL     OW38179   0.983   0.150  11.641  0.0235  0.2053  0.2256
 8848SOL    HW138180   0.963   0.131  11.550  1.9782  0.1163 -0.1838
 8848SOL    HW238181   1.077   0.151  11.660  0.1475  0.7049 -0.4072
 8849SOL     OW38182   2.439   4.191   8.307 -0.5912 -0.5580  0.0224
 8849SOL    HW138183   2.477   4.126   8.248  1.2271  0.3808  0.1730
 8849SOL    HW238184   2.350   4.155   8.307 -0.9543  0.3383 -3.6172
 8850SOL     OW38185   3.816   0.800  11.814 -0.3230  0.0610 -0.0108
 8850SOL    HW138186   3.806   0.707  11.836  0.9891 -0.0923 -0.1046
 8850SOL    HW238187   3.735   0.833  11.854 -1.2664 -0.9121 -1.1166
 8851SOL     OW38188   2.710   3.187   3.246  0.4412 -0.4580 -0.4006
 8851SOL    HW138189   2.670   3.182   3.333 -0.8171 -3.2048 -1.1309
 8851SOL    HW238190   2.635   3.235   3.211 -1.2679 -2.7647  0.1211
 8852SOL     OW38191   1.227   3.505   1.071 -0.0916  0.1330  0.0729
 8852SOL    HW138192   1.269   3.504   1.157 -0.5051  0.1692  0.2739
 8852SOL    HW238193   1.205   3.598   1.069 -0.6075  0.0145  0.4824
 8853SOL     OW38194   0.339   1.496   1.119 -0.4134 -0.3912 -0.0462
 8853SOL    HW138195   0.343   1.411   1.076 -2.7613 -0.1036 -0.8357
 8853SOL    HW238196   0.412   1.539   1.075 -1.5768 -0.0669 -1.6759
 8854SOL     OW38197   4.449   0.040  14.900 -0.0984  0.1500  0.7054
 8854SOL    HW138198   4.453   0.119  14.846 -0.0267  1.4084  2.5734
 8854SOL    HW238199   4.509   4.714  14.859  0.9535 -0.0272  2.5362
 8855SOL     OW38200   2.180   2.584  16.940  0.3474 -0.0138  0.9865
 8855SOL    HW138201   2.157   2.662  16.889 -2.7576 -1.4475  0.1411
 8855SOL    HW238202   2.183   2.613  17.031 -1.4836 -0.0832  1.0609
 8856SOL     OW38203   1.335   0.816   1.515  0.2050 -0.7043  0.1008
 8856SOL    HW138204   1.324   0.842   1.424  0.0730 -0.0044  0.3197
 8856SOL    HW238205   1.252   0.780   1.546  1.2684 -0.0570  3.6897
 8857SOL     OW38206   1.467   0.860   6.733 -0.2884 -0.1039  0.1743
 8857SOL    HW138207   1.560   0.842   6.752 -0.2079  0.9757  0.7873
 8857SOL    HW238208   1.464   0.945   6.776 -0.9948 -0.7183  1.3507
 8858SOL     OW38209   0.694   2.888   7.267  0.1555 -0.4811  0.4323
 8858SOL    HW138210   0.612   2.841   7.286  0.5239 -0.4122  2.2318
 8858SOL    HW238211   0.730   2.915   7.352  0.3401  1.7224 -0.3536
 8859SOL     OW38212   1.095   3.630  16.697  0.0779  0.1410  0.2769
 8859SOL    HW138213   1.054   3.696  16.753  0.6127  2.1173 -1.6552
 8859SOL    HW238214   1.017   3.590  16.658  1.4925 -0.4314 -1.9540
 8860SOL     OW38215   3.972   0.728   0.300  0.0652  0.2436  0.6998
 8860SOL    HW138216   3.933   0.814   0.311 -1.0034 -0.2246  0.5500
 8860SOL    HW238217   3.898   0.674   0.328 -0.3049  0.6577  0.5190
 8861SOL     OW38218   1.468   2.296  17.502 -0.0799  0.1687 -0.5954
 8861SOL    HW138219   1.524   2.223  17.529 -0.8564  0.2294  1.1456
 8861SOL    HW238220   1.478   2.286  17.407 -0.5928 -1.9800 -0.4295
 8862SOL     OW38221   0.339   0.692   7.202 -0.4780  0.3487 -0.0692
 8862SOL    HW138222   0.290   0.629   7.148 -0.8302 -0.4792  1.2072
 8862SOL    HW238223   0.423   0.648   7.215 -0.4418  1.0756  2.1599
 8863SOL     OW38224   1.011   0.312   7.457  0.0297 -0.0313 -0.7755
 8863SOL    HW138225   1.096   0.353   7.467  0.2188 -1.1113  2.2191
 8863SOL    HW238226   0.982   0.322   7.367  0.3375  5.0920 -0.2852
 8864SOL     OW38227   3.395   2.663   2.402 -0.6016 -0.0895 -0.1140
 8864SOL    HW138228   3.361   2.653   2.491  1.4608 -0.7789  0.6043
 8864SOL    HW238229   3.474   2.717   2.412  1.7881 -3.2691 -1.8053
 8865SOL     OW38230   2.819   1.552  16.886  0.1534 -0.7635 -0.3143
 8865SOL    HW138231   2.908   1.517  16.892  0.9433  1.1432 -1.0583
 8865SOL    HW238232   2.785   1.510  16.965  0.6135  0.7169  0.6751
 8866SOL     OW38233   1.427   4.387   6.065 -0.0378  0.5559 -0.0776
 8866SOL    HW138234   1.522   4.387   6.051  0.5385 -1.0258  3.6541
 8866SOL    HW238235   1.424   4.343   6.150 -3.4430  0.0201 -0.4705
 8867SOL     OW38236   1.431   3.225  12.030 -0.0639  0.4297  0.3984
 8867SOL    HW138237   1.352   3.171  12.027  2.9016 -3.9007  1.4403
 8867SOL    HW238238   1.457   3.224  11.938 -1.0757  1.5680  0.0936
 8868SOL     OW38239   2.894   4.682   4.333 -0.0349 -0.0532  0.1106
 8868SOL    HW138240   2.927   0.029   4.297  1.2004 -0.2534  0.7760
 8868SOL    HW238241   2.801   4.698   4.319  0.0955  1.3259  0.7468
 8869SOL     OW38242   0.897   4.553  15.631  0.1337 -0.4318 -0.4882
 8869SOL    HW138243   0.906   4.464  15.666  0.8021  0.9675  2.9248
 8869SOL    HW238244   0.924   4.537  15.540 -1.1368 -0.5554 -0.8432
 8870SOL     OW38245   0.292   4.472  17.241  0.3360 -0.8062 -0.5500
 8870SOL    HW138246   0.329   4.421  17.169  0.0567  0.4914 -1.6260
 8870SOL    HW238247   0.376   4.477  17.286  0.1119 -1.1843 -0.0945
 8871SOL     OW38248   0.683   0.138   3.927 -0.1031 -0.3774  0.1785
 8871SOL    HW138249   0.681   0.129   3.832 -1.9328  0.6133  0.1294
 8871SOL    HW238250   0.692   0.233   3.941  0.3648 -0.3393 -0.3498
 8872SOL     OW38251   0.509   4.174  17.431  0.1117  0.0714  0.1034
 8872SOL    HW138252   0.466   4.194  17.348  0.4210  3.8109  0.8359
 8872SOL    HW238253   0.465   4.092  17.452  0.6419 -0.3655 -0.4929
 8873SOL     OW38254   3.394   1.299   5.094  0.1854  0.2064 -0.2202
 8873SOL    HW138255   3.303   1.271   5.086  0.6397 -1.3731  0.0858
 8873SOL    HW238256   3.413   1.272   5.184 -0.3369  0.1367 -0.1315
 8874SOL     OW38257   3.784   2.653   0.063  0.0572 -0.6312  0.2906
 8874SOL    HW138258   3.767   2.747   0.059  0.7576 -0.6092 -2.2305
 8874SOL    HW238259   3.878   2.646   0.080  0.0268  0.7718  1.1015
 8875SOL     OW38260   0.414   1.091   1.688 -0.0070  0.3399 -0.2576
 8875SOL    HW138261   0.389   1.146   1.614 -0.3892 -0.5601 -0.7992
 8875SOL    HW238262   0.498   1.069   1.648  0.3986  0.7077  0.3994
 8876SOL     OW38263   1.828   0.143   6.857 -0.3439 -0.3803 -0.0177
 8876SOL    HW138264   1.741   0.102   6.862 -1.1052  1.0142 -1.9042
 8876SOL    HW238265   1.821   0.174   6.767  0.6141  0.2186  0.1242
 8877SOL     OW38266   1.895   1.692   6.721  0.1465  0.3644  0.2331
 8877SOL    HW138267   1.845   1.647   6.653  2.6227 -0.9869 -0.6739
 8877SOL    HW238268   1.958   1.625   6.745  1.3510  0.9141 -1.4425
 8878SOL     OW38269   1.698   2.460   5.693  0.1837  0.5059 -0.3302
 8878SOL    HW138270   1.730   2.531   5.750 -0.7458  0.3640  0.3728
 8878SOL    HW238271   1.610   2.490   5.671 -0.0519  1.4530  1.8214
 8879SOL     OW38272   4.683   1.867   9.111 -0.3486 -0.0368  0.3316
 8879SOL    HW138273   4.675   1.801   9.180  0.2326 -0.2204  0.2219
 8879SOL    HW238274   4.607   1.849   9.056 -0.0841  2.0976 -0.7196
 8880SOL     OW38275   3.215   0.724   2.708  0.6361 -0.6904  0.1497
 8880SOL    HW138276   3.291   0.669   2.725  1.9684  2.2551  3.9334
 8880SOL    HW238277   3.155   0.654   2.684 -2.3885  1.6601  0.7843
 8881SOL     OW38278   2.375   2.675  14.262  0.1454 -0.0722 -0.2728
 8881SOL    HW138279   2.425   2.617  14.320  0.2116  0.8764  0.6167
 8881SOL    HW238280   2.293   2.628  14.246  0.1196 -0.6021  1.3547
 8882SOL     OW38281   2.555   4.062  12.703  0.5974 -0.2148 -0.2082
 8882SOL    HW138282   2.566   4.097  12.791  0.0071  0.2809 -0.3289
 8882SOL    HW238283   2.562   3.970  12.728 -0.9869 -1.3399 -3.8707
 8883SOL     OW38284   3.499   3.114   2.970 -0.1669 -0.4911  0.2397
 8883SOL    HW138285   3.449   3.108   2.889  0.9733 -4.2196 -0.2061
 8883SOL    HW238286   3.572   3.052   2.962 -0.1155 -0.3472 -0.3508
 8884SOL     OW38287   3.859   3.250   4.518 -0.2584 -0.3247 -0.1115
 8884SOL    HW138288   3.843   3.208   4.434 -1.9630 -1.5365  0.7962
 8884SOL    HW238289   3.946   3.289   4.508 -0.0262 -0.4555  1.3866
 8885SOL     OW38290   0.659   1.953   0.957 -0.1987  0.2129  0.0252
 8885SOL    HW138291   0.639   1.951   1.050  1.2892  0.4545  0.3370
 8885SOL    HW238292   0.697   2.041   0.956 -0.3607  0.2790 -0.3445
 8886SOL     OW38293   2.206   0.704   7.527 -0.4867  0.3568 -1.2962
 8886SOL    HW138294   2.217   0.626   7.582 -0.7516  0.4241 -1.1530
 8886SOL    HW238295   2.157   0.666   7.454  1.6448  0.1058 -2.6285
 8887SOL     OW38296   0.647   3.736   5.777 -0.6576 -0.4318 -0.4780
 8887SOL    HW138297   0.719   3.676   5.759 -0.4167  0.3686 -2.1812
 8887SOL    HW238298   0.603   3.729   5.693 -3.9848  0.4790  1.1922
 8888SOL     OW38299   3.759   1.239   6.004 -0.2774 -0.2456  0.1399
 8888SOL    HW138300   3.664   1.251   5.998 -0.1921 -0.4258 -1.5899
 8888SOL    HW238301   3.784   1.332   6.004  1.7432 -0.7891  0.7302
 8889SOL     OW38302   2.707   2.605   3.436 -0.0340 -0.2366 -0.3994
 8889SOL    HW138303   2.661   2.663   3.375 -2.0920 -1.2368  0.2183
 8889SOL    HW238304   2.783   2.580   3.384  0.3368  0.8289 -0.3779
 8890SOL     OW38305   0.670   1.391   9.753  0.0097 -0.6024 -0.4048
 8890SOL    HW138306   0.757   1.400   9.714 -1.4649  1.0281 -3.3444
 8890SOL    HW238307   0.662   1.482   9.782  0.3755 -1.2287  1.6370
 8891SOL     OW38308   1.523   0.715  17.742  0.3189  0.1941 -0.4854
 8891SOL    HW138309   1.558   0.630  17.716 -2.8296 -1.6159  1.2925
 8891SOL    HW238310   1.450   0.699   0.058 -1.7051  2.2292 -2.4158
 8892SOL     OW38311   0.715   4.284   9.915  0.7645 -0.1618  0.1038
 8892SOL    HW138312   0.782   4.228   9.955 -1.0337 -0.3651  2.8510
 8892SOL    HW238313   0.642   4.222   9.923  2.0319 -1.7182 -0.2837
 8893SOL     OW38314   0.461   2.309  14.416  0.3049  0.3470  0.5132
 8893SOL    HW138315   0.489   2.252  14.344 -1.5986 -0.0193  0.0583
 8893SOL    HW238316   0.416   2.244  14.471  0.6541  0.2109  0.6368
 8894SOL     OW38317   3.803   1.997  16.493 -0.4092  0.0844 -0.2744
 8894SOL    HW138318   3.813   2.056  16.418  1.9226 -1.4018 -1.1528
 8894SOL    HW238319   3.883   1.945  16.484  1.1249  2.0542  1.8445
 8895SOL     OW38320   2.144   4.132  15.598  0.1596 -0.2331  0.2358
 8895SOL    HW138321   2.053   4.158  15.610 -0.0458  0.1029 -1.9393
 8895SOL    HW238322   2.127   4.092  15.513 -0.5701 -1.0040  0.7524
 8896SOL     OW38323   0.751   4.190  12.456 -0.0401  0.8608 -0.2856
 8896SOL    HW138324   0.769   4.268  12.403  1.3662  0.5314 -0.2893
 8896SOL    HW238325   0.663   4.202  12.492  0.3524  0.2823  0.8618
 8897SOL     OW38326   3.870   4.552   5.474  0.5042  0.0687 -0.4757
 8897SOL    HW138327   3.899   4.471   5.518  0.1619  0.3151  0.2011
 8897SOL    HW238328   3.920   4.564   5.394  1.6055  1.1467  0.3743
 8898SOL     OW38329   3.430   1.749  15.473 -0.2820 -0.0781 -0.3100
 8898SOL    HW138330   3.420   1.653  15.470 -0.1389  0.0104 -3.7035
 8898SOL    HW238331   3.365   1.787  15.416  0.6170 -0.6029 -1.6863
 8899SOL     OW38332   1.821   1.167   5.403  0.6935  0.0465  0.4135
 8899SOL    HW138333   1.819   1.072   5.394 -1.3358 -0.0076  1.3778
 8899SOL    HW238334   1.738   1.183   5.448 -0.1560 -1.5489 -0.5818
 8900SOL     OW38335   1.440   2.945   4.825  0.1210  0.4312  0.1876
 8900SOL    HW138336   1.393   3.016   4.780 -1.1253 -1.8646 -2.0921
 8900SOL    HW238337   1.525   2.989   4.832  0.9041 -1.2253  0.9643
 8901SOL     OW38338   0.791   0.432  12.622  0.5218  0.2089 -0.0296
 8901SOL    HW138339   0.832   0.462  12.704 -0.4946  0.2656  0.4607
 8901SOL    HW238340   0.715   0.490  12.616  0.7236  0.2556 -1.9756
 8902SOL     OW38341   1.306   3.201   2.200  0.4060 -0.2771 -0.3246
 8902SOL    HW138342   1.284   3.212   2.108 -0.1349  0.2441 -0.1271
 8902SOL    HW238343   1.278   3.109   2.208 -0.0143 -0.3705 -2.8751
 8903SOL     OW38344   3.095   0.340   1.806 -0.4257 -0.1939 -0.1228
 8903SOL    HW138345   3.145   0.264   1.835  0.2460  0.9408  1.6797
 8903SOL    HW238346   3.045   0.370   1.881 -0.8235 -0.3295 -0.3353
 8904SOL     OW38347   1.392   4.491   4.943 -0.4879  0.2136  0.5665
 8904SOL    HW138348   1.385   4.562   4.879  1.7338  2.7922  3.1639
 8904SOL    HW238349   1.315   4.522   4.990 -0.7874 -1.7746  1.3741
 8905SOL     OW38350   2.005   4.142  10.646 -0.1190  0.2595 -0.4558
 8905SOL    HW138351   1.962   4.162  10.729  1.1818  0.5921  0.1261
 8905SOL    HW238352   2.035   4.051  10.653  2.2745  0.9940 -1.2525
 8906SOL     OW38353   2.719   3.639   2.051  0.4068 -0.2739 -0.5223
 8906SOL    HW138354   2.684   3.626   2.139 -0.5227  1.6696 -0.6039
 8906SOL    HW238355   2.679   3.568   2.000 -1.6890  0.0348  0.6878
 8907SOL     OW38356   4.202   1.895  13.168 -0.5014 -0.3750  0.1265
 8907SOL    HW138357   4.261   1.868  13.097  0.0087 -2.3000  1.2690
 8907SOL    HW238358   4.213   1.990  13.158  1.5421 -0.5441  0.7927
 8908SOL     OW38359   0.744   4.542   8.031  0.4180  0.3858  0.3973
 8908SOL    HW138360   0.783   4.591   8.103 -0.0494  2.4486 -0.7379
 8908SOL    HW238361   0.821   4.501   7.992  1.1871  1.7030  0.5191
 8909SOL     OW38362   4.234   3.737   6.794 -0.4577  0.0762  0.8774
 8909SOL    HW138363   4.298   3.761   6.861  1.7221  1.4572 -1.6868
 8909SOL    HW238364   4.199   3.651   6.818 -0.6862  0.1718  0.8872
 8910SOL     OW38365   0.151   2.256  15.629  0.0466  0.1990 -0.7112
 8910SOL    HW138366   0.232   2.206  15.633  0.6778  1.3963  1.7165
 8910SOL    HW238367   0.083   2.190  15.640 -0.2809  0.2866 -2.2287
 8911SOL     OW38368   2.013   2.883   7.761 -0.1382 -0.7689  0.0597
 8911SOL    HW138369   2.076   2.837   7.816  1.6133 -0.2912 -1.5696
 8911SOL    HW238370   2.034   2.976   7.753  1.7070 -1.1467  0.5309
 8912SOL     OW38371   2.711   1.656  15.951 -0.1726 -0.2972 -0.3189
 8912SOL    HW138372   2.659   1.725  15.911 -0.1999 -0.7292 -1.0239
 8912SOL    HW238373   2.681   1.662  16.042  0.6081 -0.0505 -0.0817
 8913SOL     OW38374   3.730   0.948   9.805 -0.3137 -0.7728 -0.1581
 8913SOL    HW138375   3.665   1.016   9.785  0.0253 -0.5772 -0.5980
 8913SOL    HW238376   3.776   0.935   9.722 -0.6189 -2.3621 -0.0791
 8914SOL     OW38377   1.613   0.915  10.787 -0.2658 -0.0927 -0.0480
 8914SOL    HW138378   1.696   0.956  10.765  0.0285 -2.1928 -3.0053
 8914SOL    HW238379   1.576   0.998  10.816  1.2184  0.6607 -0.3383
 8915SOL     OW38380   3.926   3.607   3.823 -0.7503 -0.1642 -0.1377
 8915SOL    HW138381   3.974   3.525   3.821 -0.6158 -0.0569 -1.4374
 8915SOL    HW238382   3.867   3.591   3.749  2.3493 -1.2291 -2.3911
 8916SOL     OW38383   2.363   1.052   7.013 -0.1764  0.2853  0.1459
 8916SOL    HW138384   2.278   1.016   6.990 -0.3603 -0.3756  1.8647
 8916SOL    HW238385   2.420   1.029   6.939  0.9431  1.5848  0.6101
 8917SOL     OW38386   3.550   1.708   9.189  0.1517  0.1398 -0.0159
 8917SOL    HW138387   3.538   1.799   9.161 -1.9660  0.6651  2.5178
 8917SOL    HW238388   3.584   1.664   9.112 -0.9837  0.0851 -0.4830
 8918SOL     OW38389   0.950   4.721   1.552  0.0902 -0.1904  0.2188
 8918SOL    HW138390   0.945   4.651   1.616 -1.2576  0.0705  0.4071
 8918SOL    HW238391   0.952   4.671   1.470  0.7374 -0.2974  0.3051
 8919SOL     OW38392   3.160   0.800  14.437  0.0560 -0.4461 -0.3767
 8919SOL    HW138393   3.167   0.721  14.491  2.2378 -0.9064 -1.2968
 8919SOL    HW238394   3.069   0.798  14.408 -0.2312  2.7706  0.3220
 8920SOL     OW38395   2.501   3.880  16.267 -0.2936 -0.0359  0.6825
 8920SOL    HW138396   2.594   3.865  16.289  0.5428  2.2477 -1.3709
 8920SOL    HW238397   2.478   3.954  16.324 -0.4180  0.9311 -0.6352
 8921SOL     OW38398   2.932   0.184   5.809  0.4719  0.1071  0.2118
 8921SOL    HW138399   2.979   0.230   5.879 -0.0080  0.6374  0.1849
 8921SOL    HW238400   2.987   0.192   5.731 -2.3257  0.1493 -1.7407
 8922SOL     OW38401   1.778   2.680   1.890  0.0963  0.1796 -0.2736
 8922SOL    HW138402   1.774   2.775   1.898  0.1360  0.4411 -3.1775
 8922SOL    HW238403   1.792   2.661   1.983  0.1178 -2.4087 -0.8016
 8923SOL     OW38404   0.661   2.997   1.159 -0.2967  0.1476 -0.1348
 8923SOL    HW138405   0.717   3.060   1.114  0.3185 -0.9556 -0.9171
 8923SOL    HW238406   0.724   2.924   1.165 -0.1746  0.2399 -0.2979
 8924SOL     OW38407   0.159   0.482  13.986 -0.0859 -0.2781 -0.1165
 8924SOL    HW138408   0.102   0.537  14.040 -0.3221 -1.6347  1.0300
 8924SOL    HW238409   0.112   0.401  14.007  0.3528  0.1234  2.4231
 8925SOL     OW38410   3.813   3.288   7.376  0.2298 -0.1464  0.0240
 8925SOL    HW138411   3.721   3.312   7.372  0.0825 -0.8624 -0.7747
 8925SOL    HW238412   3.839   3.250   7.292 -0.5446  2.2835 -1.3180
 8926SOL     OW38413   1.429   3.921   2.273 -0.0116  0.2221 -0.1927
 8926SOL    HW138414   1.411   3.921   2.179 -0.4670  1.5334 -0.1121
 8926SOL    HW238415   1.391   3.836   2.299  1.3267 -1.0026 -2.3084
 8927SOL     OW38416   4.711   4.667   3.897  0.2691  0.1108 -0.3915
 8927SOL    HW138417   4.733   4.574   3.900 -1.0830 -0.2321 -1.3631
 8927SOL    HW238418   4.626   4.669   3.940  0.8819 -0.0557  0.8424
 8928SOL     OW38419   1.134   2.885  15.298  0.2269  0.2699 -0.3518
 8928SOL    HW138420   1.053   2.920  15.261 -1.1003 -0.0982  2.1618
 8928SOL    HW238421   1.152   2.816  15.234  3.2288 -0.0297  0.8031
 8929SOL     OW38422   4.691   3.387   2.963  0.6236  0.9446  0.1834
 8929SOL    HW138423   4.631   3.354   2.896  0.9669  0.7024 -0.0103
 8929SOL    HW238424   0.027   3.324   2.962  0.5928  0.9266 -0.9012
 8930SOL     OW38425   1.289   1.398   1.111  0.1000 -0.1725 -0.2324
 8930SOL    HW138426   1.292   1.312   1.153  1.0162 -0.5560 -1.0690
 8930SOL    HW238427   1.195   1.412   1.102  0.4362  1.3455 -1.4858
 8931SOL     OW38428   2.904   3.512   5.536  0.0134 -0.1902  0.0936
 8931SOL    HW138429   2.865   3.457   5.605  0.4877  0.5054  0.9208
 8931SOL    HW238430   2.898   3.458   5.457 -2.2787  0.0148  0.1286
 8932SOL     OW38431   4.705   3.275   1.854  0.0714 -0.1525  0.4876
 8932SOL    HW138432   4.698   3.326   1.935  0.2751  2.9234 -1.4199
 8932SOL    HW238433   0.046   3.316   1.815 -0.6385  0.6697 -0.0712
 8933SOL     OW38434   3.064   2.913   1.235  0.0779  0.4478 -0.5303
 8933SOL    HW138435   3.039   2.852   1.304  0.2770  1.8634  0.7957
 8933SOL    HW238436   3.101   2.990   1.279 -0.6809 -0.4665  1.7039
 8934SOL     OW38437   0.364   4.364   4.331  0.1029  0.6702 -0.0673
 8934SOL    HW138438   0.287   4.387   4.383 -0.7590 -1.2830 -0.4930
 8934SOL    HW238439   0.430   4.415   4.380  0.3327  0.1507  0.1609
 8935SOL     OW38440   2.835   2.747   1.346  0.1373  0.0653 -0.2235
 8935SOL    HW138441   2.887   2.690   1.289 -3.1687 -1.4271 -1.7731
 8935SOL    HW238442   2.901   2.765   1.412 -1.6862  2.3761  0.9756
 8936SOL     OW38443   3.835   3.032  16.727 -0.1677  0.4296  0.2086
 8936SOL    HW138444   3.767   3.017  16.662  2.7076 -2.3374 -2.2047
 8936SOL    HW238445   3.842   3.127  16.720  2.5942  0.3127  1.1838
 8937SOL     OW38446   0.508   3.878   4.011 -0.0634  0.1569  0.0681
 8937SOL    HW138447   0.554   3.936   4.071 -0.2117 -0.4097  0.7362
 8937SOL    HW238448   0.451   3.944   3.971 -3.3195 -1.1851  2.5088
 8938SOL     OW38449   0.244   3.981   4.865  0.0059  0.1505  0.0184
 8938SOL    HW138450   0.245   4.048   4.934 -0.0740 -0.7977  0.9414
 8938SOL    HW238451   0.334   3.949   4.875 -0.6139 -1.9768 -1.3364
 8939SOL     OW38452   3.779   1.505   4.757  0.2843  0.2497  0.1195
 8939SOL    HW138453   3.806   1.414   4.744 -0.4507  0.1671 -0.8247
 8939SOL    HW238454   3.823   1.553   4.688 -1.1143  1.7339  0.2664
 8940SOL     OW38455   0.978   0.016  10.473  0.4849  0.3763 -0.3848
 8940SOL    HW138456   1.061   4.709  10.454  0.8748  0.7192  0.5490
 8940SOL    HW238457   0.923   4.677  10.494 -1.9200  2.2937  0.2929
 8941SOL     OW38458   2.876   0.706   3.978 -0.4363  0.2165 -0.7147
 8941SOL    HW138459   2.784   0.680   3.965 -0.7756  2.0803 -1.9383
 8941SOL    HW238460   2.906   0.630   4.028 -1.6855 -0.6489 -1.2653
 8942SOL     OW38461   0.256   3.333   5.239 -0.0397 -0.1727 -0.3199
 8942SOL    HW138462   0.308   3.255   5.222 -1.7113 -0.9365 -1.8356
 8942SOL    HW238463   0.182   3.324   5.179  0.5298  2.4031 -1.4010
 8943SOL     OW38464   0.628   4.709   6.226 -0.2825 -0.4602  0.2770
 8943SOL    HW138465   0.655   4.657   6.301 -1.3741  0.4049  1.2802
 8943SOL    HW238466   0.536   4.725   6.249 -1.2485 -1.4014 -2.8011
 8944SOL     OW38467   1.494   0.203   4.344  0.2211 -0.5941 -0.5766
 8944SOL    HW138468   1.468   0.120   4.304 -2.7403  0.1726 -0.2776
 8944SOL    HW238469   1.534   0.156   4.417 -0.9425 -0.4489  0.1574
 8945SOL     OW38470   1.174   2.198   7.553  0.2932 -0.1218  0.0864
 8945SOL    HW138471   1.147   2.230   7.639 -0.8574 -3.5790  1.0216
 8945SOL    HW238472   1.270   2.195   7.560  0.4237 -0.0919 -1.5582
 8946SOL     OW38473   1.817   0.417   3.534  0.1422  0.4066 -0.0043
 8946SOL    HW138474   1.903   0.458   3.538  0.1545  0.7598 -3.4396
 8946SOL    HW238475   1.810   0.405   3.629 -0.8839  0.7875 -0.0329
 8947SOL     OW38476   3.985   4.001  17.176  0.5821 -0.2886  0.0027
 8947SOL    HW138477   4.047   4.017  17.248 -0.4842  2.7683  0.2257
 8947SOL    HW238478   3.917   4.068  17.183  0.4137 -0.6157  1.4077
 8948SOL     OW38479   2.438   0.332   6.780  0.1572  0.6399 -0.0345
 8948SOL    HW138480   2.365   0.301   6.834 -1.2428  0.0692 -2.2572
 8948SOL    HW238481   2.399   0.415   6.754 -0.2913  0.3412 -0.3097
 8949SOL     OW38482   3.706   2.729  16.510  0.0613  0.3562 -0.2597
 8949SOL    HW138483   3.713   2.818  16.475  0.3229 -0.4344 -2.2270
 8949SOL    HW238484   3.788   2.688  16.482 -0.3561  0.9181 -2.2902
 8950SOL     OW38485   2.326   3.360   7.593  0.3358  0.0154 -0.4375
 8950SOL    HW138486   2.297   3.270   7.610 -0.6330  0.5054  0.5409
 8950SOL    HW238487   2.420   3.345   7.603 -0.1276 -1.3285  2.0583
 8951SOL     OW38488   0.261   2.576   2.874 -0.2787 -0.5821 -0.1668
 8951SOL    HW138489   0.336   2.517   2.871 -0.4195 -0.7432 -0.5017
 8951SOL    HW238490   0.258   2.593   2.779  4.0718  0.3074 -0.1485
 8952SOL     OW38491   1.469   3.579   2.762 -0.5178  0.2350 -0.1988
 8952SOL    HW138492   1.396   3.570   2.823 -1.3994  1.4771 -1.0369
 8952SOL    HW238493   1.507   3.665   2.780  0.3359 -0.0276 -0.7181
 8953SOL     OW38494   2.089   3.920   6.073  0.6152  0.2291 -0.5009
 8953SOL    HW138495   2.127   3.932   5.986 -1.2981 -0.1047 -1.3892
 8953SOL    HW238496   2.094   3.825   6.085 -2.4478  0.1806  0.3321
 8954SOL     OW38497   1.857   2.796   3.473  0.3117 -0.2320 -0.2850
 8954SOL    HW138498   1.937   2.772   3.426  0.4334 -1.7996  0.7244
 8954SOL    HW238499   1.803   2.841   3.408  2.7351  1.7151 -0.9455
 8955SOL     OW38500   2.811   2.983  11.936  0.5537  0.6356 -0.0763
 8955SOL    HW138501   2.879   3.038  11.899  0.1440 -0.1982 -2.0978
 8955SOL    HW238502   2.743   2.985  11.868 -0.4586 -0.9351  0.8753
 8956SOL     OW38503   3.666   4.655   5.628 -0.5928 -0.0925 -0.0577
 8956SOL    HW138504   3.741   4.623   5.576 -0.5871  0.3323 -0.3115
 8956SOL    HW238505   3.665   0.012   5.609  1.5778 -0.1468 -0.4736
 8957SOL     OW38506   4.315   4.688  16.788 -0.5582 -0.2847 -0.4542
 8957SOL    HW138507   4.262   0.031  16.778 -1.1125 -0.4525  1.2281
 8957SOL    HW238508   4.359   4.708  16.870  1.5679  0.7378 -1.8439
 8958SOL     OW38509   2.574   0.804   4.176 -0.0550 -0.0186 -0.5095
 8958SOL    HW138510   2.545   0.810   4.085  1.3477 -0.1684 -0.9824
 8958SOL    HW238511   2.600   0.712   4.179  0.9419  0.3711  2.5997
 8959SOL     OW38512   2.583   3.744   3.718  0.8168 -0.6667 -0.2289
 8959SOL    HW138513   2.540   3.820   3.679  2.1675  0.1032 -0.2111
 8959SOL    HW238514   2.534   3.669   3.684 -1.2718 -0.1147  1.5643
 8960SOL     OW38515   0.448   1.915  13.254 -0.3244 -0.2338  0.4077
 8960SOL    HW138516   0.452   1.878  13.342  0.7684  2.3435  1.4456
 8960SOL    HW238517   0.370   1.970  13.256  1.5063  2.4157 -1.4028
 8961SOL     OW38518   0.260   4.559   3.174  0.0583  0.3189 -0.2586
 8961SOL    HW138519   0.167   4.581   3.177  0.1875  0.9487 -1.0172
 8961SOL    HW238520   0.300   4.632   3.221  0.8277  1.0242 -2.0156
 8962SOL     OW38521   1.214   4.234  11.074 -0.3258  0.2360 -0.1034
 8962SOL    HW138522   1.224   4.140  11.059 -2.4561 -0.0226  0.0650
 8962SOL    HW238523   1.135   4.243  11.127 -0.8017 -1.2122 -0.5597
 8963SOL     OW38524   0.883   0.695   3.232  0.3041  0.1590  0.6178
 8963SOL    HW138525   0.976   0.675   3.241  0.8262  1.6203 -1.3980
 8963SOL    HW238526   0.856   0.656   3.149  1.5984  0.4847  0.0491
 8964SOL     OW38527   0.867   1.196   7.415  0.6650 -0.4417  0.6670
 8964SOL    HW138528   0.779   1.169   7.441  0.4297 -0.3981 -0.0903
 8964SOL    HW238529   0.915   1.115   7.395 -2.9911 -2.5759  0.6554
 8965SOL     OW38530   2.898   0.959   2.938  0.1738  0.3196 -0.0683
 8965SOL    HW138531   2.870   0.869   2.928  1.2638  0.1540 -1.6238
 8965SOL    HW238532   2.930   0.959   3.029  1.8644  2.2116 -0.6505
 8966SOL     OW38533   4.501   2.167   8.737 -0.9958  0.0229  0.0989
 8966SOL    HW138534   4.585   2.189   8.778 -1.6662  0.8114  1.0594
 8966SOL    HW238535   4.519   2.140   8.647  1.2764  0.0225  0.5755
 8967SOL     OW38536   3.706   0.317   8.396 -0.2840 -0.3895  0.4283
 8967SOL    HW138537   3.750   0.286   8.475  0.4819 -0.3254  0.0264
 8967SOL    HW238538   3.778   0.365   8.355  0.8712 -1.5437  1.0962
 8968SOL     OW38539   1.258   1.359   3.887 -0.0536 -0.2185 -0.0490
 8968SOL    HW138540   1.192   1.291   3.903 -0.0682  0.0020  0.8193
 8968SOL    HW238541   1.290   1.337   3.799  0.2168 -1.6360  0.3985
 8969SOL     OW38542   3.250   0.622   7.967 -0.0572 -0.4383  0.3850
 8969SOL    HW138543   3.179   0.686   7.963  2.0564  1.8319 -0.4256
 8969SOL    HW238544   3.210   0.550   8.016 -0.4664  0.6263  1.6112
 8970SOL     OW38545   3.388   0.754  12.532  0.1147  0.4634 -0.3808
 8970SOL    HW138546   3.340   0.733  12.452 -0.9669 -0.6378  0.5631
 8970SOL    HW238547   3.441   0.829  12.505 -0.3106  0.4047 -1.3625
 8971SOL     OW38548   0.048   4.168   9.801  0.1465 -0.4636 -0.7014
 8971SOL    HW138549   0.095   4.085   9.792 -1.1144 -1.1369 -1.1031
 8971SOL    HW238550   4.695   4.134   9.793 -0.4934  0.7311  1.6373
 8972SOL     OW38551   0.288   3.001   0.448  0.2067  0.2693 -0.3840
 8972SOL    HW138552   0.308   2.925   0.393 -1.1764 -0.8486  0.6603
 8972SOL    HW238553   0.370   3.041   0.477 -0.3617 -0.2512  1.9160
 8973SOL     OW38554   4.374   1.725  10.512  0.7517 -0.1105 -0.2764
 8973SOL    HW138555   4.415   1.667  10.448  2.1973  0.5396  0.0582
 8973SOL    HW238556   4.300   1.670  10.536  0.6527 -1.7988 -4.3778
 8974SOL     OW38557   3.177   1.351   9.732  0.1944  0.3550 -0.0636
 8974SOL    HW138558   3.156   1.405   9.808  3.3627  3.5219 -1.4513
 8974SOL    HW238559   3.154   1.402   9.655  1.2726 -1.1855 -1.4252
 8975SOL     OW38560   3.659   0.752  15.054  0.1862 -0.3009 -0.6068
 8975SOL    HW138561   3.590   0.791  14.999 -0.4094  1.1266  1.1548
 8975SOL    HW238562   3.621   0.746  15.141 -1.4143 -1.0288 -1.3400
 8976SOL     OW38563   0.986   3.597   8.689  0.4061  0.2388  0.4446
 8976SOL    HW138564   0.966   3.518   8.739  1.0159 -1.3380 -1.7661
 8976SOL    HW238565   1.081   3.587   8.693  0.3529  0.7288  2.8126
 8977SOL     OW38566   3.234   0.928   2.907 -0.6314 -0.4245  0.1137
 8977SOL    HW138567   3.208   0.856   2.849 -1.0085  1.0720 -1.5684
 8977SOL    HW238568   3.162   0.990   2.910 -1.1213 -1.0254  0.6599
 8978SOL     OW38569   4.494   2.977   6.538 -0.3756  0.4247  0.8214
 8978SOL    HW138570   4.476   3.055   6.592  2.2627  0.6547  1.3763
 8978SOL    HW238571   4.532   3.019   6.460  0.9002 -1.9021  0.2014
 8979SOL     OW38572   1.676   4.612   6.731 -0.1492  0.1584 -0.4924
 8979SOL    HW138573   1.642   4.560   6.658 -3.2751  1.2719  0.1766
 8979SOL    HW238574   1.727   4.676   6.682 -1.8061  0.7139 -1.5002
 8980SOL     OW38575   3.981   1.484   7.068 -0.7066 -0.9356 -0.0873
 8980SOL    HW138576   3.952   1.572   7.093  1.0656 -0.5380  0.5758
 8980SOL    HW238577   4.033   1.509   6.991  1.5903  0.1368  1.7929
 8981SOL     OW38578   0.709   0.455   3.712  0.2233 -0.2743  0.1162
 8981SOL    HW138579   0.646   0.448   3.640 -0.1033  1.1830  0.2717
 8981SOL    HW238580   0.661   0.443   3.794  0.3629 -0.1900  0.2100
 8982SOL     OW38581   3.605   0.796   8.693  0.6655  0.2703 -0.0551
 8982SOL    HW138582   3.664   0.727   8.663  2.3735  1.9409 -0.5388
 8982SOL    HW238583   3.614   0.866   8.629  0.2451 -0.3027 -0.7493
 8983SOL     OW38584   2.237   3.076   5.925  0.3849  0.8139  0.2671
 8983SOL    HW138585   2.154   3.120   5.910  0.5706  1.6138  1.5871
 8983SOL    HW238586   2.221   3.034   6.010  1.7762 -1.3657 -0.5337
 8984SOL     OW38587   0.714   0.008   7.658 -0.5521  0.0262 -0.4374
 8984SOL    HW138588   0.704   0.034   7.566 -1.5981  0.5505 -0.1692
 8984SOL    HW238589   0.782   4.677   7.650  1.1028  1.9004 -2.1355
 8985SOL     OW38590   3.190   3.650   9.025 -0.1743 -0.1942 -0.7762
 8985SOL    HW138591   3.123   3.604   9.075 -0.3451 -2.8573 -3.5300
 8985SOL    HW238592   3.273   3.608   9.046  0.6613  1.7968 -0.0900
 8986SOL     OW38593   4.700   1.900  17.728 -0.3588 -0.0347  0.2946
 8986SOL    HW138594   4.701   1.824  17.671  0.0825 -0.7801  1.2993
 8986SOL    HW238595   4.648   1.958  17.673 -0.2712 -1.0750 -0.8925
 8987SOL     OW38596   1.074   4.655   3.398 -0.3509 -0.0840  0.3898
 8987SOL    HW138597   1.157   4.704   3.396 -0.0286 -0.6502 -0.1297
 8987SOL    HW238598   1.073   4.623   3.488 -0.0012 -0.1837  0.3602
 8988SOL     OW38599   3.422   2.132   6.042 -0.2877  0.1761  0.0858
 8988SOL    HW138600   3.385   2.110   5.956 -2.4564 -0.0576  1.0733
 8988SOL    HW238601   3.398   2.056   6.095  0.2886 -0.9048 -1.1953
 8989SOL     OW38602   3.111   2.612   5.220  0.2603 -0.2202 -0.3228
 8989SOL    HW138603   3.051   2.597   5.293  0.1851 -3.1691 -0.9673
 8989SOL    HW238604   3.092   2.538   5.162  0.1288  0.5376 -1.2435
 8990SOL     OW38605   2.737   4.493   3.458  0.1680 -0.2668  0.3422
 8990SOL    HW138606   2.771   4.406   3.438  0.1263 -0.5998  1.7549
 8990SOL    HW238607   2.770   4.515   3.545 -0.4543  0.8854  0.2868
 8991SOL     OW38608   2.458   2.228   5.275 -0.2025  0.7340  0.0694
 8991SOL    HW138609   2.500   2.312   5.293 -1.2173  1.8514 -2.7526
 8991SOL    HW238610   2.422   2.243   5.188 -0.2978  0.9845  0.1521
 8992SOL     OW38611   0.718   3.441   5.568 -0.2950  0.2578 -0.4735
 8992SOL    HW138612   0.641   3.491   5.593 -1.0883 -1.8102  1.2228
 8992SOL    HW238613   0.713   3.441   5.472 -0.2087  1.0385 -0.4697
 8993SOL     OW38614   0.144   2.444   9.007  0.4268  0.7584 -0.0529
 8993SOL    HW138615   0.053   2.457   9.033  1.1690  1.9881  1.9458
 8993SOL    HW238616   0.173   2.533   8.985  4.3809 -0.6492 -0.6414
 8994SOL     OW38617   1.098   0.967   8.669  0.1430  0.4779  0.2750
 8994SOL    HW138618   1.118   1.036   8.733  3.9823 -0.9675  0.6515
 8994SOL    HW238619   1.169   0.906   8.689 -1.1317 -0.7478  1.0759
 8995SOL     OW38620   3.195   0.555   8.817 -0.5355 -0.5116  0.5099
 8995SOL    HW138621   3.227   0.628   8.764  0.8927 -2.0907 -0.7945
 8995SOL    HW238622   3.160   0.600   8.894  0.4121 -0.8091  1.1130
 8996SOL     OW38623   0.372   3.543  16.553 -0.0687  0.2164  0.1046
 8996SOL    HW138624   0.398   3.502  16.636  2.8927 -0.6898 -1.2552
 8996SOL    HW238625   0.311   3.478  16.518 -0.4654  1.3331 -1.2793
 8997SOL     OW38626   4.195   0.383   2.955 -0.0551  0.3994  0.0136
 8997SOL    HW138627   4.220   0.428   2.874  1.8061 -0.8028 -0.0850
 8997SOL    HW238628   4.128   0.441   2.991 -1.0982 -0.5743 -0.3833
 8998SOL     OW38629   4.069   1.956   5.098 -0.6039 -0.1753 -0.5458
 8998SOL    HW138630   3.977   1.943   5.073 -0.6878  1.1303 -0.9268
 8998SOL    HW238631   4.095   1.869   5.069  2.0244 -0.7551  3.7012
 8999SOL     OW38632   3.654   3.446  12.696 -0.5034  0.0014  0.6776
 8999SOL    HW138633   3.637   3.536  12.670 -1.4483 -0.5760 -0.6496
 8999SOL    HW238634   3.638   3.449  12.790  1.6219 -0.1990  1.0613
 9000SOL     OW38635   0.044   2.736   1.690  0.5969  0.5917 -0.1501
 9000SOL    HW138636   4.724   2.685   1.748  0.5811  0.5733 -0.1823
 9000SOL    HW238637   0.119   2.679   1.709  1.1302  1.0890 -0.7600
 9001SOL     OW38638   0.725   2.414  10.525  0.3726  0.4958 -0.4181
 9001SOL    HW138639   0.779   2.341  10.556  1.4791  0.4715 -2.3826
 9001SOL    HW238640   0.688   2.452  10.604  1.4695  3.3567 -1.2979
 9002SOL     OW38641   1.307   4.219   0.175 -0.0932 -0.3125  0.3228
 9002SOL    HW138642   1.266   4.287   0.123 -1.0619  1.0176  2.8145
 9002SOL    HW238643   1.353   4.158   0.117 -0.2669  0.5864 -0.7668
 9003SOL     OW38644   2.668   2.311  15.185  0.5171 -0.4449 -0.4524
 9003SOL    HW138645   2.704   2.297  15.273  2.1780  0.8008 -0.9213
 9003SOL    HW238646   2.574   2.305  15.199  0.5962  0.6855  0.5613
 9004SOL     OW38647   2.858   1.843  10.422  0.1669 -0.2203 -0.0998
 9004SOL    HW138648   2.898   1.930  10.416 -1.0494  0.3676  0.2940
 9004SOL    HW238649   2.873   1.810  10.334  2.2934  1.0388 -0.2008
 9005SOL     OW38650   1.261   1.102   1.080  0.0730  0.5717 -0.4198
 9005SOL    HW138651   1.267   1.165   1.008  4.6210  0.9943  0.3681
 9005SOL    HW238652   1.350   1.094   1.113 -0.1416  0.4025  0.1087
 9006SOL     OW38653   4.152   4.423   6.514 -0.4271 -0.4170  0.1328
 9006SOL    HW138654   4.184   4.374   6.590  0.1046  2.4976  1.7823
 9006SOL    HW238655   4.215   4.495   6.521 -2.9711  1.8504 -0.5355
 9007SOL     OW38656   4.161   2.367   4.953 -0.3174 -0.2617 -0.0817
 9007SOL    HW138657   4.154   2.280   4.916  2.5180 -0.5242  0.0017
 9007SOL    HW238658   4.239   2.359   5.008 -0.0452  3.9707  0.1569
 9008SOL     OW38659   2.749   1.133   7.022 -0.4997  0.3778  0.3889
 9008SOL    HW138660   2.736   1.052   6.973  1.2682  0.5501 -0.3389
 9008SOL    HW238661   2.797   1.096   7.095  0.2491  2.0995  0.7688
 9009SOL     OW38662   1.268   1.290  12.379 -0.6227  0.0454  0.3759
 9009SOL    HW138663   1.252   1.332  12.294  1.3731 -0.4833 -0.2588
 9009SOL    HW238664   1.364   1.297  12.375 -0.7365  1.0480 -0.5582
 9010SOL     OW38665   4.405   3.347  12.388  0.1668  0.8442  0.2020
 9010SOL    HW138666   4.484   3.374  12.435 -0.3718 -1.2716  2.3217
 9010SOL    HW238667   4.341   3.354  12.460  1.3520 -0.8362  1.4111
 9011SOL     OW38668   2.153   3.781  16.840 -0.1152 -0.1011  0.0528
 9011SOL    HW138669   2.175   3.698  16.882 -2.1184  0.0255  1.3825
 9011SOL    HW238670   2.102   3.828  16.906 -0.1192 -1.1854  0.8166
 9012SOL     OW38671   2.211   3.866   4.896 -0.3002 -0.0952  0.4562
 9012SOL    HW138672   2.259   3.815   4.831 -0.4375  0.7976 -0.3384
 9012SOL    HW238673   2.264   3.942   4.920 -0.2200 -0.3404  1.0526
 9013SOL     OW38674   4.597   0.028   7.481 -0.0791  0.1341 -0.2870
 9013SOL    HW138675   4.501   0.018   7.477 -0.3008  1.8163  1.3547
 9013SOL    HW238676   4.625   4.721   7.562 -1.2130  0.5381  0.3196
 9014SOL     OW38677   1.305   0.149  16.373  0.3832 -0.3635  0.0763
 9014SOL    HW138678   1.262   0.200  16.441 -0.1901 -1.3677  0.4756
 9014SOL    HW238679   1.348   0.081  16.425 -1.2438 -0.9951  0.6205
 9015SOL     OW38680   4.317   2.803   2.807 -0.0460 -0.3054 -0.0180
 9015SOL    HW138681   4.398   2.853   2.794 -0.2553  0.0139 -0.0690
 9015SOL    HW238682   4.336   2.727   2.752  2.2797  0.5407 -0.4223
 9016SOL     OW38683   2.564   2.632   6.905  0.2583  0.3937 -0.0328
 9016SOL    HW138684   2.499   2.623   6.835  1.3374 -0.4187 -0.9291
 9016SOL    HW238685   2.638   2.665   6.854  0.9814 -1.0154  0.1007
 9017SOL     OW38686   0.461   2.072   3.701  0.3345 -0.1560 -0.4541
 9017SOL    HW138687   0.547   2.111   3.716  0.4689 -0.8596  0.6291
 9017SOL    HW238688   0.485   1.981   3.720 -3.6357 -0.9819  0.6051
 9018SOL     OW38689   2.562   1.131   5.498  0.2115  0.3474  0.3414
 9018SOL    HW138690   2.554   1.104   5.406  0.2805 -3.1168  1.3715
 9018SOL    HW238691   2.658   1.127   5.491  0.0630  0.4614 -1.8636
 9019SOL     OW38692   1.140   0.664   7.674  0.0407  0.4752  0.1943
 9019SOL    HW138693   1.167   0.682   7.583 -0.0484  0.2166  0.1168
 9019SOL    HW238694   1.047   0.646   7.660  0.0708 -0.1820  0.8414
 9020SOL     OW38695   3.136   3.255   1.474  0.4759 -0.5337 -0.2721
 9020SOL    HW138696   3.056   3.202   1.476 -0.8367  1.3950 -1.5619
 9020SOL    HW238697   3.194   3.195   1.428  1.1672  0.2257 -0.3802
 9021SOL     OW38698   4.187   2.914   8.119  0.1150  0.0470 -0.4043
 9021SOL    HW138699   4.220   2.913   8.208 -1.5630  1.4304  0.2378
 9021SOL    HW238700   4.147   3.001   8.116 -1.5082 -0.6981 -0.1938
 9022SOL     OW38701   1.305   4.150   5.871  0.1592 -0.2344 -0.5957
 9022SOL    HW138702   1.320   4.223   5.930  0.2362 -0.6077 -0.1499
 9022SOL    HW238703   1.396   4.131   5.848 -0.0456 -2.5886  0.5521
 9023SOL     OW38704   4.206   0.288   4.887  0.2871 -0.1396  0.5086
 9023SOL    HW138705   4.183   0.295   4.794  0.8254 -2.9100  0.1754
 9023SOL    HW238706   4.171   0.371   4.921 -0.1258  0.7702 -2.1575
 9024SOL     OW38707   4.189   2.259   6.117  0.0992  0.0659 -1.4800
 9024SOL    HW138708   4.119   2.300   6.168  1.7922  2.4246 -1.0404
 9024SOL    HW238709   4.140   2.248   6.035 -1.9523 -0.9610 -0.1175
 9025SOL     OW38710   2.134   3.845   5.539 -0.0276 -0.2641 -0.4104
 9025SOL    HW138711   2.091   3.815   5.459  0.7826  2.3029 -1.8363
 9025SOL    HW238712   2.211   3.788   5.534 -0.8918 -1.5446  1.1636
 9026SOL     OW38713   4.382   0.788  11.951  0.7414  0.2241  0.9172
 9026SOL    HW138714   4.301   0.824  11.913  0.2970  0.0230  1.6754
 9026SOL    HW238715   4.390   0.708  11.899 -2.0295  1.1752 -0.9974
 9027SOL     OW38716   3.400   1.211   8.782  0.0596 -0.6709  0.2174
 9027SOL    HW138717   3.395   1.116   8.775  0.2645 -0.5759 -1.2776
 9027SOL    HW238718   3.307   1.228   8.773  0.4604  1.5793  0.2916
 9028SOL     OW38719   4.609   4.255   8.869  0.3328  1.1650  0.1757
 9028SOL    HW138720   4.661   4.315   8.816  2.4046  0.0578  0.9468
 9028SOL    HW238721   4.673   4.243   8.939  0.4961 -1.0225 -0.3486
 9029SOL     OW38722   1.058   3.984  16.735  0.0564 -0.1981  0.2131
 9029SOL    HW138723   1.039   3.919  16.803  1.7737  1.5206  2.3556
 9029SOL    HW238724   1.066   4.065  16.786  2.9368  0.0844 -0.6511
 9030SOL     OW38725   3.770   0.981  15.389 -0.1614  0.3044 -0.5385
 9030SOL    HW138726   3.809   0.940  15.466 -2.2392 -0.7490 -0.0522
 9030SOL    HW238727   3.815   1.065  15.397 -1.4193  0.7372  1.9171
 9031SOL     OW38728   3.672   3.888   7.541 -0.2778 -0.7028 -0.0170
 9031SOL    HW138729   3.582   3.866   7.565 -0.6929  1.7037  0.5626
 9031SOL    HW238730   3.649   3.968   7.494  0.9865 -1.2942 -1.6478
 9032SOL     OW38731   0.810   0.205   4.687  0.0247  0.2425  0.0704
 9032SOL    HW138732   0.718   0.189   4.710  0.0253 -0.3607 -0.3256
 9032SOL    HW238733   0.841   0.114   4.694 -2.3893 -0.5668  0.2008
 9033SOL     OW38734   0.916   4.098   5.909 -0.2861  1.0363 -0.0318
 9033SOL    HW138735   0.979   4.082   5.838  0.9433  2.2905  0.7644
 9033SOL    HW238736   0.834   4.062   5.875  0.2910  0.4078 -0.7589
 9034SOL     OW38737   1.049   3.500   7.157 -0.1902 -0.1029 -0.1704
 9034SOL    HW138738   1.059   3.410   7.129  0.5250  0.7660 -2.6731
 9034SOL    HW238739   0.974   3.493   7.215  0.4200  1.6839  0.8574
 9035SOL     OW38740   0.980   1.522  15.067  0.3294 -0.0733  0.6606
 9035SOL    HW138741   1.014   1.611  15.068 -0.1647  0.1240  0.1301
 9035SOL    HW238742   0.941   1.519  15.155 -1.6908 -0.1257 -0.2402
 9036SOL     OW38743   2.872   3.167   8.708  0.2816  0.4409 -0.1332
 9036SOL    HW138744   2.946   3.188   8.651  1.2449  1.2725  1.4238
 9036SOL    HW238745   2.903   3.100   8.769 -0.2558 -0.7250 -1.1326
 9037SOL     OW38746   2.861   1.445   4.631 -0.0482 -0.4167  0.0964
 9037SOL    HW138747   2.832   1.529   4.596  1.0268 -0.0077  0.1686
 9037SOL    HW238748   2.899   1.404   4.553  0.6743  0.9587 -0.2661
 9038SOL     OW38749   2.522   4.409  15.375 -0.4123 -0.1656 -0.3036
 9038SOL    HW138750   2.592   4.440  15.317  0.4529  0.4672  1.0604
 9038SOL    HW238751   2.574   4.357  15.436 -0.3984 -0.6261 -0.7091
 9039SOL     OW38752   3.640   3.008   4.510  0.0119  0.1773 -0.3303
 9039SOL    HW138753   3.629   2.942   4.578  1.5711 -0.8528 -1.0644
 9039SOL    HW238754   3.612   2.959   4.433 -1.7720 -1.3442  1.2786
 9040SOL     OW38755   1.557   0.341  13.905  0.7922 -1.0379  0.2118
 9040SOL    HW138756   1.561   0.269  13.968  0.6239 -0.9301  0.3437
 9040SOL    HW238757   1.468   0.370  13.923  1.4629 -1.1550  3.7865
 9041SOL     OW38758   3.027   4.630   5.272 -0.5578 -0.0286 -0.3706
 9041SOL    HW138759   3.089   4.561   5.248  1.5746  1.1704  1.7051
 9041SOL    HW238760   3.021   4.621   5.367 -1.3700  2.6211 -0.1849
 9042SOL     OW38761   2.928   0.702   4.843  0.6763 -0.9352 -0.0721
 9042SOL    HW138762   2.912   0.791   4.811 -3.0352 -1.6988 -0.2917
 9042SOL    HW238763   2.879   0.650   4.780 -0.7481 -0.4570  0.6441
 9043SOL     OW38764   0.297   1.656   5.195  0.4017  0.0685  0.5055
 9043SOL    HW138765   0.251   1.629   5.116  1.1917  0.6202 -0.1355
 9043SOL    HW238766   0.315   1.569   5.230  0.5978  0.1181  0.5304
 9044SOL     OW38767   2.215   1.770   3.955 -0.3626  0.2746 -0.3885
 9044SOL    HW138768   2.149   1.821   3.907  0.3640  1.3027 -0.2832
 9044SOL    HW238769   2.231   1.825   4.031 -2.5208  2.0383 -1.1757
 9045SOL     OW38770   1.089   4.048  10.200 -0.3146 -0.2669 -0.2412
 9045SOL    HW138771   1.096   4.143  10.194 -2.7520 -0.0259  0.8745
 9045SOL    HW238772   1.154   4.018  10.136 -1.8928 -0.1470 -1.8976
 9046SOL     OW38773   1.822   0.006   6.002 -0.1901 -0.3854 -0.0104
 9046SOL    HW138774   1.794   4.673   6.061  0.4208 -0.3357  0.3335
 9046SOL    HW238775   1.746   0.064   6.006  1.4845  1.9048 -1.1017
 9047SOL     OW38776   4.455   1.696   1.321  0.3820  0.1377  0.4126
 9047SOL    HW138777   4.527   1.669   1.265 -2.1489 -3.0302 -1.3200
 9047SOL    HW238778   4.500   1.760   1.377 -0.0568  1.5803 -0.8897
 9048SOL     OW38779   2.558   1.640   6.879 -0.4980  0.0291  0.2648
 9048SOL    HW138780   2.499   1.613   6.949  2.3554  0.7224  2.9332
 9048SOL    HW238781   2.632   1.582   6.897  1.6151  2.3332 -1.1494
 9049SOL     OW38782   1.834   3.436   8.073 -0.3097 -0.1004  0.6348
 9049SOL    HW138783   1.873   3.484   8.146  0.0530  0.6507 -0.0437
 9049SOL    HW238784   1.906   3.378   8.049  0.4932  2.6456 -3.7506
 9050SOL     OW38785   2.348   4.527  12.373 -0.4145  0.5228  0.5991
 9050SOL    HW138786   2.303   4.585  12.311 -1.2312 -0.9417 -0.1570
 9050SOL    HW238787   2.317   4.569  12.453  1.4143  1.0795  1.0227
 9051SOL     OW38788   1.019   1.168   9.045 -0.0716 -0.0351  0.1817
 9051SOL    HW138789   1.091   1.117   9.009  0.4501  1.0743 -0.3362
 9051SOL    HW238790   0.998   1.212   8.963 -0.5969 -1.6394 -0.5521
 9052SOL     OW38791   3.003   1.407   2.742  0.2378  0.2165 -0.2664
 9052SOL    HW138792   3.039   1.354   2.671 -0.7548 -0.9493  0.1047
 9052SOL    HW238793   2.990   1.351   2.818  1.3094  1.6567  0.9922
 9053SOL     OW38794   0.705   0.861   9.769  0.3443  0.1183 -0.4817
 9053SOL    HW138795   0.728   0.845   9.678  0.3859 -0.7530 -0.3210
 9053SOL    HW238796   0.719   0.775   9.809 -2.4831 -1.0579 -2.0428
 9054SOL     OW38797   0.543   3.239   1.855 -0.2374  0.0734  0.0278
 9054SOL    HW138798   0.617   3.287   1.820  0.5935 -0.0822  1.5698
 9054SOL    HW238799   0.542   3.273   1.944 -0.0106  0.3727 -0.0864
 9055SOL     OW38800   4.331   0.808   8.880  0.6187  0.0921 -0.0848
 9055SOL    HW138801   4.298   0.896   8.902  2.0543  0.9351 -1.2609
 9055SOL    HW238802   4.295   0.760   8.954  2.1139 -1.8058 -0.5850
 9056SOL     OW38803   0.106   1.435   6.924  1.0143 -0.3146 -0.1110
 9056SOL    HW138804   0.176   1.382   6.885  0.1663 -1.5804  0.1032
 9056SOL    HW238805   0.133   1.517   6.884  2.0387  0.0940  1.4206
 9057SOL     OW38806   2.913   4.511  11.996  0.1706  0.5280  0.0851
 9057SOL    HW138807   2.994   4.470  12.025  0.3810  0.1109 -1.0788
 9057SOL    HW238808   2.892   4.576  12.063  1.1020  1.8942 -0.9429
 9058SOL     OW38809   2.963   3.477   2.658 -0.3048  0.1882 -0.1124
 9058SOL    HW138810   3.027   3.445   2.594  1.2827  0.4632  1.3207
 9058SOL    HW238811   2.958   3.413   2.729  0.6249  0.1755 -0.0514
 9059SOL     OW38812   3.572   1.302   9.900 -0.3085 -0.6670 -0.2898
 9059SOL    HW138813   3.522   1.337   9.974 -1.4638  1.8767 -2.2767
 9059SOL    HW238814   3.516   1.308   9.823 -0.9110  0.3894  0.2217
 9060SOL     OW38815   2.838   2.100  15.064 -0.4403  0.0442 -0.5279
 9060SOL    HW138816   2.775   2.045  15.017 -1.8063 -0.9048  2.4032
 9060SOL    HW238817   2.774   2.151  15.114 -0.1848 -0.2079  0.0518
 9061SOL     OW38818   3.450   1.349   7.148 -0.1467  0.3938 -0.0404
 9061SOL    HW138819   3.498   1.288   7.092 -1.5987  0.4556 -1.3548
 9061SOL    HW238820   3.360   1.340   7.117 -0.0294 -0.0718 -0.2405
 9062SOL     OW38821   3.614   3.205   1.718  0.3408 -0.1513  0.7899
 9062SOL    HW138822   3.558   3.139   1.760  0.9630 -1.3264 -0.2235
 9062SOL    HW238823   3.593   3.202   1.624  1.4973 -1.7628  0.5999
 9063SOL     OW38824   1.831   0.773   3.221  0.7336  0.7702  0.2155
 9063SOL    HW138825   1.767   0.791   3.290 -0.0502  0.0863 -0.3418
 9063SOL    HW238826   1.906   0.756   3.277  0.0068 -0.5963  0.7677
 9064SOL     OW38827   3.587   3.336   8.872 -0.2010 -0.1464  0.2563
 9064SOL    HW138828   3.555   3.331   8.963  1.9651 -0.5373  0.9942
 9064SOL    HW238829   3.534   3.402   8.827 -1.7872 -1.8960 -0.4507
 9065SOL     OW38830   3.062   2.251  17.316 -0.0671 -0.1811 -0.2086
 9065SOL    HW138831   3.024   2.281  17.233  0.3074 -0.9271 -0.6507
 9065SOL    HW238832   3.127   2.320  17.332 -0.2077 -0.0261 -0.2963
 9066SOL     OW38833   4.733   2.533   2.461  0.1221 -0.3770  0.1878
 9066SOL    HW138834   4.660   2.492   2.415  2.8646 -1.8242 -2.8476
 9066SOL    HW238835   0.061   2.462   2.458  0.4484 -0.0368 -1.0186
 9067SOL     OW38836   0.038   4.685   5.249 -0.0154 -0.0601 -0.0565
 9067SOL    HW138837   0.084   0.032   5.232  1.3691 -1.0320 -1.1069
 9067SOL    HW238838   4.711   4.710   5.316  1.3811  0.7949  0.9525
 9068SOL     OW38839   4.111   4.442   0.565 -0.4336 -0.2579 -0.1090
 9068SOL    HW138840   4.096   4.419   0.657 -0.6867 -2.1664 -0.6295
 9068SOL    HW238841   4.049   4.511   0.542 -0.6463  0.5899  3.0547
 9069SOL     OW38842   4.688   1.846   1.055  0.1804  0.3292  0.3355
 9069SOL    HW138843   4.698   1.860   1.150 -0.1813 -1.0000  0.5691
 9069SOL    HW238844   4.688   1.750   1.060  0.8470  0.2453 -1.4386
 9070SOL     OW38845   3.829   1.560   5.757 -0.3735 -0.2911  0.0621
 9070SOL    HW138846   3.900   1.607   5.714 -0.4162 -3.4194 -3.4513
 9070SOL    HW238847   3.754   1.604   5.718  1.0066 -0.2172 -2.5158
 9071SOL     OW38848   0.159   3.538   7.989  0.2629 -0.0751 -0.1467
 9071SOL    HW138849   0.184   3.629   8.006 -0.1049  0.1425 -0.7667
 9071SOL    HW238850   0.238   3.489   8.012  0.8605  1.1048  0.3337
 9072SOL     OW38851   2.965   3.439   1.916  0.1326 -0.6168  0.3096
 9072SOL    HW138852   2.891   3.432   1.855  0.0071 -0.0392  0.3979
 9072SOL    HW238853   3.015   3.504   1.867 -1.0269 -0.1983 -0.3170
 9073SOL     OW38854   2.143   0.388  12.970 -0.0766  0.3603 -0.3100
 9073SOL    HW138855   2.225   0.341  12.979  1.3230  2.5242 -1.9231
 9073SOL    HW238856   2.108   0.390  13.060  2.3003 -1.2881  0.6440
 9074SOL     OW38857   2.939   3.122   2.734  0.1543 -0.1958 -0.1134
 9074SOL    HW138858   2.874   3.087   2.673 -1.4004 -0.1931  1.5392
 9074SOL    HW238859   2.895   3.092   2.814 -0.6114 -2.5035 -1.3903
 9075SOL     OW38860   0.040   0.317   7.137 -0.0720 -0.0030  0.1874
 9075SOL    HW138861   0.008   0.396   7.179 -0.2908  0.3647 -0.6712
 9075SOL    HW238862   4.715   0.301   7.065 -1.9138  0.3726  1.6825
 9076SOL     OW38863   0.876   2.220   2.101  0.3966 -0.5033 -0.0587
 9076SOL    HW138864   0.956   2.215   2.049  0.0660 -1.2731 -0.5008
 9076SOL    HW238865   0.821   2.174   2.038  0.1542  0.8546 -0.8362
 9077SOL     OW38866   3.643   1.918   2.322 -0.3493 -0.5771 -0.1445
 9077SOL    HW138867   3.634   2.007   2.289  0.1057 -1.1600 -1.8724
 9077SOL    HW238868   3.569   1.873   2.281 -0.2044 -0.3113 -0.7025
 9078SOL     OW38869   3.305   3.343   3.073  0.7369 -0.6181 -0.4398
 9078SOL    HW138870   3.240   3.408   3.098  2.3296  0.0687  1.8774
 9078SOL    HW238871   3.249   3.270   3.047 -1.2891  0.9427 -0.4668
 9079SOL     OW38872   3.834   1.128  17.065  0.0371  0.1158  0.3039
 9079SOL    HW138873   3.924   1.160  17.062  0.3806 -0.9812 -1.3935
 9079SOL    HW238874   3.788   1.203  17.102  0.1425 -1.3267  3.3545
 9080SOL     OW38875   4.363   3.953   1.421 -0.3223  0.1849  0.1930
 9080SOL    HW138876   4.303   3.919   1.355  0.1042 -1.5225  0.6692
 9080SOL    HW238877   4.308   3.980   1.495  1.0854  0.3538  1.1868
 9081SOL     OW38878   0.916   0.818   2.214 -0.4807  1.5568 -0.0644
 9081SOL    HW138879   0.998   0.803   2.168 -0.0387  2.1727  0.5295
 9081SOL    HW238880   0.928   0.775   2.299  1.8901 -1.1430 -1.7922
 9082SOL     OW38881   2.312   3.276  10.138  0.2593 -0.3795  0.1421
 9082SOL    HW138882   2.284   3.187  10.161  2.9960 -0.9933  1.1125
 9082SOL    HW238883   2.389   3.237  10.096 -0.0684 -0.7725 -0.0936
 9083SOL     OW38884   4.528   0.907  17.327 -0.1617 -0.0434  0.6798
 9083SOL    HW138885   4.543   0.875  17.238 -0.3108  2.3268 -0.1889
 9083SOL    HW238886   4.615   0.945  17.338  0.4125 -1.1575 -0.0490
 9084SOL     OW38887   3.036   2.173   1.552 -0.2137 -0.2870 -0.1627
 9084SOL    HW138888   2.952   2.165   1.507 -1.0374  0.0144  1.3363
 9084SOL    HW238889   3.088   2.108   1.504  0.8404  0.5683 -0.1775
 9085SOL     OW38890   4.080   4.380   2.698  0.2491 -0.2390  0.1282
 9085SOL    HW138891   4.127   4.312   2.746  0.0234 -0.7894 -0.4357
 9085SOL    HW238892   4.148   4.424   2.649 -0.5603  2.8514  1.7683
 9086SOL     OW38893   1.461   4.354   1.350  0.0971  0.0512 -0.7970
 9086SOL    HW138894   1.452   4.416   1.422 -1.3973 -3.1199  1.7232
 9086SOL    HW238895   1.428   4.273   1.389 -0.7613  0.2796 -1.0393
 9087SOL     OW38896   2.683   2.023   4.816 -0.0232  0.1803 -0.3414
 9087SOL    HW138897   2.668   1.946   4.872  3.2260  0.1268  0.4595
 9087SOL    HW238898   2.693   1.979   4.731  3.8649 -0.4974  0.4618
 9088SOL     OW38899   3.309   3.540  13.264 -0.5716  1.2034 -0.2150
 9088SOL    HW138900   3.363   3.548  13.185 -0.8040 -1.2598 -0.6191
 9088SOL    HW238901   3.284   3.631  13.281 -0.6507  1.0447  0.5211
 9089SOL     OW38902   0.562   4.548  14.765 -0.2298  0.6287  0.1296
 9089SOL    HW138903   0.618   4.620  14.734 -0.1580  1.2432  1.6957
 9089SOL    HW238904   0.607   4.519  14.844  0.8162 -1.3222 -1.1791
 9090SOL     OW38905   4.088   1.350  15.906  0.3172  0.1572  0.2028
 9090SOL    HW138906   4.180   1.370  15.887  0.3467 -1.4679 -1.3385
 9090SOL    HW238907   4.059   1.337  15.816  1.3664  0.3268 -0.1599
 9091SOL     OW38908   2.525   1.972   6.173 -0.4831 -0.5368  0.0407
 9091SOL    HW138909   2.578   1.922   6.236  1.7891  0.3122 -1.2000
 9091SOL    HW238910   2.499   2.047   6.227  1.8304  0.7328 -0.6047
 9092SOL     OW38911   0.826   3.510   6.297  0.3374  0.4523 -0.2454
 9092SOL    HW138912   0.731   3.516   6.283  0.2825 -2.2808 -1.0782
 9092SOL    HW238913   0.858   3.466   6.218 -0.8995  0.9018 -0.9983
 9093SOL     OW38914   3.528   1.954   0.222  0.1070  0.2312 -0.0068
 9093SOL    HW138915   3.556   1.922   0.137  0.5652  0.8473 -0.0873
 9093SOL    HW238916   3.514   1.871   0.268 -1.2731  1.3767  1.6554
 9094SOL     OW38917   2.805   1.689   5.176 -0.1854 -0.3385  0.0238
 9094SOL    HW138918   2.844   1.740   5.247  3.6512  1.7382 -3.6168
 9094SOL    HW238919   2.877   1.669   5.117  0.7401 -0.3989  1.1821
 9095SOL     OW38920   1.307   3.459   7.986  0.0804 -0.6978 -0.0098
 9095SOL    HW138921   1.386   3.491   8.031 -1.2598  0.5081  1.4757
 9095SOL    HW238922   1.340   3.403   7.915  1.9974 -0.2160  0.4942
 9096SOL     OW38923   0.168   0.509   7.492  0.4661  0.7611  0.8823
 9096SOL    HW138924   0.263   0.514   7.497  0.6422  0.0428 -1.7621
 9096SOL    HW238925   0.148   0.534   7.582  0.7448  1.7385  0.6656
 9097SOL     OW38926   1.228   0.925   7.723 -0.3999 -0.2469 -0.2009
 9097SOL    HW138927   1.211   0.831   7.721  0.9398 -0.4449 -1.7158
 9097SOL    HW238928   1.301   0.920   7.785 -0.6607 -1.8961 -0.0220
 9098SOL     OW38929   3.955   1.478   0.326  0.7143  0.0775 -0.5744
 9098SOL    HW138930   3.903   1.492   0.405  0.4510  0.5542 -0.8272
 9098SOL    HW238931   4.001   1.559   0.305 -3.0547  2.0621 -1.1156
 9099SOL     OW38932   2.397   0.335   9.496 -0.6679 -0.3483  0.7020
 9099SOL    HW138933   2.412   0.429   9.511  1.2779 -0.3918 -0.9268
 9099SOL    HW238934   2.341   0.347   9.420  0.4348 -0.7292 -0.1794
 9100SOL     OW38935   4.169   0.989   9.247  0.0467 -0.3943  0.3285
 9100SOL    HW138936   4.158   0.981   9.341 -1.5522 -0.4669  0.1460
 9100SOL    HW238937   4.094   0.939   9.214  0.6160 -1.2088  0.2794
 9101SOL     OW38938   0.639   1.524   1.977  0.0311  0.1094  0.1707
 9101SOL    HW138939   0.608   1.437   2.003 -0.7371  0.4515  0.4193
 9101SOL    HW238940   0.719   1.497   1.931 -1.6827 -1.6218 -1.8366
 9102SOL     OW38941   3.790   2.605   8.046 -0.1468 -0.0462 -0.1019
 9102SOL    HW138942   3.875   2.648   8.044  0.1875 -0.6972  0.1909
 9102SOL    HW238943   3.819   2.516   8.026  0.3049 -0.0772  0.6995
 9103SOL     OW38944   3.171   4.499  15.442  0.2313 -0.1151 -0.2666
 9103SOL    HW138945   3.203   4.492  15.352  0.8703  0.6993 -0.0989
 9103SOL    HW238946   3.076   4.511  15.432  0.7992  1.4375 -3.6550
 9104SOL     OW38947   3.709   0.475   1.782 -0.0418  0.3236  0.4326
 9104SOL    HW138948   3.629   0.463   1.731  0.1522  2.8326 -0.4685
 9104SOL    HW238949   3.682   0.421   1.856 -0.8415  0.0409 -0.0604
 9105SOL     OW38950   4.341   3.952   2.367 -0.5118  0.1942  0.4460
 9105SOL    HW138951   4.345   4.048   2.369  2.5250  0.0940 -1.0649
 9105SOL    HW238952   4.415   3.944   2.427  0.4799  2.2990 -0.4619
 9106SOL     OW38953   0.329   3.752   6.485  0.0802 -0.2459 -0.2753
 9106SOL    HW138954   0.344   3.751   6.390 -1.7189 -0.2453 -0.5607
 9106SOL    HW238955   0.363   3.667   6.512  1.0285  0.0795 -0.4252
 9107SOL     OW38956   0.693   0.851   5.008  0.2214 -0.1125  0.6021
 9107SOL    HW138957   0.634   0.924   4.987  1.6468  0.6647 -0.6624
 9107SOL    HW238958   0.689   0.844   5.103 -0.5313 -1.7364  0.4403
 9108SOL     OW38959   4.305   3.053   3.061 -0.1071  0.6823 -0.2189
 9108SOL    HW138960   4.398   3.028   3.067 -0.2024  0.2909 -0.3942
 9108SOL    HW238961   4.308   3.145   3.036  4.5965  1.0283  1.4970
 9109SOL     OW38962   3.701   0.118   1.363 -0.2572 -0.0216 -0.0954
 9109SOL    HW138963   3.617   0.149   1.396 -0.5902  0.9518 -1.8452
 9109SOL    HW238964   3.742   0.203   1.351 -1.0260  0.4853  0.8484
 9110SOL     OW38965   3.865   1.105  15.848  0.3271 -0.1066 -0.0551
 9110SOL    HW138966   3.947   1.121  15.801  1.0152  1.1026  1.5605
 9110SOL    HW238967   3.836   1.030  15.797  0.7343  0.7225 -1.5010
 9111SOL     OW38968   3.619   2.756  13.859 -0.0404  0.0403 -0.4524
 9111SOL    HW138969   3.680   2.820  13.821  0.8362  0.6823  2.0630
 9111SOL    HW238970   3.540   2.810  13.862 -1.0383 -1.3138 -2.2964
 9112SOL     OW38971   3.216   1.233   7.845 -0.2811  0.3976 -0.1782
 9112SOL    HW138972   3.202   1.139   7.834  0.7823  0.1912  0.2587
 9112SOL    HW238973   3.139   1.254   7.899  0.2428  0.4579  0.5536
 9113SOL     OW38974   0.332   1.656  17.024  0.1021  0.1212 -0.1427
 9113SOL    HW138975   0.336   1.687  16.934 -0.0576 -2.1393 -0.9468
 9113SOL    HW238976   0.258   1.708  17.054  0.2018 -0.7788  1.6624
 9114SOL     OW38977   1.997   1.169   2.971  0.1339 -0.0226  0.2010
 9114SOL    HW138978   2.048   1.248   2.950 -0.7932  0.0746 -1.7018
 9114SOL    HW238979   1.949   1.149   2.891 -0.2637  2.1679 -0.1204
 9115SOL     OW38980   4.263   4.345  13.347 -0.0843 -0.1524  0.0786
 9115SOL    HW138981   4.246   4.289  13.423  1.8441 -0.4958  0.2410
 9115SOL    HW238982   4.217   4.428  13.363 -2.9944 -1.3740 -1.9293
 9116SOL     OW38983   4.198   0.225  14.779  0.1875  0.6941 -0.0832
 9116SOL    HW138984   4.156   0.254  14.698  1.5402 -1.0104 -1.3885
 9116SOL    HW238985   4.292   0.231  14.764  0.3099 -0.0085  0.4199
 9117SOL     OW38986   3.680   3.466   7.674  0.3262 -0.6845  0.2300
 9117SOL    HW138987   3.626   3.510   7.740 -0.3867  1.5284 -1.8275
 9117SOL    HW238988   3.614   3.460   7.605 -0.5536  2.6570  0.7882
 9118SOL     OW38989   1.175   1.650   7.862  0.5775  0.2264 -0.3930
 9118SOL    HW138990   1.081   1.632   7.856  0.5282  0.3534 -0.0144
 9118SOL    HW238991   1.195   1.701   7.784 -0.5915  0.8869 -0.2586
 9119SOL     OW38992   4.266   1.960  10.996  0.1529  0.5743 -0.0330
 9119SOL    HW138993   4.333   1.925  10.938 -0.0807  0.2760 -0.1283
 9119SOL    HW238994   4.208   1.883  11.002  2.1832 -1.0478 -1.4347
 9120SOL     OW38995   4.426   2.600   3.305 -0.0421 -0.1761  0.0234
 9120SOL    HW138996   4.478   2.680   3.313  2.0399 -1.4454 -0.8821
 9120SOL    HW238997   4.494   2.533   3.311 -0.4335 -0.6808 -1.2453
 9121SOL     OW38998   3.560   0.871   1.978 -0.2257 -0.0974  0.0978
 9121SOL    HW138999   3.509   0.857   1.898  1.1468  0.2405 -0.8393
 9121SOL    HW239000   3.619   0.942   1.953  0.6524 -0.3923  1.3226
 9122SOL     OW39001   3.114   1.256  11.142  0.5417  0.3577  0.4737
 9122SOL    HW139002   3.057   1.306  11.085  0.6648 -1.3381 -1.1442
 9122SOL    HW239003   3.186   1.316  11.161  0.9422  0.5720 -1.7699
 9123SOL     OW39004   0.109   4.696  14.483  0.4776 -0.3500 -0.0076
 9123SOL    HW139005   0.115   4.602  14.496  1.2341 -0.3935 -0.6236
 9123SOL    HW239006   0.153   4.730  14.561  1.6136  0.2495 -0.9092
 9124SOL     OW39007   4.007   1.367   8.645  0.2449  0.0785 -0.2675
 9124SOL    HW139008   4.077   1.420   8.607  0.8744  0.1576  1.0295
 9124SOL    HW239009   3.942   1.369   8.574 -0.0088  0.2543 -0.0316
 9125SOL     OW39010   0.485   1.007   5.569 -0.6389  0.1473 -0.4483
 9125SOL    HW139011   0.497   0.955   5.649 -1.2462 -0.4499 -0.7455
 9125SOL    HW239012   0.417   0.949   5.534  0.3028 -0.7785 -0.7422
 9126SOL     OW39013   3.636   0.262   5.300 -0.4049  0.7140 -0.0079
 9126SOL    HW139014   3.666   0.269   5.209 -1.2019  1.8039 -0.1913
 9126SOL    HW239015   3.553   0.311   5.296 -0.4119  0.5084 -2.4118
 9127SOL     OW39016   4.708   3.318   2.387 -0.0972 -0.5248 -0.1273
 9127SOL    HW139017   0.026   3.364   2.323 -1.3509  0.4240 -0.5103
 9127SOL    HW239018   0.030   3.243   2.397  2.2552  1.1703 -0.8967
 9128SOL     OW39019   0.757   4.049  13.371  0.4333  0.3304 -0.3244
 9128SOL    HW139020   0.850   4.030  13.359  0.0319 -0.4766 -2.1552
 9128SOL    HW239021   0.754   4.134  13.414 -0.4111  1.3468 -2.4086
 9129SOL     OW39022   2.163   0.459   7.663 -0.0057 -0.0965  0.2621
 9129SOL    HW139023   2.071   0.438   7.646  0.2972 -1.4400  0.2845
 9129SOL    HW239024   2.198   0.372   7.679 -1.8963 -0.8753  0.1038
 9130SOL     OW39025   4.113   0.180   4.233 -0.1818 -0.5918 -0.0252
 9130SOL    HW139026   4.109   0.276   4.232 -1.4463 -0.6323  1.7777
 9130SOL    HW239027   4.081   0.163   4.145  2.5967 -1.2289 -0.9069
 9131SOL     OW39028   0.114   2.230   2.293 -0.5598  0.3599 -1.0254
 9131SOL    HW139029   0.121   2.261   2.203  0.6731 -0.2523 -1.1332
 9131SOL    HW239030   0.023   2.200   2.299 -0.2503  0.0977  2.5221
 9132SOL     OW39031   1.522   3.615   8.580  0.8329 -0.4823  0.0983
 9132SOL    HW139032   1.560   3.555   8.644  1.1887  0.3275  0.6387
 9132SOL    HW239033   1.511   3.695   8.631 -1.3281 -1.0384  0.5117
 9133SOL     OW39034   1.939   1.829  13.225 -0.5627 -0.1158 -0.1046
 9133SOL    HW139035   1.973   1.763  13.286  2.7512  0.7127 -1.1113
 9133SOL    HW239036   1.849   1.823  13.258 -0.7279 -0.2942 -0.5895
 9134SOL     OW39037   1.651   0.797   3.442  0.6431 -0.5423 -0.1809
 9134SOL    HW139038   1.562   0.827   3.463 -0.1285 -2.6366 -0.5112
 9134SOL    HW239039   1.632   0.704   3.433 -0.6152 -0.5026  1.9050
 9135SOL     OW39040   2.682   0.762   9.965  0.3145  0.5161 -0.3580
 9135SOL    HW139041   2.708   0.825  10.032  1.5309 -2.6386  2.1473
 9135SOL    HW239042   2.745   0.777   9.894  0.4437 -2.6622 -0.9311
 9136SOL     OW39043   2.821   3.856   1.419 -0.0852  1.0786 -0.0673
 9136SOL    HW139044   2.762   3.929   1.438  2.7944  2.9156  1.9516
 9136SOL    HW239045   2.853   3.877   1.331  0.8786  0.0679  0.0338
 9137SOL     OW39046   1.563   2.820   6.140  0.7931  0.2971  0.4966
 9137SOL    HW139047   1.626   2.791   6.206  0.8485 -1.1684 -0.2240
 9137SOL    HW239048   1.518   2.881   6.200 -1.0927  0.3310 -0.9369
 9138SOL     OW39049   2.291   4.528   8.761  0.0722 -0.0413 -0.6946
 9138SOL    HW139050   2.219   4.548   8.701 -0.4961 -1.6040 -0.5329
 9138SOL    HW239051   2.305   4.611   8.806 -0.8426 -0.1656 -0.1797
 9139SOL     OW39052   3.574   1.928  12.536  0.0215  0.8549 -0.2728
 9139SOL    HW139053   3.586   1.834  12.524  0.5362  0.9605 -0.6084
 9139SOL    HW239054   3.580   1.932  12.631 -0.8353 -0.7676 -0.1396
 9140SOL     OW39055   3.680   4.224   7.173 -0.3839  0.4938  0.4520
 9140SOL    HW139056   3.767   4.227   7.213  0.2666  1.5066 -1.0262
 9140SOL    HW239057   3.688   4.147   7.117  1.4441  2.0264 -1.3715
 9141SOL     OW39058   2.778   2.522   2.379  0.0130  0.2525 -0.2547
 9141SOL    HW139059   2.860   2.495   2.419  1.0101  0.7774 -1.9193
 9141SOL    HW239060   2.782   2.616   2.398 -1.0721  0.6189 -1.8344
 9142SOL     OW39061   3.371   4.448   5.409  0.2554 -0.4167 -0.0217
 9142SOL    HW139062   3.331   4.397   5.339 -0.3054 -1.0828  0.7919
 9142SOL    HW239063   3.395   4.383   5.475 -0.2916 -1.0873 -0.4773
 9143SOL     OW39064   1.879   1.465   3.954 -0.4921 -0.1559  0.3498
 9143SOL    HW139065   1.850   1.398   4.015  1.0504  0.1929  1.4791
 9143SOL    HW239066   1.836   1.542   3.991 -1.8016 -0.6362 -0.1722
 9144SOL     OW39067   0.160   0.382   3.118 -0.1451 -0.0077 -0.5680
 9144SOL    HW139068   0.221   0.382   3.044  0.3594  0.3098 -0.1478
 9144SOL    HW239069   0.176   0.305   3.174  0.2837  1.3253  1.1408
 9145SOL     OW39070   2.471   0.322   8.374  0.0451 -0.0076 -0.5700
 9145SOL    HW139071   2.415   0.390   8.412 -1.1439 -0.7011 -1.0626
 9145SOL    HW239072   2.414   0.256   8.334  0.5990 -1.1296  0.4877
 9146SOL     OW39073   0.086   1.463   8.863 -0.4732 -0.1168  0.2242
 9146SOL    HW139074   0.180   1.452   8.853 -0.0456  1.4608  2.4959
 9146SOL    HW239075   0.055   1.381   8.900 -2.0754 -1.2895 -3.7386
 9147SOL     OW39076   2.515   3.143   6.544  0.0672  0.2154 -0.3295
 9147SOL    HW139077   2.561   3.215   6.501  0.4746 -0.3823 -0.9011
 9147SOL    HW239078   2.587   3.081   6.556 -0.6866 -0.3038  1.4629
 9148SOL     OW39079   1.590   4.691  14.643 -0.1668  1.2882 -0.2173
 9148SOL    HW139080   1.684   4.701  14.627 -0.3305  1.6904 -0.9287
 9148SOL    HW239081   1.568   0.046  14.662  0.1791  0.8660  2.2128
 9149SOL     OW39082   2.762   3.326  16.726 -0.1685 -0.0568  0.6803
 9149SOL    HW139083   2.755   3.277  16.808  0.1980 -0.3250  0.5520
 9149SOL    HW239084   2.758   3.263  16.655 -1.2298  1.0623 -0.2551
 9150SOL     OW39085   3.980   1.315   4.426  0.1929  0.0659  0.0338
 9150SOL    HW139086   3.903   1.298   4.371  0.4002 -1.6790  0.2654
 9150SOL    HW239087   4.034   1.363   4.363  0.6458  0.5088  0.7662
 9151SOL     OW39088   0.400   0.848   2.974 -0.4082 -0.3478  0.1306
 9151SOL    HW139089   0.384   0.813   2.886 -0.2781  0.1784 -0.1052
 9151SOL    HW239090   0.390   0.766   3.022  0.1476 -0.1071  0.6555
 9152SOL     OW39091   0.422   2.106   4.027  0.0655 -0.2896  0.1676
 9152SOL    HW139092   0.436   2.187   3.977  0.0324 -0.4463 -0.0988
 9152SOL    HW239093   0.347   2.068   3.980 -0.1312  0.1974  0.0809
 9153SOL     OW39094   0.804   3.646   4.804 -0.6139 -0.3763 -0.3488
 9153SOL    HW139095   0.833   3.571   4.856  2.7738  0.5160 -0.9207
 9153SOL    HW239096   0.888   3.684   4.777 -0.7734 -0.4901 -0.9881
 9154SOL     OW39097   0.173   0.280   2.494  0.0684  0.0261 -0.0441
 9154SOL    HW139098   0.131   0.309   2.575 -1.0042 -0.3011 -0.4769
 9154SOL    HW239099   0.187   0.186   2.504 -0.5613  0.0415  0.9708
 9155SOL     OW39100   1.473   3.180   8.693 -0.1585  0.0862  0.9731
 9155SOL    HW139101   1.457   3.194   8.600 -0.9499 -0.6671  1.0020
 9155SOL    HW239102   1.390   3.206   8.734 -0.2036  0.1847  0.8162
 9156SOL     OW39103   4.534   0.197   5.081 -0.1363  0.1771  0.0946
 9156SOL    HW139104   4.511   0.107   5.104  0.7692 -0.0784  0.0223
 9156SOL    HW239105   4.627   0.186   5.062 -0.4174  0.6489 -1.5306
 9157SOL     OW39106   4.628   3.392  12.513 -0.1374  0.4038 -0.2732
 9157SOL    HW139107   4.667   3.329  12.574 -0.4839  0.5946  0.1485
 9157SOL    HW239108   4.630   3.468  12.571 -1.2588 -1.6827  2.5204
 9158SOL     OW39109   1.041   1.442   2.160 -0.1158  0.3506  0.2830
 9158SOL    HW139110   1.095   1.440   2.080 -1.6561 -0.9797 -0.7264
 9158SOL    HW239111   0.960   1.394   2.145  1.4243 -1.6903 -1.6315
 9159SOL     OW39112   1.472   0.804   9.392  0.3672 -0.0094  0.4067
 9159SOL    HW139113   1.467   0.896   9.419 -1.9123 -0.5867  1.8868
 9159SOL    HW239114   1.478   0.767   9.479  1.8932 -1.0361 -0.1325
 9160SOL     OW39115   0.504   3.716  15.926 -0.1056  0.6978  0.2036
 9160SOL    HW139116   0.587   3.760  15.943 -0.1116  1.2889 -1.3377
 9160SOL    HW239117   0.456   3.795  15.899 -0.5803  0.7483  1.1589
 9161SOL     OW39118   4.692   1.758   4.907  0.4204  0.9536 -0.3590
 9161SOL    HW139119   4.623   1.752   4.973 -0.1072  0.3393 -0.9568
 9161SOL    HW239120   4.669   1.840   4.864 -0.1755  0.4065 -1.0958
 9162SOL     OW39121   0.194   2.925   2.603 -0.1265  0.0831 -0.1293
 9162SOL    HW139122   0.195   2.983   2.527  0.0174  1.7384  1.1368
 9162SOL    HW239123   0.255   2.964   2.666 -0.4787 -0.7394  0.7189
 9163SOL     OW39124   1.664   2.300  16.687  0.1407 -0.4297 -0.3559
 9163SOL    HW139125   1.699   2.220  16.647 -0.1246 -0.3080 -0.8236
 9163SOL    HW239126   1.707   2.285  16.772  0.5870 -1.0160 -0.6828
 9164SOL     OW39127   4.132   3.779  11.951 -0.6623  0.2594  0.1787
 9164SOL    HW139128   4.119   3.780  11.856 -2.5228 -0.2506  0.4148
 9164SOL    HW239129   4.055   3.832  11.974 -1.8393 -1.6139  0.6468
 9165SOL     OW39130   0.663   2.254   3.726 -0.1151 -0.5267 -1.4193
 9165SOL    HW139131   0.680   2.303   3.646  1.9322 -0.1987 -0.7708
 9165SOL    HW239132   0.747   2.249   3.771 -0.5904  2.8415 -0.2053
 9166SOL     OW39133   0.636   4.396   3.022  0.3696  0.3088 -0.1395
 9166SOL    HW139134   0.676   4.332   2.963 -0.6992  0.0954 -0.6480
 9166SOL    HW239135   0.696   4.468   3.007 -1.1855  1.7810  0.7982
 9167SOL     OW39136   0.406   4.103   6.269 -1.5517 -0.1461  0.0683
 9167SOL    HW139137   0.328   4.150   6.243  0.5458  3.6603  0.7214
 9167SOL    HW239138   0.359   4.021   6.254 -0.1594 -0.9759  0.2228
 9168SOL     OW39139   2.088   2.961  11.036 -0.5052 -0.1593  0.7530
 9168SOL    HW139140   2.155   2.903  11.001 -1.0159  0.7316 -1.6764
 9168SOL    HW239141   2.056   2.992  10.952  0.8867  0.2301  0.3710
 9169SOL     OW39142   0.555   3.728  16.520 -0.1167  0.2508 -0.0540
 9169SOL    HW139143   0.482   3.670  16.543  0.3935  0.2742  1.6462
 9169SOL    HW239144   0.584   3.677  16.444  2.0728  2.6613 -0.8138
 9170SOL     OW39145   2.990   3.146  11.783  0.9233  0.1498 -0.5122
 9170SOL    HW139146   3.055   3.081  11.759  2.0802 -0.2520  3.5536
 9170SOL    HW239147   2.976   3.189  11.699  1.2900 -1.9038 -1.5990
 9171SOL     OW39148   1.854   1.187   0.455  0.3028 -0.0036  0.1028
 9171SOL    HW139149   1.851   1.276   0.418 -0.2805  0.0598  0.3164
 9171SOL    HW239150   1.928   1.152   0.404  0.3087  0.8431 -0.4700
 9172SOL     OW39151   3.593   0.672   9.286 -0.3902  0.5677  0.5516
 9172SOL    HW139152   3.656   0.601   9.271 -2.2109 -1.2679  1.5873
 9172SOL    HW239153   3.570   0.655   9.377 -1.9495  2.7197  0.5487
 9173SOL     OW39154   2.326   3.457   2.352  0.0253  0.1284  0.0936
 9173SOL    HW139155   2.408   3.473   2.306  0.1934 -0.5309  0.1659
 9173SOL    HW239156   2.267   3.505   2.293  1.0325  0.0058 -1.0092
 9174SOL     OW39157   2.652   0.260   5.245 -0.0644  0.0131  0.5877
 9174SOL    HW139158   2.682   0.275   5.335 -1.0738 -0.3437  0.9796
 9174SOL    HW239159   2.664   0.165   5.235 -0.5080 -0.1383  1.4419
 9175SOL     OW39160   3.153   4.407   4.419  0.3215 -0.2246  0.4642
 9175SOL    HW139161   3.232   4.370   4.459  0.6160  0.1314  0.2014
 9175SOL    HW239162   3.083   4.398   4.484 -2.0709 -0.7315 -2.1472
 9176SOL     OW39163   4.236   3.727   8.953 -0.8101 -0.0556  0.3008
 9176SOL    HW139164   4.284   3.649   8.925 -0.9133 -0.6167  1.6854
 9176SOL    HW239165   4.287   3.743   9.032 -0.9968 -1.0102  0.6139
 9177SOL     OW39166   0.568   3.276   5.355  0.2025  0.1970  0.1243
 9177SOL    HW139167   0.484   3.320   5.371 -0.3949 -1.0911  0.5137
 9177SOL    HW239168   0.542   3.218   5.284 -1.5620  0.1834  0.7624
 9178SOL     OW39169   2.013   3.727   5.330  0.0582  0.3748  0.3431
 9178SOL    HW139170   1.985   3.638   5.307 -0.1054 -0.1394  2.5726
 9178SOL    HW239171   1.995   3.778   5.251  1.3153  1.4598  0.7503
 9179SOL     OW39172   1.369   4.049  12.815  0.2119 -0.0757 -0.5108
 9179SOL    HW139173   1.310   4.035  12.741 -0.8221  0.5607  0.1925
 9179SOL    HW239174   1.337   4.132  12.851  1.7992  0.5803 -0.6274
 9180SOL     OW39175   4.352   4.576   3.699  0.9468 -0.7460  0.2477
 9180SOL    HW139176   4.344   4.523   3.778 -1.2238  0.5177  0.8850
 9180SOL    HW239177   4.447   4.573   3.697  1.0059  1.6891 -1.0976
 9181SOL     OW39178   4.141   1.316  14.415  0.0154  0.3209 -0.3089
 9181SOL    HW139179   4.211   1.261  14.379 -0.2288 -0.5529  0.5574
 9181SOL    HW239180   4.169   1.308  14.506  1.1819 -0.4227 -0.7201
 9182SOL     OW39181   2.055   2.281   3.042 -0.5963  0.2938  0.5371
 9182SOL    HW139182   2.070   2.196   3.001 -1.8904  0.7264 -0.8334
 9182SOL    HW239183   2.069   2.255   3.133 -1.3706 -0.1087  0.5425
 9183SOL     OW39184   1.043   1.945   1.668  1.2003 -0.2262 -0.5205
 9183SOL    HW139185   1.054   1.928   1.762  3.4637 -1.7398 -1.0570
 9183SOL    HW239186   1.119   1.999   1.649  1.8266 -0.4563  1.3613
 9184SOL     OW39187   2.054   3.188   6.714 -0.2178  0.2738 -0.0361
 9184SOL    HW139188   2.051   3.209   6.621 -0.8817 -2.9465 -0.7539
 9184SOL    HW239189   2.147   3.190   6.737 -0.3052 -1.2391  0.4715
 9185SOL     OW39190   4.684   4.193   2.953  0.1786 -0.0383  0.3006
 9185SOL    HW139191   4.679   4.260   3.021  0.7288  2.5444 -2.1825
 9185SOL    HW239192   4.646   4.244   2.882  1.0420  0.8835  0.4972
 9186SOL     OW39193   4.001   1.295   4.696  0.1390  0.0622  0.2833
 9186SOL    HW139194   4.020   1.202   4.707  4.6644  0.8922 -0.4536
 9186SOL    HW239195   3.985   1.307   4.602 -1.9806 -0.0315  0.6247
 9187SOL     OW39196   3.494   0.536   1.418  0.3136 -0.0580 -0.8014
 9187SOL    HW139197   3.539   0.512   1.337  2.2102 -0.0797  0.2725
 9187SOL    HW239198   3.495   0.451   1.463 -0.5750 -0.7927 -2.1312
 9188SOL     OW39199   2.884   3.118   1.598  0.5228 -0.0731 -0.0870
 9188SOL    HW139200   2.862   3.209   1.622  0.6124 -0.2105  0.5141
 9188SOL    HW239201   2.869   3.116   1.503  1.1629  0.5149 -0.2002
 9189SOL     OW39202   1.391   0.518   4.430 -0.4222 -0.3342 -0.3796
 9189SOL    HW139203   1.423   0.504   4.519 -2.4295 -3.7293 -0.1757
 9189SOL    HW239204   1.438   0.448   4.383  1.9816  0.3695  0.9694
 9190SOL     OW39205   3.614   0.342   2.333  0.0881  0.3828 -0.7418
 9190SOL    HW139206   3.655   0.362   2.418  1.7541 -2.0367 -0.9728
 9190SOL    HW239207   3.630   0.425   2.288  1.6240  0.2917 -0.3687
 9191SOL     OW39208   1.538   1.963  13.560 -0.1842  0.0856 -0.2011
 9191SOL    HW139209   1.476   1.942  13.490  0.1570  1.5189 -0.9385
 9191SOL    HW239210   1.490   2.042  13.587  0.5473  1.1006 -1.8751
 9192SOL     OW39211   4.245   3.100  12.660  0.0165 -0.2882 -0.2901
 9192SOL    HW139212   4.259   3.008  12.636 -3.4251  0.1534 -3.8622
 9192SOL    HW239213   4.231   3.079  12.753  1.1571  0.9066  0.1491
 9193SOL     OW39214   3.447   2.603  12.878 -0.0777 -0.6152 -0.4022
 9193SOL    HW139215   3.484   2.633  12.961  0.8876 -0.0134 -1.0533
 9193SOL    HW239216   3.386   2.673  12.853 -0.4591 -0.0090  2.2626
 9194SOL     OW39217   0.967   0.870   9.808 -0.2206 -0.1653  0.2143
 9194SOL    HW139218   0.872   0.875   9.800 -0.1049 -0.4923 -1.3638
 9194SOL    HW239219   0.988   0.943   9.751  1.6951 -0.2276  0.8522
 9195SOL     OW39220   3.401   4.184   7.177  0.2384 -0.0790  0.0689
 9195SOL    HW139221   3.482   4.236   7.176  0.0481  0.1995 -0.7212
 9195SOL    HW239222   3.387   4.173   7.083 -2.0433 -0.2832  0.4309
 9196SOL     OW39223   2.339   1.925   6.895 -0.6852  0.2628  0.0629
 9196SOL    HW139224   2.413   1.866   6.882  0.2613  1.0938  1.6851
 9196SOL    HW239225   2.282   1.886   6.828  0.6089  0.5256 -1.1835
 9197SOL     OW39226   3.858   0.780  14.803 -0.2321 -0.2292 -0.5142
 9197SOL    HW139227   3.922   0.722  14.844  1.3360  1.1041 -1.0984
 9197SOL    HW239228   3.776   0.747  14.840 -0.1100  0.6421  0.5361
 9198SOL     OW39229   0.588   4.270  12.818  0.1121 -0.1634 -1.0254
 9198SOL    HW139230   0.549   4.213  12.885 -2.2035  0.4448 -1.8892
 9198SOL    HW239231   0.568   4.350  12.867  0.2764 -0.8569  0.1903
 9199SOL     OW39232   4.620   1.757  17.301  0.1246 -0.1186 -0.1985
 9199SOL    HW139233   4.646   1.763  17.393 -0.2629 -0.7402 -0.0523
 9199SOL    HW239234   4.557   1.685  17.307  0.8818 -0.8614 -1.1555
 9200SOL     OW39235   2.299   0.816   5.986  0.1435  0.6895 -0.1895
 9200SOL    HW139236   2.305   0.739   5.931 -0.6204  0.2522  0.3327
 9200SOL    HW239237   2.232   0.868   5.942 -0.5001 -0.2268 -0.2918
 9201SOL     OW39238   0.625   3.620   3.957 -0.6082 -0.1377  0.2026
 9201SOL    HW139239   0.694   3.653   3.899 -0.7571 -0.9277 -0.4247
 9201SOL    HW239240   0.573   3.697   3.979  1.5719  1.1589  0.8136
 9202SOL     OW39241   3.706   1.986   2.802 -0.2613  0.2946 -0.0214
 9202SOL    HW139242   3.791   1.944   2.820  0.0095  0.2022 -1.5482
 9202SOL    HW239243   3.660   1.987   2.886  1.1843 -0.1714  0.7899
 9203SOL     OW39244   0.477   2.064   1.487 -0.1079  0.7030  0.2047
 9203SOL    HW139245   0.524   1.983   1.503 -1.0327  0.4583  1.6853
 9203SOL    HW239246   0.542   2.115   1.438 -0.7182  1.8154  0.5383
 9204SOL     OW39247   2.365   3.382   5.453 -0.0552 -0.1308 -0.2083
 9204SOL    HW139248   2.336   3.425   5.533 -1.9734  1.1382 -1.5735
 9204SOL    HW239249   2.392   3.461   5.406 -1.2718 -0.4020 -1.3675
 9205SOL     OW39250   2.525   3.825   2.298 -0.5897  0.6269  0.2833
 9205SOL    HW139251   2.541   3.791   2.210  2.6293 -0.0235  1.1083
 9205SOL    HW239252   2.608   3.869   2.319 -0.6438  0.9150 -0.1218
 9206SOL     OW39253   0.364   4.445   2.894  0.3390 -0.2460 -0.2105
 9206SOL    HW139254   0.329   4.481   2.975 -0.5609 -2.6226  0.4811
 9206SOL    HW239255   0.443   4.404   2.928 -0.0310 -1.0648 -0.3338
 9207SOL     OW39256   4.026   2.883   8.836 -0.1334 -0.9735  0.0322
 9207SOL    HW139257   4.119   2.901   8.854  0.1088  1.4378 -3.5379
 9207SOL    HW239258   4.023   2.847   8.748  1.4288  0.8886 -0.8015
 9208SOL     OW39259   0.978   3.873   3.317  0.2366 -0.2046 -0.7742
 9208SOL    HW139260   1.041   3.842   3.382 -1.7309  0.0192  1.2275
 9208SOL    HW239261   0.890   3.849   3.345 -0.1208  1.2096 -0.6598
 9209SOL     OW39262   2.364   2.713   5.571 -0.3422 -0.3395 -0.5832
 9209SOL    HW139263   2.302   2.754   5.631 -0.9202 -0.8387 -0.8389
 9209SOL    HW239264   2.328   2.627   5.550 -1.7180  0.5238 -1.7884
 9210SOL     OW39265   3.574   4.253   1.862 -0.4462  0.2304  0.1915
 9210SOL    HW139266   3.532   4.312   1.925 -0.1485  2.4845 -1.7092
 9210SOL    HW239267   3.540   4.291   1.780 -2.3340 -2.1295 -0.1087
 9211SOL     OW39268   1.327   0.900   4.219 -0.1709  0.0325  0.4109
 9211SOL    HW139269   1.295   0.917   4.308 -0.8956  0.0047  0.1533
 9211SOL    HW239270   1.316   0.988   4.182 -6.3338 -0.6821  0.5310
 9212SOL     OW39271   4.497   1.949  14.676 -0.2280  0.1421  0.3943
 9212SOL    HW139272   4.587   1.934  14.649 -0.3346 -2.3330  1.4299
 9212SOL    HW239273   4.486   1.992  14.761 -2.5062  0.7429 -0.1858
 9213SOL     OW39274   0.157   1.360   4.074  0.2848  0.0676  0.4371
 9213SOL    HW139275   0.104   1.339   3.997  0.7912  0.7903 -0.1048
 9213SOL    HW239276   0.232   1.304   4.054  0.0640 -1.4729  3.9264
 9214SOL     OW39277   3.120   2.248   7.961 -0.5749  0.1457 -0.9192
 9214SOL    HW139278   3.189   2.312   7.976 -1.0812  1.0297 -2.3932
 9214SOL    HW239279   3.154   2.199   7.887 -0.4958  0.7938 -1.3036
 9215SOL     OW39280   1.235   2.413  17.351 -0.2366 -0.2361  0.0358
 9215SOL    HW139281   1.202   2.403  17.440  0.8441 -1.7767  0.2524
 9215SOL    HW239282   1.323   2.440  17.377  0.1476 -0.5472 -0.9321
 9216SOL     OW39283   1.968   1.988  12.993  0.2127 -0.0727 -0.2313
 9216SOL    HW139284   1.955   1.938  13.074  0.0489 -1.1303 -0.9194
 9216SOL    HW239285   2.039   1.940  12.951 -0.0386  0.6106 -1.4428
 9217SOL     OW39286   3.945   1.364   2.526  0.3061  0.5552  0.3954
 9217SOL    HW139287   3.955   1.303   2.453  1.7590 -0.4988  1.4721
 9217SOL    HW239288   3.894   1.439   2.496 -0.9260 -0.6225 -0.4660
 9218SOL     OW39289   1.673   1.594   2.116  0.0558 -0.0223  0.1872
 9218SOL    HW139290   1.754   1.543   2.120  1.4083  2.0173 -0.5096
 9218SOL    HW239291   1.689   1.664   2.052  2.3481 -0.0677  0.6935
 9219SOL     OW39292   4.583   2.387   0.153 -0.3829  0.4753  0.6403
 9219SOL    HW139293   4.521   2.347   0.092  0.6474 -0.9349  0.5386
 9219SOL    HW239294   4.631   2.310   0.181  0.6230  0.5993 -0.7667
 9220SOL     OW39295   0.182   3.186   8.384 -0.3592 -0.4050 -0.4607
 9220SOL    HW139296   0.171   3.166   8.291  3.4951 -2.6044 -0.4068
 9220SOL    HW239297   0.134   3.269   8.382  2.8721  1.4783 -0.6685
 9221SOL     OW39298   1.242   3.451  17.399  0.2057  0.0272  0.0464
 9221SOL    HW139299   1.336   3.470  17.401  0.5861 -1.7544 -0.9256
 9221SOL    HW239300   1.216   3.448  17.491  0.2945  1.0614  0.1053
 9222SOL     OW39301   2.699   3.918   6.070 -0.5981  0.2528  0.1674
 9222SOL    HW139302   2.688   3.875   5.985  0.6772 -2.7980  1.5154
 9222SOL    HW239303   2.610   3.939   6.100 -1.1041 -0.7355 -0.6573
 9223SOL     OW39304   1.129   1.943   6.057  0.0148  0.1875 -0.4313
 9223SOL    HW139305   1.141   1.853   6.086 -2.2886  0.1489  0.3631
 9223SOL    HW239306   1.219   1.969   6.077  0.2510 -0.8831 -0.1117
 9224SOL     OW39307   1.713   0.665   6.191  1.0990 -0.4933 -0.0139
 9224SOL    HW139308   1.729   0.738   6.131 -0.3532  1.8134  2.4207
 9224SOL    HW239309   1.653   0.613   6.139 -0.6313  0.1784  1.3319
 9225SOL     OW39310   2.972   1.901   9.620 -0.4184 -0.2609  0.7335
 9225SOL    HW139311   3.055   1.932   9.655  1.1322  0.2241 -3.3922
 9225SOL    HW239312   2.995   1.921   9.529 -0.2313  1.5763  1.2070
 9226SOL     OW39313   3.240   2.806   5.977 -0.1989 -0.2991 -0.3892
 9226SOL    HW139314   3.176   2.754   6.026 -0.5752  1.0111  0.4876
 9226SOL    HW239315   3.294   2.839   6.048 -1.5476 -1.5863  1.2505
 9227SOL     OW39316   0.750   4.292   2.793 -0.7992  0.2783  0.8850
 9227SOL    HW139317   0.843   4.315   2.795 -0.9447  0.8821  0.7993
 9227SOL    HW239318   0.726   4.357   2.727  0.0093 -0.5732 -0.2399
 9228SOL     OW39319   0.684   2.646   8.356  0.2543 -0.2274  0.4170
 9228SOL    HW139320   0.744   2.571   8.349 -3.0744 -2.6515 -2.1550
 9228SOL    HW239321   0.605   2.608   8.394 -1.3583  2.0233 -0.7382
 9229SOL     OW39322   0.141   3.077   2.356  0.0484 -0.4570  0.4159
 9229SOL    HW139323   0.129   3.039   2.268 -0.5509 -1.1129  0.7769
 9229SOL    HW239324   0.233   3.102   2.361 -0.1419  0.5156 -0.8947
 9230SOL     OW39325   1.142   2.874   8.319  0.1103  0.0015 -1.1566
 9230SOL    HW139326   1.053   2.909   8.311 -0.9476 -2.5025 -0.2399
 9230SOL    HW239327   1.118   2.789   8.354 -0.4386  1.3825  1.8411
 9231SOL     OW39328   0.676   4.606   2.265 -0.2096  0.6427  0.1237
 9231SOL    HW139329   0.692   4.671   2.334  0.9268  1.5349 -0.9711
 9231SOL    HW239330   0.593   4.638   2.230  0.2994 -0.7359 -2.3168
 9232SOL     OW39331   3.470   1.753   1.344 -0.1867 -0.1397  0.0919
 9232SOL    HW139332   3.387   1.716   1.375  0.3587 -1.1014  0.4246
 9232SOL    HW239333   3.479   1.696   1.267  0.3108  1.2114 -0.8477
 9233SOL     OW39334   2.093   2.059   2.478  0.4343 -0.4818  0.3298
 9233SOL    HW139335   2.039   2.135   2.456 -1.0142 -1.6281 -0.0293
 9233SOL    HW239336   2.050   2.000   2.417  0.7259  1.7428 -2.0094
 9234SOL     OW39337   2.892   2.190   6.397 -0.6262 -0.7839 -0.4734
 9234SOL    HW139338   2.946   2.240   6.458 -0.8516 -0.9128 -0.1663
 9234SOL    HW239339   2.920   2.099   6.402  0.3792 -0.4846 -0.7794
 9235SOL     OW39340   1.409   2.492   2.853 -0.2383 -0.0142  0.2974
 9235SOL    HW139341   1.468   2.428   2.892 -0.4489  0.6326  1.7071
 9235SOL    HW239342   1.322   2.450   2.852  0.2016 -0.9904  2.9628
 9236SOL     OW39343   2.680   1.114   4.590 -0.1438 -0.3169  0.0985
 9236SOL    HW139344   2.597   1.080   4.622 -1.2796  2.7256  0.3949
 9236SOL    HW239345   2.670   1.093   4.497  2.5523  0.3152 -0.3315
 9237SOL     OW39346   4.264   2.898  13.492 -0.4555 -0.0861  0.5368
 9237SOL    HW139347   4.293   2.877  13.581 -2.7540 -2.8557  0.6115
 9237SOL    HW239348   4.296   2.988  13.484  0.3706 -0.3530  0.7941
 9238SOL     OW39349   0.542   2.845  15.467 -0.2402 -0.1542 -0.0689
 9238SOL    HW139350   0.539   2.830  15.373  0.3114 -0.0692 -0.0993
 9238SOL    HW239351   0.616   2.907  15.468  1.4634 -2.2494  3.3550
 9239SOL     OW39352   3.364   2.874  13.896 -0.4579  0.1178  0.3888
 9239SOL    HW139353   3.324   2.793  13.866 -0.4418  0.3755 -0.3266
 9239SOL    HW239354   3.286   2.920  13.929 -0.4911 -0.4685  1.1358
 9240SOL     OW39355   3.711   1.258  11.325  0.0773 -0.5303  0.4200
 9240SOL    HW139356   3.798   1.292  11.302 -2.0085  3.3384 -1.6090
 9240SOL    HW239357   3.700   1.270  11.419 -0.7852 -0.1490  0.2639
 9241SOL     OW39358   1.239   3.317   3.666 -0.2324 -0.2701 -0.2294
 9241SOL    HW139359   1.254   3.273   3.583  2.0991 -2.8347  1.5292
 9241SOL    HW239360   1.268   3.406   3.645  1.4342 -0.6383  0.4315
 9242SOL     OW39361   2.461   2.719   2.409  0.3218 -0.1470 -0.2465
 9242SOL    HW139362   2.470   2.642   2.465  0.9611  0.3245  0.2935
 9242SOL    HW239363   2.549   2.755   2.418 -0.5893  2.7051 -2.6359
 9243SOL     OW39364   3.716   0.213   5.863 -0.0972  0.1296 -0.1607
 9243SOL    HW139365   3.783   0.280   5.877  0.8320 -1.1467  1.5604
 9243SOL    HW239366   3.657   0.254   5.800 -1.3164 -1.1610  0.1482
 9244SOL     OW39367   4.303   0.393   7.199  0.0928 -0.0709  0.3283
 9244SOL    HW139368   4.378   0.409   7.257 -0.8921  2.2156  0.9834
 9244SOL    HW239369   4.243   0.346   7.257 -0.3426  1.7200  1.3306
 9245SOL     OW39370   3.897   2.473   6.548  0.3237  0.0759 -0.3469
 9245SOL    HW139371   3.957   2.478   6.623  1.1421 -0.4942 -0.9542
 9245SOL    HW239372   3.818   2.501   6.593  1.1857  1.7065  0.1656
 9246SOL     OW39373   0.908   1.509  15.345 -0.4741 -0.5198 -0.4179
 9246SOL    HW139374   0.816   1.535  15.350 -1.0480 -2.4352 -1.2658
 9246SOL    HW239375   0.903   1.434  15.405  2.5346 -1.1741 -1.0006
 9247SOL     OW39376   1.040   1.943   9.658 -0.3309  0.3173 -0.0188
 9247SOL    HW139377   1.088   1.958   9.739 -0.8721 -2.6284  0.8563
 9247SOL    HW239378   1.026   2.033   9.627  0.1294 -0.7323 -3.2747
 9248SOL     OW39379   2.263   4.420  16.226  0.0458 -0.1152 -0.5702
 9248SOL    HW139380   2.192   4.372  16.268 -1.7930  0.6614 -2.7531
 9248SOL    HW239381   2.208   4.474  16.168  0.1935  0.7363  0.0769
 9249SOL     OW39382   3.331   0.974   7.641 -0.0667  0.5763  0.3134
 9249SOL    HW139383   3.362   0.915   7.711 -0.3495  0.3406  0.2390
 9249SOL    HW239384   3.417   0.998   7.606 -0.1343  1.8359  1.0034
 9250SOL     OW39385   1.937   3.218   7.835 -0.3352 -0.0657 -0.1970
 9250SOL    HW139386   1.890   3.281   7.780 -0.5751 -0.3087 -0.2671
 9250SOL    HW239387   1.872   3.149   7.823 -1.3972  0.6568  1.4204
 9251SOL     OW39388   3.585   3.881   3.641 -0.4445 -0.1627 -0.0315
 9251SOL    HW139389   3.510   3.882   3.701 -1.7517 -0.0516 -1.6666
 9251SOL    HW239390   3.643   3.936   3.693 -2.0356  0.9865  0.5410
 9252SOL     OW39391   1.094   0.543   3.963  0.8737 -0.0914  0.0145
 9252SOL    HW139392   1.081   0.522   3.870  0.3004 -0.8421  0.2650
 9252SOL    HW239393   1.109   0.456   3.999  1.2099 -0.4053 -0.8694
 9253SOL     OW39394   0.890   1.947   3.687  0.0001  0.0594 -0.1721
 9253SOL    HW139395   0.933   1.863   3.700  0.9118  0.5117 -0.2368
 9253SOL    HW239396   0.892   1.956   3.591 -0.0664  2.2092  0.0187
 9254SOL     OW39397   2.666   4.071  11.715  0.2103 -0.2548 -0.5204
 9254SOL    HW139398   2.761   4.066  11.723  0.2616  1.6961  0.0149
 9254SOL    HW239399   2.657   4.158  11.753 -0.5049 -0.0244 -1.2182
 9255SOL     OW39400   0.201   2.745  16.440 -0.0467 -0.3697 -0.4889
 9255SOL    HW139401   0.253   2.675  16.403 -0.6181 -0.3653 -1.3073
 9255SOL    HW239402   0.254   2.766  16.517 -1.6917  0.6685  0.3641
 9256SOL     OW39403   2.916   2.854   3.859 -0.4061 -0.1146  0.4023
 9256SOL    HW139404   2.836   2.860   3.807  0.8440  3.3633 -1.1852
 9256SOL    HW239405   2.896   2.868   3.952  2.2141 -1.7539  1.2025
 9257SOL     OW39406   1.318   2.849   1.757  0.5945 -0.2244  0.2575
 9257SOL    HW139407   1.362   2.818   1.836 -0.7337 -3.2420 -0.1889
 9257SOL    HW239408   1.235   2.802   1.755  1.6717 -2.1263  0.1921
 9258SOL     OW39409   4.060   1.574   5.272  0.2199  0.2231  0.3079
 9258SOL    HW139410   4.051   1.610   5.184  0.3137 -2.0329 -0.6027
 9258SOL    HW239411   4.110   1.496   5.249  0.0639  0.4873 -0.9384
 9259SOL     OW39412   2.117   4.120   3.079 -0.4584 -0.2711 -0.1556
 9259SOL    HW139413   2.136   4.190   3.142  0.9921 -2.2326  1.5721
 9259SOL    HW239414   2.195   4.066   3.079 -0.6964 -0.6163  1.1800
 9260SOL     OW39415   4.475   0.712   4.370 -0.3492  0.0113 -0.1700
 9260SOL    HW139416   4.528   0.641   4.336  1.9723  0.6445  2.1691
 9260SOL    HW239417   4.535   0.783   4.393 -0.4120  0.0687 -0.1793
 9261SOL     OW39418   3.797   1.244   4.169  0.2415 -0.1217 -0.2729
 9261SOL    HW139419   3.751   1.230   4.086 -1.6870  2.5348  0.3198
 9261SOL    HW239420   3.730   1.268   4.233 -0.1307 -1.0196 -0.3269
 9262SOL     OW39421   4.185   2.609  17.261  0.0622 -0.4115  0.2453
 9262SOL    HW139422   4.234   2.577  17.185  2.4907  3.0306  0.3688
 9262SOL    HW239423   4.191   2.705  17.259  0.4497 -0.3871  3.0948
 9263SOL     OW39424   0.643   4.053   4.734  0.5255  0.1520  0.0546
 9263SOL    HW139425   0.572   4.117   4.743  0.2955  0.0058 -0.6765
 9263SOL    HW239426   0.619   3.999   4.809 -1.1675  1.2297  0.2782
 9264SOL     OW39427   3.982   0.787   9.183  0.6874  0.4535  0.3889
 9264SOL    HW139428   3.999   0.710   9.238  2.1153  1.7087  1.6967
 9264SOL    HW239429   4.025   0.753   9.104  0.1294 -0.9521  0.6785
 9265SOL     OW39430   1.854   3.479   2.267 -0.4329 -0.3186  0.3910
 9265SOL    HW139431   1.765   3.505   2.241 -0.0973 -1.0720 -1.5307
 9265SOL    HW239432   1.833   3.442   2.353 -0.2483 -0.1749  0.4971
 9266SOL     OW39433   3.280   0.136   4.711  0.1810  0.7161 -0.0071
 9266SOL    HW139434   3.297   0.043   4.698 -2.0840  0.5482 -1.7829
 9266SOL    HW239435   3.294   0.168   4.622 -0.4907  0.3025 -0.2572
 9267SOL     OW39436   1.604   2.254   7.946 -0.0907  0.1362  0.0435
 9267SOL    HW139437   1.640   2.284   7.863 -1.3796  0.0279 -0.5429
 9267SOL    HW239438   1.632   2.163   7.940 -1.0830 -0.0716 -1.2160
 9268SOL     OW39439   2.656   0.042   3.028 -0.1755  0.8021  0.0773
 9268SOL    HW139440   2.623   0.003   2.947 -1.5190 -0.6702  1.3348
 9268SOL    HW239441   2.731   4.721   3.049 -0.3963  0.3472 -0.3522
 9269SOL     OW39442   1.213   2.080   5.204  0.3608  0.0472 -0.3420
 9269SOL    HW139443   1.169   2.045   5.281  1.1218  0.8342  0.4518
 9269SOL    HW239444   1.207   2.172   5.231  0.8311 -0.6749  2.1733
 9270SOL     OW39445   4.570   1.866   3.904 -0.6765  0.5350 -0.0856
 9270SOL    HW139446   4.634   1.798   3.927 -0.4725  0.4258 -0.9649
 9270SOL    HW239447   4.512   1.814   3.848  0.5834  0.3552 -1.2203
 9271SOL     OW39448   2.052   0.566   3.080 -0.4539  0.1899 -0.1687
 9271SOL    HW139449   1.993   0.492   3.089  0.3107 -0.6312 -2.0241
 9271SOL    HW239450   2.025   0.598   2.994 -2.4955  2.4747  1.3237
 9272SOL     OW39451   1.031   2.470   9.587  0.2817 -0.0462 -0.0219
 9272SOL    HW139452   1.011   2.511   9.671 -1.6656 -0.1778 -0.4237
 9272SOL    HW239453   1.109   2.517   9.557 -0.8037  0.6548 -1.7349
 9273SOL     OW39454   1.993   0.029   8.985 -0.2592  0.5904  0.2349
 9273SOL    HW139455   1.966   0.102   9.041  1.9192 -0.2853  2.4260
 9273SOL    HW239456   2.036   0.089   8.924  1.5154 -2.0803 -1.1425
 9274SOL     OW39457   4.600   0.254   4.184 -0.0369  0.2833  0.6046
 9274SOL    HW139458   4.529   0.286   4.240  0.2992  2.3029 -0.1228
 9274SOL    HW239459   4.586   0.160   4.187 -0.6376  0.2972 -1.6066
 9275SOL     OW39460   1.710   2.955  14.994 -0.3977 -0.0895 -0.6668
 9275SOL    HW139461   1.634   2.900  15.013 -0.2436 -0.1281 -0.1733
 9275SOL    HW239462   1.777   2.887  14.982  0.6290  0.2984  2.9379
 9276SOL     OW39463   3.995   0.633   3.320 -0.3881  0.3047 -0.1631
 9276SOL    HW139464   4.006   0.596   3.232  1.9477 -0.3331  0.3961
 9276SOL    HW239465   3.953   0.554   3.353 -1.0926  0.3428 -0.9587
 9277SOL     OW39466   4.070   3.248   2.045  0.3786 -0.9447  0.3298
 9277SOL    HW139467   4.100   3.321   2.099  1.4561 -0.4853 -0.8819
 9277SOL    HW239468   4.036   3.294   1.968  1.1225 -0.0831  0.5119
 9278SOL     OW39469   0.533   2.821   9.256 -0.2392 -0.6031 -0.2584
 9278SOL    HW139470   0.476   2.747   9.236 -0.8823 -0.4411  1.0262
 9278SOL    HW239471   0.500   2.894   9.205 -0.4836  1.0555  2.3016
 9279SOL     OW39472   1.665   1.023   2.348 -0.3643 -0.0099 -0.3080
 9279SOL    HW139473   1.721   0.953   2.315 -1.1754 -0.4116 -0.8382
 9279SOL    HW239474   1.736   1.074   2.387  0.1955 -0.6498 -0.4882
 9280SOL     OW39475   0.899   3.115   6.784  0.3741 -0.4729  0.0129
 9280SOL    HW139476   0.927   3.027   6.810  0.7063 -0.2907  0.2733
 9280SOL    HW239477   0.861   3.096   6.699 -3.1780  0.8752  1.2824
 9281SOL     OW39478   4.454   0.547   7.801  0.1729 -0.2033  0.5918
 9281SOL    HW139479   4.436   0.595   7.720  1.5630  2.7370  2.0178
 9281SOL    HW239480   4.531   0.598   7.827  0.1097 -0.8449  2.0338
 9282SOL     OW39481   3.382   1.229   5.359 -0.6255  0.1615  0.0649
 9282SOL    HW139482   3.454   1.238   5.422  0.5423 -1.1491 -1.0910
 9282SOL    HW239483   3.321   1.287   5.404 -0.1682  1.8871 -1.5531
 9283SOL     OW39484   3.430   3.869   4.084 -0.0328  0.1671 -0.2579
 9283SOL    HW139485   3.386   3.949   4.113 -1.2005 -0.8640  0.8487
 9283SOL    HW239486   3.519   3.903   4.070  0.5239 -1.3866 -0.5420
 9284SOL     OW39487   2.779   1.224  15.340 -0.0937  0.3335 -0.1397
 9284SOL    HW139488   2.804   1.202  15.250  1.9213  1.1356  0.2133
 9284SOL    HW239489   2.862   1.258  15.372  0.5296  0.1556 -1.5335
 9285SOL     OW39490   3.684   1.906   7.539  0.0619 -0.0804  0.6838
 9285SOL    HW139491   3.735   1.825   7.530  1.8075  1.2291 -1.2873
 9285SOL    HW239492   3.613   1.889   7.478 -0.8731 -1.8927  2.2962
 9286SOL     OW39493   1.490   1.496   5.121  0.2296  0.4009  0.2630
 9286SOL    HW139494   1.435   1.574   5.128 -0.4726  0.0698 -1.6428
 9286SOL    HW239495   1.543   1.511   5.043 -1.6986  0.1692 -1.0789
 9287SOL     OW39496   0.211   0.916   7.360  0.6123 -0.1327  0.3569
 9287SOL    HW139497   0.246   0.834   7.325 -0.5215 -1.2615  1.8329
 9287SOL    HW239498   0.255   0.983   7.308  0.1380 -1.2314 -1.4494
 9288SOL     OW39499   1.962   4.534   8.719 -0.2238 -0.3355  0.0647
 9288SOL    HW139500   1.873   4.566   8.711  0.1265  1.0362  1.4594
 9288SOL    HW239501   1.968   4.522   8.814 -1.2116  0.9550  0.2883
 9289SOL     OW39502   2.754   1.891   3.411 -0.1562  0.0052  0.5098
 9289SOL    HW139503   2.666   1.857   3.426 -0.2591 -0.9756 -2.5004
 9289SOL    HW239504   2.776   1.879   3.319 -2.7499  2.2072 -0.4079
 9290SOL     OW39505   3.466   0.107  15.161 -0.1502 -0.5383  0.3113
 9290SOL    HW139506   3.454   0.024  15.208  0.5875 -0.6157  0.3603
 9290SOL    HW239507   3.558   0.130  15.173 -0.0761  0.3860 -2.2524
 9291SOL     OW39508   0.976   3.215   9.679 -0.5114 -0.2983 -0.0468
 9291SOL    HW139509   1.035   3.245   9.748  0.6254  0.5733 -1.3932
 9291SOL    HW239510   0.946   3.295   9.636  3.9900  1.8242  0.6884
 9292SOL     OW39511   1.543   3.234  11.521 -0.6767 -0.3664  0.4035
 9292SOL    HW139512   1.614   3.196  11.471  1.0282 -0.5380  2.9801
 9292SOL    HW239513   1.485   3.159  11.532 -1.0246 -0.2769 -0.7955
 9293SOL     OW39514   1.028   2.863   7.354  0.2734  0.2802 -0.0881
 9293SOL    HW139515   1.045   2.770   7.370  0.3386  0.0159 -1.6443
 9293SOL    HW239516   0.953   2.876   7.411 -0.9112 -2.9870 -0.9163
 9294SOL     OW39517   1.711   3.490   8.712 -0.2324 -0.1478 -0.0207
 9294SOL    HW139518   1.758   3.571   8.734 -1.6335  0.6387  0.0340
 9294SOL    HW239519   1.775   3.430   8.673  1.0341 -0.8065  3.0555
 9295SOL     OW39520   2.965   2.595   3.832 -0.1077 -0.4007 -0.2123
 9295SOL    HW139521   3.043   2.638   3.796 -1.3262 -0.1789 -2.5550
 9295SOL    HW239522   2.927   2.671   3.876  0.7942  1.1663 -2.1576
 9296SOL     OW39523   2.291   1.969   5.183 -0.0132 -0.3802  0.3243
 9296SOL    HW139524   2.228   1.931   5.244  1.2127 -0.7158  1.3847
 9296SOL    HW239525   2.373   1.941   5.225  1.3478  0.2224 -1.9050
 9297SOL     OW39526   2.511   1.501   7.574  0.4027  0.0602  0.3541
 9297SOL    HW139527   2.566   1.552   7.514  2.6020 -1.9807  0.6123
 9297SOL    HW239528   2.580   1.444   7.608  0.0566 -0.4690  0.1705
 9298SOL     OW39529   0.726   2.470  16.598 -0.0231  0.0905  0.3780
 9298SOL    HW139530   0.757   2.508  16.681 -2.6638 -0.6435  1.7120
 9298SOL    HW239531   0.783   2.393  16.590  2.7288  2.3028 -1.4459
 9299SOL     OW39532   1.689   4.017   4.526  0.2198  0.2476 -0.1621
 9299SOL    HW139533   1.694   4.070   4.606 -0.9731 -0.3650  0.3115
 9299SOL    HW239534   1.643   3.937   4.551  0.5798  1.0105  2.9855
 9300SOL     OW39535   3.437   1.810   6.561 -0.6896  0.0480 -0.4567
 9300SOL    HW139536   3.388   1.791   6.641  0.7093  1.0551  0.6335
 9300SOL    HW239537   3.460   1.719   6.546  1.1390  0.7755 -2.1045
 9301SOL     OW39538   3.538   4.386   2.319 -0.3974 -0.1466  0.0900
 9301SOL    HW139539   3.605   4.454   2.327 -0.0058 -0.8871  2.9912
 9301SOL    HW239540   3.498   4.410   2.236 -2.3556  1.5044  1.5090
 9302SOL     OW39541   1.082   4.640   2.203 -0.0389  0.2327 -0.0593
 9302SOL    HW139542   1.060   4.607   2.290 -2.6566  0.0070 -0.8108
 9302SOL    HW239543   1.035   4.723   2.205 -1.0309 -0.2579 -3.5004
 9303SOL     OW39544   1.725   1.059  15.704 -0.2588  0.9735  0.4035
 9303SOL    HW139545   1.810   1.102  15.697 -0.2592  0.6428 -1.7126
 9303SOL    HW239546   1.674   1.117  15.647  1.8117  0.3555 -2.0629
 9304SOL     OW39547   3.408   1.426  15.419  0.0704  0.0567 -0.2674
 9304SOL    HW139548   3.504   1.435  15.420  0.1619 -0.9424  0.2404
 9304SOL    HW239549   3.399   1.330  15.424 -1.2792  0.1412 -1.1152
 9305SOL     OW39550   2.655   1.311   6.422 -0.4053 -0.3726  0.3084
 9305SOL    HW139551   2.597   1.251   6.374  1.8036 -2.6978  0.4964
 9305SOL    HW239552   2.721   1.250   6.454  1.4971  2.2365  1.2618
 9306SOL     OW39553   0.010   1.235   6.182  0.8024  0.2108  0.0885
 9306SOL    HW139554   4.706   1.317   6.211  2.0208  1.1307 -0.8518
 9306SOL    HW239555   4.707   1.161   6.230  0.1391  1.4701  1.4928
 9307SOL     OW39556   1.487   1.684   8.902  0.1019  0.0366  0.5469
 9307SOL    HW139557   1.478   1.689   8.997 -1.8890  0.8523  0.3206
 9307SOL    HW239558   1.570   1.731   8.899 -0.7139  1.5815  2.4699
 9308SOL     OW39559   2.832   3.061  13.609 -0.3693  0.7777  0.2491
 9308SOL    HW139560   2.837   3.043  13.703 -1.4017 -0.0755  0.1432
 9308SOL    HW239561   2.809   3.153  13.603 -0.0421  0.9437  1.6359
 9309SOL     OW39562   2.814   4.253   5.222 -0.0907  0.3075  0.0420
 9309SOL    HW139563   2.828   4.161   5.244 -0.2180 -0.0506 -1.3693
 9309SOL    HW239564   2.802   4.293   5.308 -1.0677  2.1534 -0.9511
 9310SOL     OW39565   4.545   1.038  12.794  0.3940  0.1043 -0.9478
 9310SOL    HW139566   4.468   0.991  12.824  1.5569 -1.2860 -0.1587
 9310SOL    HW239567   4.537   1.037  12.698 -2.7922 -0.2151 -0.6705
 9311SOL     OW39568   3.203   0.402   9.501 -0.0786  0.2979 -0.0269
 9311SOL    HW139569   3.250   0.408   9.584  0.6769 -0.2827 -0.4148
 9311SOL    HW239570   3.282   0.405   9.447  0.0781 -1.4734  0.1345
 9312SOL     OW39571   1.511   4.086   8.965  0.1424 -0.4702 -0.3137
 9312SOL    HW139572   1.507   4.136   9.046  2.2055 -0.9758  0.1054
 9312SOL    HW239573   1.573   4.016   8.987  1.0580  0.3566 -0.2696
 9313SOL     OW39574   1.439   0.802   2.381  0.2026  0.0094 -0.0250
 9313SOL    HW139575   1.484   0.717   2.385  1.1638  0.3825 -3.2064
 9313SOL    HW239576   1.511   0.865   2.380  0.5491 -0.3415  2.5118
 9314SOL     OW39577   1.241   4.124   9.046  0.3894 -0.6026  0.0915
 9314SOL    HW139578   1.287   4.040   9.056 -0.5264 -1.0987  0.1064
 9314SOL    HW239579   1.266   4.146   8.957 -1.3683 -0.4147 -0.3476
 9315SOL     OW39580   4.688   1.489   8.244  0.2459 -0.5420 -0.0784
 9315SOL    HW139581   4.705   1.495   8.150  0.5206 -1.4679 -0.0874
 9315SOL    HW239582   4.691   1.395   8.257 -2.6024 -0.6649 -0.4249
 9316SOL     OW39583   3.799   4.246  17.092 -0.5773  0.8842 -0.1337
 9316SOL    HW139584   3.889   4.267  17.069 -0.0693  0.1772  1.2343
 9316SOL    HW239585   3.760   4.248  17.005  0.5713 -0.5984 -0.6677
 9317SOL     OW39586   1.488   3.990   6.598  0.0203  0.0489 -0.1202
 9317SOL    HW139587   1.423   3.992   6.528  2.0595 -2.3440 -2.0937
 9317SOL    HW239588   1.568   3.994   6.546  0.6060 -0.1397  0.7581
 9318SOL     OW39589   3.022   3.805  13.980 -0.0203 -0.2378 -0.5229
 9318SOL    HW139590   2.992   3.863  13.910 -0.6799  1.8127  1.4819
 9318SOL    HW239591   2.987   3.847  14.059 -1.8165 -1.3895 -0.7042
 9319SOL     OW39592   2.243   4.399   8.393 -0.1851  0.5150 -0.0903
 9319SOL    HW139593   2.251   4.309   8.424  2.3570  0.2852 -1.4180
 9319SOL    HW239594   2.266   4.391   8.300 -1.4726 -0.6359 -0.3169
 9320SOL     OW39595   3.752   2.174  14.312 -0.2569 -0.2093  0.7860
 9320SOL    HW139596   3.711   2.111  14.252  0.8443  0.7343 -0.9794
 9320SOL    HW239597   3.776   2.247  14.255  2.7379 -0.0340  2.2643
 9321SOL     OW39598   3.291   1.533   1.738 -0.6471 -0.1431 -0.6909
 9321SOL    HW139599   3.329   1.448   1.760  0.6122  0.5876 -0.0736
 9321SOL    HW239600   3.307   1.533   1.644 -0.2582  0.2742 -0.6277
 9322SOL     OW39601   2.433   3.553   7.053 -0.7300 -0.2415 -0.2505
 9322SOL    HW139602   2.437   3.646   7.073  0.6044 -0.3083 -0.2346
 9322SOL    HW239603   2.378   3.510   7.119  0.5967 -1.3637  0.1275
 9323SOL     OW39604   1.202   1.306   1.378  0.4754  0.1651  0.4311
 9323SOL    HW139605   1.113   1.278   1.356  0.0272  1.3007  0.7957
 9323SOL    HW239606   1.203   1.269   1.465  1.3025 -1.1134 -0.1274
 9324SOL     OW39607   2.427   4.685   0.409  0.3385 -0.2604 -0.1144
 9324SOL    HW139608   2.423   4.626   0.333  0.7064  0.3305 -0.5914
 9324SOL    HW239609   2.521   4.700   0.405  0.3636 -0.5796 -0.8175
 9325SOL     OW39610   0.706   2.846   3.132  0.2817 -0.1878 -0.1122
 9325SOL    HW139611   0.695   2.891   3.216 -0.3368  1.7173 -1.2153
 9325SOL    HW239612   0.616   2.852   3.100  0.1124 -1.4420  0.1539
 9326SOL     OW39613   2.656   1.755  16.467  0.0690 -0.1185  0.2344
 9326SOL    HW139614   2.601   1.771  16.544  0.3962  0.0786  0.4276
 9326SOL    HW239615   2.730   1.718  16.517  0.2915 -0.8644 -0.6506
 9327SOL     OW39616   3.586   3.324   6.871 -0.6871 -0.1114 -0.4384
 9327SOL    HW139617   3.566   3.287   6.957 -2.3556  1.7796  0.0000
 9327SOL    HW239618   3.519   3.390   6.853 -0.7018  0.6384  2.3807
 9328SOL     OW39619   0.605   0.018   5.478  0.3808  0.1507 -0.5124
 9328SOL    HW139620   0.651   4.681   5.519 -1.4169 -1.1307 -0.8160
 9328SOL    HW239621   0.642   0.093   5.524  1.5428 -0.0933 -1.0433
 9329SOL     OW39622   3.871   1.346  14.404  0.5137 -0.5043  0.0597
 9329SOL    HW139623   3.859   1.326  14.311  1.1930  2.0664 -0.5770
 9329SOL    HW239624   3.965   1.330  14.412  0.4287 -0.6333  0.7529
 9330SOL     OW39625   1.280   3.058   9.213 -0.1478 -0.5247 -0.0560
 9330SOL    HW139626   1.217   2.986   9.214  0.7030 -1.2649  0.4009
 9330SOL    HW239627   1.245   3.123   9.273 -2.2759 -1.4922 -0.2614
 9331SOL     OW39628   1.851   4.590  16.515  0.5213  0.3102  0.5173
 9331SOL    HW139629   1.822   4.674  16.479 -0.7368 -0.8106 -1.0956
 9331SOL    HW239630   1.777   4.548  16.559  1.7144 -2.9079 -0.5591
 9332SOL     OW39631   0.887   0.428   7.935  0.1137 -0.3877  0.2424
 9332SOL    HW139632   0.828   0.353   7.932  0.2975 -0.5718  1.3021
 9332SOL    HW239633   0.953   0.396   7.873  0.2799 -1.0419  0.7525
 9333SOL     OW39634   3.792   2.564  10.693  0.0494 -0.1569  0.3235
 9333SOL    HW139635   3.853   2.497  10.722  0.4577  0.1192  0.1144
 9333SOL    HW239636   3.833   2.583  10.609  0.0082  0.0549  0.3492
 9334SOL     OW39637   2.413   4.393  12.706 -0.0021  0.3311  0.0757
 9334SOL    HW139638   2.331   4.343  12.713 -0.2529  0.8161  0.6111
 9334SOL    HW239639   2.461   4.344  12.639  3.0924  2.5505  0.7152
 9335SOL     OW39640   2.126   3.783   3.043 -0.6620 -0.5092 -0.0532
 9335SOL    HW139641   2.069   3.856   3.066 -1.4883 -1.1216 -0.1725
 9335SOL    HW239642   2.109   3.771   2.950  3.1262  2.1779 -1.1094
 9336SOL     OW39643   1.665   1.052  12.254 -0.5280 -0.0924  0.0209
 9336SOL    HW139644   1.730   0.988  12.281 -0.0165 -0.8257 -2.9843
 9336SOL    HW239645   1.604   1.045  12.327  0.6552  0.6580  1.0936
 9337SOL     OW39646   0.039   0.698   5.544  0.1012 -0.0572  0.8499
 9337SOL    HW139647   0.044   0.624   5.605  1.1911  1.3858  2.5491
 9337SOL    HW239648   4.724   0.756   5.601  0.0077  0.0240  0.6822
 9338SOL     OW39649   4.430   1.231  12.493 -0.1668  0.0282  0.1255
 9338SOL    HW139650   4.515   1.188  12.478  1.2703  2.7593  0.3812
 9338SOL    HW239651   4.416   1.256  12.402  1.6755  0.6907  0.0032
 9339SOL     OW39652   0.978   2.533  15.865  0.3943  0.2913 -0.1614
 9339SOL    HW139653   1.048   2.477  15.832  1.3641  2.1021 -1.2078
 9339SOL    HW239654   0.966   2.493  15.951  2.3313  0.5932  0.2612
 9340SOL     OW39655   2.865   1.448   3.474 -0.1049  0.0134  0.1784
 9340SOL    HW139656   2.882   1.359   3.444 -4.1676 -0.3641 -0.9594
 9340SOL    HW239657   2.816   1.492   3.404 -0.9473  0.1156  0.8371
 9341SOL     OW39658   4.198   0.032   3.136 -0.1668  0.7778 -0.7383
 9341SOL    HW139659   4.200   0.034   3.040  0.2701  2.6584 -0.6836
 9341SOL    HW239660   4.261   0.098   3.163  1.1802 -1.2181  0.9812
 9342SOL     OW39661   1.132   1.196   7.921 -0.4801 -0.0032  0.0316
 9342SOL    HW139662   1.152   1.180   8.014  0.7943 -2.8464 -0.7326
 9342SOL    HW239663   1.202   1.258   7.900  1.2229 -1.3180  1.7432
 9343SOL     OW39664   3.709   3.708   5.909 -0.2993  0.1447  0.2242
 9343SOL    HW139665   3.802   3.709   5.930 -0.1215 -0.1870 -0.5481
 9343SOL    HW239666   3.664   3.749   5.982  1.0836 -0.8436  1.6114
 9344SOL     OW39667   1.347   4.506   8.803  0.0844  0.2530 -0.0053
 9344SOL    HW139668   1.320   4.554   8.882 -0.2229 -1.2341  0.7990
 9344SOL    HW239669   1.353   4.583   8.746 -0.5780  0.5032  0.2563
 9345SOL     OW39670   3.588   0.969   4.297 -0.3473  0.3512 -0.1316
 9345SOL    HW139671   3.501   0.929   4.290  0.4727 -1.7222  1.5213
 9345SOL    HW239672   3.638   0.929   4.226 -0.6199 -0.4204  0.1079
 9346SOL     OW39673   0.650   0.329   3.230 -0.1721 -0.1046 -0.3838
 9346SOL    HW139674   0.600   0.409   3.218 -0.7401 -0.0200  2.4231
 9346SOL    HW239675   0.580   0.280   3.275  2.0608 -1.8980  1.1745
 9347SOL     OW39676   3.252   0.320   5.700  0.0062 -0.3957  0.5346
 9347SOL    HW139677   3.179   0.295   5.644 -0.3245  1.3753  0.1626
 9347SOL    HW239678   3.234   0.414   5.690  0.0974 -0.3613  0.6993
 9348SOL     OW39679   4.286   3.816  12.864  0.2061  0.3572  0.2584
 9348SOL    HW139680   4.204   3.770  12.845  0.5552  0.2822 -1.0738
 9348SOL    HW239681   4.332   3.825  12.780 -0.1285 -0.5363 -0.0244
 9349SOL     OW39682   2.785   1.654  16.237 -0.0473 -0.3664 -0.0414
 9349SOL    HW139683   2.858   1.593  16.249 -0.6167 -1.3537 -1.4805
 9349SOL    HW239684   2.742   1.670  16.321 -1.4206 -0.9986 -0.6306
 9350SOL     OW39685   4.253   3.518   6.038 -0.0390  0.3532  0.1430
 9350SOL    HW139686   4.289   3.507   5.950  2.3192 -1.1857  1.2836
 9350SOL    HW239687   4.164   3.486   6.023  0.1909 -0.2318  0.0453
 9351SOL     OW39688   0.248   1.204   1.020  0.6645 -0.2858  0.0049
 9351SOL    HW139689   0.288   1.195   1.107 -0.2031  1.7389  0.6157
 9351SOL    HW239690   0.192   1.126   1.014  0.5807 -0.3715  1.9007
 9352SOL     OW39691   1.186   3.362   1.781  0.6317  0.4323  0.4309
 9352SOL    HW139692   1.095   3.390   1.775  0.4466 -0.2777 -0.1520
 9352SOL    HW239693   1.229   3.418   1.716  1.2731 -1.2759 -0.6289
 9353SOL     OW39694   2.091   3.568   3.483 -0.6591  0.3508  0.0462
 9353SOL    HW139695   2.143   3.635   3.527 -0.0790  0.9960 -1.6266
 9353SOL    HW239696   2.033   3.622   3.429 -1.5871 -1.9388 -1.2674
 9354SOL     OW39697   4.141   2.309   3.631  0.6007  0.1651 -0.4204
 9354SOL    HW139698   4.108   2.397   3.614  0.8852  0.3117 -0.2020
 9354SOL    HW239699   4.173   2.305   3.721  1.6376 -1.0887 -0.8357
 9355SOL     OW39700   4.592   4.548   5.039 -0.0659  0.4225  0.0585
 9355SOL    HW139701   4.565   4.612   5.104  1.5537  1.0831  0.0728
 9355SOL    HW239702   4.598   4.465   5.085 -1.3344  0.0096 -0.5157
 9356SOL     OW39703   0.469   1.721   1.943 -0.6580 -0.0553 -0.1137
 9356SOL    HW139704   0.539   1.656   1.935  1.2877  2.0575 -0.3233
 9356SOL    HW239705   0.478   1.763   2.029  0.3794 -0.7529  0.1152
 9357SOL     OW39706   4.698   1.722   8.396  0.5525  0.6575 -0.2614
 9357SOL    HW139707   4.722   1.645   8.345 -0.9677 -0.3844  0.5852
 9357SOL    HW239708   4.607   1.709   8.423 -0.3432 -0.4463 -3.7872
 9358SOL     OW39709   1.523   0.902   7.889 -0.0637 -0.3224  0.1923
 9358SOL    HW139710   1.616   0.920   7.904 -0.0618  0.4362 -0.7499
 9358SOL    HW239711   1.490   0.991   7.879 -2.1120 -1.3044 -1.5686
 9359SOL     OW39712   3.376   0.474   9.706  0.1435 -0.2526  0.4106
 9359SOL    HW139713   3.403   0.402   9.763  0.3490 -1.2277 -0.9240
 9359SOL    HW239714   3.407   0.546   9.761  2.0060 -0.3227 -0.5673
 9360SOL     OW39715   3.711   2.541   2.612 -0.0490 -0.1033 -0.4861
 9360SOL    HW139716   3.762   2.508   2.538 -1.0931  1.0617 -1.7476
 9360SOL    HW239717   3.752   2.625   2.632 -0.5006  0.1718 -0.7019
 9361SOL     OW39718   1.425   3.185   5.002 -0.3826 -0.3323 -0.0979
 9361SOL    HW139719   1.415   3.130   4.925  0.8690  2.5413 -2.2940
 9361SOL    HW239720   1.343   3.154   5.040  0.6533 -1.8914  0.9439
 9362SOL     OW39721   2.765   2.329  15.859  0.2198  0.5575 -0.0919
 9362SOL    HW139722   2.857   2.347  15.879  0.3048 -0.8154  0.7612
 9362SOL    HW239723   2.749   2.409  15.810 -1.4185  1.0691  1.2764
 9363SOL     OW39724   4.654   2.279   8.461 -0.3305  0.8566 -0.0189
 9363SOL    HW139725   4.603   2.334   8.402  1.9008  0.4627 -2.3052
 9363SOL    HW239726   4.656   2.197   8.410  1.1597  1.6045 -1.1544
 9364SOL     OW39727   3.731   0.217   9.802 -0.3302 -0.4652  0.3832
 9364SOL    HW139728   3.650   0.167   9.798 -0.7004  0.1783 -0.1463
 9364SOL    HW239729   3.739   0.218   9.897 -0.2735  1.3081  0.3562
 9365SOL     OW39730   4.220   2.584  12.196 -0.3155  0.2712 -0.3418
 9365SOL    HW139731   4.269   2.667  12.191  1.6227 -0.8949 -0.6817
 9365SOL    HW239732   4.148   2.608  12.254 -2.7851 -0.7015 -3.0130
 9366SOL     OW39733   4.226   2.448  11.937  0.4816  0.4557 -0.1337
 9366SOL    HW139734   4.247   2.492  12.019 -0.3624 -1.0599  0.8948
 9366SOL    HW239735   4.228   2.355  11.962 -0.6422  0.4749  0.0321
 9367SOL     OW39736   2.624   0.681   1.237 -0.5224 -0.5815  0.1172
 9367SOL    HW139737   2.579   0.705   1.318  0.8352  1.7964  0.1689
 9367SOL    HW239738   2.651   0.766   1.202 -0.4733 -0.1432  1.2072
 9368SOL     OW39739   1.499   4.053  15.612 -0.2270  0.2319 -1.0612
 9368SOL    HW139740   1.414   4.088  15.587  0.5309  3.0230  0.3208
 9368SOL    HW239741   1.523   4.115  15.681  0.2030  1.5411 -2.3878
 9369SOL     OW39742   1.394   4.612   9.188  0.2729 -0.7232  0.5711
 9369SOL    HW139743   1.469   4.553   9.195  2.3500  1.7458 -1.2897
 9369SOL    HW239744   1.323   4.548   9.191 -0.9360  0.4648 -2.2452
 9370SOL     OW39745   1.920   0.010   3.751  0.7988  0.3194  0.4249
 9370SOL    HW139746   1.840   4.733   3.699  0.6702  0.4912  0.5826
 9370SOL    HW239747   1.954   4.660   3.727  0.1229  0.9981 -2.9532
 9371SOL     OW39748   1.468   0.212   8.506 -0.5644 -0.1272  0.0776
 9371SOL    HW139749   1.463   0.274   8.432  2.0793  0.1745  0.1415
 9371SOL    HW239750   1.537   0.264   8.547 -0.7921  0.4469 -0.2616
 9372SOL     OW39751   4.019   2.888   6.425 -0.2025 -0.2568 -0.1887
 9372SOL    HW139752   3.944   2.905   6.368  0.6883 -0.2275 -1.3478
 9372SOL    HW239753   4.078   2.960   6.402 -0.7244  0.4007  0.5274
 9373SOL     OW39754   3.022   1.944   4.096  0.3059  0.0356  0.2255
 9373SOL    HW139755   3.004   1.952   4.002  2.2747 -0.1990 -0.1720
 9373SOL    HW239756   2.931   1.942   4.127  0.0664 -0.6379 -0.5244
 9374SOL     OW39757   1.351   0.999  15.851 -0.1058  0.2989 -0.3014
 9374SOL    HW139758   1.265   0.957  15.844  1.6470 -3.1591 -0.9954
 9374SOL    HW239759   1.333   1.093  15.842 -2.8426 -0.2763 -0.9267
 9375SOL     OW39760   0.655   2.748   5.175 -0.0279 -0.2420  0.0598
 9375SOL    HW139761   0.651   2.653   5.181  1.1563 -0.2385  0.9429
 9375SOL    HW239762   0.709   2.764   5.097 -0.8241  0.3800 -0.3638
 9376SOL     OW39763   1.640   2.833   6.751  0.6951  0.1374 -0.2819
 9376SOL    HW139764   1.724   2.848   6.707  0.1394  1.9229 -0.7386
 9376SOL    HW239765   1.663   2.824   6.843 -0.6054  0.7279  0.1048
 9377SOL     OW39766   3.166   1.350   3.859  0.0312  0.7519  0.3214
 9377SOL    HW139767   3.133   1.372   3.772  0.2968  2.3571  0.6160
 9377SOL    HW239768   3.229   1.283   3.836 -1.4974 -0.6861  0.3050
 9378SOL     OW39769   2.405   0.290   5.416  0.6779 -0.1765 -0.0897
 9378SOL    HW139770   2.428   0.199   5.398  0.7377 -0.0339 -0.7290
 9378SOL    HW239771   2.489   0.321   5.450 -0.2330  2.4918 -0.2437
 9379SOL     OW39772   4.267   3.370   6.592  0.6956  0.5021 -0.3588
 9379SOL    HW139773   4.264   3.410   6.679 -0.5239 -3.1730  1.2977
 9379SOL    HW239774   4.186   3.318   6.586  0.7796  0.3227  0.0194
 9380SOL     OW39775   1.344   2.715   2.613 -0.3754  0.1675  0.2582
 9380SOL    HW139776   1.368   2.623   2.608 -1.1346  0.0788 -1.7714
 9380SOL    HW239777   1.288   2.719   2.536  1.4068 -1.8908 -1.1437
 9381SOL     OW39778   0.092   4.357   2.652  0.7043 -0.4430 -0.3693
 9381SOL    HW139779   0.010   4.322   2.618  0.1176  1.2462 -0.6916
 9381SOL    HW239780   0.077   4.340   2.745 -1.7045 -4.4777 -1.5370
 9382SOL     OW39781   0.894   4.377   5.450 -0.1911  0.8510  0.0629
 9382SOL    HW139782   0.853   4.430   5.382 -0.7579 -1.2381 -1.2586
 9382SOL    HW239783   0.976   4.420   5.474  0.4002 -0.6259  0.7227
 9383SOL     OW39784   1.890   1.385   6.681 -0.0839  0.4168 -0.0047
 9383SOL    HW139785   1.945   1.315   6.646 -0.3864 -0.0492  0.4453
 9383SOL    HW239786   1.963   1.436   6.717 -2.1286  2.8831  0.6549
 9384SOL     OW39787   4.032   3.424   2.614  0.3168 -0.2184 -0.6038
 9384SOL    HW139788   4.126   3.426   2.629  0.4716  0.1370 -1.5918
 9384SOL    HW239789   4.006   3.393   2.700 -1.8265 -0.0968 -1.2081
 9385SOL     OW39790   0.122   3.020   6.582 -0.5422  0.0836  0.0280
 9385SOL    HW139791   0.081   3.080   6.644  1.7475 -0.6720  2.2836
 9385SOL    HW239792   0.138   3.082   6.512  2.9685 -2.2430 -1.2228
 9386SOL     OW39793   1.744   3.833   8.076  0.3368 -0.5996  0.4897
 9386SOL    HW139794   1.724   3.924   8.100 -0.0295 -0.9473  1.4658
 9386SOL    HW239795   1.673   3.796   8.129 -0.4361  0.7528  0.4007
 9387SOL     OW39796   0.003   3.519   1.596  0.6238 -0.0024 -0.1558
 9387SOL    HW139797   0.041   3.571   1.667 -0.0698 -1.1551  1.0523
 9387SOL    HW239798   0.055   3.552   1.521  0.8855 -3.0647 -1.2982
 9388SOL     OW39799   0.904   4.269   3.177 -0.2416 -0.4058 -0.0592
 9388SOL    HW139800   0.811   4.261   3.157  0.0358  2.4981 -2.4513
 9388SOL    HW239801   0.905   4.271   3.273  2.2967 -1.4445 -0.0702
 9389SOL     OW39802   1.320   4.501  14.301 -0.6524 -0.4501 -0.3074
 9389SOL    HW139803   1.410   4.503  14.334 -1.2307 -0.3909  1.2739
 9389SOL    HW239804   1.290   4.411  14.293 -3.2953  0.4553 -0.5903
 9390SOL     OW39805   1.510   3.937   4.081  0.6333 -0.1777 -0.2284
 9390SOL    HW139806   1.541   4.005   4.141  1.5818 -2.1054  1.4631
 9390SOL    HW239807   1.416   3.942   4.099  0.9032 -3.2676  2.0365
 9391SOL     OW39808   3.827   1.468  16.409 -0.3817 -0.0575  0.5245
 9391SOL    HW139809   3.833   1.403  16.480 -1.6869  0.5401  1.1812
 9391SOL    HW239810   3.765   1.532  16.444  1.6093  1.6121  0.9841
 9392SOL     OW39811   3.610   3.850   4.756  0.0968  0.0375  0.0389
 9392SOL    HW139812   3.699   3.880   4.738 -0.9849  1.6306 -2.6073
 9392SOL    HW239813   3.622   3.796   4.834 -0.7419  0.1050  0.2139
 9393SOL     OW39814   2.359   0.584   9.155  0.0111 -0.1006 -0.2576
 9393SOL    HW139815   2.381   0.638   9.231 -1.1616  0.8175 -0.5706
 9393SOL    HW239816   2.448   0.586   9.119 -0.3395  2.7488 -0.9807
 9394SOL     OW39817   2.774   3.817   1.137  0.4120 -0.1569  0.0529
 9394SOL    HW139818   2.689   3.838   1.177  1.1889 -0.7112  2.0178
 9394SOL    HW239819   2.745   3.744   1.082  0.5865  0.3101 -0.6609
 9395SOL     OW39820   2.550   0.560   9.551 -0.1483  0.4306  0.1465
 9395SOL    HW139821   2.615   0.524   9.490 -0.9604  1.5691 -1.3802
 9395SOL    HW239822   2.607   0.591   9.622 -0.0253  1.4245 -0.3998
 9396SOL     OW39823   0.506   1.412   4.072  0.3944 -0.1787  0.3919
 9396SOL    HW139824   0.509   1.356   4.150  1.3717  1.0620  1.2397
 9396SOL    HW239825   0.469   1.359   4.001 -1.9601  0.2058  1.3124
 9397SOL     OW39826   4.116   0.612   9.028 -0.0830 -0.5685 -0.1581
 9397SOL    HW139827   4.085   0.539   9.081 -0.4190 -1.2016 -1.2169
 9397SOL    HW239828   4.055   0.609   8.954 -0.3670  2.2308 -0.0477
 9398SOL     OW39829   1.054   1.182  16.331 -0.1943  0.1089  0.4994
 9398SOL    HW139830   1.137   1.193  16.377  0.3822 -1.4572 -0.1582
 9398SOL    HW239831   1.040   1.089  16.347  2.7117 -0.7155 -1.6213
 9399SOL     OW39832   3.478   4.601   4.326  0.1811 -0.1537 -0.9297
 9399SOL    HW139833   3.518   4.515   4.313  1.4234  0.0404  1.4772
 9399SOL    HW239834   3.550   4.658   4.298  1.2167 -0.4744  1.0394
 9400SOL     OW39835   3.123   3.194   2.948 -0.4512 -0.0576  0.4451
 9400SOL    HW139836   3.142   3.167   2.858 -0.7489 -0.3102  0.4560
 9400SOL    HW239837   3.047   3.136   2.957  0.7568 -1.9520 -1.4534
 9401SOL     OW39838   0.237   4.043   6.529 -0.0583 -0.2912 -0.1163
 9401SOL    HW139839   0.295   3.977   6.490  0.1533  0.0560 -0.3897
 9401SOL    HW239840   0.291   4.121   6.542  0.4843 -0.4045 -1.6519
 9402SOL     OW39841   3.970   1.026  11.214  0.1297  0.0106 -0.1516
 9402SOL    HW139842   3.999   1.003  11.302 -0.2489  1.6790  0.4061
 9402SOL    HW239843   4.058   1.044  11.182  0.3596 -0.0714  0.4413
 9403SOL     OW39844   0.208   0.105  11.903  0.1259  0.1192 -0.1964
 9403SOL    HW139845   0.235   0.060  11.823 -1.9312 -1.2340 -0.1162
 9403SOL    HW239846   0.194   0.191  11.862  1.9635  1.2167  1.4805
 9404SOL     OW39847   4.239   3.923   7.896 -0.1617 -0.3877 -0.1022
 9404SOL    HW139848   4.312   3.926   7.958 -0.9232  0.0314  0.7777
 9404SOL    HW239849   4.168   3.873   7.936 -0.3105  0.4179  0.6560
 9405SOL     OW39850   3.110   3.508   1.494 -0.5708 -0.7014 -0.2191
 9405SOL    HW139851   3.110   3.539   1.404  0.1670  0.4463  0.1733
 9405SOL    HW239852   3.112   3.412   1.499  1.5478 -0.6932 -1.0132
 9406SOL     OW39853   3.760   2.913   0.017  0.4921  0.2787 -0.3638
 9406SOL    HW139854   3.792   2.996   0.052 -2.8555  1.3022  0.3251
 9406SOL    HW239855   3.794   2.927  17.672 -1.5815 -1.5481 -1.4614
 9407SOL     OW39856   3.018   1.904   6.454  0.2312  0.3241 -0.7334
 9407SOL    HW139857   3.028   1.913   6.549  2.7985  0.5886 -1.0224
 9407SOL    HW239858   3.109   1.892   6.426  0.4960  1.0714 -0.2004
 9408SOL     OW39859   1.176   2.659   0.560 -0.0593 -0.1485  0.4392
 9408SOL    HW139860   1.151   2.711   0.636  1.7481 -0.1967  1.0874
 9408SOL    HW239861   1.156   2.577   0.605 -0.0910  0.5075  1.6166
 9409SOL     OW39862   4.590   3.972  10.116 -0.2659 -0.1957  0.0602
 9409SOL    HW139863   4.499   3.983  10.145  0.0672 -1.0474  1.4124
 9409SOL    HW239864   4.629   3.928  10.191 -1.8318  0.6224  1.3502
 9410SOL     OW39865   1.928   4.099   2.593  0.2518 -0.3249  0.3144
 9410SOL    HW139866   1.883   4.014   2.590  1.0871 -0.7099 -1.0125
 9410SOL    HW239867   2.020   4.077   2.583  0.7176  2.5248 -1.7095
 9411SOL     OW39868   2.428   2.807   4.251 -0.2972  0.2508  0.3021
 9411SOL    HW139869   2.358   2.855   4.295 -0.8929  0.2488 -0.6387
 9411SOL    HW239870   2.428   2.731   4.310 -2.2336  0.6651  0.8259
 9412SOL     OW39871   4.478   3.761   5.677  0.6182 -0.2716  0.5184
 9412SOL    HW139872   4.450   3.851   5.692 -3.4845 -1.4115 -0.4003
 9412SOL    HW239873   4.558   3.757   5.730 -0.0922 -1.9256  1.4504
 9413SOL     OW39874   3.304   0.568  11.760  0.5062  0.1690  0.1451
 9413SOL    HW139875   3.352   0.559  11.678 -0.0912 -1.7195  0.0132
 9413SOL    HW239876   3.274   0.658  11.747 -1.9116 -0.4505  1.2189
 9414SOL     OW39877   3.762   2.928   3.209 -0.1723 -0.0480  0.0739
 9414SOL    HW139878   3.761   2.944   3.114  0.6484  1.6645  0.3583
 9414SOL    HW239879   3.842   2.968   3.243 -0.7125  1.5102 -0.5144
 9415SOL     OW39880   0.913   1.725   6.828  0.2273  0.0847 -0.2869
 9415SOL    HW139881   0.882   1.651   6.777 -2.6642  1.4367 -0.4892
 9415SOL    HW239882   0.929   1.789   6.758  1.4272  0.2424  0.1140
 9416SOL     OW39883   0.302   1.094   4.096  0.5227 -0.1822 -0.3274
 9416SOL    HW139884   0.300   1.104   4.191  1.2806  1.1654 -0.4461
 9416SOL    HW239885   0.324   1.001   4.093  0.1242 -0.2872 -0.1168
 9417SOL     OW39886   2.145   3.673   3.850  0.4319  0.5223 -0.1300
 9417SOL    HW139887   2.231   3.698   3.818  0.1435  0.8409 -0.6721
 9417SOL    HW239888   2.173   3.675   3.941 -1.6196  2.6329  0.4705
 9418SOL     OW39889   2.082   0.073   2.635  0.0695 -0.0440 -0.7967
 9418SOL    HW139890   1.992   0.041   2.625 -0.3372  1.1603 -0.9700
 9418SOL    HW239891   2.068   0.147   2.693 -0.9081 -1.1570  0.3866
 9419SOL     OW39892   4.692   4.111  11.199 -0.1991  0.0402 -0.5095
 9419SOL    HW139893   0.047   4.142  11.204  0.0201 -0.9197  1.5529
 9419SOL    HW239894   4.653   4.143  11.280  1.2447  0.9622 -0.1640
 9420SOL     OW39895   1.991   3.199  10.306  0.2719 -0.0570  0.1114
 9420SOL    HW139896   1.932   3.124  10.311  1.6242 -0.9277  2.6372
 9420SOL    HW239897   1.974   3.221  10.214 -0.5361 -0.9438  0.0480
 9421SOL     OW39898   2.783   4.274   2.984 -0.2672 -0.2456 -0.2174
 9421SOL    HW139899   2.736   4.340   2.932 -0.9510  0.5173  1.3639
 9421SOL    HW239900   2.723   4.201   2.970  0.7102 -1.2609  0.8431
 9422SOL     OW39901   4.641   3.181   5.484 -0.3006 -0.3480 -0.5013
 9422SOL    HW139902   4.709   3.113   5.483 -0.9261 -0.9919  1.5216
 9422SOL    HW239903   4.593   3.151   5.406  1.3553 -1.3925 -1.1206
 9423SOL     OW39904   2.163   4.430   5.717 -0.3471  0.0251 -0.2729
 9423SOL    HW139905   2.166   4.338   5.744  1.1362 -0.0705 -0.7245
 9423SOL    HW239906   2.160   4.477   5.800 -0.1380  2.3007 -1.5713
 9424SOL     OW39907   2.227   0.834  11.323  0.2979 -0.2040 -0.0942
 9424SOL    HW139908   2.218   0.824  11.228  0.9904  0.7620 -0.2592
 9424SOL    HW239909   2.157   0.896  11.344 -0.1062 -0.6277 -0.1907
 9425SOL     OW39910   1.712   0.458   8.179  0.4277  0.5351  0.3825
 9425SOL    HW139911   1.751   0.371   8.191  0.0469  0.4275  0.8296
 9425SOL    HW239912   1.727   0.480   8.087  0.8481  1.3181  0.6361
 9426SOL     OW39913   2.903   4.111   2.350  0.0380 -0.3504 -0.2984
 9426SOL    HW139914   2.921   4.203   2.330 -1.0036  0.2938  1.8009
 9426SOL    HW239915   2.871   4.123   2.439  2.2005  0.6924  0.3468
 9427SOL     OW39916   1.996   3.007   5.215 -0.4449 -0.5797  0.1173
 9427SOL    HW139917   1.918   3.033   5.265 -0.4701 -2.2144  0.9372
 9427SOL    HW239918   2.031   2.935   5.268  1.4132  1.6314  1.8570
 9428SOL     OW39919   2.621   3.274   7.634 -0.0727  0.0723 -0.4175
 9428SOL    HW139920   2.657   3.318   7.557 -0.0394  0.1488 -0.3575
 9428SOL    HW239921   2.695   3.216   7.651 -0.7133 -1.2579 -2.1473
 9429SOL     OW39922   3.630   2.489   6.382  0.1556 -0.2295  0.1682
 9429SOL    HW139923   3.642   2.394   6.388 -0.2632 -0.1552  2.1463
 9429SOL    HW239924   3.646   2.510   6.474 -2.1777 -1.5323  0.8706
 9430SOL     OW39925   3.017   2.291  11.033  0.3504  0.3011 -0.2022
 9430SOL    HW139926   2.981   2.250  11.112 -0.3733 -1.3642 -1.4057
 9430SOL    HW239927   3.029   2.224  10.966 -0.6993 -1.1910  1.1009
 9431SOL     OW39928   3.601   0.608   9.556 -0.0473  0.5177  0.2640
 9431SOL    HW139929   3.594   0.656   9.639  1.6649  0.9557  0.1601
 9431SOL    HW239930   3.526   0.550   9.568  0.0028  0.2945 -0.5623
 9432SOL     OW39931   3.428   1.176   8.503 -0.1466 -0.4477  0.0233
 9432SOL    HW139932   3.436   1.256   8.452  2.2395  0.5748  2.0717
 9432SOL    HW239933   3.452   1.210   8.589  1.0307 -0.6901 -0.2198
 9433SOL     OW39934   1.182   3.754   7.642 -0.0751  0.0239  0.1067
 9433SOL    HW139935   1.237   3.711   7.707  1.1268 -1.4201 -1.8533
 9433SOL    HW239936   1.098   3.760   7.688 -1.5531  0.5414 -2.6048
 9434SOL     OW39937   1.939   2.675  14.122  0.0319  0.2626 -0.3043
 9434SOL    HW139938   1.936   2.744  14.188 -1.1546 -1.2654  1.2696
 9434SOL    HW239939   2.004   2.697  14.056 -0.0269  0.5126 -0.2772
 9435SOL     OW39940   0.508   2.002   5.973  0.0968  0.2177 -0.5795
 9435SOL    HW139941   0.454   2.027   5.898 -1.1351  0.4604  0.3920
 9435SOL    HW239942   0.575   2.070   5.978 -0.6205  0.7156  2.1530
 9436SOL     OW39943   3.144   3.646   3.008 -0.1332 -0.1993 -0.5618
 9436SOL    HW139944   3.120   3.738   3.008 -1.0539 -0.4280  0.8616
 9436SOL    HW239945   3.200   3.640   2.931  1.2819  1.4297  0.3322
 9437SOL     OW39946   2.794   1.070  16.718 -0.2209 -0.9066 -0.0070
 9437SOL    HW139947   2.861   1.098  16.781 -1.7834  1.9302  0.3817
 9437SOL    HW239948   2.713   1.110  16.750 -0.8178 -0.9368 -1.4786
 9438SOL     OW39949   4.378   2.824  12.170  0.3895  0.1493 -0.1084
 9438SOL    HW139950   4.473   2.818  12.184  0.6345  3.2073 -0.4160
 9438SOL    HW239951   4.365   2.918  12.185  1.8527  0.5899 -1.6068
 9439SOL     OW39952   3.594   0.936   8.238  0.1623 -0.2557 -0.5102
 9439SOL    HW139953   3.667   0.973   8.187 -0.7349 -1.0852 -2.3840
 9439SOL    HW239954   3.625   0.977   8.319  0.3311 -0.1912 -0.6061
 9440SOL     OW39955   1.078   2.063  13.304 -0.1066  0.5696 -0.0051
 9440SOL    HW139956   1.105   2.152  13.326 -0.1649  0.9339 -1.3813
 9440SOL    HW239957   0.983   2.074  13.302 -0.3198 -1.3105 -0.6549
 9441SOL     OW39958   1.179   2.913   3.949 -0.4819 -0.7204  0.4827
 9441SOL    HW139959   1.267   2.947   3.962 -0.0652 -1.2534 -1.0064
 9441SOL    HW239960   1.149   2.976   3.883  0.6074 -0.1376  0.5513
 9442SOL     OW39961   3.186   3.970   9.052 -0.2036 -0.1473 -0.0692
 9442SOL    HW139962   3.188   3.945   9.145 -2.9212 -0.6976 -0.1731
 9442SOL    HW239963   3.149   3.885   9.028 -1.8195  0.2577  1.0120
 9443SOL     OW39964   4.391   3.466  17.725 -0.0674  0.1646 -0.3012
 9443SOL    HW139965   4.353   3.450   0.068  2.4366 -1.8430  0.4270
 9443SOL    HW239966   4.330   3.532  17.692  0.8301  0.5736 -1.1252
 9444SOL     OW39967   0.677   3.610   1.588 -0.1956 -0.7289  0.0147
 9444SOL    HW139968   0.674   3.625   1.682  0.4936 -0.0592 -0.0768
 9444SOL    HW239969   0.582   3.602   1.575 -0.0862 -0.1957 -1.0828
 9445SOL     OW39970   0.130   2.508   6.230 -0.5345  0.4067 -0.2899
 9445SOL    HW139971   0.040   2.477   6.243  0.2627 -1.3281  1.0813
 9445SOL    HW239972   0.122   2.598   6.199  1.9546  0.3026 -1.2049
 9446SOL     OW39973   4.144   2.670  12.674  0.3713  0.0438  0.7822
 9446SOL    HW139974   4.193   2.744  12.637 -0.3543 -0.9440 -2.1228
 9446SOL    HW239975   4.102   2.632  12.597  1.2636  0.6120  0.0120
 9447SOL     OW39976   1.031   0.654   8.041 -0.2589 -0.4053 -0.6567
 9447SOL    HW139977   0.977   0.577   8.023 -1.0355  0.1791 -0.8166
 9447SOL    HW239978   1.115   0.639   7.998  0.8874  0.1588  1.3752
 9448SOL     OW39979   0.414   0.366   4.222  0.0501 -0.2636 -0.4092
 9448SOL    HW139980   0.385   0.456   4.204 -1.9907 -0.7625  0.4372
 9448SOL    HW239981   0.331   0.337   4.258 -0.9041 -0.6925 -2.9355
 9449SOL     OW39982   1.265   2.798  11.979 -0.7283 -0.2562  0.2824
 9449SOL    HW139983   1.227   2.723  12.027  1.6513 -1.5568  0.1462
 9449SOL    HW239984   1.301   2.754  11.902  0.0180  0.4271  0.2450
 9450SOL     OW39985   2.640   2.117   7.026 -0.5504 -0.4195 -0.1921
 9450SOL    HW139986   2.729   2.147   7.043 -1.4308  0.1599  3.4106
 9450SOL    HW239987   2.657   2.024   7.037 -0.6834 -0.3002  1.0110
 9451SOL     OW39988   1.191   1.560  12.852 -0.4396 -0.1705  0.2150
 9451SOL    HW139989   1.115   1.582  12.907 -0.9856  1.0097 -1.0056
 9451SOL    HW239990   1.254   1.541  12.921 -0.1681 -3.9013 -1.0611
 9452SOL     OW39991   0.698   3.781   6.583 -0.0291 -0.2687 -0.1792
 9452SOL    HW139992   0.655   3.867   6.573 -0.9648 -0.9494 -1.9936
 9452SOL    HW239993   0.778   3.806   6.537  1.0064 -1.7160  0.8578
 9453SOL     OW39994   3.243   4.408  17.695 -0.3143  0.5413  0.4891
 9453SOL    HW139995   3.228   4.503  17.699 -0.0122  0.5262  1.8259
 9453SOL    HW239996   3.243   4.381   0.043  0.0514 -2.9335 -0.5370
 9454SOL     OW39997   4.012   0.557  15.185 -0.0459 -0.4867  0.1759
 9454SOL    HW139998   4.074   0.486  15.205  0.7554  0.0463 -0.3991
 9454SOL    HW239999   3.952   0.543  15.258  0.5086  1.3064  0.9770
 9455SOL     OW40000   1.853   3.394   4.130 -0.3888  0.0454 -0.3268
 9455SOL    HW140001   1.777   3.452   4.132  0.9288  1.8230 -1.7009
 9455SOL    HW240002   1.915   3.465   4.114 -0.3387  0.2809  0.9478
 9456SOL     OW40003   4.017   1.981   5.941 -0.4048 -0.0419  0.0441
 9456SOL    HW140004   4.018   2.076   5.952 -2.8481  0.0895 -0.9746
 9456SOL    HW240005   3.976   1.976   5.855 -0.4363  2.3643 -0.0901
 9457SOL     OW40006   1.267   3.154   1.931 -0.2937 -0.6183 -0.5039
 9457SOL    HW140007   1.187   3.115   1.894 -0.0893 -0.0330 -1.5663
 9457SOL    HW240008   1.254   3.241   1.892 -2.4461 -0.5562  0.3460
 9458SOL     OW40009   4.657   3.899   3.535 -0.0466 -0.1662 -0.2883
 9458SOL    HW140010   4.610   3.852   3.466  2.0287 -1.3674 -0.8788
 9458SOL    HW240011   0.002   3.848   3.538 -0.7208 -1.3863 -2.3662
 9459SOL     OW40012   4.340   1.044   4.709 -0.7487 -0.2686  0.2117
 9459SOL    HW140013   4.375   1.130   4.684  1.3440 -0.9237  0.9158
 9459SOL    HW240014   4.246   1.040   4.691 -0.8574  1.4707  0.3256
 9460SOL     OW40015   0.134   1.914   0.806  0.1532 -0.7198 -0.4419
 9460SOL    HW140016   0.088   1.977   0.863  1.8797 -0.8029  1.0682
 9460SOL    HW240017   0.069   1.882   0.745 -0.3093 -0.2278 -0.2119
 9461SOL     OW40018   1.446   3.135   7.494  0.2425 -0.6132 -1.1150
 9461SOL    HW140019   1.366   3.174   7.528  1.0926  0.7877 -0.7008
 9461SOL    HW240020   1.483   3.212   7.451  2.0721 -1.9641 -1.9808
 9462SOL     OW40021   2.649   2.067   7.766 -0.1403  0.1535  0.4588
 9462SOL    HW140022   2.582   2.130   7.790 -2.1555 -1.3137 -1.3016
 9462SOL    HW240023   2.727   2.112   7.799  0.4847  0.7546 -1.7999
 9463SOL     OW40024   2.369   1.003  11.682 -0.7042  0.1695  0.3239
 9463SOL    HW140025   2.393   1.052  11.604 -2.4075 -1.6280 -1.3356
 9463SOL    HW240026   2.402   1.061  11.750 -1.2459 -1.6528  2.1388
 9464SOL     OW40027   0.460   2.739  15.996  0.1133 -0.4982 -0.0975
 9464SOL    HW140028   0.457   2.763  15.903  0.7948  0.4668  0.1209
 9464SOL    HW240029   0.535   2.680  16.000  0.1573 -0.1814  3.7179
 9465SOL     OW40030   0.372   2.499   2.285 -0.8235 -0.2191  0.2341
 9465SOL    HW140031   0.465   2.515   2.269 -0.9000 -0.1419 -0.1408
 9465SOL    HW240032   0.376   2.425   2.345 -2.8005 -0.2148  0.3740
 9466SOL     OW40033   1.002   3.091   5.759  0.0579 -0.5945  0.0669
 9466SOL    HW140034   0.988   3.011   5.810  1.1699 -0.1352  1.1090
 9466SOL    HW240035   1.083   3.078   5.710  0.3496 -0.8855  0.6253
 9467SOL     OW40036   2.765   4.289   7.604 -0.3586  0.0300 -0.0846
 9467SOL    HW140037   2.846   4.306   7.654 -0.2768 -1.3459  0.2564
 9467SOL    HW240038   2.787   4.333   7.522  1.8728 -2.4235 -0.7813
 9468SOL     OW40039   0.455   4.052  16.938 -0.4750  0.2195  0.4463
 9468SOL    HW140040   0.516   3.992  16.896 -2.0319 -1.7805  1.0313
 9468SOL    HW240041   0.412   4.098  16.865  0.9371  2.1884  0.8524
 9469SOL     OW40042   3.463   3.293   3.519 -0.5619 -0.7768 -0.8685
 9469SOL    HW140043   3.441   3.386   3.532 -0.2090 -0.8941  0.5554
 9469SOL    HW240044   3.556   3.307   3.501 -0.1004 -2.5158  0.1014
 9470SOL     OW40045   3.536   4.069   6.400 -0.3881  0.8447  0.4143
 9470SOL    HW140046   3.589   4.118   6.463  1.2487 -2.3788  1.5433
 9470SOL    HW240047   3.464   4.127   6.376 -2.9269 -1.7916  1.6208
 9471SOL     OW40048   3.992   4.019   1.365 -0.5213 -0.4702  0.4245
 9471SOL    HW140049   4.035   3.940   1.331 -1.0708 -1.5095  2.1212
 9471SOL    HW240050   3.967   3.978   1.448  2.4480  0.6111  1.8395
 9472SOL     OW40051   2.890   3.385   3.239  0.2236  0.0173 -0.3549
 9472SOL    HW140052   2.915   3.390   3.332 -0.3695  0.4282 -0.2140
 9472SOL    HW240053   2.833   3.309   3.241 -0.7006  0.6490 -2.8333
 9473SOL     OW40054   3.974   3.252  12.074 -0.3236  0.0446 -0.5391
 9473SOL    HW140055   4.053   3.260  12.021 -0.3958  1.3018 -0.4492
 9473SOL    HW240056   3.981   3.334  12.122  0.0144  0.6862 -1.6964
 9474SOL     OW40057   4.547   1.559   3.307  0.7067  0.4283 -0.1648
 9474SOL    HW140058   4.562   1.554   3.402 -0.0031  2.5894  0.0778
 9474SOL    HW240059   4.451   1.555   3.312  0.7342 -0.2723 -0.3448
 9475SOL     OW40060   1.244   3.555  11.447  0.7058  0.4205  0.4315
 9475SOL    HW140061   1.207   3.518  11.528 -0.2312  2.6292  1.0000
 9475SOL    HW240062   1.337   3.537  11.461  0.6675 -0.5212 -0.5247
 9476SOL     OW40063   3.649   1.298   4.408  0.0958  0.1001 -0.0014
 9476SOL    HW140064   3.669   1.216   4.452  1.5085  1.4596  1.9142
 9476SOL    HW240065   3.555   1.311   4.416  0.1985  1.9031 -1.4917
 9477SOL     OW40066   0.457   4.543   7.232  0.5124  0.0611 -0.2525
 9477SOL    HW140067   0.523   4.569   7.166  0.4795  1.4820  0.2792
 9477SOL    HW240068   0.372   4.559   7.190  0.0035 -1.7862  0.0923
 9478SOL     OW40069   3.762   4.154   2.672 -0.0002 -0.3349  0.0295
 9478SOL    HW140070   3.706   4.159   2.750  1.7561 -0.1968  1.2837
 9478SOL    HW240071   3.729   4.065   2.659  0.0276 -0.2105 -0.9261
 9479SOL     OW40072   4.016   2.208   0.492 -0.0775  0.6766  0.3090
 9479SOL    HW140073   3.949   2.140   0.499 -0.8039  1.4366  0.7516
 9479SOL    HW240074   3.964   2.288   0.492 -0.6272  0.3124 -1.3793
 9480SOL     OW40075   1.823   3.968  15.502  0.0099  0.0426 -0.6142
 9480SOL    HW140076   1.903   3.915  15.499  0.5358  0.8120  0.2385
 9480SOL    HW240077   1.753   3.903  15.512 -0.0705  0.7074  2.8664
 9481SOL     OW40078   0.275   4.163   9.111  0.7873  0.0653  0.0514
 9481SOL    HW140079   0.353   4.219   9.109 -0.2158  1.4085 -1.1245
 9481SOL    HW240080   0.294   4.092   9.050  0.0229 -1.4371  1.5552
 9482SOL     OW40081   3.387   2.003   8.062 -0.2665 -0.0130  0.0972
 9482SOL    HW140082   3.294   2.012   8.083 -0.5527  0.1211 -1.2567
 9482SOL    HW240083   3.393   2.079   8.004  0.2752  0.1620  0.3878
 9483SOL     OW40084   0.279   0.886  12.361  0.3178 -0.1456  0.2326
 9483SOL    HW140085   0.288   0.815  12.426  0.1804 -0.3768 -0.0009
 9483SOL    HW240086   0.209   0.940  12.397  1.2298  0.1243  1.6054
 9484SOL     OW40087   4.634   4.651  10.225 -0.0264  0.2325 -0.1067
 9484SOL    HW140088   4.624   4.684  10.314  1.5897  0.9317 -0.1697
 9484SOL    HW240089   4.730   4.645  10.220 -0.0612 -0.3208 -0.0919
 9485SOL     OW40090   3.972   3.932   9.133  0.4721 -0.4473  0.7281
 9485SOL    HW140091   3.931   3.989   9.197  3.4427 -1.0514  3.1479
 9485SOL    HW240092   4.064   3.949   9.149  0.1937  1.2362  0.5148
 9486SOL     OW40093   4.000   3.092   6.201 -0.2197 -0.4179 -0.1917
 9486SOL    HW140094   4.078   3.142   6.226  0.9035  0.2991 -5.1757
 9486SOL    HW240095   4.009   3.116   6.109 -0.0081  1.0139  0.1993
 9487SOL     OW40096   2.803   2.759   2.957 -0.1470 -0.4794  0.8312
 9487SOL    HW140097   2.801   2.784   2.865  0.0788  0.7022  1.1455
 9487SOL    HW240098   2.713   2.725   2.962 -0.1318 -0.5768  0.4059
 9488SOL     OW40099   1.536   2.152   9.515  0.2315  0.5188  0.1928
 9488SOL    HW140100   1.578   2.067   9.526  0.2816  0.5389  0.1609
 9488SOL    HW240101   1.451   2.129   9.477  1.0429 -0.8743 -0.8031
 9489SOL     OW40102   4.414   3.079  17.166  0.7088  0.1830  0.1896
 9489SOL    HW140103   4.497   3.117  17.197  0.7799  0.9710 -0.9658
 9489SOL    HW240104   4.381   3.146  17.106  0.1379 -0.5664 -0.3308
 9490SOL     OW40105   2.571   1.702   2.857 -0.1745  0.4522 -0.3214
 9490SOL    HW140106   2.573   1.784   2.808 -0.0957 -0.7232 -2.3196
 9490SOL    HW240107   2.628   1.640   2.812  1.2452  0.8114  0.9775
 9491SOL     OW40108   0.334   2.120  16.044  0.1015  0.1217 -0.4247
 9491SOL    HW140109   0.330   2.046  15.985  0.1700  1.1551 -1.7176
 9491SOL    HW240110   0.420   2.102  16.082  0.2384  0.9982 -0.3214
 9492SOL     OW40111   3.541   2.205   7.581 -0.0931 -0.2081  0.5688
 9492SOL    HW140112   3.504   2.130   7.535  0.7433  0.5540 -1.3774
 9492SOL    HW240113   3.550   2.186   7.674  1.1454 -0.5590  0.3814
 9493SOL     OW40114   1.167   1.834   1.903  0.0049  0.6905 -0.3356
 9493SOL    HW140115   1.203   1.758   1.857 -0.7858 -0.2324  0.5718
 9493SOL    HW240116   1.219   1.822   1.982 -0.4263 -1.6597 -0.4284
 9494SOL     OW40117   0.379   2.933  14.128 -0.1922  0.4103  0.2779
 9494SOL    HW140118   0.284   2.935  14.118 -0.0914 -1.0440 -0.8786
 9494SOL    HW240119   0.406   2.981  14.049  1.3652 -1.9261 -0.6137
 9495SOL     OW40120   4.371   0.769   6.683  0.2685 -0.6903  0.6874
 9495SOL    HW140121   4.358   0.697   6.745 -1.6777 -1.3370 -0.4522
 9495SOL    HW240122   4.376   0.724   6.599  2.3618  2.1968 -0.7302
 9496SOL     OW40123   2.546   0.302   7.565  0.1625  0.2262 -0.5454
 9496SOL    HW140124   2.531   0.248   7.643 -1.2281 -0.0960 -1.0298
 9496SOL    HW240125   2.585   0.377   7.609 -0.2876  0.7583 -1.0638
 9497SOL     OW40126   3.526   4.525   8.867 -0.3248 -0.4123 -0.2136
 9497SOL    HW140127   3.548   4.437   8.899 -0.4868 -0.0849  0.7784
 9497SOL    HW240128   3.490   4.556   8.950 -1.1622 -1.7916 -0.0571
 9498SOL     OW40129   0.609   1.700   7.070 -0.8701 -0.0527 -0.7535
 9498SOL    HW140130   0.612   1.612   7.034  1.7795 -0.7382  1.1787
 9498SOL    HW240131   0.554   1.744   7.005 -1.9124  0.9610  0.8249
 9499SOL     OW40132   3.093   1.538   9.487 -0.5305 -0.0398 -0.1197
 9499SOL    HW140133   3.168   1.552   9.429 -1.1814  0.5367 -0.8272
 9499SOL    HW240134   3.108   1.598   9.560  2.6965 -0.1909 -0.6801
 9500SOL     OW40135   2.179   4.018   1.623 -0.7839 -0.4353  0.4370
 9500SOL    HW140136   2.114   3.949   1.637  0.0686 -0.8887  2.1999
 9500SOL    HW240137   2.257   3.970   1.595 -0.0358  0.6539  0.6568
 9501SOL     OW40138   2.027   3.929  16.363 -0.2590 -0.2995 -0.2395
 9501SOL    HW140139   1.940   3.901  16.392 -0.4380  1.9899  1.4682
 9501SOL    HW240140   2.083   3.854  16.382  3.1418  2.4176  0.4350
 9502SOL     OW40141   4.040   3.666   4.140 -0.4247 -0.1560  0.3769
 9502SOL    HW140142   4.060   3.717   4.219 -1.8597 -1.1878  1.4013
 9502SOL    HW240143   4.079   3.730   4.081  0.7198  0.8254  2.1935
 9503SOL     OW40144   4.434   3.079  10.027 -0.0472  0.1173 -0.1910
 9503SOL    HW140145   4.385   3.043  10.100 -0.9976 -0.1090 -0.9396
 9503SOL    HW240146   4.518   3.035  10.036 -0.8463 -1.4047 -0.0811
 9504SOL     OW40147   3.593   2.011   3.870 -0.1220  0.1124  0.3463
 9504SOL    HW140148   3.599   1.916   3.871  0.5236  0.1556  1.2256
 9504SOL    HW240149   3.504   2.030   3.898 -0.8468 -0.6141 -1.4753
 9505SOL     OW40150   0.002   1.519   1.869  0.3323 -0.0343 -0.1385
 9505SOL    HW140151   4.665   1.565   1.829  0.4105  0.6515  0.5228
 9505SOL    HW240152   4.693   1.450   1.917 -2.5648  2.8078  1.1895
 9506SOL     OW40153   0.598   4.023   8.244  0.0915 -0.2748  0.0601
 9506SOL    HW140154   0.614   3.958   8.175  0.7291  0.3394 -0.3712
 9506SOL    HW240155   0.622   3.977   8.324  1.7206  0.3683 -0.0572
 9507SOL     OW40156   4.310   2.382  15.989  0.0917 -0.1841 -0.6854
 9507SOL    HW140157   4.241   2.320  16.013 -0.6059  0.8873  0.0580
 9507SOL    HW240158   4.274   2.451  15.934  1.7452  2.0289  1.0198
 9508SOL     OW40159   2.830   1.814   3.149  0.2708 -0.0829 -0.3630
 9508SOL    HW140160   2.867   1.726   3.156  2.1834  0.7225 -0.6086
 9508SOL    HW240161   2.901   1.876   3.138  0.3828 -0.0394  0.5415
 9509SOL     OW40162   2.063   3.350   5.656  0.2011  0.5544 -0.0194
 9509SOL    HW140163   2.136   3.295   5.682 -0.4987 -1.3899 -2.2251
 9509SOL    HW240164   2.051   3.317   5.567  0.5489 -0.5773  0.3627
 9510SOL     OW40165   1.589   0.338  15.144 -0.6659  0.6585  0.4183
 9510SOL    HW140166   1.667   0.390  15.166 -0.3904 -0.5876  2.3779
 9510SOL    HW240167   1.588   0.265  15.206 -0.1573 -0.1921 -0.5734
 9511SOL     OW40168   3.827   2.262   3.376 -0.0917  0.1326 -0.0467
 9511SOL    HW140169   3.828   2.171   3.347  1.0836  0.0465  0.2933
 9511SOL    HW240170   3.767   2.295   3.309  1.9271  1.9847 -0.9167
 9512SOL     OW40171   1.933   2.523   2.344  0.6065 -0.1693  0.5691
 9512SOL    HW140172   1.841   2.535   2.364  0.9839  0.9042  1.6699
 9512SOL    HW240173   1.959   2.457   2.408 -0.3334 -1.8475 -0.7807
 9513SOL     OW40174   1.314   2.439   1.557  0.0220  0.2012 -0.1945
 9513SOL    HW140175   1.337   2.377   1.626  1.3315  0.5367 -0.3265
 9513SOL    HW240176   1.374   2.504   1.595 -1.3076  0.5611  1.2961
 9514SOL     OW40177   1.377   0.040   1.293  0.2771 -0.4365 -0.2132
 9514SOL    HW140178   1.462   0.053   1.250  0.1816 -1.2147 -0.6410
 9514SOL    HW240179   1.336   4.715   1.231  1.4907  0.3994 -1.8563
 9515SOL     OW40180   4.433   1.390   6.023 -0.0002 -0.7475  0.2932
 9515SOL    HW140181   4.483   1.313   5.997  0.7733  0.3643 -1.4426
 9515SOL    HW240182   4.476   1.413   6.105  0.3658 -0.9284  0.1494
 9516SOL     OW40183   1.870   1.757   8.203  0.0177 -0.1293 -0.5038
 9516SOL    HW140184   1.868   1.661   8.213 -0.6834  0.1475  2.0152
 9516SOL    HW240185   1.863   1.777   8.297 -0.8829 -2.2668 -0.1173
 9517SOL     OW40186   4.456   1.499   2.837 -0.6108 -0.2543  0.0778
 9517SOL    HW140187   4.493   1.496   2.925 -1.0462 -1.6233  0.2131
 9517SOL    HW240188   4.475   1.407   2.824 -0.6047 -0.0334 -1.4500
 9518SOL     OW40189   2.149   2.301  17.537 -0.0025 -0.3752 -0.1954
 9518SOL    HW140190   2.061   2.315  17.502  0.3337  1.7109 -0.1889
 9518SOL    HW240191   2.168   2.394  17.550  0.1315 -0.7802  2.5369
 9519SOL     OW40192   1.004   0.631   6.059 -0.6678  0.3095  0.2920
 9519SOL    HW140193   0.974   0.559   6.003  1.8524 -2.4880  2.5217
 9519SOL    HW240194   0.973   0.700   6.000  1.7225  1.6055  0.5352
 9520SOL     OW40195   0.369   4.148   3.355  0.1930 -0.1429  0.0355
 9520SOL    HW140196   0.321   4.219   3.398  3.3888  1.5294  0.8052
 9520SOL    HW240197   0.322   4.154   3.272  0.0622 -1.1331  0.0446
 9521SOL     OW40198   2.509   0.073   6.036 -0.2243  0.4075  0.4193
 9521SOL    HW140199   2.571   0.128   5.987 -1.0652 -2.3950 -3.8152
 9521SOL    HW240200   2.453   0.139   6.076 -2.2569 -0.6053 -0.7376
 9522SOL     OW40201   3.405   2.157   9.800 -0.6529  0.1886  0.8213
 9522SOL    HW140202   3.376   2.162   9.891  0.4923 -1.8619  1.2845
 9522SOL    HW240203   3.451   2.074   9.806  0.1330  0.7691  2.7836
 9523SOL     OW40204   3.075   4.615   8.430  0.3347  0.0847 -0.7924
 9523SOL    HW140205   3.016   4.638   8.502 -1.0759 -1.1809 -1.5604
 9523SOL    HW240206   3.105   4.700   8.397 -1.5099  1.0882  0.0666
 9524SOL     OW40207   0.529   3.475   2.725 -0.4857 -0.0642 -0.6376
 9524SOL    HW140208   0.587   3.548   2.703 -0.7729 -0.0004 -1.1846
 9524SOL    HW240209   0.451   3.512   2.684 -0.0228 -0.6909 -2.0780
 9525SOL     OW40210   2.301   3.836  16.604  0.2226  0.4434  0.1684
 9525SOL    HW140211   2.382   3.794  16.631 -0.0006  0.3157  0.6215
 9525SOL    HW240212   2.242   3.848  16.678  1.6460  2.0262  1.0423
 9526SOL     OW40213   3.210   1.972   1.408 -0.6186  0.3086  0.0699
 9526SOL    HW140214   3.151   1.900   1.384 -0.6817  0.6419 -0.7910
 9526SOL    HW240215   3.232   1.938   1.494 -0.9051  0.8849  0.3673
 9527SOL     OW40216   0.801   4.703  12.229  0.1114 -0.2812  0.4973
 9527SOL    HW140217   0.787   0.061  12.241 -0.4163 -0.1736 -0.9642
 9527SOL    HW240218   0.728   4.665  12.278 -1.2284 -0.4888 -1.6709
 9528SOL     OW40219   3.113   3.165   5.611 -0.6381 -0.0245  0.0286
 9528SOL    HW140220   3.043   3.165   5.677 -0.7508  2.6827 -0.1011
 9528SOL    HW240221   3.066   3.135   5.533 -1.1187  0.2373  0.2132
 9529SOL     OW40222   4.683   1.230   2.224 -0.5247  0.4175 -0.2326
 9529SOL    HW140223   4.590   1.253   2.226 -0.8467 -0.9126 -0.3394
 9529SOL    HW240224   4.702   1.239   2.318  1.6399 -0.7575 -0.5686
 9530SOL     OW40225   1.287   3.765  12.565  0.2746 -0.2175 -0.0739
 9530SOL    HW140226   1.329   3.750  12.650  1.0427  0.7877 -0.2840
 9530SOL    HW240227   1.250   3.853  12.574 -0.7400 -0.7501  1.0401
 9531SOL     OW40228   4.149   3.906   6.192 -0.5530  0.6884 -0.7561
 9531SOL    HW140229   4.135   3.834   6.253 -1.2354  0.6583 -0.9392
 9531SOL    HW240230   4.244   3.898   6.191 -0.8508 -3.1946  0.3528
 9532SOL     OW40231   0.927   3.440   3.007 -0.3367  0.3105 -0.3258
 9532SOL    HW140232   0.913   3.458   2.914  2.6870  1.0888 -0.6134
 9532SOL    HW240233   0.931   3.345   3.002  3.9778  0.5741 -1.5843
 9533SOL     OW40234   4.350   0.749  12.212 -0.1842  0.1123  0.7221
 9533SOL    HW140235   4.365   0.766  12.119  0.6455  2.4160  1.2745
 9533SOL    HW240236   4.404   0.672  12.228 -1.5555 -0.8962  0.4667
 9534SOL     OW40237   4.052   2.703   3.608 -0.4730  0.2237  0.0508
 9534SOL    HW140238   4.015   2.643   3.543  0.7220  1.5898 -1.9307
 9534SOL    HW240239   4.056   2.782   3.553  0.4192 -0.6177 -1.0846
 9535SOL     OW40240   3.819   4.266   7.596  0.1314 -0.2024 -0.8123
 9535SOL    HW140241   3.735   4.290   7.559  0.1003  0.7506 -0.1146
 9535SOL    HW240242   3.787   4.208   7.665  0.8063  0.8519  0.3919
 9536SOL     OW40243   0.567   1.936   8.804 -0.7409  0.0537 -0.1795
 9536SOL    HW140244   0.472   1.938   8.817 -0.5198  1.7397  1.1637
 9536SOL    HW240245   0.579   1.869   8.737 -1.9363  0.0801 -0.4275
 9537SOL     OW40246   0.917   1.426   1.778 -0.1787  0.8675 -0.3738
 9537SOL    HW140247   0.884   1.510   1.746 -1.3675  0.8247  0.7320
 9537SOL    HW240248   0.857   1.372   1.726 -0.3442 -1.3150  2.0907
 9538SOL     OW40249   3.771   2.746   2.281  0.0017  0.2055  0.2380
 9538SOL    HW140250   3.840   2.810   2.268  1.0173 -1.1395 -0.9499
 9538SOL    HW240251   3.821   2.672   2.314  1.0437  0.3516 -1.0456
 9539SOL     OW40252   0.397   1.034   7.653  0.1258 -0.3732  0.2475
 9539SOL    HW140253   0.302   1.028   7.643  0.0250 -0.9092  1.4695
 9539SOL    HW240254   0.413   1.125   7.626  1.3112 -0.9575 -1.0175
 9540SOL     OW40255   4.161   1.258   3.457  0.1643 -0.4097 -0.1424
 9540SOL    HW140256   4.196   1.171   3.440  0.7198  0.1854 -1.9933
 9540SOL    HW240257   4.096   1.266   3.387  1.0109 -2.6462 -1.1704
 9541SOL     OW40258   3.626   0.437  17.373 -0.2788 -0.8062 -0.0346
 9541SOL    HW140259   3.716   0.449  17.405 -0.5938 -1.7046  1.1807
 9541SOL    HW240260   3.633   0.496  17.298  2.6931 -2.2801 -0.9119
 9542SOL     OW40261   1.847   3.545   7.168 -0.6438  0.7987  0.4108
 9542SOL    HW140262   1.883   3.586   7.089 -0.0018  2.2650  1.4599
 9542SOL    HW240263   1.797   3.470   7.136  1.3189 -0.4635  0.3175
 9543SOL     OW40264   3.633   4.599   3.001 -0.1380 -0.2830 -0.3697
 9543SOL    HW140265   3.711   4.614   3.055  0.0645  0.5641 -0.9023
 9543SOL    HW240266   3.655   4.510   2.973 -0.1023  0.2352 -1.9668
 9544SOL     OW40267   3.840   1.760   3.301 -0.2748  0.1821  0.1572
 9544SOL    HW140268   3.909   1.710   3.258  0.1336  2.7179 -2.1858
 9544SOL    HW240269   3.789   1.686   3.334 -1.7901  0.8636 -0.5948
 9545SOL     OW40270   2.921   3.743  11.281 -0.0381 -0.5911  0.1409
 9545SOL    HW140271   2.936   3.665  11.334 -0.6089  0.8044  2.3314
 9545SOL    HW240272   3.009   3.762  11.247 -0.0681  0.5294  0.7224
 9546SOL     OW40273   4.335   1.724  15.137 -0.4968  0.2895  0.2303
 9546SOL    HW140274   4.271   1.795  15.147 -1.2505 -0.2774 -0.5330
 9546SOL    HW240275   4.385   1.736  15.056 -1.4010  2.8990  0.0485
 9547SOL     OW40276   1.809   0.556   8.423 -0.5007  0.8771 -0.1308
 9547SOL    HW140277   1.859   0.637   8.411  0.5081 -0.1781 -2.9451
 9547SOL    HW240278   1.759   0.545   8.342 -0.4068 -1.1120  0.0826
 9548SOL     OW40279   1.351   1.304   2.016 -0.7346 -0.2858  0.3021
 9548SOL    HW140280   1.344   1.390   1.975 -1.3541 -0.1812  0.6241
 9548SOL    HW240281   1.260   1.276   2.029 -0.5622 -0.3755  1.3174
 9549SOL     OW40282   3.563   1.105   1.205 -0.1190 -0.4165 -0.1829
 9549SOL    HW140283   3.656   1.129   1.211 -0.6924  2.2120 -1.7597
 9549SOL    HW240284   3.545   1.143   1.291 -2.1160 -1.2460 -0.2395
 9550SOL     OW40285   1.472   3.754  15.651 -0.5729 -0.2198  0.9866
 9550SOL    HW140286   1.566   3.762  15.669 -0.3125 -1.0667  0.0055
 9550SOL    HW240287   1.450   3.844  15.628  2.2736  0.8097  2.2014
 9551SOL     OW40288   3.258   4.192   7.640 -0.6361 -0.2898  0.0895
 9551SOL    HW140289   3.329   4.155   7.693  0.3282  1.4716  0.0413
 9551SOL    HW240290   3.304   4.270   7.610  0.7061 -1.8671 -1.9081
 9552SOL     OW40291   2.517   0.745  16.069 -0.2335 -0.0717  0.4593
 9552SOL    HW140292   2.495   0.683  16.000  0.8457 -1.7325  1.6063
 9552SOL    HW240293   2.456   0.719  16.138  0.6734 -1.0111  0.8998
 9553SOL     OW40294   4.457   1.994   6.725 -0.1101  0.2747  0.1849
 9553SOL    HW140295   4.498   1.937   6.790  0.4334  0.6361  0.1578
 9553SOL    HW240296   4.471   1.937   6.650 -2.6338  0.0748 -0.1514
 9554SOL     OW40297   3.662   3.385   5.812  0.4234 -0.1649  0.1901
 9554SOL    HW140298   3.711   3.463   5.787 -2.5739  0.6114 -3.2525
 9554SOL    HW240299   3.577   3.428   5.822  1.2750  1.3032  1.0510
 9555SOL     OW40300   0.449   4.204  13.826  0.0474  0.3502 -0.4415
 9555SOL    HW140301   0.403   4.133  13.871  0.9594  0.3427  0.4759
 9555SOL    HW240302   0.542   4.192  13.847 -0.1163 -0.2448 -0.0500
 9556SOL     OW40303   3.715   2.814  12.858 -0.8546 -0.1489 -0.8148
 9556SOL    HW140304   3.799   2.839  12.819 -0.4727  0.3752  0.3291
 9556SOL    HW240305   3.661   2.859  12.793 -1.3322  0.7718  0.2258
 9557SOL     OW40306   0.383   1.786   8.466  0.1859 -0.7954 -1.0668
 9557SOL    HW140307   0.317   1.853   8.482  1.3172 -0.3052  1.5472
 9557SOL    HW240308   0.454   1.848   8.453 -0.0756 -0.2305  0.2119
 9558SOL     OW40309   1.681   3.401   6.631  0.1106  0.1659  0.2110
 9558SOL    HW140310   1.614   3.450   6.584  2.3274  1.6349 -1.4546
 9558SOL    HW240311   1.645   3.403   6.719 -2.3870  0.2104 -0.8174
 9559SOL     OW40312   2.901   0.006  14.784  0.2099  0.7435  0.2778
 9559SOL    HW140313   2.943   4.661  14.756  0.8112  0.3715  2.3020
 9559SOL    HW240314   2.973   0.060  14.817  0.6761  1.3434 -1.6696
 9560SOL     OW40315   1.373   1.639   3.070  0.3318  0.0932 -0.3193
 9560SOL    HW140316   1.339   1.556   3.103  0.5118 -0.2682 -1.0632
 9560SOL    HW240317   1.374   1.683   3.156 -0.6453  0.3046 -0.4163
 9561SOL     OW40318   0.737   1.255  15.116 -0.4538 -0.4046  0.2969
 9561SOL    HW140319   0.777   1.279  15.199 -0.2823 -0.8061  0.3293
 9561SOL    HW240320   0.657   1.308  15.127  0.0111 -0.0920  2.0835
 9562SOL     OW40321   2.172   1.698   8.830 -0.1710 -0.4688  0.0273
 9562SOL    HW140322   2.123   1.696   8.912  0.7503  0.3050  0.5969
 9562SOL    HW240323   2.099   1.701   8.768  1.9676  1.7634 -2.4126
 9563SOL     OW40324   0.425   0.711   2.333 -0.1763 -0.6018  0.5687
 9563SOL    HW140325   0.443   0.757   2.251  0.8605  0.1672  1.2146
 9563SOL    HW240326   0.513   0.720   2.370 -0.8529  1.0689  1.7944
 9564SOL     OW40327   2.719   4.378   9.837 -0.2947  0.1093 -0.2965
 9564SOL    HW140328   2.660   4.315   9.794  0.9555 -0.5224 -1.0709
 9564SOL    HW240329   2.760   4.332   9.910 -1.4941  1.4444  1.2239
 9565SOL     OW40330   1.608   4.630   8.462  0.1564  0.0796 -0.0183
 9565SOL    HW140331   1.680   4.691   8.449  1.9091 -2.4179 -2.0418
 9565SOL    HW240332   1.545   4.686   8.507  2.0590  0.6131  1.9498
 9566SOL     OW40333   1.345   2.313   3.815  0.3062  0.1218  0.2517
 9566SOL    HW140334   1.306   2.228   3.796  0.8402  0.1048 -0.7975
 9566SOL    HW240335   1.437   2.307   3.789  0.5741  2.3102  0.7063
 9567SOL     OW40336   4.220   2.195  12.040 -0.3644  0.7504  0.2608
 9567SOL    HW140337   4.130   2.165  12.055 -0.6902  1.4683 -0.2870
 9567SOL    HW240338   4.250   2.214  12.129  1.8278 -1.2104 -0.0591
 9568SOL     OW40339   2.623   4.605  11.378  0.3226 -0.0344  0.6691
 9568SOL    HW140340   2.556   4.671  11.400 -1.4759 -2.1035  1.3867
 9568SOL    HW240341   2.698   4.625  11.433  1.0468 -0.6245 -0.1082
 9569SOL     OW40342   0.856   2.023   3.402  0.4672  0.1515  0.4546
 9569SOL    HW140343   0.820   1.946   3.358  1.6689 -1.0857  1.6590
 9569SOL    HW240344   0.947   2.012   3.375  0.2377  0.9128 -0.6517
   4.73617   4.73617  17.74325
