Membrane in water
40344
    1TMC1    C1    1   3.684   1.267  11.231 -0.1645 -0.1298  0.1483
    1TMC1    C2    2   3.818   1.308  11.211 -0.1760  0.0471  0.1690
    1TMC1    C3    3   3.845   1.402  11.112  0.1475 -0.5432  0.1702
    1TMC1    C4    4   3.583   1.318  11.158  0.1166 -0.1614  0.2330
    1TMC1    C5    5   3.615   1.400  11.050 -0.0158  0.9167  0.0337
    1TMC1    C6    6   3.746   1.442  11.025 -0.6213  0.2827 -0.3402
    1TMC1     C    7   3.655   1.158  11.321 -0.4283 -0.3733 -0.3608
    1TMC1     O    8   3.537   1.116  11.327  0.7993 -0.1056  0.4069
    1TMC1     H    9   3.903   1.277  11.270 -0.7504  0.2584  1.1162
    1TMC1    H1   10   3.482   1.278  11.164 -0.0713 -0.0079 -1.8130
    1TMC1    H2   11   3.764   1.517  10.948  2.3806 -1.4683 -1.3107
    1TMC1    C7   12   3.499   1.449  10.980  0.0393  0.2768 -0.4411
    1TMC1    C8   13   3.970   1.477  11.103 -0.2001  0.5707  0.1165
    1TMC1    O1   14   3.392   1.394  10.967  0.3339 -0.4983  0.5001
    1TMC1    O2   15   4.030   1.505  11.003  0.0794 -0.5669  0.2822
    1TMC1    O3   16   3.519   1.576  10.945 -0.0183 -0.8410 -0.1058
    1TMC1    H3   17   3.594   1.615  10.995 -0.1906  0.6093 -0.9614
    1TMC1    O5   18   4.025   1.486  11.224  0.3912 -0.5363  0.0365
    1TMC1    H5   19   3.960   1.461  11.293  1.2960 -1.0520  0.6992
    2MPD2     C   20   3.794   0.781  11.636  0.6116 -0.1413 -0.4904
    2MPD2    C1   21   3.672   0.847  11.625  0.1163  0.6732 -0.1882
    2MPD2    C2   22   3.658   0.948  11.535  0.2485 -0.0624 -0.5194
    2MPD2    C3   23   3.767   0.981  11.456  0.0884  0.3262 -0.1078
    2MPD2    C4   24   3.885   0.915  11.465  0.1783  0.2443 -0.1829
    2MPD2    C5   25   3.895   0.808  11.548 -0.0016  0.3291 -0.3830
    2MPD2     H   26   3.563   1.000  11.538 -0.1152 -0.8124  1.1578
    2MPD2    H1   27   3.971   0.947  11.408 -1.1885  0.0090 -2.3989
    2MPD2    H2   28   3.808   0.686  11.686  2.8420 -1.0739 -2.8291
    2MPD2    H3   29   3.979   0.739  11.538 -1.0235 -0.7361 -1.8023
    2MPD2     N   30   3.771   1.091  11.366  0.6459  0.2394  0.2252
    2MPD2    H5   31   3.862   1.127  11.342  0.7780 -1.4766 -1.7675
    2MPD2    N1   32   3.573   0.826  11.718  0.7907 -0.0677  0.0546
    2MPD2    H7   33   3.503   0.898  11.704  1.3016  0.1341 -1.4170
    3TMC1    C1   34   2.890   2.435   9.987 -0.3598  0.6905 -0.1451
    3TMC1    C2   35   2.954   2.362  10.088  0.0673  0.4716  0.1200
    3TMC1    C3   36   3.039   2.263  10.051  0.2883 -0.1184  0.2965
    3TMC1    C4   37   2.923   2.403   9.858 -0.5193  1.0998 -0.2652
    3TMC1    C5   38   3.002   2.299   9.829  0.0894 -0.8374 -0.6361
    3TMC1    C6   39   3.066   2.231   9.926 -0.5078 -0.5790  0.3683
    3TMC1     C   40   2.812   2.557  10.011  0.2169  0.1013 -0.1700
    3TMC1     O   41   2.804   2.632   9.914  0.2988 -0.1147  0.1289
    3TMC1     H   42   2.935   2.374  10.194  4.0739 -0.8787  1.0172
    3TMC1    H1   43   2.880   2.456   9.774 -0.1829 -0.4113 -1.3953
    3TMC1    H2   44   3.117   2.140   9.896  0.3085  0.3843 -1.1520
    3TMC1    C7   45   3.007   2.257   9.689  0.0037 -0.1892  0.0875
    3TMC1    C8   46   3.088   2.175  10.153  0.2985 -0.7727 -0.0245
    3TMC1    O1   47   2.966   2.321   9.593  0.1451 -0.8532  0.4518
    3TMC1    O2   48   3.031   2.173  10.263  0.0738 -0.0445 -0.2267
    3TMC1    O3   49   2.994   2.125   9.697  0.0648  0.1784  0.0556
    3TMC1    H3   50   2.997   2.079   9.783 -1.4181 -0.1360 -0.0486
    3TMC1    O5   51   3.208   2.123  10.121 -0.0341 -0.2302  0.1782
    3TMC1    H5   52   3.230   2.133  10.026 -0.1495  0.5892  0.2345
    4MPD2     C   53   2.568   2.908  10.277  0.3857 -0.7242 -0.9238
    4MPD2    C1   54   2.626   2.818  10.366 -0.4615  0.2393  0.5034
    4MPD2    C2   55   2.695   2.710  10.322 -0.3647  0.0960 -0.2197
    4MPD2    C3   56   2.713   2.687  10.182 -0.0316 -0.0118  0.2383
    4MPD2    C4   57   2.658   2.782  10.095  0.2112 -0.4370  0.0147
    4MPD2    C5   58   2.585   2.887  10.144  1.3283 -0.2846 -0.2866
    4MPD2     H   59   2.729   2.642  10.399  2.4392 -0.8310 -2.2595
    4MPD2    H1   60   2.660   2.777   9.987  3.6331  1.4786 -0.0138
    4MPD2    H2   61   2.535   3.009  10.300  0.6028 -1.3419  2.1266
    4MPD2    H3   62   2.547   2.953  10.067  0.5588  0.9200  1.1275
    4MPD2     N   63   2.775   2.573  10.139  0.6378 -0.5964  0.2422
    4MPD2    H5   64   2.806   2.510  10.212  1.1585 -0.8201 -0.1675
    4MPD2    N1   65   2.621   2.825  10.505 -0.1157  0.3771 -0.1540
    4MPD2    H7   66   2.677   2.769  10.568 -1.8646 -0.0854  1.0110
    5TCq1    O1   67   4.487   3.314  11.653  0.1436  0.1367 -0.2363
    5TCq1    C1   68   4.471   3.255  11.774  0.1277  0.1825 -0.2468
    5TCq1    O2   69   4.518   3.307  11.871 -0.0500  0.0375  0.0177
    5TCq1    C2   70   4.327   3.226  11.778  0.4956  0.3984  0.1302
    5TCq1    C3   71   4.268   3.252  11.896  0.0125  0.1886  0.1855
    5TCq1    C4   72   4.141   3.221  11.916 -0.2431  0.3703  0.3733
    5TCq1    C5   73   4.063   3.181  11.813  1.4184 -0.2662 -0.3495
    5TCq1    C6   74   4.124   3.153  11.690  0.3539  0.0057  0.3419
    5TCq1    C7   75   4.263   3.169  11.671 -0.5831 -0.5351  0.1696
    5TCq1    C8   76   4.047   3.093  11.582  1.1099  0.4350 -0.4541
    5TCq1    O4   77   4.103   3.076  11.476  0.2499 -0.2370 -0.3818
    5TCq1    C9   78   4.074   3.247  12.043 -0.0003 -0.0488  0.7757
    5TCq1    O5   79   4.130   3.339  12.111 -0.3745  0.4761 -0.3607
    5TCq1    O6   80   3.965   3.192  12.063 -0.3403  0.0375  0.2680
    5TCq1    H1   81   4.470   3.262  11.572 -1.8309 -2.4513  1.8426
    5TCq1    H2   82   4.313   3.308  11.977 -0.2279 -1.2382  1.3116
    5TCq1    H3   83   3.957   3.172  11.834  0.9303  2.1986 -1.8080
    5TCq1    H4   84   4.313   3.124  11.586  1.6055  0.7288  0.7583
    6MPD2     C   85   3.718   2.941  11.592 -0.3982 -0.5774 -0.7329
    6MPD2    C1   86   3.844   2.971  11.534  0.0867  0.7763 -0.0611
    6MPD2    C2   87   3.872   2.922  11.413  0.0608  0.8484  0.6016
    6MPD2    C3   88   3.786   2.839  11.357 -0.4011 -0.3291  0.1112
    6MPD2    C4   89   3.666   2.798  11.420 -0.1589  0.0502 -0.4160
    6MPD2    C5   90   3.638   2.849  11.543 -0.5412  0.0596  0.3823
    6MPD2     H   91   3.967   2.942  11.364 -0.0657 -1.3398 -0.5340
    6MPD2    H1   92   3.592   2.750  11.358  1.7848 -2.1067 -1.0505
    6MPD2    H2   93   3.692   2.975  11.691  1.8370 -0.8235 -0.0569
    6MPD2    H3   94   3.545   2.826  11.594 -1.2049  2.4672  0.2927
    6MPD2     N   95   3.817   2.790  11.228  0.2084 -0.3910 -0.1425
    6MPD2    H5   96   3.910   2.812  11.193 -0.0619  1.1334  0.1281
    6MPD2    N1   97   3.917   3.053  11.616  0.2135 -1.1438  0.4555
    6MPD2    H7   98   3.870   3.076  11.703  1.4690  0.0094  0.8297
    7TCq1    O1   99   1.459   3.159  13.991  0.0130 -0.6489 -0.2302
    7TCq1    C1  100   1.560   3.069  13.992 -0.0373  0.3005 -0.2150
    7TCq1    O2  101   1.582   2.988  14.081  0.1179 -0.8581  0.0660
    7TCq1    C2  102   1.563   3.030  13.854 -0.3102  0.1025  0.1236
    7TCq1    C3  103   1.589   3.120  13.754 -0.5867  0.7885  0.0887
    7TCq1    C4  104   1.606   3.065  13.628 -0.1709  0.7195 -0.2033
    7TCq1    C5  105   1.598   2.935  13.603 -0.0206 -0.2687  0.0353
    7TCq1    C6  106   1.571   2.846  13.705 -0.1383  0.1337  0.1646
    7TCq1    C7  107   1.544   2.901  13.827  0.4060  0.0151  0.9409
    7TCq1    C8  108   1.578   2.704  13.702  0.7408  0.4087 -0.4476
    7TCq1    O4  109   1.596   2.636  13.800  0.3018 -0.0634 -0.5083
    7TCq1    C9  110   1.644   3.151  13.523 -0.1004  0.3781 -0.5039
    7TCq1    O5  111   1.658   3.273  13.547 -0.0566 -0.0430 -0.2678
    7TCq1    O6  112   1.663   3.091  13.415 -0.4428  0.2319  0.2360
    7TCq1    H1  113   1.447   3.205  13.906 -2.1151 -2.1108 -0.6969
    7TCq1    H2  114   1.594   3.228  13.756 -0.5494  0.8127 -0.9499
    7TCq1    H3  115   1.626   2.898  13.505 -1.1747 -0.2009 -0.3235
    7TCq1    H4  116   1.527   2.831  13.908  0.8712 -1.0900  0.0944
    8MPD2     C  117   1.573   2.266  13.441 -0.5123  0.4120 -0.6956
    8MPD2    C1  118   1.633   2.286  13.560  0.0018  0.0139 -0.9836
    8MPD2    C2  119   1.621   2.421  13.609 -0.0508 -0.1025 -0.7065
    8MPD2    C3  120   1.565   2.523  13.532 -0.0987 -0.0169  0.1927
    8MPD2    C4  121   1.516   2.500  13.409 -0.0339 -0.2830 -0.1086
    8MPD2    C5  122   1.520   2.372  13.367  0.2260  0.7724 -0.2160
    8MPD2     H  123   1.659   2.458  13.704  1.8101 -3.0507 -0.3157
    8MPD2    H1  124   1.471   2.572  13.340 -1.3807  2.7111  3.9089
    8MPD2    H2  125   1.557   2.166  13.401  2.2143 -0.1863 -0.3312
    8MPD2    H3  126   1.475   2.343  13.273  2.2297 -0.3722 -0.8239
    8MPD2     N  127   1.566   2.657  13.574 -0.1289  0.4519  0.5071
    8MPD2    H5  128   1.530   2.721  13.503  3.4785 -0.3463 -2.0588
    8MPD2    N1  129   1.687   2.178  13.632 -0.1595  0.0135 -0.6197
    8MPD2    H7  130   1.682   2.090  13.581  1.9032 -1.0956  1.0846
    9TMC1    C1  131   3.012   2.179  10.726 -0.7887  0.0992 -1.0316
    9TMC1    C2  132   2.902   2.159  10.802 -0.1775 -0.0575 -0.4930
    9TMC1    C3  133   2.789   2.206  10.744  0.1424  0.1148  0.1518
    9TMC1    C4  134   3.009   2.253  10.610 -0.2103  0.3637  0.3584
    9TMC1    C5  135   2.888   2.301  10.564  0.2133  0.1416 -0.0871
    9TMC1    C6  136   2.773   2.265  10.625  0.1274  0.2482 -0.1173
    9TMC1     C  137   3.144   2.147  10.780 -0.2192  0.8846 -0.0263
    9TMC1     O  138   3.240   2.162  10.703  0.1823 -0.0818  0.5745
    9TMC1     H  139   2.894   2.093  10.887  0.7392 -1.5651 -1.5474
    9TMC1    H1  140   3.102   2.286  10.564 -1.0356  1.5012 -0.5180
    9TMC1    H2  141   2.678   2.297  10.582  0.4595  0.6431 -0.5577
    9TMC1    C7  142   2.874   2.386  10.453 -1.3205  0.4484 -0.4140
    9TMC1    C8  143   2.666   2.204  10.829 -0.7521  0.1104 -0.2091
    9TMC1    O1  144   2.780   2.385  10.374 -0.5920  0.2364  0.7108
    9TMC1    O2  145   2.555   2.182  10.778 -0.0931  0.4904 -0.3519
    9TMC1    O3  146   2.996   2.444  10.433  0.2506 -0.5116 -0.5849
    9TMC1    H3  147   3.041   2.456  10.520  0.0288 -1.2356 -0.3689
    9TMC1    O5  148   2.700   2.274  10.940 -0.2085  0.1584  0.4348
    9TMC1    H5  149   2.786   2.320  10.931 -0.0401 -0.0916  0.7613
   10MPD2     C  150   3.390   2.055  10.924 -1.0681  0.1314  0.4925
   10MPD2    C1  151   3.265   2.050  10.970  0.9904  0.0304  0.0769
   10MPD2    C2  152   3.241   2.006  11.101 -0.1221 -0.0758 -0.5662
   10MPD2    C3  153   3.340   1.951  11.180 -0.8132 -0.1406 -0.1524
   10MPD2    C4  154   3.461   1.950  11.127 -0.5990 -0.4367  0.3750
   10MPD2    C5  155   3.487   1.990  11.002 -0.2315 -0.8064 -0.8584
   10MPD2     H  156   3.137   1.991  11.126 -0.9393  2.6311 -2.3598
   10MPD2    H1  157   3.547   1.911  11.182 -1.8444 -0.8774  2.0230
   10MPD2    H2  158   3.411   2.109  10.832  0.9243  0.1354  0.9430
   10MPD2    H3  159   3.582   1.968  10.955  0.1719  1.0545 -0.8975
   10MPD2     N  160   3.327   1.919  11.323 -0.0296  0.0578  0.1080
   10MPD2    H5  161   3.414   1.909  11.373  0.2665 -1.1876 -0.6513
   10MPD2    N1  162   3.145   2.083  10.904  1.0232 -0.0127  0.1986
   10MPD2    H7  163   3.058   2.074  10.955 -0.0664  1.8498 -1.2962
   11TCq1    O1  164   4.019   1.471  14.854  0.5483 -0.0746 -0.0326
   11TCq1    C1  165   3.923   1.380  14.841  0.0647  0.1000  0.1631
   11TCq1    O2  166   3.856   1.336  14.932  0.1527  0.2729 -0.4658
   11TCq1    C2  167   3.903   1.375  14.699  0.4399  0.4589  0.6131
   11TCq1    C3  168   4.018   1.375  14.617  0.9770  0.0210 -0.1200
   11TCq1    C4  169   3.993   1.372  14.483  0.0262 -0.0448 -0.1657
   11TCq1    C5  170   3.867   1.365  14.430  0.4560  0.0012 -0.1441
   11TCq1    C6  171   3.757   1.364  14.516  0.9439 -0.2032 -0.3972
   11TCq1    C7  172   3.776   1.362  14.647 -0.0784  0.2774  0.8871
   11TCq1    C8  173   3.624   1.358  14.455  0.1269 -0.2812 -0.6952
   11TCq1    O4  174   3.528   1.389  14.526 -0.2560 -0.2341 -0.2598
   11TCq1    C9  175   4.106   1.380  14.395  0.0861  1.1154  0.0095
   11TCq1    O5  176   4.206   1.324  14.441  0.0200  0.1202  0.0712
   11TCq1    O6  177   4.085   1.431  14.283  0.9168  0.6226 -0.4071
   11TCq1    H1  178   4.044   1.529  14.779 -0.5254  1.1723  0.5523
   11TCq1    H2  179   4.116   1.394  14.659  0.7154 -0.4940  0.7220
   11TCq1    H3  180   3.854   1.350  14.324 -2.3408  0.4540  0.1339
   11TCq1    H4  181   3.694   1.355  14.718  0.9553  0.2879  2.0880
   12MPD2     C  182   3.379   1.344  14.271 -0.1611  0.0302 -0.2916
   12MPD2    C1  183   3.502   1.298  14.251  0.0899  0.1455 -1.0769
   12MPD2    C2  184   3.528   1.234  14.127  0.6169  0.6924 -0.1537
   12MPD2    C3  185   3.426   1.206  14.038  0.0116  0.1151  0.0970
   12MPD2    C4  186   3.299   1.253  14.068 -0.3512 -0.7499  0.4773
   12MPD2    C5  187   3.279   1.321  14.187 -0.5013  0.1442 -0.4190
   12MPD2     H  188   3.634   1.225  14.105 -0.5442 -2.3483 -4.5050
   12MPD2    H1  189   3.214   1.240  14.002 -0.3248  1.0913  0.0842
   12MPD2    H2  190   3.359   1.397  14.364 -0.5406 -0.5834 -0.0258
   12MPD2    H3  191   3.181   1.365  14.204 -0.8140 -0.5045 -0.4972
   12MPD2     N  192   3.455   1.151  13.910 -0.5759  0.2659  0.2827
   12MPD2    H5  193   3.381   1.139  13.841 -0.9415 -0.0371  0.7329
   12MPD2    N1  194   3.620   1.309  14.328 -0.3160  0.2883 -0.2525
   12MPD2    H7  195   3.707   1.270  14.293 -0.4977  0.1475 -0.5470
   13TCq1    O1  196   4.103   2.009  10.794 -0.0281  0.9538  0.2033
   13TCq1    C1  197   3.977   1.988  10.833 -0.0517 -0.6117  0.3517
   13TCq1    O2  198   3.879   2.034  10.780 -0.2587 -0.5215 -0.1962
   13TCq1    C2  199   3.983   1.938  10.973 -0.0756 -0.0520 -0.0879
   13TCq1    C3  200   4.088   1.957  11.057 -0.6655  0.4159 -0.0325
   13TCq1    C4  201   4.074   1.906  11.179  0.1562 -0.4372  0.3065
   13TCq1    C5  202   3.964   1.838  11.233 -0.3407  0.0383  0.5680
   13TCq1    C6  203   3.859   1.825  11.142 -0.5707  0.3679 -0.3569
   13TCq1    C7  204   3.869   1.863  11.014 -0.8601  0.2650 -0.0652
   13TCq1    C8  205   3.747   1.740  11.177  0.0948 -0.4821  0.0541
   13TCq1    O4  206   3.669   1.727  11.082  0.2781 -0.1919  0.0511
   13TCq1    C9  207   4.185   1.940  11.264  0.5418 -0.2956  0.0288
   13TCq1    O5  208   4.173   1.913  11.388  0.6221  0.4650 -0.3210
   13TCq1    O6  209   4.278   2.005  11.219  0.3564 -0.2265 -0.3022
   13TCq1    H1  210   4.160   1.956  10.854 -0.4006  0.7768  0.4011
   13TCq1    H2  211   4.174   2.011  11.019 -1.5849  1.7544 -0.2260
   13TCq1    H3  212   3.969   1.791  11.330 -2.5587 -0.2056  0.5610
   13TCq1    H4  213   3.783   1.866  10.948  0.5426  0.2098 -1.8965
   14MPD2     C  214   3.655   1.608  11.512  0.2113 -0.3277 -0.3153
   14MPD2    C1  215   3.630   1.642  11.380 -0.2119 -0.1201  0.0182
   14MPD2    C2  216   3.508   1.610  11.324 -0.1763 -0.0718 -0.1236
   14MPD2    C3  217   3.405   1.559  11.408  0.2218 -0.4796 -0.1808
   14MPD2    C4  218   3.442   1.518  11.538  0.2103  0.5029  0.0823
   14MPD2    C5  219   3.565   1.549  11.591 -0.0406 -0.3765  0.3464
   14MPD2     H  220   3.504   1.629  11.217 -0.2904  2.1067  0.2835
   14MPD2    H1  221   3.368   1.492  11.613 -1.6667  0.4457 -1.7540
   14MPD2    H2  222   3.754   1.638  11.547 -0.4749  2.1589 -0.4788
   14MPD2    H3  223   3.588   1.532  11.696  2.6059 -0.2562 -0.2275
   14MPD2     N  224   3.274   1.535  11.353  0.3558  0.4331 -0.2004
   14MPD2    H5  225   3.252   1.573  11.261  1.8944  1.5736 -0.1018
   14MPD2    N1  226   3.737   1.714  11.312  0.2538  0.0168 -0.6930
   14MPD2    H7  227   3.817   1.741  11.368 -0.3714 -1.8620  1.1006
   15TCq1    O1  228   0.841   1.060   1.627 -0.4292  0.4686  0.2801
   15TCq1    C1  229   0.785   0.968   1.542 -0.0601  0.3038  0.3115
   15TCq1    O2  230   0.745   0.987   1.426  0.1613 -0.5802  0.0454
   15TCq1    C2  231   0.862   0.852   1.581 -0.2675  0.6106 -0.2162
   15TCq1    C3  232   0.846   0.801   1.708 -0.1285 -0.6589 -0.3650
   15TCq1    C4  233   0.899   0.681   1.732  0.1674 -0.4860  0.3026
   15TCq1    C5  234   0.942   0.600   1.630 -0.0185 -0.7310  0.3973
   15TCq1    C6  235   0.933   0.643   1.501 -0.3467 -0.0807 -0.0353
   15TCq1    C7  236   0.894   0.774   1.476  0.1530  0.2257  0.2272
   15TCq1    C8  237   0.949   0.541   1.396 -0.7666  0.1860 -0.8213
   15TCq1    O4  238   1.020   0.440   1.422  0.1675 -0.2001 -0.5155
   15TCq1    C9  239   0.893   0.610   1.860 -0.0157 -0.0195 -0.4874
   15TCq1    O5  240   0.844   0.676   1.959 -0.1237 -0.5311 -0.0893
   15TCq1    O6  241   0.978   0.511   1.873 -0.8085 -0.3561  0.1538
   15TCq1    H1  242   0.894   1.030   1.704 -1.0261 -0.1767  0.4432
   15TCq1    H2  243   0.793   0.864   1.778 -0.7133 -0.9807 -0.5186
   15TCq1    H3  244   0.982   0.502   1.652 -0.4175 -0.7592  1.0030
   15TCq1    H4  245   0.895   0.815   1.375 -1.9888  0.8711  0.4909
   16MPD2     C  246   0.769   0.517   1.070  0.1246 -0.4178  0.6545
   16MPD2    C1  247   0.868   0.494   1.161 -0.8043 -0.2291 -0.5448
   16MPD2    C2  248   0.962   0.409   1.127 -0.5476  0.3105  0.0031
   16MPD2    C3  249   0.957   0.333   1.013 -0.5568 -0.1853 -0.0984
   16MPD2    C4  250   0.856   0.355   0.915 -0.3563  0.0685 -0.4105
   16MPD2    C5  251   0.766   0.456   0.947 -0.6387  0.3321  0.1608
   16MPD2     H  252   1.041   0.400   1.201  0.3892  3.0116 -0.6687
   16MPD2    H1  253   0.856   0.301   0.821 -0.0986  1.0487 -0.9664
   16MPD2    H2  254   0.680   0.570   1.100 -0.2084 -0.2718 -0.5653
   16MPD2    H3  255   0.687   0.477   0.877 -1.1007  0.1998  0.6469
   16MPD2     N  256   1.071   0.249   1.000 -0.4434 -0.4976  0.3590
   16MPD2    H5  257   1.132   0.242   1.081  0.1527 -0.9785 -0.1385
   16MPD2    N1  258   0.872   0.571   1.284 -0.0535 -1.1959 -0.1508
   16MPD2    H7  259   0.814   0.654   1.286  2.6092  0.6949 -0.8899
   17TMC1    C1  260   3.347   0.065  11.875 -0.3556  0.2261 -0.5937
   17TMC1    C2  261   3.260   0.055  11.983  0.5928 -0.5921  0.0856
   17TMC1    C3  262   3.208   4.666  12.013  0.5125  0.3948  0.7020
   17TMC1    C4  263   3.364   4.702  11.783 -0.1473  0.9175 -0.1318
   17TMC1    C5  264   3.301   4.581  11.813  0.0083 -0.3506  0.8461
   17TMC1    C6  265   3.229   4.560  11.928 -0.3934  0.0860  0.6445
   17TMC1     C  266   3.327   0.200  11.818  0.1235  0.2521  0.0599
   17TMC1     O  267   3.237   0.271  11.862  0.0170 -0.0896 -0.4400
   17TMC1     H  268   3.257   0.137  12.054  1.2687  0.8339 -1.5262
   17TMC1    H1  269   3.416   4.725  11.691 -0.8744  0.2678 -0.7066
   17TMC1    H2  270   3.176   4.467  11.941 -1.5503  0.4919 -1.0877
   17TMC1    C7  271   3.340   4.471  11.731 -0.2730  0.2493  0.0016
   17TMC1    C8  272   3.098   4.654  12.102  0.0031  0.4036 -0.2550
   17TMC1    O1  273   3.442   4.469  11.665 -0.1240 -0.1972  0.2964
   17TMC1    O2  274   3.046   4.548  12.135  0.3614 -0.1926  0.2961
   17TMC1    O3  275   3.240   4.379  11.730  0.1135 -0.2722 -0.4380
   17TMC1    H3  276   3.157   4.417  11.766  0.1231 -0.2582 -0.4308
   17TMC1    O5  277   3.039   0.040  12.094  0.0842 -0.3663 -0.0164
   17TMC1    H5  278   3.082   0.106  12.036 -0.7396 -0.3923 -0.6403
   18MPD2     C  279   3.332   0.446  11.652 -0.8090  0.0755  0.5189
   18MPD2    C1  280   3.425   0.348  11.638 -0.7013  0.1478  0.0408
   18MPD2    C2  281   3.540   0.363  11.563  0.1706  0.6226 -0.1975
   18MPD2    C3  282   3.551   0.476  11.481 -0.5797 -0.5294  0.7974
   18MPD2    C4  283   3.450   0.574  11.477 -0.4908 -0.3479 -0.4139
   18MPD2    C5  284   3.342   0.556  11.566  0.0741 -0.5893 -0.4142
   18MPD2     H  285   3.617   0.287  11.561  0.0607  0.5127 -0.2091
   18MPD2    H1  286   3.449   0.662  11.414 -3.1641  0.4819  0.7710
   18MPD2    H2  287   3.252   0.441  11.725 -1.5489  1.0062 -0.2217
   18MPD2    H3  288   3.267   0.634  11.580  0.0385 -1.0366  1.9574
   18MPD2     N  289   3.660   0.497  11.394  0.0026 -0.0847 -0.7915
   18MPD2    H5  290   3.627   0.569  11.331 -1.2811  0.9159  1.0230
   18MPD2    N1  291   3.420   0.224  11.714  0.4235  0.5713  0.0372
   18MPD2    H7  292   3.498   0.160  11.703 -0.2214  0.2113 -2.4769
   19TMC2    C1  293   0.991   1.480  13.469 -0.1797 -0.1061  0.1775
   19TMC2    C2  294   1.030   1.593  13.410 -0.5183  0.7626  0.4195
   19TMC2    C3  295   0.946   1.650  13.319  0.0426 -0.0712 -0.0088
   19TMC2    C4  296   0.869   1.432  13.459 -0.1794 -0.4550  0.4530
   19TMC2    C5  297   0.777   1.495  13.375 -0.6020  0.2181  0.8585
   19TMC2    C6  298   0.813   1.610  13.309 -0.3432  0.3678  1.1555
   19TMC2     C  299   1.094   1.385  13.515 -0.6270 -0.8096 -0.2330
   19TMC2     O  300   1.201   1.390  13.462  0.8362 -0.2618 -0.4731
   19TMC2     H  301   1.132   1.623  13.431 -0.6360  0.4113  1.4901
   19TMC2    H1  302   0.843   1.335  13.500  1.1881 -1.5379 -1.2972
   19TMC2    H2  303   0.755   1.650  13.226 -0.2712  1.9173  1.8383
   19TMC2    C7  304   0.634   1.461  13.395  0.0313  0.1308 -0.2430
   19TMC2    C8  305   0.981   1.781  13.267 -0.0614  0.2664  0.7294
   19TMC2    O1  306   0.615   1.351  13.447 -0.0364  0.2564  0.0334
   19TMC2    O2  307   1.096   1.818  13.269 -0.3459 -0.5231  0.2236
   19TMC2    O5  308   0.879   1.860  13.307 -0.2046 -0.2079 -0.0260
   19TMC2    H5  309   0.796   1.811  13.325 -1.6579  1.7523 -1.3564
   20MPD2     C  310   1.242   1.155  13.651 -0.4361 -0.4350  0.1607
   20MPD2    C1  311   1.128   1.210  13.700  0.1461  0.5592 -0.3935
   20MPD2    C2  312   1.076   1.156  13.817  0.1325  0.4796 -1.0280
   20MPD2    C3  313   1.141   1.059  13.885  0.5701 -0.7166  0.0073
   20MPD2    C4  314   1.241   0.993  13.823 -0.4485 -0.3488 -0.0771
   20MPD2    C5  315   1.299   1.046  13.715 -0.5067 -0.7276 -0.2622
   20MPD2     H  316   0.987   1.194  13.867 -0.9079 -1.3929 -1.4702
   20MPD2    H1  317   1.293   0.917  13.880 -0.5283 -0.6245 -0.3704
   20MPD2    H2  318   1.295   1.189  13.563 -1.0884 -1.5899 -0.6741
   20MPD2    H3  319   1.384   0.997  13.669 -0.7834 -0.4611 -1.0650
   20MPD2     N  320   1.120   1.018  14.016  0.2472  0.6138  0.4899
   20MPD2    H5  321   1.179   0.942  14.048  0.5758  0.2141 -1.0497
   20MPD2    N1  322   1.053   1.313  13.624  0.0539  0.1431  0.0643
   20MPD2    H7  323   0.956   1.322  13.653 -0.0226 -0.5153  0.0283
   21TMC2    C1  324   2.609   1.321  14.740  0.2093  0.3073 -0.2431
   21TMC2    C2  325   2.602   1.232  14.844  0.0147  0.1369 -0.4707
   21TMC2    C3  326   2.505   1.245  14.940 -0.2627  0.1111  0.7813
   21TMC2    C4  327   2.524   1.430  14.733 -0.1189 -0.2795  0.1213
   21TMC2    C5  328   2.437   1.442  14.845 -0.2046  0.0055 -0.1632
   21TMC2    C6  329   2.429   1.355  14.949  0.2350 -0.5355 -0.5115
   21TMC2     C  330   2.740   1.326  14.665 -0.5142  0.4251 -0.8761
   21TMC2     O  331   2.816   1.231  14.682  0.7197 -0.0243  0.2898
   21TMC2     H  332   2.670   1.147  14.850 -1.2392 -0.4894  4.1264
   21TMC2    H1  333   2.536   1.504  14.655 -1.5957 -1.1014 -0.8932
   21TMC2    H2  334   2.358   1.364  15.030  0.4704  0.8602 -0.4617
   21TMC2    C7  335   2.402   1.577  14.884 -0.8389 -0.2195 -0.2324
   21TMC2    C8  336   2.512   1.148  15.046  0.3739 -0.9232 -0.2858
   21TMC2    O1  337   2.340   1.591  14.990  0.2022  0.0793 -0.3777
   21TMC2    O2  338   2.586   1.051  15.050 -0.3308  0.5473 -0.2498
   21TMC2    O5  339   2.492   1.208  15.166 -0.7849 -0.0337 -0.0544
   21TMC2    H5  340   2.426   1.280  15.167 -1.5059 -0.7324  1.6778
   22MPD2     C  341   3.107   1.661  14.555  0.1058 -0.4388 -0.6256
   22MPD2    C1  342   3.113   1.538  14.623 -0.0751  0.3477  0.6065
   22MPD2    C2  343   3.005   1.449  14.621 -0.0136 -0.6584  0.9565
   22MPD2    C3  344   2.890   1.495  14.556 -0.2172  0.5614  0.7510
   22MPD2    C4  345   2.886   1.613  14.488 -0.2564 -0.2384  0.0900
   22MPD2    C5  346   2.994   1.695  14.483 -0.1026  0.9120  0.3815
   22MPD2     H  347   3.016   1.355  14.674  0.8841 -1.0591  0.0590
   22MPD2    H1  348   2.796   1.653  14.443 -1.1589 -1.4254  0.8408
   22MPD2    H2  349   3.184   1.738  14.557  0.2734 -0.6090 -0.4231
   22MPD2    H3  350   2.986   1.798  14.452 -4.5011 -0.0245 -1.4968
   22MPD2     N  351   2.767   1.437  14.586 -0.6220 -0.3596 -0.1058
   22MPD2    H5  352   2.686   1.493  14.560 -0.1048  0.4791  0.0830
   22MPD2    N1  353   3.219   1.501  14.702 -0.8778  0.9609  0.1749
   22MPD2    H7  354   3.211   1.417  14.759 -0.2896  0.5435 -0.3532
   23TMC2    C1  355   4.004   3.093  14.964  0.3982  0.4218  0.0493
   23TMC2    C2  356   3.913   3.194  14.974  0.3565  0.2694 -0.0460
   23TMC2    C3  357   3.804   3.188  14.897 -0.2635 -0.2729  0.7290
   23TMC2    C4  358   3.991   2.998  14.865  0.3837  0.4268 -0.0066
   23TMC2    C5  359   3.883   3.004  14.783 -0.2686  0.3508  0.0329
   23TMC2    C6  360   3.787   3.096  14.799 -0.0538  0.3878  0.0130
   23TMC2     C  361   4.126   3.090  15.046 -0.7059  0.3563 -0.1375
   23TMC2     O  362   4.199   2.992  15.037 -0.3717 -0.1166  0.3028
   23TMC2     H  363   3.916   3.270  15.051 -1.3019  0.6601 -0.3685
   23TMC2    H1  364   4.063   2.918  14.855  1.7397  1.9721 -2.6263
   23TMC2    H2  365   3.699   3.104  14.737  0.2250  1.5691 -0.2258
   23TMC2    C7  366   3.867   2.894  14.688 -0.7930 -0.1388 -0.6080
   23TMC2    C8  367   3.742   3.316  14.879 -0.0063  0.2664  0.0154
   23TMC2    O1  368   3.957   2.810  14.689 -0.4678  0.5856  0.0189
   23TMC2    O2  369   3.641   3.348  14.938 -0.1992  0.4163 -0.6020
   23TMC2    O5  370   3.840   3.395  14.846 -0.0405 -0.6059  0.5242
   23TMC2    H5  371   3.920   3.344  14.820 -1.3409 -1.2862 -2.0586
   24MPD2     C  372   4.475   3.322  15.345 -0.1670  0.6867  0.8713
   24MPD2    C1  373   4.445   3.191  15.332  0.2108 -0.1301  0.1375
   24MPD2    C2  374   4.340   3.151  15.251  1.3216 -0.4355 -1.3084
   24MPD2    C3  375   4.268   3.247  15.179  1.0198  1.0692  0.1555
   24MPD2    C4  376   4.306   3.376  15.192 -0.0129  0.4473 -0.2239
   24MPD2    C5  377   4.409   3.417  15.273 -0.0680  0.0770  0.1368
   24MPD2     H  378   4.314   3.046  15.250 -1.7292  0.2771  2.8732
   24MPD2    H1  379   4.250   3.455  15.143 -0.4675 -0.8584 -1.7815
   24MPD2    H2  380   4.552   3.359  15.412  3.2619 -1.2265 -2.0483
   24MPD2    H3  381   4.431   3.523  15.274  1.5027 -0.2473  0.5068
   24MPD2     N  382   4.150   3.214  15.104  0.4630  1.0823  0.3788
   24MPD2    H5  383   4.105   3.291  15.055 -1.5649 -0.2011  0.2275
   24MPD2    N1  384   4.501   3.093  15.416 -0.4257 -0.0593  0.1616
   24MPD2    H7  385   4.466   2.998  15.405  1.1623 -0.6622  0.2729
   25TMC2    C1  386   3.053   3.926  11.589  0.6412 -0.3354  0.4121
   25TMC2    C2  387   3.186   3.951  11.556  0.8429 -0.1908  0.3443
   25TMC2    C3  388   3.249   4.035  11.651 -0.5399  0.3259 -1.0758
   25TMC2    C4  389   2.999   3.970  11.709 -0.2219 -0.0471  0.1887
   25TMC2    C5  390   3.069   4.048  11.793 -0.0801 -0.2357  0.8106
   25TMC2    C6  391   3.202   4.069  11.771  0.0623  0.1233  0.0465
   25TMC2     C  392   2.968   3.859  11.493  0.1491  0.3534 -0.9937
   25TMC2     O  393   3.036   3.814  11.402 -0.2689 -0.1304  0.3521
   25TMC2     H  394   3.238   3.926  11.464  1.5328  1.3638  0.3139
   25TMC2    H1  395   2.894   3.955  11.732 -0.1866  1.8644  1.5290
   25TMC2    H2  396   3.254   4.131  11.843 -0.3267  2.7775 -1.9294
   25TMC2    C7  397   3.006   4.131  11.902  0.6946 -0.4743  0.0324
   25TMC2    C8  398   3.393   4.039  11.640 -0.6562  0.7032 -0.4249
   25TMC2    O1  399   3.092   4.184  11.971  0.3010 -0.1806 -0.4964
   25TMC2    O2  400   3.456   3.960  11.573 -0.2840  0.0600  0.5764
   25TMC2    O5  401   3.420   4.174  11.640  0.6715  0.0530 -0.2235
   25TMC2    H5  402   3.345   4.229  11.672 -0.6656 -1.0959 -1.4254
   26MPD2     C  403   2.579   3.790  11.184 -0.3879  1.0136  0.2052
   26MPD2    C1  404   2.537   3.866  11.284  0.4365  0.2078 -0.4735
   26MPD2    C2  405   2.622   3.888  11.390 -0.2729  0.7540 -0.9172
   26MPD2    C3  406   2.745   3.830  11.396  0.7469 -0.1991 -0.5143
   26MPD2    C4  407   2.781   3.736  11.305  0.8866  0.3161 -0.5693
   26MPD2    C5  408   2.701   3.727  11.193 -0.2839  0.2511 -0.3142
   26MPD2     H  409   2.597   3.950  11.475  0.8664  1.5226 -1.1327
   26MPD2    H1  410   2.874   3.682  11.300  0.0578 -1.2892  1.7894
   26MPD2    H2  411   2.505   3.768  11.108 -0.5909  1.3920  0.2952
   26MPD2    H3  412   2.727   3.642  11.131  1.2072  0.8404 -0.4972
   26MPD2     N  413   2.832   3.876  11.494  0.0692 -0.3933  0.7251
   26MPD2    H5  414   2.793   3.944  11.559 -0.7109  0.2460 -0.4138
   26MPD2    N1  415   2.396   3.896  11.279 -0.2432  0.6601 -0.3087
   26MPD2    H7  416   2.344   3.867  11.197 -2.5715 -0.6204  1.6349
   27TMC2    C1  417   1.645   1.948  11.742  0.9915 -0.2818  0.8200
   27TMC2    C2  418   1.640   2.044  11.653  0.2731 -0.4708  0.2222
   27TMC2    C3  419   1.702   2.163  11.686  0.3716 -0.3857  0.3117
   27TMC2    C4  420   1.743   1.949  11.839 -0.5809  0.1516  0.1090
   27TMC2    C5  421   1.814   2.062  11.864 -0.1980 -0.4836  0.0343
   27TMC2    C6  422   1.794   2.174  11.788  0.4816 -0.0790  1.3549
   27TMC2     C  423   1.516   1.888  11.782  0.1177  0.3034 -0.5441
   27TMC2     O  424   1.437   1.845  11.698 -0.3125  0.4126  0.2672
   27TMC2     H  425   1.557   2.041  11.584 -0.6170 -0.3594  1.3006
   27TMC2    H1  426   1.745   1.866  11.908  0.3666  1.2088  1.3454
   27TMC2    H2  427   1.836   2.270  11.816 -0.6445  0.7791  0.0991
   27TMC2    C7  428   1.814   2.083  12.005  0.7877 -0.7178 -0.3320
   27TMC2    C8  429   1.706   2.260  11.584 -1.0567 -0.1325 -0.9279
   27TMC2    O1  430   1.728   2.021  12.067  0.0103  0.7058  0.2094
   27TMC2    O2  431   1.675   2.220  11.472  0.4412  0.5337 -0.0027
   27TMC2    O5  432   1.813   2.335  11.609 -0.5942 -0.3632  1.0550
   27TMC2    H5  433   1.787   2.393  11.683 -0.6342  0.1271  0.6619
   28MPD2     C  434   1.194   1.741  12.147 -0.3704 -0.1826  0.1964
   28MPD2    C1  435   1.280   1.833  12.207  0.3150 -0.4150 -0.3356
   28MPD2    C2  436   1.388   1.879  12.126  0.6141  0.9750 -0.4027
   28MPD2    C3  437   1.393   1.847  11.994  0.1005 -1.0428 -0.1057
   28MPD2    C4  438   1.293   1.772  11.939  0.1485 -0.5600 -0.5563
   28MPD2    C5  439   1.205   1.707  12.019  0.3209 -0.2937  0.7200
   28MPD2     H  440   1.459   1.948  12.170  0.7575  0.7681 -0.3116
   28MPD2    H1  441   1.283   1.746  11.835 -0.3737  3.6732 -1.5875
   28MPD2    H2  442   1.109   1.703  12.202  0.7393 -0.6832  1.5365
   28MPD2    H3  443   1.127   1.650  11.968 -0.2270  1.4586 -0.3954
   28MPD2     N  444   1.498   1.902  11.917  0.2033 -0.0626 -0.3182
   28MPD2    H5  445   1.567   1.955  11.969 -0.2059 -0.0548  0.2166
   28MPD2    N1  446   1.277   1.873  12.341 -0.1058  1.1275 -0.3852
   28MPD2    H7  447   1.195   1.850  12.396  1.1195 -1.5574  0.2938
   29TMC2    C1  448   1.749   4.706  14.218  0.4127 -0.0366 -0.4710
   29TMC2    C2  449   1.665   4.722  14.321 -0.1452 -0.2090  0.1231
   29TMC2    C3  450   1.684   0.099  14.396  0.2173 -0.6100  0.2590
   29TMC2    C4  451   1.847   0.059  14.194  0.1926  0.4914  0.3275
   29TMC2    C5  452   1.869   0.166  14.275  0.1117  0.2538  0.3490
   29TMC2    C6  453   1.785   0.188  14.375  0.3843  0.1173 -0.0368
   29TMC2     C  454   1.745   4.578  14.148  0.3224  0.1925 -0.4177
   29TMC2     O  455   1.840   4.524  14.094 -0.4528 -0.3255 -0.4153
   29TMC2     H  456   1.588   4.651  14.348 -1.9442  1.4947 -0.5250
   29TMC2    H1  457   1.918   0.027  14.118  0.2979  0.7366  0.3238
   29TMC2    H2  458   1.798   0.273  14.441  2.1875 -0.2115  0.0120
   29TMC2    C7  459   1.910   0.285  14.198 -0.0167  0.7007 -0.3673
   29TMC2    C8  460   1.623   0.099  14.529  0.3194  0.2485  0.4371
   29TMC2    O1  461   1.908   0.274  14.076  0.0673 -0.6087  0.1040
   29TMC2    O2  462   1.591   4.728  14.583  0.1233  0.0802 -0.2089
   29TMC2    O5  463   1.539   0.209  14.527  0.9993  0.2776  0.5746
   29TMC2    H5  464   1.561   0.275  14.457 -0.1983 -1.4014 -1.3866
   30MPD2     C  465   1.495   4.172  13.936  0.5585 -0.3727  0.6465
   30MPD2    C1  466   1.626   4.191  13.965  0.1802  0.3831 -0.6907
   30MPD2    C2  467   1.676   4.304  14.029 -0.4555 -0.0421  0.2043
   30MPD2    C3  468   1.584   4.405  14.070 -0.0648  0.1476 -0.0667
   30MPD2    C4  469   1.452   4.391  14.037 -0.5663  0.1897  0.0511
   30MPD2    C5  470   1.410   4.280  13.967 -0.1737 -0.2924  0.2327
   30MPD2     H  471   1.781   4.306  14.054 -0.0616 -2.0164 -1.3073
   30MPD2    H1  472   1.387   4.473  14.064  1.1393  1.1953  1.0701
   30MPD2    H2  473   1.456   4.086  13.883 -1.6927  0.6755  0.5787
   30MPD2    H3  474   1.304   4.282  13.946 -0.3657  0.9852  1.3173
   30MPD2     N  475   1.613   4.526  14.139 -0.0557 -0.1561 -0.6632
   30MPD2    H5  476   1.534   4.574  14.180 -0.4145  0.4771 -2.1011
   30MPD2    N1  477   1.727   4.096  13.937 -0.0675  0.3623 -0.7334
   30MPD2    H7  478   1.823   4.129  13.946 -0.3818  2.1277 -3.9516
   31TMC2    C1  479   4.224   3.781  15.778 -0.5590 -0.3685  0.7419
   31TMC2    C2  480   4.098   3.839  15.800  0.3155  0.3444  0.2036
   31TMC2    C3  481   4.016   3.764  15.881 -0.1851 -0.0851 -0.2742
   31TMC2    C4  482   4.281   3.692  15.863  1.1637  0.9429  0.2053
   31TMC2    C5  483   4.190   3.621  15.931  0.3582 -0.0807 -0.2663
   31TMC2    C6  484   4.058   3.650  15.939  0.0236  0.0119 -0.4563
   31TMC2     C  485   4.284   3.837  15.664 -0.4577 -0.6280  0.3935
   31TMC2     O  486   4.244   3.950  15.627 -0.1610 -0.6503  0.1874
   31TMC2     H  487   4.068   3.923  15.740 -0.2580  0.3778  0.5388
   31TMC2    H1  488   4.383   3.659  15.847  0.6580 -0.4520 -0.1761
   31TMC2    H2  489   3.985   3.591  15.994  1.8093 -1.4878  0.3071
   31TMC2    C7  490   4.243   3.514  16.011 -0.2715 -0.5708 -0.8143
   31TMC2    C8  491   3.876   3.805  15.886  0.2005  0.3120 -0.5836
   31TMC2    O1  492   4.351   3.461  15.980 -0.3995  0.2170 -0.5543
   31TMC2    O2  493   3.782   3.746  15.944  0.4503 -0.3983 -0.7929
   31TMC2    O5  494   3.879   3.939  15.885 -0.0803 -0.6260 -0.1964
   31TMC2    H5  495   3.970   3.974  15.876 -0.1901 -0.1858  0.3840
   32MPD2     C  496   4.666   3.817  15.337  0.1103  0.4718  0.3082
   32MPD2    C1  497   4.560   3.903  15.339 -0.4187 -0.9368 -0.5535
   32MPD2    C2  498   4.463   3.882  15.432  0.2081 -0.6596 -0.1537
   32MPD2    C3  499   4.472   3.765  15.513 -0.2504 -0.0730  0.1491
   32MPD2    C4  500   4.570   3.672  15.509 -0.2505 -0.0485 -0.2435
   32MPD2    C5  501   4.669   3.706  15.423  0.5259 -0.4379 -0.6788
   32MPD2     H  502   4.377   3.947  15.435  0.4015 -0.4566  1.0646
   32MPD2    H1  503   4.556   3.586  15.574 -1.6382  0.8225  0.6188
   32MPD2    H2  504   0.015   3.835  15.271 -0.7249  2.5863 -0.1891
   32MPD2    H3  505   0.023   3.645  15.420 -0.7576 -2.2844 -1.5184
   32MPD2     N  506   4.382   3.746  15.619  0.6803 -0.7286  0.2620
   32MPD2    H5  507   4.393   3.658  15.670 -0.0548  0.0934  1.8545
   32MPD2    N1  508   4.552   4.000  15.232 -0.3162 -0.5780 -0.0286
   32MPD2    H7  509   4.620   3.994  15.157 -1.2082  0.0649 -0.8800
   33TMC2    C1  510   3.454   1.174  10.689 -0.5706 -0.2092  0.4045
   33TMC2    C2  511   3.332   1.109  10.685 -0.0648 -0.2084  0.1330
   33TMC2    C3  512   3.253   1.141  10.575  0.7349 -0.2192  0.1008
   33TMC2    C4  513   3.489   1.265  10.589 -0.7471  0.7185 -0.7716
   33TMC2    C5  514   3.408   1.289  10.481 -0.8650  0.0016 -0.4106
   33TMC2    C6  515   3.287   1.226  10.473  0.6334  0.0076 -0.6374
   33TMC2     C  516   3.560   1.122  10.777  0.3749 -0.0799 -0.3567
   33TMC2     O  517   3.522   1.032  10.854  0.0729  0.5040  0.6491
   33TMC2     H  518   3.303   1.032  10.755 -2.0073 -0.5924 -1.1068
   33TMC2    H1  519   3.574   1.332  10.597 -2.3406  2.2930  2.9217
   33TMC2    H2  520   3.224   1.239  10.386 -1.1504 -3.2762  0.1625
   33TMC2    C7  521   3.443   1.390  10.377  0.3075 -0.8341  0.1306
   33TMC2    C8  522   3.118   1.085  10.578  0.1207  0.0107  0.3020
   33TMC2    O1  523   3.560   1.409  10.349 -0.5398 -0.2564 -0.2243
   33TMC2    O2  524   3.099   0.972  10.537 -0.0364 -0.4129  0.4030
   33TMC2    O5  525   3.047   1.159  10.666  0.3666 -0.0466 -0.5020
   33TMC2    H5  526   3.095   1.241  10.691 -0.0119 -0.0103  0.0931
   34MPD2     C  527   4.049   1.062  10.909 -0.0629 -0.6170 -0.2372
   34MPD2    C1  528   3.940   0.994  10.962  0.3923 -0.8679 -0.2482
   34MPD2    C2  529   3.816   1.034  10.904 -0.2462 -0.4128  0.8463
   34MPD2    C3  530   3.803   1.140  10.818 -0.3093 -0.0571  0.0659
   34MPD2    C4  531   3.914   1.198  10.773 -0.0722 -0.2553  0.8053
   34MPD2    C5  532   4.035   1.163  10.816 -0.5667 -0.6456 -0.5391
   34MPD2     H  533   3.727   0.978  10.929  0.0808 -1.1873  0.2761
   34MPD2    H1  534   3.917   1.273  10.695  2.1262 -0.0235  1.1095
   34MPD2    H2  535   4.148   1.025  10.933  0.0103 -0.5689 -0.4698
   34MPD2    H3  536   4.123   1.212  10.777 -1.6025  2.0741  0.5663
   34MPD2     N  537   3.685   1.182  10.750 -0.8518 -0.3341 -0.2007
   34MPD2    H5  538   3.694   1.262  10.688 -2.2036 -2.1531 -2.7649
   34MPD2    N1  539   3.961   0.891  11.053 -0.1538 -0.0040 -0.7711
   34MPD2    H7  540   4.056   0.858  11.069  0.0405  0.7610 -0.3767
   35TMC2    C1  541   0.392   2.227  11.473  0.1582  0.0982  0.0259
   35TMC2    C2  542   0.332   2.257  11.351  0.0509 -0.1903 -0.1926
   35TMC2    C3  543   0.243   2.167  11.305 -0.7383  0.0892 -0.9086
   35TMC2    C4  544   0.360   2.107  11.538  0.2971 -0.1398  0.3661
   35TMC2    C5  545   0.288   2.017  11.474  0.3151  0.0155 -0.4721
   35TMC2    C6  546   0.226   2.041  11.358 -0.2777 -0.1517  0.0606
   35TMC2     C  547   0.496   2.316  11.511  0.3921  0.2761  0.2069
   35TMC2     O  548   0.505   2.425  11.460 -0.2463  0.1155 -0.0654
   35TMC2     H  549   0.333   2.357  11.309 -0.6400 -0.5039 -0.9594
   35TMC2    H1  550   0.397   2.090  11.639 -1.9904  0.4262  1.2938
   35TMC2    H2  551   0.168   1.964  11.310 -0.3763  0.4124 -0.7275
   35TMC2    C7  552   0.229   1.904  11.546  0.1980 -0.5574 -0.1127
   35TMC2    C8  553   0.165   2.210  11.189  0.3261  0.6901 -0.2453
   35TMC2    O1  554   0.117   1.873  11.514  0.1854 -0.6622 -0.2366
   35TMC2    O2  555   0.214   2.285  11.109  0.1071  0.5944 -0.3384
   35TMC2    O5  556   0.043   2.218  11.242 -0.3093 -0.1597  0.4739
   35TMC2    H5  557   0.025   2.142  11.302  0.0228  1.3289  2.4820
   36MPD2     C  558   0.922   2.442  11.778 -0.5507 -0.3638  0.0935
   36MPD2    C1  559   0.884   2.313  11.818  0.4447  0.7437 -0.3570
   36MPD2    C2  560   0.768   2.255  11.761  0.0572  0.0024  0.3017
   36MPD2    C3  561   0.703   2.319  11.659  0.2746 -0.8908 -0.2610
   36MPD2    C4  562   0.739   2.449  11.630 -0.1170 -0.0706  0.0682
   36MPD2    C5  563   0.850   2.510  11.679  0.5491 -0.3553  0.4546
   36MPD2     H  564   0.726   2.160  11.790 -3.0330  1.1874 -0.3674
   36MPD2    H1  565   0.691   2.512  11.555  0.0579 -0.2832 -0.2222
   36MPD2    H2  566   1.012   2.489  11.817 -0.9111  1.4008 -1.2281
   36MPD2    H3  567   0.877   2.601  11.626 -0.7990 -1.3514 -1.9190
   36MPD2     N  568   0.586   2.254  11.598  0.5134  0.2056  0.2089
   36MPD2    H5  569   0.566   2.155  11.607 -1.8517  0.5254 -1.5348
   36MPD2    N1  570   0.952   2.265  11.930 -0.0371  0.0545  0.3519
   36MPD2    H7  571   1.026   2.321  11.972  1.2064 -0.4983 -1.1077
   37TMC2    C1  572   3.088   2.782  11.527  0.6009  0.3254 -0.2840
   37TMC2    C2  573   3.038   2.813  11.405  0.4887  0.5074 -0.3735
   37TMC2    C3  574   3.109   2.757  11.301  0.0622 -0.7237  0.1824
   37TMC2    C4  575   3.190   2.696  11.557  0.7953  0.9552 -0.0658
   37TMC2    C5  576   3.257   2.648  11.449  0.3064 -0.6861  0.2671
   37TMC2    C6  577   3.218   2.673  11.319 -0.1703  0.2505 -0.7001
   37TMC2     C  578   3.007   2.836  11.636  0.5838  0.7824  0.1150
   37TMC2     O  579   2.923   2.918  11.601  0.0476  0.0035  0.4305
   37TMC2     H  580   2.952   2.873  11.378  0.0899 -0.4809 -1.2864
   37TMC2    H1  581   3.229   2.673  11.655  2.1460 -1.1587 -1.1047
   37TMC2    H2  582   3.288   2.654  11.239 -0.3584  0.7040 -0.9731
   37TMC2    C7  583   3.384   2.578  11.476 -0.1098  0.0960  0.2040
   37TMC2    C8  584   3.082   2.815  11.172  0.5145 -0.4307  0.4650
   37TMC2    O1  585   3.433   2.595  11.588 -0.5122  0.4438 -0.2917
   37TMC2    O2  586   3.060   2.936  11.159  0.1280 -0.2655 -0.2793
   37TMC2    O5  587   3.126   2.743  11.074 -0.1112  0.4882  0.3851
   37TMC2    H5  588   3.125   2.648  11.100 -1.2555  1.3378  3.3519
   38MPD2     C  589   2.951   2.931  12.145 -0.3540 -0.3895 -0.1440
   38MPD2    C1  590   3.062   2.844  12.126  0.8266 -0.3387 -0.1304
   38MPD2    C2  591   3.090   2.813  11.995 -0.3976 -0.6278  0.9052
   38MPD2    C3  592   3.022   2.860  11.884 -0.6846 -0.4343  0.2671
   38MPD2    C4  593   2.908   2.935  11.908  0.5864  0.5037  0.4113
   38MPD2    C5  594   2.878   2.970  12.037  0.2198 -0.9021 -0.2394
   38MPD2     H  595   3.181   2.759  11.973 -0.7317 -1.2593  1.0780
   38MPD2    H1  596   2.852   2.979  11.826 -2.3955 -2.5675  0.7957
   38MPD2    H2  597   2.922   2.961  12.245 -0.1104  2.2536 -0.8683
   38MPD2    H3  598   2.784   3.019  12.061 -0.7592 -2.9068 -0.0326
   38MPD2     N  599   3.063   2.810  11.758 -0.0843 -0.3327 -0.5374
   38MPD2    H5  600   3.146   2.751  11.754  0.6339  0.7481 -1.3966
   38MPD2    N1  601   3.143   2.798  12.229  0.0492 -0.4047  0.2148
   38MPD2    H7  602   3.219   2.741  12.194 -0.1294  1.0316 -2.4385
   39TMC2    C1  603   1.660   4.611   1.707 -0.1224  0.2604 -0.3973
   39TMC2    C2  604   1.749   4.534   1.773 -0.1925  0.1837 -0.6158
   39TMC2    C3  605   1.848   4.596   1.839  0.0634  0.1664 -0.4586
   39TMC2    C4  606   1.669   0.016   1.706  0.0479  0.0892  0.0801
   39TMC2    C5  607   1.768   0.069   1.780 -0.2199 -0.8135 -0.1095
   39TMC2    C6  608   1.864   4.730   1.843  0.6852 -0.1116 -0.2336
   39TMC2     C  609   1.584   4.553   1.601 -0.2465  0.0233 -0.2983
   39TMC2     O  610   1.472   4.597   1.586  0.2272 -0.0022 -0.3991
   39TMC2     H  611   1.761   4.427   1.756  1.2843  0.1600  0.5476
   39TMC2    H1  612   1.592   0.075   1.657  1.8221  1.7217 -0.7484
   39TMC2    H2  613   1.951   0.036   1.892  2.1879 -2.0619 -1.2549
   39TMC2    C7  614   1.820   0.199   1.748 -1.3187  0.4057  0.0354
   39TMC2    C8  615   1.940   4.503   1.903  0.0214 -0.7599 -0.0522
   39TMC2    O1  616   1.938   0.218   1.778 -0.7196  0.2442  0.2676
   39TMC2    O2  617   1.913   4.389   1.931 -0.1330  0.1272  0.2766
   39TMC2    O5  618   2.059   4.541   1.864 -0.0724  0.2163  0.0021
   39TMC2    H5  619   2.058   4.611   1.796  0.8683  0.1892 -0.0476
   40MPD2     C  620   1.725   4.381   1.310 -0.2424  0.1043 -0.7467
   40MPD2    C1  621   1.628   4.436   1.386  0.3011  0.3596 -0.2735
   40MPD2    C2  622   1.502   4.448   1.329 -0.7354  0.0722 -0.1786
   40MPD2    C3  623   1.483   4.411   1.198 -0.2620 -0.1108 -0.1869
   40MPD2    C4  624   1.587   4.361   1.127 -0.0894  0.6463  0.1851
   40MPD2    C5  625   1.707   4.351   1.180  0.1272 -0.3535  0.4316
   40MPD2     H  626   1.427   4.510   1.376 -0.8114 -0.7429  0.7646
   40MPD2    H1  627   1.573   4.333   1.024  1.4611  1.3291 -0.2076
   40MPD2    H2  628   1.814   4.346   1.361 -0.5586 -2.5089 -2.0066
   40MPD2    H3  629   1.796   4.330   1.121  1.7529  1.9814  2.0294
   40MPD2     N  630   1.360   4.419   1.128  0.2495  0.5075 -0.2433
   40MPD2    H5  631   1.382   4.379   1.037 -1.9820  0.3096 -0.6847
   40MPD2    N1  632   1.665   4.491   1.510  0.1344  0.2835 -0.1485
   40MPD2    H7  633   1.765   4.480   1.526 -0.1935  2.4549  3.5530
   41TMC2    C1  634   0.306   3.156  13.005  0.2095  0.4973  0.2527
   41TMC2    C2  635   0.329   3.281  13.059  0.4327  0.1081 -0.1084
   41TMC2    C3  636   0.404   3.363  12.978  0.1953  0.5492 -0.1735
   41TMC2    C4  637   0.350   3.116  12.882  0.7325  0.5863 -0.2892
   41TMC2    C5  638   0.425   3.206  12.809  0.0562 -0.4030 -0.0692
   41TMC2    C6  639   0.455   3.333  12.855  0.4910 -0.0709  0.0504
   41TMC2     C  640   0.285   3.045  13.091  0.2515 -0.0477 -0.1517
   41TMC2     O  641   0.304   2.936  13.034  0.9083 -0.0194  0.2090
   41TMC2     H  642   0.289   3.319  13.152 -0.8078  0.0388 -0.6176
   41TMC2    H1  643   0.319   3.021  12.841 -1.9831  2.0980 -1.6786
   41TMC2    H2  644   0.519   3.401  12.799 -1.1304  1.4498  0.0610
   41TMC2    C7  645   0.521   3.152  12.711  0.0561  0.6706 -0.3241
   41TMC2    C8  646   0.422   3.500  13.034  0.8432  0.2254 -0.7110
   41TMC2    O1  647   0.594   3.231  12.660  0.0411  0.5253  0.3412
   41TMC2    O2  648   0.326   3.553  13.084  0.0205  0.1151 -0.4417
   41TMC2    O5  649   0.547   3.509  13.076  0.4369 -0.0885  0.4355
   41TMC2    H5  650   0.609   3.436  13.056  0.6986 -0.0189  0.9935
   42MPD2     C  651   0.386   2.873  13.312  0.4316  0.7824  0.4693
   42MPD2    C1  652   0.368   3.006  13.327  0.8403  0.4412  0.3803
   42MPD2    C2  653   0.402   3.067  13.446 -0.0641 -0.2131  0.1060
   42MPD2    C3  654   0.465   3.003  13.552  0.5498  0.3471 -0.6884
   42MPD2    C4  655   0.488   2.873  13.532  0.6056 -0.2653 -0.5212
   42MPD2    C5  656   0.449   2.806  13.416 -0.6691 -0.0400  0.3275
   42MPD2     H  657   0.379   3.173  13.449  1.7249  0.1405  1.2592
   42MPD2    H1  658   0.542   2.814  13.605  1.6945  2.6365  0.9855
   42MPD2    H2  659   0.344   2.808  13.236  2.1737 -1.0618  1.0805
   42MPD2    H3  660   0.470   2.701  13.400 -0.3900  0.1859 -0.7708
   42MPD2     N  661   0.503   3.073  13.674  0.1610  0.2139  0.0446
   42MPD2    H5  662   0.547   3.021  13.749  3.1871  2.0972 -0.4171
   42MPD2    N1  663   0.311   3.085  13.222 -0.7271  0.5554  0.4596
   42MPD2    H7  664   0.288   3.181  13.245  1.1239  0.5953  2.0264
   43TMC2    C1  665   1.751   1.166   1.018 -0.1436  0.6460 -0.5012
   43TMC2    C2  666   1.635   1.122   1.073 -0.6131 -0.0473 -0.6099
   43TMC2    C3  667   1.630   1.130   1.204  0.2451 -0.3155  0.1604
   43TMC2    C4  668   1.846   1.240   1.090 -0.6932  0.5231 -0.1484
   43TMC2    C5  669   1.835   1.241   1.226  0.4087  0.7015 -0.0129
   43TMC2    C6  670   1.720   1.192   1.281  0.4874 -0.1744  0.2263
   43TMC2     C  671   1.772   1.148   0.879  0.3720 -0.4401  0.6139
   43TMC2     O  672   1.887   1.119   0.845  0.7213  0.4320  0.0458
   43TMC2     H  673   1.555   1.065   1.027  0.5596 -0.9053 -1.5896
   43TMC2    H1  674   1.927   1.289   1.038 -1.3073 -0.0444 -1.6263
   43TMC2    H2  675   1.699   1.207   1.386 -0.2033  1.1011 -0.1016
   43TMC2    C7  676   1.939   1.296   1.306 -0.2989 -0.5234 -0.6955
   43TMC2    C8  677   1.501   1.107   1.261  1.2853  0.1974 -0.1800
   43TMC2    O1  678   2.040   1.321   1.247  0.0321 -0.4211  0.4848
   43TMC2    O2  679   1.400   1.091   1.190  0.1421  0.3586 -0.4139
   43TMC2    O5  680   1.511   1.043   1.383 -0.2251  0.2999  0.3806
   43TMC2    H5  681   1.601   1.053   1.421 -0.6980 -0.6099  1.7201
   44MPD2     C  682   1.552   1.016   0.445 -0.5284 -0.3910 -0.2095
   44MPD2    C1  683   1.678   0.998   0.486  0.3548 -0.1197  0.0032
   44MPD2    C2  684   1.710   1.056   0.601  0.1162 -0.2175  0.1785
   44MPD2    C3  685   1.622   1.122   0.685  0.3249  0.2685  0.0561
   44MPD2    C4  686   1.495   1.142   0.641 -0.2489 -0.1922  0.1155
   44MPD2    C5  687   1.466   1.088   0.517  0.0434 -0.0356  0.0287
   44MPD2     H  688   1.815   1.062   0.628 -0.0035 -0.5691  0.7180
   44MPD2    H1  689   1.421   1.191   0.703  1.5897  1.1204  1.2691
   44MPD2    H2  690   1.517   0.965   0.356 -1.8185 -1.7653  1.0876
   44MPD2    H3  691   1.364   1.095   0.481 -0.0676 -2.1564 -0.1005
   44MPD2     N  692   1.655   1.164   0.818  0.3813 -0.0031  0.5635
   44MPD2    H5  693   1.574   1.192   0.872 -0.2816  2.1964 -1.5704
   44MPD2    N1  694   1.775   0.925   0.410  0.0232 -0.7853  0.3062
   44MPD2    H7  695   1.863   0.904   0.456  0.5973  2.7421  0.8207
   45TMC2    C1  696   1.430   3.396   9.361  0.0142 -0.1900  0.2333
   45TMC2    C2  697   1.378   3.499   9.288  0.1396  0.6323  0.0294
   45TMC2    C3  698   1.440   3.622   9.296  0.4972 -0.1237  0.3203
   45TMC2    C4  699   1.542   3.415   9.438 -0.7149 -0.1041  0.1001
   45TMC2    C5  700   1.594   3.542   9.447 -0.3555 -0.1528 -0.1395
   45TMC2    C6  701   1.544   3.648   9.376 -0.2592  0.4607 -0.3138
   45TMC2     C  702   1.373   3.258   9.358 -0.1767 -0.1877 -0.9842
   45TMC2     O  703   1.447   3.171   9.401 -0.0172  0.1152 -0.5007
   45TMC2     H  704   1.299   3.491   9.215  1.7460  1.1447 -1.7411
   45TMC2    H1  705   1.576   3.333   9.499 -1.3141 -0.8538 -0.5814
   45TMC2    H2  706   1.585   3.748   9.383  0.5577 -0.1527  3.3860
   45TMC2    C7  707   1.716   3.559   9.522  0.8668  0.0186 -0.6550
   45TMC2    C8  708   1.402   3.733   9.208 -0.0873  0.2369 -0.5813
   45TMC2    O1  709   1.744   3.472   9.606 -0.2407  0.5562 -0.2386
   45TMC2    O2  710   1.448   3.843   9.229 -0.1046 -0.2879 -0.7099
   45TMC2    O5  711   1.358   3.692   9.093  0.1113 -0.4231 -0.0496
   45TMC2    H5  712   1.362   3.595   9.081 -1.5866 -0.6151  0.9251
   46MPD2     C  713   1.213   3.013   9.289  0.4726 -0.2233 -0.0841
   46MPD2    C1  714   1.161   3.138   9.284 -0.3802  0.1713 -0.1110
   46MPD2    C2  715   1.026   3.148   9.253  0.1650  0.3109 -0.5954
   46MPD2    C3  716   0.945   3.036   9.236  0.2121  0.1499  0.0169
   46MPD2    C4  717   1.004   2.912   9.242  0.0229 -0.4670  0.2253
   46MPD2    C5  718   1.137   2.906   9.266  0.2253 -0.1605 -0.2389
   46MPD2     H  719   0.977   3.245   9.257  2.5981  1.4826  1.7276
   46MPD2    H1  720   0.953   2.822   9.208 -0.3760  1.4580 -4.2803
   46MPD2    H2  721   1.321   3.004   9.297  0.5774 -1.0718 -2.3827
   46MPD2    H3  722   1.177   2.808   9.287 -2.5394 -0.9033  1.5552
   46MPD2     N  723   0.809   3.060   9.219  0.1204  0.3047  0.1584
   46MPD2    H5  724   0.768   3.152   9.217  3.9884  1.9963 -1.2571
   46MPD2    N1  725   1.240   3.251   9.307 -1.2048 -0.0131 -0.1798
   46MPD2    H7  726   1.209   3.345   9.285 -0.2259  0.4304  0.2903
   47TMC2    C1  727   3.607   3.616   9.212  0.3711 -0.2627  0.0595
   47TMC2    C2  728   3.474   3.605   9.182  0.4549  0.3843  0.2280
   47TMC2    C3  729   3.390   3.659   9.269 -0.5519 -0.1111  0.2086
   47TMC2    C4  730   3.650   3.684   9.312  0.2599 -0.2924  0.5537
   47TMC2    C5  731   3.562   3.733   9.400 -0.2028  0.5252  0.4553
   47TMC2    C6  732   3.426   3.715   9.391 -0.4390  0.7894 -0.5473
   47TMC2     C  733   3.705   3.558   9.123 -0.1878  0.5324  0.5423
   47TMC2     O  734   3.697   3.566   8.998 -0.3415 -0.0631  0.0149
   47TMC2     H  735   3.441   3.554   9.091  1.3467  3.1681 -1.6479
   47TMC2    H1  736   3.753   3.715   9.311  0.3499 -0.6050  0.1621
   47TMC2    H2  737   3.352   3.736   9.467  0.4545  1.4491  0.1345
   47TMC2    C7  738   3.607   3.818   9.511  0.0599 -0.3107  0.0234
   47TMC2    C8  739   3.247   3.632   9.253 -0.4354 -0.0645 -0.8008
   47TMC2    O1  740   3.677   3.920   9.497 -0.5547 -0.0262 -0.1447
   47TMC2    O2  741   3.172   3.609   9.343  0.5217  0.2631 -0.0983
   47TMC2    O5  742   3.216   3.622   9.119  0.2522  0.4196 -0.4669
   47TMC2    H5  743   3.283   3.648   9.052 -0.0164  3.8563  0.5621
   48MPD2     C  744   3.965   3.465   9.014  0.0877 -0.5247 -0.5361
   48MPD2    C1  745   3.909   3.430   9.138 -0.5981 -0.4950  0.9452
   48MPD2    C2  746   3.969   3.332   9.214  0.1723 -0.0981  0.3770
   48MPD2    C3  747   4.083   3.258   9.172 -0.1338  0.1590  0.1813
   48MPD2    C4  748   4.138   3.303   9.055  0.1789  0.7479 -0.2915
   48MPD2    C5  749   4.078   3.395   8.973 -0.0612 -0.4889  0.3282
   48MPD2     H  750   3.921   3.297   9.305 -1.3151 -0.1644 -0.4268
   48MPD2    H1  751   4.231   3.259   9.022 -0.7338 -0.7728 -0.8546
   48MPD2    H2  752   3.932   3.547   8.952 -0.9537  0.3577  1.2036
   48MPD2    H3  753   4.131   3.426   8.884  1.1878  0.2961  1.3538
   48MPD2     N  754   4.120   3.147   9.249  0.1798  0.3091 -0.1296
   48MPD2    H5  755   4.064   3.130   9.331  0.0412  1.6961  0.0560
   48MPD2    N1  756   3.796   3.491   9.195  0.3577 -0.1105  0.3336
   48MPD2    H7  757   3.771   3.453   9.285 -0.5377  1.3722  0.7121
   49TMC2    C1  758   2.733   4.528  10.544  0.8423 -0.0364 -0.3095
   49TMC2    C2  759   2.668   4.413  10.488 -0.8026  0.3604  0.0563
   49TMC2    C3  760   2.684   4.295  10.560  0.0597  0.2635  0.6353
   49TMC2    C4  761   2.830   4.520  10.645 -0.6002 -0.2891 -0.5188
   49TMC2    C5  762   2.829   4.403  10.715 -0.3636 -0.1373  0.1140
   49TMC2    C6  763   2.763   4.291  10.675  0.1394  0.4040 -0.8510
   49TMC2     C  764   2.757   4.632  10.452 -0.5117 -0.2246 -0.7751
   49TMC2     O  765   2.728   4.618  10.335 -0.4253 -0.6933  0.3810
   49TMC2     H  766   2.611   4.433  10.398  1.5641  0.1896 -1.4863
   49TMC2    H1  767   2.899   4.602  10.659 -0.4304 -0.5292  0.0219
   49TMC2    H2  768   2.776   4.198  10.729  0.6662  0.6291 -0.5919
   49TMC2    C7  769   2.931   4.387  10.820  0.1647 -0.5477 -0.3265
   49TMC2    C8  770   2.585   4.187  10.558 -0.0701 -0.5291 -0.4207
   49TMC2    O1  771   2.962   4.278  10.860  0.4022 -0.2125 -0.2101
   49TMC2    O2  772   2.609   4.074  10.598  0.0238  0.2654 -0.4244
   49TMC2    O5  773   2.508   4.202  10.454  0.0847  0.5709  0.5726
   49TMC2    H5  774   2.476   4.294  10.445 -1.7002 -0.2198 -1.0991
   50MPD2     C  775   2.810   0.154  10.325  0.4819  0.3086  0.1360
   50MPD2    C1  776   2.808   0.143  10.463  0.0048  0.3561 -0.4592
   50MPD2    C2  777   2.823   0.246  10.553 -0.1586  0.2166 -0.9086
   50MPD2    C3  778   2.864   0.365  10.501 -0.2174  0.2373  0.7055
   50MPD2    C4  779   2.878   0.380  10.365 -0.1082 -0.1272  0.3542
   50MPD2    C5  780   2.854   0.273  10.276  0.3469  0.0720 -0.3065
   50MPD2     H  781   2.820   0.229  10.660  1.3149  0.8193 -0.7685
   50MPD2    H1  782   2.930   0.468  10.328  1.0178 -0.2864  1.5339
   50MPD2    H2  783   2.805   0.071  10.255  2.1756 -2.0235  2.7675
   50MPD2    H3  784   2.883   0.294  10.174 -0.9237  0.3860 -0.6042
   50MPD2     N  785   2.898   0.469  10.589 -0.0170  0.5673 -0.3896
   50MPD2    H5  786   2.935   0.551  10.542  0.1507  0.1996 -0.9003
   50MPD2    N1  787   2.782   0.014  10.517  0.0521  0.1812 -0.0714
   50MPD2    H7  788   2.777   0.013  10.618  0.1733  1.8109 -0.0473
   51TMC2    C1  789   3.135   0.534   1.648  0.1426 -0.5185 -0.2371
   51TMC2    C2  790   3.007   0.531   1.697 -1.1271 -0.4937  0.1242
   51TMC2    C3  791   2.913   0.610   1.646 -0.2932  0.0006 -0.1994
   51TMC2    C4  792   3.163   0.612   1.544 -1.0286  0.3916  0.4234
   51TMC2    C5  793   3.070   0.703   1.497 -0.7070 -0.1428  0.1806
   51TMC2    C6  794   2.942   0.696   1.550 -0.1825 -0.1966  0.4150
   51TMC2     C  795   3.211   0.411   1.659  0.0439  0.0887 -0.0066
   51TMC2     O  796   3.252   0.363   1.555  0.5005 -0.3043  0.2722
   51TMC2     H  797   2.981   0.451   1.766  1.4631 -1.4242  0.0331
   51TMC2    H1  798   3.267   0.610   1.513 -1.0679  2.9943  0.1660
   51TMC2    H2  799   2.872   0.769   1.509  0.5266  0.1289 -0.2048
   51TMC2    C7  800   3.074   0.750   1.358 -0.3708  0.2236 -0.3671
   51TMC2    C8  801   2.782   0.597   1.704  0.5912 -0.1746  0.1099
   51TMC2    O1  802   2.967   0.769   1.301 -0.8110 -0.5083 -0.5232
   51TMC2    O2  803   2.730   0.494   1.743 -0.5083 -0.2393 -0.1985
   51TMC2    O5  804   2.728   0.724   1.720 -0.3554  0.4181  0.0966
   51TMC2    H5  805   2.802   0.788   1.713 -0.0055  0.0953  0.7664
   52MPD2     C  806   3.432   0.043   1.954  0.2470  0.6369  0.0203
   52MPD2    C1  807   3.415   0.049   1.815 -0.3844  0.2475 -0.3652
   52MPD2    C2  808   3.371   0.167   1.751  0.1694  0.2062  0.4570
   52MPD2    C3  809   3.317   0.267   1.831  0.3078 -0.1146  0.1158
   52MPD2    C4  810   3.336   0.259   1.968  0.2465 -0.8402 -0.0138
   52MPD2    C5  811   3.393   0.153   2.034 -0.6280  0.7237  0.7937
   52MPD2     H  812   3.352   0.160   1.644  2.1932  1.0436  0.0415
   52MPD2    H1  813   3.307   0.344   2.029  0.4384 -1.0863  0.4229
   52MPD2    H2  814   3.480   4.698   2.010 -1.1796  0.5053  1.0485
   52MPD2    H3  815   3.404   0.146   2.142  1.1433  2.9123  0.7462
   52MPD2     N  816   3.240   0.380   1.792 -0.3328  0.2048  0.1294
   52MPD2    H5  817   3.193   0.441   1.859 -1.0935 -1.1498  0.8213
   52MPD2    N1  818   3.467   4.690   1.739 -0.0020 -0.0941  0.4638
   52MPD2    H7  819   3.483   4.702   1.639  2.2054  0.0418  0.8326
   53TMC2    C1  820   4.080   2.449  11.610  0.4978  0.8277 -0.0528
   53TMC2    C2  821   4.211   2.413  11.606  0.3677 -0.7216 -0.1571
   53TMC2    C3  822   4.288   2.408  11.717 -0.0901 -0.6112 -0.2401
   53TMC2    C4  823   4.023   2.470  11.731 -0.1836 -0.2239  0.2957
   53TMC2    C5  824   4.101   2.479  11.844  0.0178  0.7329  0.2290
   53TMC2    C6  825   4.233   2.450  11.841 -0.3448  0.0452 -0.2624
   53TMC2     C  826   4.003   2.401  11.498  0.2683 -0.4063  0.0158
   53TMC2     O  827   4.064   2.321  11.421  0.1215  0.1726 -0.8185
   53TMC2     H  828   4.258   2.386  11.512 -1.7887  2.9881 -2.2882
   53TMC2    H1  829   3.917   2.488  11.748 -0.2215  1.4171 -1.7651
   53TMC2    H2  830   4.295   2.438  11.929  1.9730 -0.8289 -2.0203
   53TMC2    C7  831   4.041   2.524  11.969 -0.1764  0.6748  0.0071
   53TMC2    C8  832   4.425   2.356  11.721 -0.3166  0.3640  0.5641
   53TMC2    O1  833   3.946   2.600  11.955 -0.0306  0.2725 -0.0214
   53TMC2    O2  834   4.492   2.390  11.813 -0.8916  0.0581  0.0488
   53TMC2    O5  835   4.450   2.313  11.592  0.0461 -0.2419 -0.1692
   53TMC2    H5  836   4.377   2.284  11.534 -0.1698  2.4223 -1.2203
   54MPD2     C  837   3.788   2.319  11.307 -0.3342 -0.6193 -0.1872
   54MPD2    C1  838   3.772   2.402  11.417 -0.1089  0.5083 -0.2037
   54MPD2    C2  839   3.650   2.457  11.438  0.2925  0.2209  0.2813
   54MPD2    C3  840   3.543   2.439  11.349  0.1362  0.3829 -0.3572
   54MPD2    C4  841   3.565   2.348  11.247 -0.0985 -0.7001  0.1061
   54MPD2    C5  842   3.685   2.288  11.223 -0.3187 -0.1501  0.4347
   54MPD2     H  843   3.648   2.515  11.530  0.8810  0.1060  0.3691
   54MPD2    H1  844   3.479   2.319  11.187  0.0191 -1.0214  0.0912
   54MPD2    H2  845   3.880   2.264  11.292  0.0749  0.1321 -0.4706
   54MPD2    H3  846   3.689   2.231  11.131  0.8259 -0.0609  0.4357
   54MPD2     N  847   3.418   2.504  11.369 -0.8610  0.0345  0.2701
   54MPD2    H5  848   3.345   2.484  11.301 -0.0045 -0.2602 -0.5741
   54MPD2    N1  849   3.869   2.435  11.511  0.5139 -0.0379  0.2159
   54MPD2    H7  850   3.847   2.502  11.585  1.6285  0.9953 -0.3827
   55TMC2    C1  851   4.683   1.124  17.544 -0.3400 -0.0601  0.5487
   55TMC2    C2  852   4.656   1.117  17.413 -0.3820  0.1076 -0.3647
   55TMC2    C3  853   4.589   0.998  17.377  0.0017 -0.2253 -0.6369
   55TMC2    C4  854   4.652   1.025  17.642 -0.1028 -0.2375 -0.2059
   55TMC2    C5  855   4.589   0.914  17.590  0.0970 -0.3426  0.7132
   55TMC2    C6  856   4.561   0.895  17.459  0.1031  0.0127 -0.0915
   55TMC2     C  857   4.681   1.255  17.606  0.4863  0.0216 -0.0769
   55TMC2     O  858   4.680   1.265  17.726 -0.1137  0.3559  0.3916
   55TMC2     H  859   4.682   1.195  17.343  0.8581 -0.6836 -0.7776
   55TMC2    H1  860   4.684   1.038   0.004 -0.8025  0.6541 -0.1020
   55TMC2    H2  861   4.518   0.803  17.420  0.1764 -0.5416  1.1319
   55TMC2    C7  862   4.567   0.811  17.685  0.2834 -0.6465 -0.3507
   55TMC2    C8  863   4.589   0.961  17.230 -0.1881 -1.1789  0.2243
   55TMC2    O1  864   4.557   0.697  17.644 -0.2654  0.2122  0.2006
   55TMC2    O2  865   4.598   0.849  17.185 -0.7609  0.3007 -0.5907
   55TMC2    O5  866   4.579   1.079  17.158 -0.1690  0.0013  0.0485
   55TMC2    H5  867   4.562   1.162  17.207 -0.6257  1.1740 -2.0811
   56MPD2     C  868   4.679   1.581  17.445  0.3369 -0.6191  0.6464
   56MPD2    C1  869   4.672   1.502  17.554  0.6614  0.1877  0.0458
   56MPD2    C2  870   4.664   1.566  17.678  0.2696  0.2479 -0.2212
   56MPD2    C3  871   4.661   1.702  17.692  0.7966  0.3991  0.3913
   56MPD2    C4  872   4.677   1.783  17.580  0.8377  0.0641  0.3429
   56MPD2    C5  873   4.674   1.719  17.459  0.4605 -0.1045 -0.1069
   56MPD2     H  874   4.663   1.505   0.027  0.3464 -1.4237 -1.3461
   56MPD2    H1  875   4.695   1.890  17.587  1.3355 -0.0917  1.4025
   56MPD2    H2  876   4.686   1.533  17.348  1.0167 -0.6800  0.7252
   56MPD2    H3  877   4.688   1.784  17.373  0.9425 -0.7880 -0.5464
   56MPD2     N  878   4.642   1.749   0.080  0.0414  0.4561 -0.1469
   56MPD2    H5  879   4.638   1.689   0.161 -2.4471  0.1357 -0.5013
   56MPD2    N1  880   4.677   1.363  17.519 -0.6269 -0.1651  0.2043
   56MPD2    H7  881   4.669   1.342  17.420  0.0281 -0.1721  0.1526
   57TMC2    C1  882   3.774   1.487  13.977 -0.5215 -0.2902 -0.0127
   57TMC2    C2  883   3.901   1.445  14.017 -0.3374  0.9478  0.3891
   57TMC2    C3  884   3.971   1.372  13.921  0.1968  0.2196  0.2759
   57TMC2    C4  885   3.734   1.480  13.849 -0.5621 -1.2163  0.2118
   57TMC2    C5  886   3.809   1.419  13.753  0.1192 -0.1117 -0.4220
   57TMC2    C6  887   3.925   1.357  13.791 -0.9785 -0.5880 -0.8049
   57TMC2     C  888   3.687   1.558  14.066  0.0177  0.0859 -0.8179
   57TMC2     O  889   3.723   1.586  14.179 -0.6724 -0.2260  0.1892
   57TMC2     H  890   3.933   1.449  14.120  0.2640  0.5824  0.2188
   57TMC2    H1  891   3.647   1.530  13.806  2.3512  1.7221 -2.2108
   57TMC2    H2  892   3.986   1.300  13.722  0.3098  1.1693 -1.1226
   57TMC2    C7  893   3.755   1.420  13.613  0.0836 -0.2812 -0.4665
   57TMC2    C8  894   4.108   1.331  13.938  0.1413 -0.7007  0.9211
   57TMC2    O1  895   3.643   1.465  13.598 -0.3045 -0.3385  0.3693
   57TMC2    O2  896   4.168   1.284  13.844  0.1283 -0.3966  0.3138
   57TMC2    O5  897   4.153   1.397  14.038  0.6072  0.4689 -0.1744
   57TMC2    H5  898   4.099   1.410  14.119 -0.5220 -2.8042 -0.4135
   58MPD2     C  899   3.230   1.758  14.169 -0.2793 -1.1465  1.2091
   58MPD2    C1  900   3.345   1.772  14.238 -0.5445 -0.2170 -0.1576
   58MPD2    C2  901   3.457   1.703  14.193 -0.0286 -0.2297 -0.9997
   58MPD2    C3  902   3.455   1.623  14.079 -0.2010  0.2955 -0.7918
   58MPD2    C4  903   3.334   1.610  14.012  0.1267 -0.6646 -0.0680
   58MPD2    C5  904   3.221   1.676  14.064  0.5388 -0.1809 -0.0530
   58MPD2     H  905   3.547   1.713  14.252 -0.4015 -0.6483 -0.3436
   58MPD2    H1  906   3.324   1.566  13.913  0.9545 -0.8447 -0.0728
   58MPD2    H2  907   3.140   1.809  14.201  0.2501  0.0197  0.8453
   58MPD2    H3  908   3.124   1.658  14.020 -0.3699  1.1453  1.3913
   58MPD2     N  909   3.561   1.566  14.016 -0.7526 -0.2888  0.5405
   58MPD2    H5  910   3.545   1.522  13.926 -0.7709  0.3682  0.2204
   58MPD2    N1  911   3.361   1.841  14.358  0.2672 -0.5816  0.1315
   58MPD2    H7  912   3.432   1.810  14.423 -0.5341 -2.0680  0.3010
   59TMC2    C1  913   1.333   1.339  12.914  0.0158  0.3310  0.3642
   59TMC2    C2  914   1.435   1.247  12.894 -0.6196 -0.2095 -0.3247
   59TMC2    C3  915   1.441   1.185  12.776 -0.3849 -0.1092 -0.9528
   59TMC2    C4  916   1.230   1.354  12.823 -0.4922 -0.7553 -0.8610
   59TMC2    C5  917   1.241   1.293  12.700  0.5280 -0.7150 -0.2791
   59TMC2    C6  918   1.342   1.201  12.679  0.0050 -0.3020 -0.6207
   59TMC2     C  919   1.324   1.421  13.032 -0.2627  0.2755 -0.4152
   59TMC2     O  920   1.216   1.455  13.075  0.6912  0.2228  0.1235
   59TMC2     H  921   1.515   1.229  12.965 -1.1525  3.1623  1.1573
   59TMC2    H1  922   1.156   1.432  12.832 -0.9545 -1.2127 -0.7429
   59TMC2    H2  923   1.344   1.126  12.601 -2.4043  1.3309 -2.2573
   59TMC2    C7  924   1.165   1.323  12.581  0.3939  0.4799  0.4589
   59TMC2    C8  925   1.507   1.056  12.773 -0.5371 -0.8977  0.4919
   59TMC2    O1  926   1.183   1.236  12.495 -0.1202 -0.1139 -0.0727
   59TMC2    O2  927   1.524   0.987  12.871 -0.1427 -0.2933  0.0467
   59TMC2    O5  928   1.567   1.053  12.650  0.0967  0.5393  0.1306
   59TMC2    H5  929   1.546   1.133  12.596  3.0264  1.3647  0.2522
   60MPD2     C  930   1.384   1.560  13.296 -0.1408  0.3120  0.1983
   60MPD2    C1  931   1.477   1.523  13.200  0.3146 -0.3223 -0.2537
   60MPD2    C2  932   1.610   1.565  13.223 -0.5275  0.3615 -0.3390
   60MPD2    C3  933   1.648   1.635  13.334 -0.5619 -0.2075 -0.3581
   60MPD2    C4  934   1.555   1.661  13.430 -0.4287  0.4827  0.0962
   60MPD2    C5  935   1.421   1.630  13.406  0.2716 -0.2057  0.0037
   60MPD2     H  936   1.677   1.548  13.140 -0.3482 -1.8590  0.2662
   60MPD2    H1  937   1.576   1.712  13.523  0.7020  1.0537 -0.4704
   60MPD2    H2  938   1.281   1.528  13.283 -0.2918  0.0576  2.1210
   60MPD2    H3  939   1.346   1.653  13.481  1.8153 -1.6740  2.0247
   60MPD2     N  940   1.774   1.688  13.346 -0.5943  0.3180  0.5840
   60MPD2    H5  941   1.786   1.762  13.414 -3.9954  1.6733 -0.2658
   60MPD2    N1  942   1.451   1.446  13.081  0.3499  0.0330 -0.4359
   60MPD2    H7  943   1.529   1.436  13.018  1.3266  2.1056  0.4365
   61TMC2    C1  944   1.282   2.972  15.413 -0.9912 -0.0315  0.1981
   61TMC2    C2  945   1.228   2.910  15.521 -0.1359  0.0267  0.8124
   61TMC2    C3  946   1.127   2.981  15.581 -0.5579 -0.2604 -0.2642
   61TMC2    C4  947   1.260   3.097  15.372 -0.3214  0.3896  0.6884
   61TMC2    C5  948   1.177   3.170  15.455  0.2062  0.1786  0.3455
   61TMC2    C6  949   1.097   3.114  15.556 -0.2466  0.5853  0.0655
   61TMC2     C  950   1.385   2.902  15.338  0.0895  0.0231  0.3968
   61TMC2     O  951   1.427   2.796  15.381  0.3358 -0.2024 -0.0942
   61TMC2     H  952   1.248   2.808  15.554  1.0073 -0.5082 -1.5099
   61TMC2    H1  953   1.310   3.148  15.291  1.5444  2.1340  2.9308
   61TMC2    H2  954   1.027   3.169  15.618 -0.3147  1.6870 -0.9934
   61TMC2    C7  955   1.124   3.291  15.394  0.5735  0.2235 -0.4567
   61TMC2    C8  956   1.079   2.950  15.711  0.5853 -0.8463  0.2870
   61TMC2    O1  957   1.003   3.316  15.406 -0.7274 -0.4054  0.5076
   61TMC2    O2  958   1.057   3.035  15.799 -0.2016 -0.4081 -0.1228
   61TMC2    O5  959   1.050   2.820  15.715  0.6941 -0.6054  0.1603
   61TMC2    H5  960   1.042   2.772  15.630  1.3962 -0.2694 -0.0932
   62MPD2     C  961   1.580   2.820  15.127  0.0739 -0.5325 -0.1231
   62MPD2    C1  962   1.466   2.898  15.097 -0.1494 -0.1792  0.2916
   62MPD2    C2  963   1.443   2.925  14.959 -0.0184 -0.8898 -0.1262
   62MPD2    C3  964   1.537   2.884  14.868  0.0987  0.1045 -0.0524
   62MPD2    C4  965   1.651   2.820  14.899 -0.1695 -0.0401  0.2893
   62MPD2    C5  966   1.675   2.784  15.029  0.6995 -0.0871  0.2346
   62MPD2     H  967   1.354   2.978  14.928 -0.0369 -1.9304 -1.8570
   62MPD2    H1  968   1.707   2.762  14.827  0.7494  0.1622  0.8287
   62MPD2    H2  969   1.610   2.784  15.225 -3.4860 -3.2537 -0.0261
   62MPD2    H3  970   1.763   2.725  15.051 -0.5439 -1.7365  0.7426
   62MPD2     N  971   1.511   2.887  14.732  0.0701 -0.0490 -0.2230
   62MPD2    H5  972   1.581   2.856  14.666 -0.1289 -0.3490 -0.2948
   62MPD2    N1  973   1.380   2.942  15.203 -0.3708 -0.1526  0.1244
   62MPD2    H7  974   1.300   3.002  15.182 -1.7104 -1.7713  0.5789
   63TMC2    C1  975   4.434   3.119  10.094  0.9324  0.3176  0.1932
   63TMC2    C2  976   4.471   3.172  10.210  0.6996  0.2166 -0.5797
   63TMC2    C3  977   4.559   3.270  10.206  0.4062  0.4207  0.0379
   63TMC2    C4  978   4.480   3.170   9.976 -0.2843  0.5090  0.0095
   63TMC2    C5  979   4.571   3.272   9.978  0.0012  0.3272  0.4515
   63TMC2    C6  980   4.605   3.335  10.093  0.5413 -0.2522 -0.2318
   63TMC2     C  981   4.323   3.019  10.093  0.4162 -0.4806  0.2643
   63TMC2     O  982   4.250   3.031   9.996 -0.6585 -0.0465 -0.5372
   63TMC2     H  983   4.423   3.142  10.303 -3.6185  0.3121 -2.8100
   63TMC2    H1  984   4.449   3.113   9.888  0.9407 -0.5456  0.2589
   63TMC2    H2  985   4.679   3.414  10.094  0.9254 -0.6163  0.4752
   63TMC2    C7  986   4.580   3.348   9.852  0.5815 -0.2769 -0.4473
   63TMC2    C8  987   4.585   3.315  10.338 -0.0095 -0.4604 -0.2056
   63TMC2    O1  988   4.587   3.471   9.870  0.0866 -0.1677 -0.0271
   63TMC2    O2  989   4.592   3.236  10.435 -0.2615  0.1693  0.0414
   63TMC2    O5  990   4.518   3.429  10.333  0.1702 -0.8820  0.0004
   63TMC2    H5  991   4.486   3.462  10.247 -0.4010  0.2289  0.6310
   64MPD2     C  992   4.127   2.566  10.193 -0.5552  0.7095  0.2363
   64MPD2    C1  993   4.238   2.574  10.273 -0.5587  0.0998 -1.0164
   64MPD2    C2  994   4.299   2.700  10.278 -0.2113  0.1357  0.8093
   64MPD2    C3  995   4.264   2.806  10.188 -0.2176  0.3647 -0.3584
   64MPD2    C4  996   4.149   2.792  10.115 -0.1688  0.2015 -0.1789
   64MPD2    C5  997   4.077   2.669  10.120 -0.2417  0.1317  0.2109
   64MPD2     H  998   4.392   2.704  10.334 -0.4044  0.3451  1.1135
   64MPD2    H1  999   4.095   2.858  10.048  1.9959  1.4941 -0.6724
   64MPD2    H2 1000   4.072   2.473  10.197  0.2065  0.2483 -0.1614
   64MPD2    H3 1001   3.992   2.659  10.053  0.7090 -0.0751 -0.9679
   64MPD2     N 1002   4.343   2.919  10.184  0.0326 -0.3175 -0.0246
   64MPD2    H5 1003   4.418   2.933  10.252  0.9977 -0.8830 -0.9676
   64MPD2    N1 1004   4.294   2.464  10.345  0.7808  0.5840  0.1976
   64MPD2    H7 1005   4.384   2.480  10.389 -0.6477  0.1182  3.2665
   65TMC2    C1 1006   1.477   2.765  15.810  0.1432 -0.0434  0.0897
   65TMC2    C2 1007   1.557   2.726  15.707 -0.2772  0.2423 -0.8254
   65TMC2    C3 1008   1.621   2.825  15.637  0.5876  0.1352 -0.3915
   65TMC2    C4 1009   1.451   2.896  15.840  0.0687 -0.8391 -0.3829
   65TMC2    C5 1010   1.511   2.990  15.757  0.2802  0.1359  0.0784
   65TMC2    C6 1011   1.591   2.957  15.651 -0.0975  0.2836 -0.0630
   65TMC2     C 1012   1.380   2.665  15.871 -0.5813  0.3479  0.1197
   65TMC2     O 1013   1.315   2.702  15.967 -0.3302  0.2267 -0.3480
   65TMC2     H 1014   1.591   2.624  15.692  0.5802  0.4267 -0.1580
   65TMC2    H1 1015   1.401   2.932  15.929  0.3907 -0.5927 -0.3021
   65TMC2    H2 1016   1.647   3.028  15.591  0.1953 -0.1081 -0.2533
   65TMC2    C7 1017   1.453   3.118  15.751  0.4812  0.5190 -0.2045
   65TMC2    C8 1018   1.719   2.800  15.534 -0.2987  0.3881 -0.5167
   65TMC2    O1 1019   1.461   3.171  15.642  0.3663  0.4460  0.5986
   65TMC2    O2 1020   1.803   2.876  15.496 -0.1980 -0.1886 -0.6057
   65TMC2    O5 1021   1.673   2.687  15.469 -0.0325 -0.8117  0.4045
   65TMC2    H5 1022   1.587   2.657  15.504 -0.3858  0.5386  0.6926
   66MPD2     C 1023   1.202   2.439  15.940  0.2525  0.2645 -0.1235
   66MPD2    C1 1024   1.286   2.441  15.834 -0.1858  0.0582  0.5668
   66MPD2    C2 1025   1.278   2.334  15.742 -0.1674  0.0222 -0.3908
   66MPD2    C3 1026   1.200   2.222  15.769  0.4359  0.0385 -0.2950
   66MPD2    C4 1027   1.132   2.224  15.891  0.3159 -0.4754 -0.2126
   66MPD2    C5 1028   1.134   2.329  15.977  0.3950 -0.1349 -0.3709
   66MPD2     H 1029   1.345   2.342  15.657  0.6254  1.3249  0.3623
   66MPD2    H1 1030   1.086   2.131  15.921  1.1230 -0.1876  1.9405
   66MPD2    H2 1031   1.186   2.524  16.006  1.1445  1.7897 -1.8810
   66MPD2    H3 1032   1.090   2.319  16.075  0.3507  0.9965 -0.2794
   66MPD2     N 1033   1.188   2.109  15.690 -0.2888  0.5966 -0.1882
   66MPD2    H5 1034   1.127   2.034  15.723  1.5553 -0.0226  1.7800
   66MPD2    N1 1035   1.367   2.556  15.796 -0.0903 -0.2489 -0.6462
   66MPD2    H7 1036   1.409   2.547  15.704 -1.3829 -2.4981 -0.9960
   67TMC2    C1 1037   1.567   2.098  14.270 -0.5125 -0.7905  0.2877
   67TMC2    C2 1038   1.592   2.228  14.282 -0.1831  0.8871 -0.0491
   67TMC2    C3 1039   1.631   2.269  14.402 -0.3179 -0.2003 -0.6183
   67TMC2    C4 1040   1.574   2.009  14.366 -0.1210 -0.0683  0.0845
   67TMC2    C5 1041   1.616   2.057  14.488  0.1413 -0.0113 -0.6941
   67TMC2    C6 1042   1.648   2.183  14.510 -0.4728 -0.3629  0.6723
   67TMC2     C 1043   1.529   2.046  14.136 -0.2774 -0.7820  0.4404
   67TMC2     O 1044   1.554   1.927  14.122 -0.4982  0.2146  0.2205
   67TMC2     H 1045   1.594   2.292  14.194 -1.4552  0.4173 -0.4216
   67TMC2    H1 1046   1.538   1.907  14.351  0.1966 -0.0955 -0.5103
   67TMC2    H2 1047   1.689   2.221  14.603 -1.7331  0.8938  0.7228
   67TMC2    C7 1048   1.658   1.957  14.582  0.3623  0.4934  0.9174
   67TMC2    C8 1049   1.647   2.413  14.426  0.9104  0.1252  0.5892
   67TMC2    O1 1050   1.658   1.843  14.537 -0.8282 -0.0243  0.6347
   67TMC2    O2 1051   1.605   2.463  14.532  0.4326  0.3330  1.0502
   67TMC2    O5 1052   1.710   2.479  14.322  0.0061 -0.1797 -0.0078
   67TMC2    H5 1053   1.735   2.429  14.241  2.9876 -0.8381  1.3352
   68MPD2     C 1054   1.423   1.978  13.867  0.0147 -0.0652  0.9021
   68MPD2    C1 1055   1.423   2.105  13.924  0.3423 -0.8084 -0.4078
   68MPD2    C2 1056   1.362   2.209  13.859 -0.2251  0.5198 -0.0633
   68MPD2    C3 1057   1.312   2.189  13.733  0.6805  0.6864 -0.1373
   68MPD2    C4 1058   1.330   2.073  13.669  0.9653 -0.2597  0.1115
   68MPD2    C5 1059   1.368   1.966  13.745  0.1772 -0.3197 -0.1453
   68MPD2     H 1060   1.340   2.302  13.911 -0.1628  0.1104  0.6986
   68MPD2    H1 1061   1.288   2.054  13.571  1.0683 -0.1898  0.0542
   68MPD2    H2 1062   1.476   1.894  13.910  0.9384  0.6385  1.1548
   68MPD2    H3 1063   1.365   1.865  13.705 -1.1341 -0.0796 -0.6529
   68MPD2     N 1064   1.260   2.295  13.649 -0.7017  0.1594  0.4657
   68MPD2    H5 1065   1.225   2.289  13.554 -0.4985 -0.1392  0.4077
   68MPD2    N1 1066   1.481   2.136  14.049 -0.1184 -0.7566 -0.2773
   68MPD2    H7 1067   1.479   2.234  14.078  0.7470 -0.6617 -0.5458
   69TMC2    C1 1068   4.278   2.905  12.443  0.2613  0.4573 -0.2133
   69TMC2    C2 1069   4.163   2.968  12.474 -0.9990  0.6986 -0.8400
   69TMC2    C3 1070   4.081   3.015  12.373 -0.6889  0.3647  0.1866
   69TMC2    C4 1071   4.319   2.876  12.314  0.3799 -0.6886 -0.3787
   69TMC2    C5 1072   4.235   2.915  12.213  0.2738  0.1023  0.7931
   69TMC2    C6 1073   4.112   2.983  12.248 -0.2060 -0.0660 -0.0021
   69TMC2     C 1074   4.348   2.823  12.548 -0.4721  0.4431 -0.1521
   69TMC2     O 1075   4.279   2.816  12.652 -0.3211  0.3311 -0.2020
   69TMC2     H 1076   4.146   2.988  12.579  1.3422  0.5253 -0.4142
   69TMC2    H1 1077   4.416   2.836  12.285 -0.0934 -0.8042 -1.7998
   69TMC2    H2 1078   4.042   3.000  12.168 -0.4847 -0.0319  0.2488
   69TMC2    C7 1079   4.290   2.892  12.083 -0.2949  0.7197 -0.1732
   69TMC2    C8 1080   3.972   3.094  12.417 -0.0351  0.4910  0.1777
   69TMC2    O1 1081   4.409   2.916  12.082 -0.3553 -0.4116  0.0838
   69TMC2    O2 1082   3.947   3.105  12.531  0.1152  0.0664  0.2770
   69TMC2    O5 1083   3.904   3.145  12.313 -0.4145 -0.1711  0.3919
   69TMC2    H5 1084   3.937   3.144  12.221  2.2760  1.0865  1.3502
   70MPD2     C 1085   4.680   2.675  12.584  0.0169  0.4998 -0.2563
   70MPD2    C1 1086   4.549   2.704  12.608  0.2433  0.6140 -0.1191
   70MPD2    C2 1087   4.490   2.631  12.719 -0.4579 -0.2589  0.0065
   70MPD2    C3 1088   4.557   2.531  12.791 -0.2568  0.1295 -0.2274
   70MPD2    C4 1089   4.691   2.514  12.764  0.6205  0.4061 -0.6962
   70MPD2    C5 1090   0.020   2.587  12.666 -0.8564 -0.3332  0.5792
   70MPD2     H 1091   4.383   2.645  12.733 -0.1833  1.8049 -0.0569
   70MPD2    H1 1092   0.010   2.450  12.833  1.3439  1.4696 -0.2772
   70MPD2    H2 1093   0.006   2.722  12.508 -0.0430 -0.5667 -0.9648
   70MPD2    H3 1094   0.124   2.562  12.648 -1.7292 -1.6285 -2.6811
   70MPD2     N 1095   4.497   2.447  12.882 -0.0436 -0.0730 -0.0767
   70MPD2    H5 1096   4.561   2.392  12.938  1.9575  1.4840 -0.7853
   70MPD2    N1 1097   4.481   2.799  12.533  0.0237 -0.8733  0.7964
   70MPD2    H7 1098   4.520   2.859  12.461 -0.0685 -0.8408  0.7735
   71TMC2    C1 1099   1.484   4.092   1.348  0.4164  0.3341  0.1730
   71TMC2    C2 1100   1.605   4.070   1.421 -0.0158  0.1699 -0.1190
   71TMC2    C3 1101   1.612   4.110   1.551  0.0826  0.2431 -0.3268
   71TMC2    C4 1102   1.380   4.161   1.403  0.4384  0.7494 -1.1285
   71TMC2    C5 1103   1.395   4.206   1.531  0.2319  0.2818 -0.7925
   71TMC2    C6 1104   1.509   4.188   1.605 -0.1592  0.1060  0.3333
   71TMC2     C 1105   1.457   4.018   1.223 -0.0967 -0.1509  0.7295
   71TMC2     O 1106   1.354   4.043   1.159  0.1231  0.5600  0.0605
   71TMC2     H 1107   1.692   4.030   1.370 -1.1804 -1.6244 -0.7018
   71TMC2    H1 1108   1.294   4.186   1.342 -0.9501  1.6286  1.1631
   71TMC2    H2 1109   1.504   4.243   1.699  1.5326  0.3151  0.2936
   71TMC2    C7 1110   1.290   4.280   1.601  0.5180 -0.9724 -1.0602
   71TMC2    C8 1111   1.745   4.128   1.605  0.5114  0.1404 -0.1166
   71TMC2    O1 1112   1.293   4.303   1.720  0.0259 -0.0334  0.4650
   71TMC2    O2 1113   1.842   4.144   1.531  0.2147  0.8953  0.3567
   71TMC2    O5 1114   1.735   4.168   1.728  0.1335 -0.1707  0.4891
   71TMC2    H5 1115   1.651   4.139   1.772  0.5907  1.7193  2.5979
   72MPD2     C 1116   1.645   3.709   0.856 -0.3600 -0.9001 -0.1607
   72MPD2    C1 1117   1.542   3.800   0.857  0.2462 -0.6029  0.6582
   72MPD2    C2 1118   1.506   3.870   0.976  0.2190  0.0777 -0.5165
   72MPD2    C3 1119   1.578   3.841   1.094 -0.7770  0.4549 -0.2293
   72MPD2    C4 1120   1.673   3.749   1.090  0.3606 -0.1462  0.3435
   72MPD2    C5 1121   1.703   3.680   0.978 -0.3617  0.5914  0.3590
   72MPD2     H 1122   1.435   3.952   0.975 -1.1500 -1.0545  1.7784
   72MPD2    H1 1123   1.731   3.743   1.181  0.5446 -1.8998  0.0997
   72MPD2    H2 1124   1.684   3.667   0.764  1.1880 -2.4629  1.2050
   72MPD2    H3 1125   1.785   3.610   0.983 -1.8515 -1.2304 -0.6274
   72MPD2     N 1126   1.545   3.911   1.212  0.5400  0.2491  0.7834
   72MPD2    H5 1127   1.605   3.893   1.293 -1.7894 -0.1659  2.4035
   72MPD2    N1 1128   1.473   3.835   0.745 -0.0252 -0.2408  0.5464
   72MPD2    H7 1129   1.409   3.914   0.745  0.7784  0.3996  0.2233
   73TMC2    C1 1130   0.657   0.865  14.570 -0.0396 -0.3503 -0.5419
   73TMC2    C2 1131   0.733   0.928  14.663 -0.0260 -0.8224 -0.1714
   73TMC2    C3 1132   0.811   0.850  14.742  0.2930  0.2358  0.0696
   73TMC2    C4 1133   0.647   0.728  14.563 -0.2312  0.3009  0.7421
   73TMC2    C5 1134   0.745   0.656  14.624 -1.1444 -0.4671  0.0464
   73TMC2    C6 1135   0.825   0.713  14.722  0.0377 -0.3747  0.1334
   73TMC2     C 1136   0.654   0.925  14.437 -0.1407  0.4275 -0.3192
   73TMC2     O 1137   0.681   0.839  14.354 -0.9208 -0.0059  0.2836
   73TMC2     H 1138   0.747   1.035  14.654 -2.7394 -0.4049  0.5675
   73TMC2    H1 1139   0.583   0.672  14.496  0.3259  1.2403 -0.5789
   73TMC2    H2 1140   0.896   0.650  14.773 -2.0183 -0.7463  2.5099
   73TMC2    C7 1141   0.817   0.566  14.538  0.7154 -0.0540  0.6339
   73TMC2    C8 1142   0.904   0.911  14.831 -0.0548  0.1931  0.5493
   73TMC2    O1 1143   0.896   0.490  14.597  0.0114  0.2605 -0.2313
   73TMC2    O2 1144   0.945   1.026  14.822  0.0067  0.0555  0.1029
   73TMC2    O5 1145   0.934   0.814  14.920  0.1446 -0.0472 -1.3145
   73TMC2    H5 1146   0.873   0.737  14.917  0.2608 -0.1434 -1.1707
   74MPD2     C 1147   0.562   1.255  14.052 -0.6452  0.6511 -0.3418
   74MPD2    C1 1148   0.637   1.143  14.049  0.2623 -0.0494 -0.6857
   74MPD2    C2 1149   0.660   1.080  14.171  0.0250  0.4714  0.0073
   74MPD2    C3 1150   0.616   1.130  14.293 -0.6874 -0.6056 -0.3365
   74MPD2    C4 1151   0.549   1.250  14.290 -0.7935  0.8583  0.2451
   74MPD2    C5 1152   0.522   1.316  14.168  0.2414 -0.5471 -0.3199
   74MPD2     H 1153   0.704   0.981  14.170  1.1866  0.9956 -0.2316
   74MPD2    H1 1154   0.518   1.296  14.383 -1.8913  0.3897  0.1057
   74MPD2    H2 1155   0.532   1.310  13.963  1.3933 -0.5057 -1.7580
   74MPD2    H3 1156   0.465   1.408  14.167  1.0635  0.0299  3.5389
   74MPD2     N 1157   0.623   1.060  14.422  0.3087  0.3521  0.3126
   74MPD2    H5 1158   0.584   1.101  14.506  1.6861  1.1157  0.5879
   74MPD2    N1 1159   0.663   1.085  13.929 -0.6026 -0.4970  0.2038
   74MPD2    H7 1160   0.636   1.135  13.844 -1.2912  1.6305  1.6888
   75TMC2    C1 1161   1.191   2.504  13.590  0.7083  0.7242  0.0921
   75TMC2    C2 1162   1.233   2.633  13.581 -0.1112 -0.2972  0.6272
   75TMC2    C3 1163   1.192   2.709  13.469  0.8343 -0.1409  0.3616
   75TMC2    C4 1164   1.109   2.444  13.497  0.3236 -0.0588 -0.3268
   75TMC2    C5 1165   1.061   2.525  13.396  0.5606 -0.5314 -0.8457
   75TMC2    C6 1166   1.106   2.657  13.374 -0.9160 -0.1697 -0.0814
   75TMC2     C 1167   1.253   2.424  13.693 -0.0328 -0.2742  0.1880
   75TMC2     O 1168   1.298   2.479  13.789 -0.4234  0.2302 -0.4719
   75TMC2     H 1169   1.283   2.683  13.663 -0.8248 -2.7190  2.5193
   75TMC2    H1 1170   1.069   2.344  13.510  1.6811 -0.5982 -0.2720
   75TMC2    H2 1171   1.081   2.709  13.283 -0.2992  0.2480 -0.0139
   75TMC2    C7 1172   0.937   2.480  13.335  0.3993  0.3536  0.0639
   75TMC2    C8 1173   1.261   2.829  13.448 -0.0681  0.4124 -0.4311
   75TMC2    O1 1174   0.890   2.368  13.358 -0.3236  0.3383  0.0927
   75TMC2    O2 1175   1.384   2.830  13.452  0.1032  0.0362 -0.4707
   75TMC2    O5 1176   1.177   2.911  13.372  0.4092 -0.4748  0.4274
   75TMC2    H5 1177   1.083   2.893  13.394 -0.7812  2.4095 -2.3435
   76TMC2    C1 1178   0.111   1.751  12.012  0.2247  0.1383 -0.5992
   76TMC2    C2 1179   0.036   1.653  11.955 -1.0241  0.2045  0.2156
   76TMC2    C3 1180   0.050   1.524  12.003 -0.1893  0.1805  0.5800
   76TMC2    C4 1181   0.185   1.727  12.123 -0.0834 -0.1052 -0.7161
   76TMC2    C5 1182   0.196   1.602  12.180 -0.8153  0.1189 -0.0739
   76TMC2    C6 1183   0.135   1.501  12.112 -0.1210 -0.7961 -0.0122
   76TMC2     C 1184   0.131   1.876  11.937  0.4170  0.2113  0.4449
   76TMC2     O 1185   0.053   1.911  11.858 -0.1710 -0.1019 -0.3335
   76TMC2     H 1186   4.734   1.681  11.857  2.4068  1.8127 -0.6377
   76TMC2    H1 1187   0.228   1.809  12.178 -3.0944  0.5541  0.6422
   76TMC2    H2 1188   0.139   1.397  12.143  1.2256 -0.4418  1.0003
   76TMC2    C7 1189   0.299   1.564  12.276 -0.0241 -0.3762  0.1485
   76TMC2    C8 1190   4.715   1.404  11.955  0.3321 -0.7403  0.2055
   76TMC2    O1 1191   0.333   1.447  12.267 -0.1630 -0.6122 -0.4839
   76TMC2    O2 1192   0.013   1.288  11.986  0.1032 -0.5540  0.8237
   76TMC2    O5 1193   4.598   1.449  11.923  0.6031  0.2598 -0.5603
   76TMC2    H5 1194   4.603   1.547  11.916  0.8311  0.2494 -0.5567
   77MPD2     C 1195   0.379   2.316  11.873 -0.0306 -0.3200 -0.3670
   77MPD2    C1 1196   0.265   2.274  11.803 -0.5018  0.0686  0.1472
   77MPD2    C2 1197   0.216   2.152  11.831  0.1675  0.1008  0.9559
   77MPD2    C3 1198   0.281   2.069  11.924  0.7082 -0.4166  0.0642
   77MPD2    C4 1199   0.395   2.111  11.983 -0.3317  0.0589 -0.0148
   77MPD2    C5 1200   0.444   2.238  11.961  0.4654  0.0537  0.6961
   77MPD2     H 1201   0.120   2.121  11.791  0.2714 -1.0612  1.6104
   77MPD2    H1 1202   0.452   2.050  12.051  0.4405  0.5968 -0.1693
   77MPD2    H2 1203   0.432   2.411  11.866 -1.6852  0.7296  1.5231
   77MPD2    H3 1204   0.530   2.274  12.016  1.5999 -0.1084 -0.9645
   77MPD2     N 1205   0.247   1.938  11.963 -0.5687 -0.0609 -0.4527
   77MPD2    H5 1206   0.308   1.894  12.032 -0.5522  0.2817 -0.2486
   77MPD2    N1 1207   0.193   2.365  11.724  0.6721 -0.2871 -0.4500
   77MPD2    H7 1208   0.218   2.463  11.738 -1.1915  0.3745 -1.6799
   78TMC2    C1 1209   2.337   2.286   1.572  0.5284  0.0988 -0.0578
   78TMC2    C2 1210   2.419   2.176   1.558  0.2124 -0.0180  0.3522
   78TMC2    C3 1211   2.507   2.171   1.454 -0.6111  0.2439  0.2227
   78TMC2    C4 1212   2.338   2.387   1.482 -0.5662 -0.2456  0.0775
   78TMC2    C5 1213   2.436   2.383   1.386 -0.5165 -0.0149 -0.0319
   78TMC2    C6 1214   2.512   2.273   1.364 -0.7883 -0.1083  0.3925
   78TMC2     C 1215   2.215   2.271   1.659  0.4463 -0.2373  0.3241
   78TMC2     O 1216   2.177   2.158   1.688 -1.0401  0.0927 -0.4591
   78TMC2     H 1217   2.402   2.094   1.626  0.4432  1.3235  2.0472
   78TMC2    H1 1218   2.273   2.472   1.499  1.2163  1.3061 -0.7598
   78TMC2    H2 1219   2.583   2.286   1.284  1.4261 -1.8524  2.0784
   78TMC2    C7 1220   2.414   2.490   1.294  0.2351  0.0405  0.2178
   78TMC2    C8 1221   2.579   2.057   1.415 -0.1273 -0.9622  0.7117
   78TMC2    O1 1222   2.371   2.591   1.343  1.2852  0.4505  0.6823
   78TMC2    O2 1223   2.591   2.012   1.302  0.3430 -0.3058 -0.1828
   78TMC2    O5 1224   2.600   1.981   1.524  0.3426  0.1049  0.1433
   78TMC2    H5 1225   2.596   2.028   1.610 -0.4051 -1.2917  0.8711
   79MPD1     C 1226   1.856   2.504   1.951 -0.3011 -0.4460 -0.2404
   79MPD1    C1 1227   1.860   2.374   1.907 -0.8187 -0.2071 -0.0397
   79MPD1    C2 1228   1.963   2.335   1.827 -0.4926 -0.3954 -0.4634
   79MPD1    C3 1229   2.051   2.427   1.781  0.2021 -0.0948  0.0861
   79MPD1    C4 1230   2.046   2.559   1.812  0.1862 -0.0984 -0.1372
   79MPD1    C5 1231   1.952   2.595   1.907  0.0395 -0.3029 -0.3720
   79MPD1     H 1232   1.982   2.230   1.806  1.5205 -0.4288  1.5588
   79MPD1    H1 1233   2.111   2.639   1.780  0.6434 -0.1018  0.7694
   79MPD1    H2 1234   1.798   2.535   2.036  0.3103 -1.9493  0.7148
   79MPD1    H3 1235   1.960   2.694   1.951  0.6937 -1.2018  1.5215
   79MPD1     N 1236   2.171   2.391   1.706 -0.0819  0.6152  0.8253
   79MPD1    H5 1237   2.227   2.475   1.697  1.6428 -0.6184  0.1126
   79MPD1    N1 1238   1.780   2.280   1.969 -0.4937 -0.0176  0.2053
   79MPD1    H6 1239   1.692   2.324   1.994 -1.2615 -1.4494  0.0435
   79MPD1    H7 1240   1.755   2.193   1.922 -2.2206  0.2595  0.6141
   80TMC2    C1 1241   3.694   2.176  11.805 -0.2055 -0.0204 -0.0240
   80TMC2    C2 1242   3.755   2.112  11.706 -0.2607  0.3806 -0.4089
   80TMC2    C3 1243   3.682   2.097  11.591  0.6726 -0.0117  0.5189
   80TMC2    C4 1244   3.561   2.216  11.793 -0.6206  0.1048 -0.2399
   80TMC2    C5 1245   3.497   2.215  11.671 -0.1489  0.1745 -0.2648
   80TMC2    C6 1246   3.556   2.148  11.565  0.2259  0.3090  0.4266
   80TMC2     C 1247   3.767   2.176  11.932  0.7458 -0.4078  0.5218
   80TMC2     O 1248   3.838   2.073  11.957 -0.8881 -0.8364  0.6492
   80TMC2     H 1249   3.857   2.085  11.731 -0.3604 -0.3690 -0.8183
   80TMC2    H1 1250   3.504   2.259  11.874  1.2349 -1.4718  1.9020
   80TMC2    H2 1251   3.498   2.111  11.481  0.3475 -0.8948  0.8709
   80TMC2    C7 1252   3.353   2.192  11.665  0.6411 -0.2952  0.3327
   80TMC2    C8 1253   3.736   1.999  11.496 -0.3676 -0.1849 -0.6650
   80TMC2    O1 1254   3.284   2.209  11.562 -0.2551  0.2656 -0.2250
   80TMC2    O2 1255   3.692   2.003  11.380  0.1979  0.2298  0.3910
   80TMC2    O5 1256   3.761   1.889  11.571  0.3055  0.3913  0.0276
   80TMC2    H5 1257   3.739   1.920  11.661 -2.0732 -0.0142 -0.4232
   81MPD2     C 1258   3.837   2.213  12.227  0.8670  0.3337  0.5655
   81MPD2    C1 1259   3.749   2.295  12.155  0.0769 -0.8188  0.4526
   81MPD2    C2 1260   3.675   2.391  12.223  0.2941  0.5409 -0.6133
   81MPD2    C3 1261   3.686   2.406  12.365 -0.2054 -0.1282 -0.8415
   81MPD2    C4 1262   3.790   2.336  12.432 -0.0429  0.2788  0.2327
   81MPD2    C5 1263   3.867   2.246  12.362 -0.0368  0.0704 -0.5439
   81MPD2     H 1264   3.610   2.456  12.166 -0.6525 -2.4057 -2.8849
   81MPD2    H1 1265   3.813   2.357  12.536 -1.3223 -0.6810  0.7108
   81MPD2    H2 1266   3.881   2.125  12.182  0.7374  0.6930 -0.2665
   81MPD2    H3 1267   3.928   2.175  12.416  1.2851  1.0587 -0.7341
   81MPD2     N 1268   3.600   2.498  12.433 -0.7806 -0.1983 -0.0035
   81MPD2    H5 1269   3.605   2.499  12.534  0.9936  0.9130 -0.0962
   81MPD2    N1 1270   3.725   2.280  12.014  0.2129  0.2790 -0.5300
   81MPD2    H7 1271   3.667   2.354  11.975 -0.7292 -1.8152 -3.1375
   82TMC2    C1 1272   0.892   1.820  10.688 -0.2412 -0.5483 -0.0192
   82TMC2    C2 1273   1.019   1.875  10.690  0.4433  0.0867 -0.2850
   82TMC2    C3 1274   1.114   1.812  10.753  0.1658 -0.0741 -0.3056
   82TMC2    C4 1275   0.883   1.693  10.717 -0.4979 -0.0947  0.7525
   82TMC2    C5 1276   0.976   1.631  10.792 -0.0966 -0.3652  0.1682
   82TMC2    C6 1277   1.100   1.690  10.815 -0.5285 -0.7691 -0.3210
   82TMC2     C 1278   0.803   1.880  10.596 -0.2230  0.0377 -1.0231
   82TMC2     O 1279   0.832   1.989  10.553 -0.2763 -0.3853 -0.6937
   82TMC2     H 1280   1.034   1.980  10.670  2.9027  0.3586  2.9703
   82TMC2    H1 1281   0.789   1.640  10.730  0.5914 -2.0019  0.9215
   82TMC2    H2 1282   1.179   1.636  10.865 -0.2610  0.5758  0.7092
   82TMC2    C7 1283   0.946   1.504  10.867  0.6802  0.2113  0.5744
   82TMC2    C8 1284   1.241   1.876  10.780  0.0631 -0.0757 -0.7896
   82TMC2    O1 1285   1.022   1.485  10.963  0.3001 -0.2182  0.2958
   82TMC2    O2 1286   1.300   1.864  10.887 -0.0150  0.3791  0.1375
   82TMC2    O5 1287   1.295   1.883  10.657  0.5880  0.1206  0.1958
   82TMC2    H5 1288   1.247   1.845  10.581  1.6863 -3.0354  1.0533
   83MPD2     C 1289   0.335   1.881  10.373  0.3735  0.0341  0.0957
   83MPD2    C1 1290   0.423   1.979  10.393  0.5974 -0.3272  0.3427
   83MPD2    C2 1291   0.551   1.960  10.449  0.1831  0.4675 -0.5354
   83MPD2    C3 1292   0.575   1.839  10.511  0.1034  0.1709 -0.7789
   83MPD2    C4 1293   0.478   1.748  10.500  0.2350 -0.6254 -0.2156
   83MPD2    C5 1294   0.367   1.761  10.424 -0.5269  0.3205  0.5434
   83MPD2     H 1295   0.624   2.040  10.452  2.3528 -1.5014 -0.5450
   83MPD2    H1 1296   0.494   1.648  10.540  0.4880 -0.2902  0.5150
   83MPD2    H2 1297   0.241   1.895  10.320  0.4224  0.3082  0.0820
   83MPD2    H3 1298   0.305   1.674  10.404  0.1356 -0.4527  1.8670
   83MPD2     N 1299   0.694   1.801  10.585 -0.6140 -0.0438  0.8667
   83MPD2    H5 1300   0.702   1.712  10.631 -0.5676 -0.4127  0.1463
   83MPD2    N1 1301   0.379   2.105  10.347  0.3454 -0.7597  0.3414
   83MPD2    H7 1302   0.297   2.106  10.288  0.5929  4.6313  0.1437
   84TMC2    C1 1303   2.903   0.810  10.894 -0.0891  0.2851 -0.3106
   84TMC2    C2 1304   3.028   0.833  10.857  0.4877  0.2003  0.0463
   84TMC2    C3 1305   3.092   0.740  10.783  0.0674 -0.5489 -0.1089
   84TMC2    C4 1306   2.837   0.689  10.856  0.3318 -0.8338 -0.0865
   84TMC2    C5 1307   2.911   0.600  10.785 -0.1018  0.5636 -0.6359
   84TMC2    C6 1308   3.038   0.624  10.735 -0.3074 -0.3325 -0.4362
   84TMC2     C 1309   2.824   0.915  10.955 -0.1593 -0.0867  0.4058
   84TMC2     O 1310   2.713   0.890  10.996  0.7971 -0.0212  0.4281
   84TMC2     H 1311   3.086   0.919  10.887 -0.0982  0.5372  0.2000
   84TMC2    H1 1312   2.730   0.676  10.869  0.7474 -3.2264  0.8740
   84TMC2    H2 1313   3.099   0.544  10.693 -1.6186 -2.4017  1.5720
   84TMC2    C7 1314   2.848   0.491  10.715  0.1391  0.1689  1.2110
   84TMC2    C8 1315   3.232   0.752  10.760 -0.0541  0.0154  0.9991
   84TMC2    O1 1316   2.737   0.451  10.754 -0.6475 -0.3414  0.0670
   84TMC2    O2 1317   3.314   0.797  10.841  0.0410  0.0199 -0.0901
   84TMC2    O5 1318   3.247   0.750  10.619 -0.0128 -0.0893  0.3953
   84TMC2    H5 1319   3.166   0.756  10.565  0.4543  0.1545 -0.2646
   85TMC2    C1 1320   3.596   4.371  15.760 -0.0891 -0.0932 -0.3393
   85TMC2    C2 1321   3.532   4.298  15.664 -0.2999  0.7030 -0.5424
   85TMC2    C3 1322   3.528   4.343  15.531 -0.6196  0.4890 -0.4735
   85TMC2    C4 1323   3.649   4.493  15.737  0.5963  0.0156  0.4308
   85TMC2    C5 1324   3.637   4.532  15.602  0.5199  0.1465 -0.5212
   85TMC2    C6 1325   3.576   4.466  15.499  0.1751 -0.0046  0.0582
   85TMC2     C 1326   3.586   4.325  15.899  0.1164 -0.1898 -0.2736
   85TMC2     O 1327   3.580   4.415  15.984 -0.6890 -0.0246 -0.2468
   85TMC2     H 1328   3.472   4.212  15.693  2.5985 -1.1665 -0.1014
   85TMC2    H1 1329   3.720   4.533  15.808 -0.3688 -2.2039  2.6401
   85TMC2    H2 1330   3.581   4.502  15.397 -0.5275  0.4042  0.1672
   85TMC2    C7 1331   3.708   4.651  15.567 -0.0298  0.0848  0.0039
   85TMC2    C8 1332   3.485   4.257  15.424 -0.7148 -0.1556  0.1789
   85TMC2    O1 1333   3.747   4.664  15.450 -0.0927 -1.2861 -0.4424
   85TMC2    O2 1334   3.444   4.311  15.320  0.4964 -0.1625 -0.1744
   85TMC2    O5 1335   3.558   4.143  15.442 -0.0652  0.1776  0.1824
   85TMC2    H5 1336   3.612   4.143  15.524 -4.0269  1.0195  2.7951
   86MPD2     C 1337   3.535   3.982  16.265 -0.1465  0.1915  0.2328
   86MPD2    C1 1338   3.532   3.913  16.145  0.0738  0.1544  0.4119
   86MPD2    C2 1339   3.550   3.985  16.028  0.1117  0.1503  0.0157
   86MPD2    C3 1340   3.556   4.123  16.035 -0.2575  0.3098  0.5039
   86MPD2    C4 1341   3.554   4.191  16.155 -0.5365 -0.3046  0.3413
   86MPD2    C5 1342   3.551   4.118  16.276 -0.8810 -0.3952 -0.0145
   86MPD2     H 1343   3.565   3.938  15.931 -1.3938  1.0604 -0.6714
   86MPD2    H1 1344   3.575   4.296  16.171  0.9534 -0.4398 -0.6841
   86MPD2    H2 1345   3.516   3.928  16.357 -0.6125 -1.3311 -0.7633
   86MPD2    H3 1346   3.539   4.170  16.371 -0.2558 -0.0847 -0.1025
   86MPD2     N 1347   3.589   4.188  15.914  0.3807 -0.1119 -0.1264
   86MPD2    H5 1348   3.598   4.136  15.827  2.0759 -0.0356  0.0136
   86MPD2    N1 1349   3.505   3.776  16.129 -0.0619 -0.0028  0.0322
   86MPD2    H7 1350   3.540   3.742  16.040 -0.4541 -2.2613  0.7532
   87TMC2    C1 1351   1.797   1.997   1.131  0.1761 -0.1447 -0.1796
   87TMC2    C2 1352   1.929   2.026   1.089 -0.4162 -0.6493  0.6881
   87TMC2    C3 1353   2.000   2.111   1.162 -0.0485  0.0070 -1.0770
   87TMC2    C4 1354   1.741   2.065   1.237 -0.7637  0.8354 -0.4050
   87TMC2    C5 1355   1.817   2.152   1.304 -0.0783 -0.4441 -0.1447
   87TMC2    C6 1356   1.950   2.172   1.275  0.1528  0.6708  0.4542
   87TMC2     C 1357   1.697   1.948   1.028  0.3621  0.0736 -0.3711
   87TMC2     O 1358   1.737   1.960   0.914  0.1595  0.1303 -0.2504
   87TMC2     H 1359   1.965   1.967   1.005 -0.8582  0.9985 -0.6548
   87TMC2    H1 1360   1.634   2.070   1.249 -0.9310  1.7970 -2.3311
   87TMC2    H2 1361   2.013   2.235   1.336  2.5024 -1.1523 -0.0769
   87TMC2    C7 1362   1.762   2.238   1.409 -0.8248  0.1184  0.1313
   87TMC2    C8 1363   2.141   2.088   1.171 -1.0421 -0.0864  0.3625
   87TMC2    O1 1364   1.837   2.279   1.496 -0.7610  0.1750  0.3684
   87TMC2    O2 1365   2.211   2.097   1.268 -0.5989 -0.0164  0.8364
   87TMC2    O5 1366   2.186   2.066   1.051 -0.2511  0.2768  0.0643
   87TMC2    H5 1367   2.110   2.086   0.993 -1.0782  0.0429  1.0793
   88MPD2     C 1368   1.627   2.448   1.566 -0.7079 -0.4756  0.9609
   88MPD2    C1 1369   1.593   2.412   1.431 -0.3065  0.7892  0.1891
   88MPD2    C2 1370   1.497   2.485   1.366  0.3153  0.1908 -0.0332
   88MPD2    C3 1371   1.433   2.595   1.426 -0.5318  0.4436  0.1606
   88MPD2    C4 1372   1.469   2.619   1.557 -0.0135 -0.1702 -0.3116
   88MPD2    C5 1373   1.564   2.552   1.626 -0.1661  0.4405 -0.6782
   88MPD2     H 1374   1.478   2.464   1.261  1.1752  0.9763 -0.3453
   88MPD2    H1 1375   1.420   2.700   1.609  0.0638 -1.7276  2.1550
   88MPD2    H2 1376   1.702   2.391   1.620  0.1023 -0.1900  0.1361
   88MPD2    H3 1377   1.608   2.580   1.721 -4.8769  0.5552  1.4665
   88MPD2     N 1378   1.358   2.686   1.347 -0.6722 -0.5235  0.3246
   88MPD2    H5 1379   1.340   2.772   1.398 -3.4286  0.4714 -2.3411
   88MPD2    N1 1380   1.658   2.312   1.357 -0.2928  0.1581 -0.1015
   88MPD2    H7 1381   1.646   2.300   1.256  2.2307  3.6437 -0.8312
   89TMC2    C1 1382   2.219   0.595   1.287 -0.6980  0.4772 -0.1891
   89TMC2    C2 1383   2.313   0.549   1.371 -0.1087  0.3753 -0.4814
   89TMC2    C3 1384   2.443   0.538   1.335  0.0897 -0.5674 -0.4496
   89TMC2    C4 1385   2.254   0.645   1.166 -0.4281  0.1432  0.2668
   89TMC2    C5 1386   2.388   0.640   1.138  0.2588  0.3987 -1.0357
   89TMC2    C6 1387   2.486   0.581   1.214 -0.0415 -0.0055 -0.6117
   89TMC2     C 1388   2.077   0.608   1.320 -0.4917  0.2695 -0.1943
   89TMC2     O 1389   2.006   0.684   1.260 -0.4766  0.2867 -0.0422
   89TMC2     H 1390   2.295   0.517   1.473 -1.1691  1.8287 -0.2062
   89TMC2    H1 1391   2.171   0.658   1.097 -0.1166  0.1716 -0.1048
   89TMC2    H2 1392   2.587   0.568   1.177  1.0657 -0.5224  2.6454
   89TMC2    C7 1393   2.428   0.690   1.008  0.3183  0.5900  0.0592
   89TMC2    C8 1394   2.526   0.466   1.419  0.1770  0.1986 -0.2229
   89TMC2    O1 1395   2.518   0.631   0.956  1.0826  0.0357 -0.1153
   89TMC2    O2 1396   2.507   0.360   1.479  0.1287  0.3261  0.1392
   89TMC2    O5 1397   2.637   0.529   1.425  0.5321 -0.5147 -0.0552
   89TMC2    H5 1398   2.642   0.618   1.383 -0.8707 -1.1374 -1.5419
   90MPD2     C 1399   1.660   0.476   1.575 -0.1061  0.1705 -0.4245
   90MPD2    C1 1400   1.758   0.385   1.605 -0.3562 -0.2485 -0.1458
   90MPD2    C2 1401   1.880   0.399   1.545 -0.3082  0.6851 -0.0245
   90MPD2    C3 1402   1.911   0.509   1.469  0.0282  0.5804 -0.0697
   90MPD2    C4 1403   1.818   0.605   1.444  0.6795 -0.1312 -0.4265
   90MPD2    C5 1404   1.695   0.579   1.492 -0.0324  0.5491 -0.2175
   90MPD2     H 1405   1.961   0.336   1.579  1.0927  2.9122  0.7607
   90MPD2    H1 1406   1.826   0.694   1.382  0.9419  0.3572  0.3156
   90MPD2    H2 1407   1.561   0.467   1.618  1.0492 -1.3431  1.9094
   90MPD2    H3 1408   1.616   0.648   1.466 -0.2574  0.0341 -0.8977
   90MPD2     N 1409   2.043   0.516   1.415  0.0289 -0.1239 -0.0017
   90MPD2    H5 1410   2.117   0.451   1.439 -1.3307 -0.9990  1.8323
   90MPD2    N1 1411   1.723   0.278   1.686 -0.1592  0.2713  0.1996
   90MPD2    H7 1412   1.627   0.261   1.712 -0.7311  1.7458 -0.9565
   91TMC2    C1 1413   3.505   0.567  16.318  0.0012  0.2334 -0.7620
   91TMC2    C2 1414   3.560   0.604  16.439 -0.1423 -0.4269 -0.4337
   91TMC2    C3 1415   3.517   0.552  16.556  0.2088  0.0215 -0.1667
   91TMC2    C4 1416   3.404   0.473  16.312 -0.7084 -0.0005 -0.4254
   91TMC2    C5 1417   3.370   0.415  16.432  0.0664  0.8060 -0.8472
   91TMC2    C6 1418   3.425   0.446  16.551 -0.3429  0.4754 -0.0735
   91TMC2     C 1419   3.571   0.602  16.195 -0.7465  0.7903  0.1824
   91TMC2     O 1420   3.516   0.586  16.088 -0.1222 -0.1420  0.6824
   91TMC2     H 1421   3.632   0.683  16.457 -2.8295  2.3615 -2.0145
   91TMC2    H1 1422   3.357   0.436  16.221  0.9293 -0.0214 -1.2638
   91TMC2    H2 1423   3.399   0.389  16.640  1.7486  3.1227  2.2284
   91TMC2    C7 1424   3.265   0.318  16.433  0.3835  0.0307  1.1051
   91TMC2    C8 1425   3.622   0.558  16.655 -0.1628  0.1069  0.6226
   91TMC2    O1 1426   3.229   0.262  16.535 -0.8893 -0.6529 -0.4294
   91TMC2    O2 1427   3.725   0.623  16.641 -0.3781  0.2698 -0.1749
   91TMC2    O5 1428   3.612   0.437  16.710 -1.1345  0.1884 -0.3595
   91TMC2    H5 1429   3.522   0.415  16.742 -1.0199 -0.1187 -0.2454
   92MPD2     C 1430   3.786   0.637  15.996 -0.2515 -0.7489  0.0633
   92MPD2    C1 1431   3.804   0.606  16.132  0.1665  0.4567 -0.4835
   92MPD2    C2 1432   3.937   0.600  16.181  0.7512  0.1603  0.5080
   92MPD2    C3 1433   4.052   0.605  16.108 -0.0589  0.2145  0.4145
   92MPD2    C4 1434   4.037   0.614  15.971  0.6375 -0.2226  0.2447
   92MPD2    C5 1435   3.905   0.637  15.926  0.1494 -0.0552  0.1967
   92MPD2     H 1436   3.945   0.598  16.289 -1.7665 -1.3976  0.6525
   92MPD2    H1 1437   4.120   0.606  15.902  1.4090  0.1753  1.1291
   92MPD2    H2 1438   3.690   0.656  15.950 -0.1440  2.2219  1.0848
   92MPD2    H3 1439   3.895   0.646  15.818  0.6383  0.9763  0.2371
   92MPD2     N 1440   4.178   0.586  16.172 -0.1519 -0.3612  0.0483
   92MPD2    H5 1441   4.186   0.579  16.273  2.3270  2.5059  0.0550
   92MPD2    N1 1442   3.703   0.611  16.228 -0.1213  0.3804 -0.6531
   92MPD2    H7 1443   3.732   0.584  16.322  3.7481  1.3099 -1.5915
   93TMC2    C1 1444   0.540   4.346  13.724 -0.1363  0.4969 -0.8990
   93TMC2    C2 1445   0.469   4.364  13.609 -0.7724 -1.0080 -0.5145
   93TMC2    C3 1446   0.538   4.390  13.495  0.0627 -0.2924 -0.7316
   93TMC2    C4 1447   0.677   4.354  13.714 -0.5718 -0.0463  0.1021
   93TMC2    C5 1448   0.748   4.378  13.597  0.1259 -0.1780  0.1941
   93TMC2    C6 1449   0.673   4.382  13.485  0.7560  0.1824  0.3357
   93TMC2     C 1450   0.486   4.367  13.858  0.3459 -0.2158  1.0533
   93TMC2     O 1451   0.533   4.313  13.956  0.1697  0.7393  0.2379
   93TMC2     H 1452   0.363   4.382  13.603  0.0557  3.9374 -0.3878
   93TMC2    H1 1453   0.726   4.340  13.809  0.0361 -2.2187 -0.5368
   93TMC2    H2 1454   0.719   4.431  13.400  1.2664 -0.1020  0.4504
   93TMC2    C7 1455   0.884   4.432  13.604 -0.2326 -0.0431  0.1145
   93TMC2    C8 1456   0.458   4.409  13.374  0.0292 -0.4478  0.4680
   93TMC2    O1 1457   0.951   4.456  13.506  0.4464 -0.7427  0.1577
   93TMC2    O2 1458   0.345   4.463  13.376  0.2006 -0.1872 -0.0222
   93TMC2    O5 1459   0.521   4.345  13.272  0.1547 -0.2993  0.3524
   93TMC2    H5 1460   0.603   4.296  13.291  0.3910 -0.2409 -0.5288
   94MPD2     C 1461   0.288   4.435  14.077  0.2874 -0.2339  0.0661
   94MPD2    C1 1462   0.314   4.512  13.970 -1.3118 -0.3062  1.0528
   94MPD2    C2 1463   0.254   4.633  13.962  0.0428  0.0666  0.1477
   94MPD2    C3 1464   0.170   4.679  14.059 -0.2230  0.7083 -0.3185
   94MPD2    C4 1465   0.145   4.602  14.169 -0.0882  0.0773 -0.5258
   94MPD2    C5 1466   0.203   4.479  14.181  0.2067 -0.7064  0.0883
   94MPD2     H 1467   0.257   4.699  13.876  1.3031  0.1428  0.2602
   94MPD2    H1 1468   0.066   4.632  14.237  1.1442  2.4155 -0.0806
   94MPD2    H2 1469   0.323   4.333  14.079  1.1824  0.1143  2.2091
   94MPD2    H3 1470   0.191   4.420  14.271  1.1405  0.2563  0.8600
   94MPD2     N 1471   0.104   0.071  14.055 -0.0082 -0.3142 -0.3056
   94MPD2    H5 1472   0.015   0.072  14.104  0.1261 -0.0131 -0.0700
   94MPD2    N1 1473   0.392   4.470  13.859  0.4189 -0.4883 -0.0929
   94MPD2    H7 1474   0.379   4.522  13.772  1.0124 -0.4042 -0.1331
   95TMC2    C1 1475   0.398   2.511  15.410  0.6490 -0.4948  0.2742
   95TMC2    C2 1476   0.408   2.543  15.543 -0.4676 -0.2824 -1.1232
   95TMC2    C3 1477   0.353   2.665  15.579  0.3326  0.5785 -0.0480
   95TMC2    C4 1478   0.339   2.594  15.313  0.5032 -0.9847  0.2024
   95TMC2    C5 1479   0.279   2.710  15.363 -0.0338  0.8460 -0.0285
   95TMC2    C6 1480   0.281   2.745  15.494 -0.5582  0.6454 -0.3812
   95TMC2     C 1481   0.483   2.399  15.370  0.0187  0.2548 -0.3144
   95TMC2     O 1482   0.561   2.366  15.458  0.7987 -0.7966 -0.6703
   95TMC2     H 1483   0.446   2.466  15.609  3.1659  1.9372 -0.6257
   95TMC2    H1 1484   0.328   2.567  15.209 -2.2754 -0.1011  0.2594
   95TMC2    H2 1485   0.243   2.837  15.536 -0.4116  0.4811  0.1110
   95TMC2    C7 1486   0.216   2.808  15.275 -0.0739 -0.0116  0.0733
   95TMC2    C8 1487   0.337   2.675  15.718  0.7950  0.0384 -0.1519
   95TMC2    O1 1488   0.148   2.898  15.327  0.1108 -0.1341  0.2354
   95TMC2    O2 1489   0.240   2.628  15.774  0.4342  0.1152  0.8799
   95TMC2    O5 1490   0.378   2.801  15.739  0.9619  0.1096  0.0186
   95TMC2    H5 1491   0.447   2.823  15.674 -0.7535  0.4562 -1.6744
   96MPD2     C 1492   0.588   1.966  15.112 -0.0034  0.4792  0.6851
   96MPD2    C1 1493   0.654   2.030  15.221 -0.5043  0.0033 -0.7112
   96MPD2    C2 1494   0.609   2.150  15.266  0.8227 -0.3351 -0.0395
   96MPD2    C3 1495   0.503   2.211  15.205 -0.3492  0.3264  1.2587
   96MPD2    C4 1496   0.439   2.150  15.106  0.1621  0.0714 -0.0211
   96MPD2    C5 1497   0.476   2.029  15.055 -0.0538  0.6823 -0.0907
   96MPD2     H 1498   0.665   2.195  15.347  0.7288  1.8388 -1.1860
   96MPD2    H1 1499   0.350   2.194  15.062 -0.4837 -0.7811  0.4238
   96MPD2    H2 1500   0.612   1.868  15.073  2.3058  0.9786  0.8390
   96MPD2    H3 1501   0.418   1.980  14.978  0.2506  0.3483 -0.1098
   96MPD2     N 1502   0.448   2.331  15.256 -0.1589  0.1652  0.4821
   96MPD2    H5 1503   0.358   2.355  15.215 -0.3475 -2.6245 -0.7173
   96MPD2    N1 1504   0.770   1.959  15.270  0.0578  0.0553  0.0352
   96MPD2    H7 1505   0.814   1.892  15.207 -1.6673  0.2392 -1.3649
   97TMC2    C1 1506   2.748   0.578  17.740  0.4538 -1.0017  0.0670
   97TMC2    C2 1507   2.684   0.582  17.616  0.0138 -0.0329 -0.1197
   97TMC2    C3 1508   2.659   0.713  17.567  0.2667 -0.2489 -0.6539
   97TMC2    C4 1509   2.802   0.692   0.053  0.2815  0.1541 -0.0851
   97TMC2    C5 1510   2.810   0.802  17.711 -0.6499  0.1639 -0.2651
   97TMC2    C6 1511   2.733   0.821  17.601 -0.1673 -0.2668  0.8243
   97TMC2     C 1512   2.815   0.451   0.034 -0.1240  0.0238  0.1536
   97TMC2     O 1513   2.858   0.442   0.147  0.1324 -0.0049  0.5418
   97TMC2     H 1514   2.620   0.503  17.579 -1.1358 -0.1803  2.2277
   97TMC2    H1 1515   2.866   0.679   0.139  0.0754 -0.6323 -0.0448
   97TMC2    H2 1516   2.723   0.920  17.557  0.6193 -0.3529  0.4577
   97TMC2    C7 1517   2.926   0.883   0.004 -0.5400 -0.1995 -0.8484
   97TMC2    C8 1518   2.601   0.714  17.437  0.1641 -0.0676 -0.0838
   97TMC2    O1 1519   2.993   0.865   0.104 -0.0354  0.2014  0.0346
   97TMC2    O2 1520   2.648   0.658  17.336 -0.1188  0.5325  0.2739
   97TMC2    O5 1521   2.533   0.834  17.434 -0.0337  0.0494  0.1487
   97TMC2    H5 1522   2.509   0.858  17.526 -0.9937  0.0845 -0.1163
   98MPD2     C 1523   2.970   4.715  17.637  0.5703  1.1464  0.2018
   98MPD2    C1 1524   2.977   0.044   0.021 -0.3342  0.3188 -0.4042
   98MPD2    C2 1525   2.946   0.182   0.030  0.2136  0.4443 -0.9868
   98MPD2    C3 1526   2.871   0.235  17.664  0.2744 -0.1272  0.4981
   98MPD2    C4 1527   2.841   0.157  17.551  0.6660 -0.0413  0.1973
   98MPD2    C5 1528   2.900   0.039  17.534  0.6352 -0.5304 -0.4323
   98MPD2     H 1529   2.983   0.232   0.119 -1.6035  0.5710 -0.3032
   98MPD2    H1 1530   2.789   0.202  17.468  2.3214  0.2174 -0.7004
   98MPD2    H2 1531   3.008   4.614  17.625  0.8599  1.3748 -0.8284
   98MPD2    H3 1532   2.888   4.722  17.440 -0.4959 -1.5754  0.3056
   98MPD2     N 1533   2.809   0.365  17.667  0.8904  0.3596  0.2509
   98MPD2    H5 1534   2.757   0.401  17.588  2.0821 -1.1652 -1.2018
   98MPD2    N1 1535   3.028   4.700   0.129 -0.5648 -0.6374 -0.0822
   98MPD2    H7 1536   3.054   4.604   0.109 -2.1691 -1.4400  1.6892
   99TMC2    C1 1537   1.962   1.488   2.136  0.2724  0.1159 -0.1190
   99TMC2    C2 1538   2.008   1.482   2.268 -0.0874 -0.2551 -0.4926
   99TMC2    C3 1539   1.914   1.488   2.368  0.3578 -0.0165  0.2112
   99TMC2    C4 1540   1.826   1.487   2.111  0.2312 -0.0871  0.5581
   99TMC2    C5 1541   1.738   1.477   2.218 -0.5045 -0.0062  0.1243
   99TMC2    C6 1542   1.783   1.489   2.346 -0.0419 -0.3148 -0.4823
   99TMC2     C 1543   2.051   1.468   2.018 -0.2368 -0.7905  0.5041
   99TMC2     O 1544   2.169   1.494   2.033  0.0292  0.1116  0.1607
   99TMC2     H 1545   2.110   1.457   2.296  0.2987  0.3286 -1.4160
   99TMC2    H1 1546   1.781   1.505   2.014  1.8421 -0.6584 -0.2932
   99TMC2    H2 1547   1.713   1.471   2.427 -0.8053 -0.7078 -1.2219
   99TMC2    C7 1548   1.605   1.524   2.201  0.5479 -0.7244  0.6996
   99TMC2    C8 1549   1.961   1.507   2.504 -0.4041 -0.2332 -0.3753
   99TMC2    O1 1550   1.552   1.591   2.290  0.5208  0.4016 -0.2927
   99TMC2    O2 1551   2.060   1.449   2.553 -0.3516  0.4023  0.5249
   99TMC2    O5 1552   1.881   1.602   2.556 -0.3371 -0.2649 -0.5941
   99TMC2    H5 1553   1.814   1.637   2.493  0.3246 -0.5302 -1.4412
  100MPD2     C 1554   2.171   1.419   1.756 -0.7148  0.7919 -0.1366
  100MPD2    C1 1555   2.044   1.396   1.781  0.0023 -0.3092 -0.6166
  100MPD2    C2 1556   1.952   1.373   1.669  0.7333 -0.2456 -0.4449
  100MPD2    C3 1557   1.992   1.362   1.540  0.1116 -1.4779 -0.0658
  100MPD2    C4 1558   2.126   1.375   1.520 -1.0050  0.3039  0.7668
  100MPD2    C5 1559   2.212   1.403   1.622 -0.1602 -0.4519 -0.4388
  100MPD2     H 1560   1.846   1.363   1.686  0.8790  0.8852  1.0713
  100MPD2    H1 1561   2.161   1.372   1.417 -0.1247  0.4871  1.0574
  100MPD2    H2 1562   2.241   1.450   1.833 -0.4005  1.3723 -0.6560
  100MPD2    H3 1563   2.317   1.417   1.601 -0.5753  1.9939 -0.8392
  100MPD2     N 1564   1.901   1.318   1.436 -0.1075  0.0223 -0.7049
  100MPD2    H5 1565   1.805   1.306   1.464  0.5032 -0.3560  1.2460
  100MPD2    N1 1566   1.984   1.418   1.909  0.3008 -0.5350 -0.4755
  100MPD2    H7 1567   1.889   1.387   1.925 -0.3924  2.1299  0.5063
  101TMC2    C1 1568   2.532   2.685  12.940 -0.1978  0.5295 -0.2694
  101TMC2    C2 1569   2.462   2.788  12.886 -0.1427 -0.3538  0.6621
  101TMC2    C3 1570   2.523   2.903  12.848 -0.0256 -1.0629  0.1724
  101TMC2    C4 1571   2.668   2.682  12.948  0.0555  0.1799 -0.1216
  101TMC2    C5 1572   2.729   2.804  12.919 -0.0856 -0.1760 -0.0608
  101TMC2    C6 1573   2.658   2.907  12.863 -0.4164  0.4050 -0.0772
  101TMC2     C 1574   2.464   2.556  12.952 -0.1955 -0.8632  0.4815
  101TMC2     O 1575   2.503   2.482  13.039 -0.2601 -0.2208 -0.3329
  101TMC2     H 1576   2.355   2.785  12.902 -0.3415  0.4202 -0.5816
  101TMC2    H1 1577   2.721   2.590  12.971 -0.8030 -0.4911 -0.8053
  101TMC2    H2 1578   2.707   3.002  12.842  2.0481 -0.8119  0.2296
  101TMC2    C7 1579   2.878   2.816  12.906 -0.9000  0.3939  0.4697
  101TMC2    C8 1580   2.454   3.028  12.851 -0.5325 -0.4331 -0.6040
  101TMC2    O1 1581   2.916   2.886  12.819  0.5748  0.1480  0.7009
  101TMC2    O2 1582   2.491   3.139  12.891  0.2715 -0.2464  0.2027
  101TMC2    O5 1583   2.343   3.016  12.771 -0.3195 -0.0056  0.1400
  101TMC2    H5 1584   2.331   2.926  12.735  0.9593  0.2173 -0.8536
  102MPD2     C 1585   2.210   2.426  12.722 -0.1399 -0.3834 -0.1546
  102MPD2    C1 1586   2.289   2.434  12.838 -0.2799 -0.0630 -0.1431
  102MPD2    C2 1587   2.283   2.332  12.928  0.0860 -0.6917  0.3536
  102MPD2    C3 1588   2.188   2.231  12.922 -0.1691  0.2201 -0.1051
  102MPD2    C4 1589   2.120   2.222  12.805 -0.0148 -0.1562 -0.4824
  102MPD2    C5 1590   2.132   2.320  12.709  0.1671 -0.5603  0.3183
  102MPD2     H 1591   2.344   2.335  13.018  0.3184  1.6870  0.1236
  102MPD2    H1 1592   2.048   2.142  12.792  0.7528 -0.7972 -0.8074
  102MPD2    H2 1593   2.207   2.500  12.643 -1.7376 -2.1156 -1.7109
  102MPD2    H3 1594   2.068   2.318  12.622 -0.7243  0.3531  0.9489
  102MPD2     N 1595   2.169   2.143  13.034 -0.4186  0.0617 -0.3973
  102MPD2    H5 1596   2.217   2.169  13.120 -2.4211  0.9536  0.4527
  102MPD2    N1 1597   2.360   2.550  12.859  0.0391 -0.0986  0.2639
  102MPD2    H7 1598   2.356   2.619  12.785  0.8736 -0.4365 -0.0949
  103TMC2    C1 1599   0.654   2.142  12.681  0.2895  0.0647  0.7211
  103TMC2    C2 1600   0.777   2.129  12.739  0.4212 -0.4453 -0.2062
  103TMC2    C3 1601   0.840   2.236  12.797 -0.2909  0.4112  0.9254
  103TMC2    C4 1602   0.588   2.262  12.678  0.6008 -0.0405 -0.5759
  103TMC2    C5 1603   0.651   2.369  12.734  0.2733  0.1381  0.2359
  103TMC2    C6 1604   0.777   2.358  12.794 -0.0335 -0.3861  0.7305
  103TMC2     C 1605   0.597   2.039  12.607 -0.0789 -0.1089 -0.1235
  103TMC2     O 1606   0.483   2.059  12.565 -0.2351 -0.2740  0.7497
  103TMC2     H 1607   0.835   2.037  12.734  1.2142  0.1396 -1.6998
  103TMC2    H1 1608   0.490   2.279  12.636  0.1180  1.9782  1.3581
  103TMC2    H2 1609   0.833   2.440  12.837  1.8448 -0.7546 -0.9974
  103TMC2    C7 1610   0.601   2.500  12.695  0.0642 -0.6918 -0.5645
  103TMC2    C8 1611   0.982   2.225  12.825 -0.1164  0.5179  0.7482
  103TMC2    O1 1612   0.480   2.518  12.682  0.3952  0.6082  0.1873
  103TMC2    O2 1613   1.018   2.110  12.847  0.3710  1.1977 -0.1699
  103TMC2    O5 1614   1.044   2.316  12.746 -0.0243  0.4534  0.1712
  103TMC2    H5 1615   1.005   2.398  12.708 -0.1315 -1.2105 -3.2834
  104MPD2     C 1616   0.679   1.688  12.596  0.5050  0.8737  0.1207
  104MPD2    C1 1617   0.607   1.801  12.565  0.0626  0.6733 -0.9806
  104MPD2    C2 1618   0.510   1.790  12.466  0.4596  0.0365 -0.4052
  104MPD2    C3 1619   0.472   1.668  12.418  0.2281  0.9642 -0.1048
  104MPD2    C4 1620   0.545   1.555  12.452  0.5352 -0.2599  0.2847
  104MPD2    C5 1621   0.649   1.573  12.539 -0.0097 -0.1529  0.0723
  104MPD2     H 1622   0.457   1.875  12.424 -0.6211 -0.6185 -0.3595
  104MPD2    H1 1623   0.520   1.460  12.407  0.1279 -0.4427  0.9127
  104MPD2    H2 1624   0.762   1.694  12.665 -0.8405  0.4798  1.7593
  104MPD2    H3 1625   0.704   1.484  12.568  0.3668 -0.1383 -0.6032
  104MPD2     N 1626   0.356   1.667  12.340  0.2174 -0.3801 -0.2108
  104MPD2    H5 1627   0.318   1.761  12.338  0.7108 -0.2144 -1.3394
  104MPD2    N1 1628   0.660   1.919  12.619  0.3769 -0.4203 -0.5187
  104MPD2    H7 1629   0.752   1.912  12.662  1.1302  2.1070 -1.7137
  105TMC2    C1 1630   1.304   1.830   0.269  0.0796 -0.8607 -0.4176
  105TMC2    C2 1631   1.209   1.893   0.195  0.3117 -0.4367 -0.2607
  105TMC2    C3 1632   1.125   1.976   0.262 -0.2802 -0.2754  0.3241
  105TMC2    C4 1633   1.301   1.841   0.406  0.2766 -0.1968 -0.1239
  105TMC2    C5 1634   1.200   1.915   0.467 -0.3225  0.2627 -0.1120
  105TMC2    C6 1635   1.107   1.987   0.397 -0.8313  0.4415 -0.0591
  105TMC2     C 1636   1.410   1.765   0.196 -0.2420 -0.2925  0.6414
  105TMC2     O 1637   1.460   1.662   0.238  0.6601 -0.0709  0.4570
  105TMC2     H 1638   1.203   1.888   0.087  1.1959  1.2221 -0.3823
  105TMC2    H1 1639   1.370   1.785   0.466  0.1303 -1.1413 -0.8413
  105TMC2    H2 1640   1.022   2.034   0.445 -1.8811  0.4484 -1.9205
  105TMC2    C7 1641   1.184   1.911   0.609  0.5533  0.0254 -0.4590
  105TMC2    C8 1642   1.017   2.012   0.174  0.2123  0.5758 -1.4576
  105TMC2    O1 1643   1.070   1.927   0.654  0.4554  0.2233 -0.2060
  105TMC2    O2 1644   0.966   1.939   0.087  0.0956  0.5534 -0.3757
  105TMC2    O5 1645   0.971   2.127   0.210 -0.0042  0.7169 -0.3698
  105TMC2    H5 1646   1.036   2.183   0.259 -1.1212  0.0958  1.8015
  106MPD2     C 1647   1.565   1.624  17.473 -0.2919  0.0426 -0.4387
  106MPD2    C1 1648   1.571   1.763  17.479 -0.5558 -0.9025 -0.0664
  106MPD2    C2 1649   1.527   1.820  17.595  0.6332  0.5348  0.6058
  106MPD2    C3 1650   1.481   1.744  17.701 -0.0196 -0.2850  0.7256
  106MPD2    C4 1651   1.490   1.611  17.700  0.4096 -0.1805  0.6025
  106MPD2    C5 1652   1.521   1.551  17.581 -0.2424 -0.0239 -0.1673
  106MPD2     H 1653   1.513   1.927  17.601 -2.5695  0.0962  0.9732
  106MPD2    H1 1654   1.464   1.546   0.043  0.6092 -1.2715 -0.1843
  106MPD2    H2 1655   1.615   1.563  17.398  1.6755  2.1714 -0.8897
  106MPD2    H3 1656   1.535   1.443  17.572 -2.4859 -0.4006  1.0377
  106MPD2     N 1657   1.426   1.814   0.067 -0.1567  0.3425 -0.0329
  106MPD2    H5 1658   1.388   1.907   0.054 -0.0979  0.6112  1.7137
  106MPD2    N1 1659   1.624   1.847  17.378 -0.1238 -0.0181 -0.1895
  106MPD2    H7 1660   1.637   1.944  17.408 -2.1493  0.3820 -0.6047
  107TMC2    C1 1661   2.195   1.301  11.348 -0.0855 -0.7272 -0.6521
  107TMC2    C2 1662   2.105   1.392  11.311  0.0687  0.3138  0.5826
  107TMC2    C3 1663   2.128   1.500  11.234  0.6192  0.4630 -0.7173
  107TMC2    C4 1664   2.324   1.321  11.307 -0.3569 -0.3251  0.7915
  107TMC2    C5 1665   2.348   1.432  11.237 -0.1855 -0.0563  0.3026
  107TMC2    C6 1666   2.253   1.528  11.196  0.5774 -0.3221 -0.5543
  107TMC2     C 1667   2.150   1.205  11.451  0.6778  0.3948  0.5943
  107TMC2     O 1668   2.040   1.234  11.497 -0.3875  0.0882  0.0619
  107TMC2     H 1669   1.999   1.376  11.327  0.2828 -3.3737 -1.7091
  107TMC2    H1 1670   2.411   1.268  11.342 -1.2760 -2.2498  0.1640
  107TMC2    H2 1671   2.274   1.616  11.136  1.5510 -0.7532 -0.8495
  107TMC2    C7 1672   2.479   1.443  11.180  0.8153  0.0312 -0.2437
  107TMC2    C8 1673   2.022   1.600  11.213  0.6519 -0.1589 -0.5756
  107TMC2    O1 1674   2.519   1.559  11.170 -0.2148 -1.0786  0.7358
  107TMC2    O2 1675   2.050   1.720  11.220  0.3917 -0.0014  0.0998
  107TMC2    O5 1676   1.937   1.544  11.128  0.0967  0.0511  0.0154
  107TMC2    H5 1677   1.955   1.451  11.103  0.1234  0.6660 -2.2423
  108MPD2     C 1678   2.323   0.937  11.627 -0.4154 -0.2496  0.4802
  108MPD2    C1 1679   2.228   1.033  11.609  0.1266  0.3940  0.2658
  108MPD2    C2 1680   2.137   1.066  11.712 -0.0713 -0.5612  0.5761
  108MPD2    C3 1681   2.125   0.989  11.828 -0.5384  0.1372 -1.2273
  108MPD2    C4 1682   2.217   0.884  11.844  0.0369 -0.4630 -0.3419
  108MPD2    C5 1683   2.313   0.863  11.739  0.2329 -0.5287  0.4344
  108MPD2     H 1684   2.081   1.158  11.703 -0.8186 -1.2462 -1.6117
  108MPD2    H1 1685   2.210   0.811  11.924  4.7083  0.0852  0.5678
  108MPD2    H2 1686   2.397   0.911  11.553  0.8637  2.3345  0.8437
  108MPD2    H3 1687   2.380   0.778  11.741  1.2134  0.2687  1.6733
  108MPD2     N 1688   2.022   1.008  11.930 -0.0730  0.8032 -0.1852
  108MPD2    H5 1689   2.041   0.958  12.016  1.4870  0.8608 -0.4934
  108MPD2    N1 1690   2.248   1.115  11.489  0.0835 -0.2287 -0.4451
  108MPD2    H7 1691   2.339   1.097  11.448 -0.5436 -1.7188 -1.1971
  109TMC2    C1 1692   2.405   3.649   0.066  1.2159  0.9756 -0.2645
  109TMC2    C2 1693   2.399   3.681  17.667  0.0514 -0.4855 -0.6713
  109TMC2    C3 1694   2.447   3.808  17.635 -0.0751  0.7108 -0.5041
  109TMC2    C4 1695   2.481   3.726   0.154  0.3473 -0.7641  0.0158
  109TMC2    C5 1696   2.517   3.851   0.107  0.3221  0.4707  1.0802
  109TMC2    C6 1697   2.499   3.896  17.725  0.6992  0.7296  0.1692
  109TMC2     C 1698   2.327   3.534   0.098 -0.4627 -0.1664  0.6408
  109TMC2     O 1699   2.251   3.492   0.007  0.0010  0.2648 -0.4411
  109TMC2     H 1700   2.352   3.620  17.591 -1.4131 -1.8460  1.3117
  109TMC2    H1 1701   2.512   3.681   0.248 -2.6607  1.1317  1.9205
  109TMC2    H2 1702   2.490   4.002  17.703 -1.6568  0.1268 -1.7533
  109TMC2    C7 1703   2.589   3.946   0.189  0.1915  0.7240 -0.0435
  109TMC2    C8 1704   2.445   3.838  17.500  0.6047  0.4968  0.4613
  109TMC2    O1 1705   2.661   4.020   0.123  0.5322 -0.2674 -0.1434
  109TMC2    O2 1706   2.367   3.787  17.422  0.8602  0.0978  0.4623
  109TMC2    O5 1707   2.540   3.923  17.464 -0.4204 -0.6651  0.0589
  109TMC2    H5 1708   2.616   3.932  17.525 -0.9029 -2.3713  0.8972
  110MPD2     C 1709   2.140   3.178   0.417  0.6807  0.0353  0.3956
  110MPD2    C1 1710   2.215   3.263   0.493  0.5337  0.2434  0.6557
  110MPD2    C2 1711   2.278   3.363   0.425 -0.0439 -0.8211 -0.2097
  110MPD2    C3 1712   2.257   3.387   0.291  0.0466  0.3934  1.2136
  110MPD2    C4 1713   2.158   3.316   0.224 -0.6389  0.6493 -0.2198
  110MPD2    C5 1714   2.114   3.199   0.279  0.3467 -0.2583 -0.3512
  110MPD2     H 1715   2.364   3.414   0.465  2.4259 -2.3924 -3.5505
  110MPD2    H1 1716   2.116   3.330   0.125  0.5369 -1.8142 -1.0869
  110MPD2    H2 1717   2.099   3.089   0.464  0.9273 -0.2487  0.0788
  110MPD2    H3 1718   2.042   3.136   0.229  0.3164 -0.0545 -0.5694
  110MPD2     N 1719   2.329   3.501   0.232  0.0192  0.1122  0.7235
  110MPD2    H5 1720   2.392   3.553   0.293 -0.1440  4.0431 -2.4418
  110MPD2    N1 1721   2.228   3.239   0.633 -0.3236  0.2146  0.2936
  110MPD2    H7 1722   2.179   3.157   0.667  1.1969  0.6447  3.5155
  111TMC2    C1 1723   2.938   3.466  11.671  0.2964 -0.0948 -0.4426
  111TMC2    C2 1724   3.019   3.520  11.576  1.1840 -0.1839  0.1394
  111TMC2    C3 1725   3.150   3.483  11.569  0.3154 -0.4770  0.9013
  111TMC2    C4 1726   2.990   3.397  11.775 -0.1183  0.5898  0.4908
  111TMC2    C5 1727   3.123   3.378  11.766 -0.5828 -0.3277 -0.2765
  111TMC2    C6 1728   3.210   3.410  11.660 -0.1444 -0.4096 -0.0141
  111TMC2     C 1729   2.796   3.448  11.632  0.6966  0.3156  0.4836
  111TMC2     O 1730   2.777   3.447  11.512  0.4599  0.1987 -0.0377
  111TMC2     H 1731   2.969   3.575  11.497  1.0533  1.2346  1.2144
  111TMC2    H1 1732   2.937   3.339  11.851 -0.3986 -1.6444 -1.4316
  111TMC2    H2 1733   3.316   3.391  11.664 -0.4182 -1.3979  2.5693
  111TMC2    C7 1734   3.179   3.295  11.873  0.5290  0.5520 -0.3495
  111TMC2    C8 1735   3.227   3.484  11.453 -0.4718  0.6280 -0.3994
  111TMC2    O1 1736   3.166   3.327  11.989  0.7685 -0.0389 -0.5572
  111TMC2    O2 1737   3.326   3.416  11.437  0.0979  0.4052 -0.9473
  111TMC2    O5 1738   3.194   3.597  11.377 -0.3071 -0.1901  0.5528
  111TMC2    H5 1739   3.118   3.641  11.422 -0.0077 -0.8308  1.6654
  112MPD2     C 1740   2.292   3.359  11.708  0.2720  0.3090 -0.1988
  112MPD2    C1 1741   2.365   3.370  11.591  0.4913 -0.5997  0.6044
  112MPD2    C2 1742   2.500   3.404  11.602  0.9441 -0.0891 -0.2581
  112MPD2    C3 1743   2.568   3.428  11.719 -0.1767  0.4735  0.1982
  112MPD2    C4 1744   2.484   3.429  11.835 -0.2991 -0.6744 -0.1510
  112MPD2    C5 1745   2.348   3.398  11.822 -0.0258 -0.3601  0.1917
  112MPD2     H 1746   2.556   3.392  11.510 -1.7998  0.4821 -2.0191
  112MPD2    H1 1747   2.519   3.436  11.938 -2.9751 -0.6539  0.7640
  112MPD2    H2 1748   2.185   3.344  11.708  0.3119  0.0057 -0.8439
  112MPD2    H3 1749   2.291   3.407  11.914  0.5743  0.8619  0.4498
  112MPD2     N 1750   2.710   3.436  11.736 -0.2428 -0.1155 -0.3225
  112MPD2    H5 1751   2.739   3.441  11.833  2.3768 -2.5492 -0.9878
  112MPD2    N1 1752   2.307   3.349  11.465 -0.4686 -0.4699 -0.3510
  112MPD2    H7 1753   2.370   3.381  11.392 -0.5584  1.6202  0.4729
  113TMC2    C1 1754   0.600   1.334   0.540 -0.2131 -0.4089  0.3200
  113TMC2    C2 1755   0.551   1.454   0.500  0.8081 -0.1088  0.3526
  113TMC2    C3 1756   0.439   1.457   0.429  0.4059 -0.6403  0.2370
  113TMC2    C4 1757   0.538   1.216   0.507  0.0545  0.4739 -0.1910
  113TMC2    C5 1758   0.426   1.226   0.427  0.3549  0.1172  0.3022
  113TMC2    C6 1759   0.374   1.342   0.386  0.1521  0.0524 -0.3348
  113TMC2     C 1760   0.721   1.353   0.615  0.2900 -0.4459 -0.7196
  113TMC2     O 1761   0.736   1.456   0.684 -0.0744 -0.7065 -0.0734
  113TMC2     H 1762   0.596   1.549   0.527  0.2044 -0.1505  1.5505
  113TMC2    H1 1763   0.579   1.116   0.513  0.9992  0.6951 -2.9243
  113TMC2    H2 1764   0.296   1.350   0.311  1.0197 -0.5022 -1.3059
  113TMC2    C7 1765   0.357   1.110   0.391  0.5576 -0.0450 -0.6268
  113TMC2    C8 1766   0.389   1.593   0.396 -0.8082  0.4862 -0.0645
  113TMC2    O1 1767   0.292   1.116   0.287 -0.4302  0.1407 -0.3211
  113TMC2    O2 1768   0.456   1.690   0.386 -0.0244  0.2522  0.3248
  113TMC2    O5 1769   0.263   1.581   0.353 -0.9233 -0.0316  0.2009
  113TMC2    H5 1770   0.229   1.496   0.388  2.2330 -1.3692 -0.0085
  114MPD2     C 1771   1.180   1.158   0.760 -0.0203  0.7237 -0.3002
  114MPD2    C1 1772   1.122   1.277   0.791 -0.1426  0.0357 -0.6137
  114MPD2    C2 1773   0.997   1.312   0.736 -0.2327 -0.1947  0.7788
  114MPD2    C3 1774   0.934   1.225   0.655 -0.1547  0.2650 -0.0154
  114MPD2    C4 1775   0.992   1.101   0.626  0.4881 -0.1919 -0.1974
  114MPD2    C5 1776   1.123   1.078   0.673  0.6824 -0.6124 -0.5279
  114MPD2     H 1777   0.954   1.407   0.763 -0.8291 -0.4797  0.8295
  114MPD2    H1 1778   0.938   1.024   0.574  1.7999  0.0643 -1.9581
  114MPD2    H2 1779   1.274   1.131   0.806 -0.0620 -0.1783 -0.7389
  114MPD2    H3 1780   1.184   0.994   0.640  0.2625  0.2560 -3.4637
  114MPD2     N 1781   0.806   1.248   0.595  0.1977  0.0709  0.3500
  114MPD2    H5 1782   0.774   1.181   0.525  1.3499 -0.8918  0.7340
  114MPD2    N1 1783   1.177   1.367   0.885  0.4007 -0.6318 -0.0061
  114MPD2    H7 1784   1.120   1.449   0.905  0.3877 -0.4133 -0.9294
  115TMC2    C1 1785   1.804   4.317   0.286  0.2988  0.0936  0.3567
  115TMC2    C2 1786   1.745   4.300   0.406  0.1142  0.0442  0.0086
  115TMC2    C3 1787   1.731   4.413   0.480  0.2916  0.3584 -0.1876
  115TMC2    C4 1788   1.870   4.430   0.240 -0.1285 -0.1858 -0.1500
  115TMC2    C5 1789   1.859   4.536   0.315 -0.2900  0.8670  0.2740
  115TMC2    C6 1790   1.783   4.532   0.433  0.1540  0.4034  0.2001
  115TMC2     C 1791   1.811   4.198   0.214  0.0072  1.0979  0.1326
  115TMC2     O 1792   1.803   4.213   0.093  0.2261  0.5773 -0.2260
  115TMC2     H 1793   1.696   4.209   0.439  1.5934 -1.3073 -1.5625
  115TMC2    H1 1794   1.928   4.412   0.151  0.6609  0.5089  0.2324
  115TMC2    H2 1795   1.774   4.624   0.489  0.6871  0.9810 -0.6454
  115TMC2    C7 1796   1.915   4.664   0.272  0.5180 -0.2894  0.5209
  115TMC2    C8 1797   1.734   4.407   0.628 -0.1735 -0.1018 -0.1072
  115TMC2    O1 1798   1.869   0.022   0.337 -0.5924  0.0487 -0.0416
  115TMC2    O2 1799   1.814   4.476   0.691 -0.0435  1.0118 -0.3903
  115TMC2    O5 1800   1.673   4.296   0.664 -0.1628 -0.2857  0.0473
  115TMC2    H5 1801   1.611   4.262   0.596 -0.6458 -1.5225  1.1165
  116MPD2     C 1802   1.671   3.704   0.206  0.4359  0.3203 -0.1857
  116MPD2    C1 1803   1.683   3.794   0.104  0.7565 -0.3601  0.2972
  116MPD2    C2 1804   1.730   3.918   0.133  1.0673  0.4019  0.1977
  116MPD2    C3 1805   1.779   3.957   0.251  0.5355  0.2695  0.3730
  116MPD2    C4 1806   1.776   3.869   0.353  0.1706  0.1606  0.7395
  116MPD2    C5 1807   1.713   3.745   0.331  0.4183 -0.5581  0.2292
  116MPD2     H 1808   1.748   3.982   0.048  1.8407 -1.4272 -1.0093
  116MPD2    H1 1809   1.820   3.886   0.451 -0.7511 -1.6433  1.4722
  116MPD2    H2 1810   1.631   3.604   0.201  2.1827 -0.5600  3.1867
  116MPD2    H3 1811   1.695   3.681   0.417  2.9552 -1.1855  0.2758
  116MPD2     N 1812   1.821   4.084   0.287 -0.4507  0.4853 -0.2119
  116MPD2    H5 1813   1.839   4.104   0.385 -1.7179 -1.2533  0.3763
  116MPD2    N1 1814   1.628   3.754  17.718  0.0774 -0.5488 -0.8594
  116MPD2    H7 1815   1.599   3.657  17.723  0.8193 -0.6769  1.1350
  117TMC2    C1 1816   4.651   0.988  13.592  0.2172  0.3514 -0.3772
  117TMC2    C2 1817   4.648   0.939  13.721 -0.2230 -0.1274  0.0363
  117TMC2    C3 1818   4.723   1.003  13.817  0.5464 -0.3048  0.6223
  117TMC2    C4 1819   0.003   1.085  13.558  1.2023 -0.2091 -0.8737
  117TMC2    C5 1820   0.074   1.156  13.656 -0.6587  0.2917  0.7223
  117TMC2    C6 1821   0.071   1.106  13.786 -0.0539  0.2094 -0.5398
  117TMC2     C 1822   4.570   0.926  13.489 -0.0961  0.2424 -0.2907
  117TMC2     O 1823   4.632   0.866  13.399 -0.2678 -0.0164 -0.2689
  117TMC2     H 1824   4.579   0.858  13.738  0.0954 -0.7248 -1.5667
  117TMC2    H1 1825   0.013   1.121  13.456  1.2229  2.3006  0.0025
  117TMC2    H2 1826   0.112   1.165  13.866 -1.5310  0.7459 -0.1734
  117TMC2    C7 1827   0.169   1.254  13.610  0.0463 -0.0249  1.1323
  117TMC2    C8 1828   4.712   0.978  13.961 -0.4164  0.9754  0.1162
  117TMC2    O1 1829   0.274   1.271  13.673 -0.0948  0.2804 -0.0894
  117TMC2    O2 1830   0.080   1.010  14.023  0.1362  0.2421 -0.2534
  117TMC2    O5 1831   4.644   0.857  13.975 -0.0331  0.3202 -0.5307
  117TMC2    H5 1832   4.559   0.860  13.927  0.6917 -0.7141 -1.8956
  118MPD2     C 1833   0.132   1.511  13.348 -0.3848 -0.6306 -0.4385
  118MPD2    C1 1834   0.206   1.419  13.428 -0.0620  0.0629  0.8610
  118MPD2    C2 1835   0.345   1.436  13.439 -0.1483 -0.0256 -0.1922
  118MPD2    C3 1836   0.403   1.526  13.353 -0.0333 -0.1024 -0.9830
  118MPD2    C4 1837   0.328   1.607  13.267  0.2521 -0.2204  0.4495
  118MPD2    C5 1838   0.195   1.605  13.268  0.3568  0.4352  0.5873
  118MPD2     H 1839   0.401   1.391  13.520  2.6350  1.8593 -1.0963
  118MPD2    H1 1840   0.376   1.680  13.203  1.1862 -2.3467 -1.2648
  118MPD2    H2 1841   0.023   1.505  13.347 -0.3689 -1.1795  1.7832
  118MPD2    H3 1842   0.135   1.680  13.217  0.0419 -0.5252 -0.4669
  118MPD2     N 1843   0.547   1.549  13.339  0.2996  1.2434  0.0464
  118MPD2    H5 1844   0.576   1.633  13.290  1.6840  0.2685 -0.8138
  118MPD2    N1 1845   0.131   1.328  13.504 -0.0727 -0.1725  0.2503
  118MPD2    H7 1846   0.032   1.321  13.483 -0.0572 -0.6153  0.3211
  119TMC2    C1 1847   3.242   1.494  13.571  0.0750  0.3333 -0.2921
  119TMC2    C2 1848   3.321   1.455  13.466 -0.5026 -0.6530 -0.1028
  119TMC2    C3 1849   3.256   1.382  13.362 -0.1774 -0.4032  0.4946
  119TMC2    C4 1850   3.108   1.459  13.584  0.4972 -0.0095  0.2619
  119TMC2    C5 1851   3.048   1.383  13.485  0.3456 -1.3231  0.1403
  119TMC2    C6 1852   3.131   1.334  13.378  1.0840  0.1695  0.0205
  119TMC2     C 1853   3.279   1.599  13.658 -0.3218  0.1437  0.0100
  119TMC2     O 1854   3.197   1.646  13.739  0.1249 -0.2056 -0.4648
  119TMC2     H 1855   3.424   1.490  13.460 -0.8736  0.2365 -1.2574
  119TMC2    H1 1856   3.042   1.496  13.662  4.4321  2.2120  2.5361
  119TMC2    H2 1857   3.087   1.280  13.296  1.4328 -0.1446  0.0384
  119TMC2    C7 1858   2.906   1.373  13.475  0.4488  0.3748  0.0145
  119TMC2    C8 1859   3.324   1.368  13.232 -0.5281 -0.0032  0.5648
  119TMC2    O1 1860   2.854   1.341  13.365  0.1436  0.4728 -0.9341
  119TMC2    O2 1861   3.272   1.301  13.142 -0.4709 -0.0038  0.1280
  119TMC2    O5 1862   3.393   1.481  13.207 -0.1595 -0.0232 -0.3093
  119TMC2    H5 1863   3.387   1.545  13.281  3.7856  0.6345 -0.5603
  120MPD2     C 1864   3.631   1.913  13.862  0.3996 -0.2552 -0.0131
  120MPD2    C1 1865   3.492   1.926  13.872 -0.5887  0.3775  0.2464
  120MPD2    C2 1866   3.414   1.842  13.790 -0.3108  0.1157  0.6860
  120MPD2    C3 1867   3.475   1.754  13.705  0.6203  0.4550 -0.1226
  120MPD2    C4 1868   3.606   1.765  13.683 -0.3763 -0.3397 -0.0777
  120MPD2    C5 1869   3.682   1.842  13.763  0.8420 -0.0743 -0.0169
  120MPD2     H 1870   3.306   1.840  13.802 -0.3810 -1.6097 -0.1778
  120MPD2    H1 1871   3.675   1.704  13.625  0.1137  0.8221 -0.7062
  120MPD2    H2 1872   3.705   1.976  13.909 -1.1813  0.5199  1.4661
  120MPD2    H3 1873   3.788   1.852  13.743  0.7350  0.8655 -0.1194
  120MPD2     N 1874   3.409   1.649  13.631  0.5518 -0.1304 -0.3240
  120MPD2    H5 1875   3.468   1.598  13.566 -0.5539 -2.2462  0.3539
  120MPD2    N1 1876   3.435   2.013  13.966  0.3560  0.5048 -0.2111
  120MPD2    H7 1877   3.503   2.059  14.025 -1.5413  2.9079  0.1108
  121TMC2    C1 1878   4.608   4.095  14.426  0.2956  0.0642 -0.2735
  121TMC2    C2 1879   4.732   4.084  14.368  0.1091 -0.7265 -0.3039
  121TMC2    C3 1880   0.066   3.965  14.380  0.3148 -0.3107  0.0685
  121TMC2    C4 1881   4.539   3.984  14.468  1.1086  0.3300 -0.4344
  121TMC2    C5 1882   4.608   3.865  14.463  0.9567 -0.1461  0.0318
  121TMC2    C6 1883   0.007   3.855  14.432 -0.5315 -0.2109 -0.2016
  121TMC2     C 1884   4.536   4.221  14.415 -0.6413  0.1462 -0.2934
  121TMC2     O 1885   4.447   4.242  14.496 -0.0594 -0.5867 -0.1406
  121TMC2     H 1886   0.050   4.172  14.334  0.2322 -0.1978  1.2800
  121TMC2    H1 1887   4.445   3.997  14.520  1.3166 -0.4341  0.1408
  121TMC2    H2 1888   0.057   3.758  14.429  0.2360  0.2667 -3.2157
  121TMC2    C7 1889   4.526   3.750  14.467  0.7552 -0.2342  0.0316
  121TMC2    C8 1890   0.191   3.945  14.304  0.7507 -0.0447  0.5541
  121TMC2    O1 1891   4.594   3.649  14.448  0.1912 -0.0928  0.0382
  121TMC2    O2 1892   0.245   3.837  14.288 -0.1482 -0.1234 -0.0735
  121TMC2    O5 1893   0.252   4.063  14.273 -0.3527 -0.2236  0.6955
  121TMC2    H5 1894   0.335   4.058  14.220 -1.5275 -1.1905 -1.0597
  122MPD2     C 1895   4.479   4.501  14.365  0.9597  0.2945  0.4132
  122MPD2    C1 1896   4.517   4.407  14.267 -0.3175  0.1880  0.1810
  122MPD2    C2 1897   4.516   4.447  14.138 -0.6274 -0.5735 -0.8314
  122MPD2    C3 1898   4.465   4.578  14.102  0.3557 -0.5410 -0.0021
  122MPD2    C4 1899   4.449   4.673  14.200  0.2714  0.2247 -0.3313
  122MPD2    C5 1900   4.450   4.633  14.328  0.3667  0.0776  0.2548
  122MPD2     H 1901   4.548   4.381  14.059  2.7354  0.4089 -0.2670
  122MPD2    H1 1902   4.406   0.032  14.168 -1.3765 -0.3363  0.2288
  122MPD2    H2 1903   4.486   4.472  14.470 -0.6444  1.8546  0.9434
  122MPD2    H3 1904   4.426   4.709  14.402  0.9526  1.0119 -0.5163
  122MPD2     N 1905   4.420   4.606  13.969  0.1735  0.5909  0.5143
  122MPD2    H5 1906   4.386   4.700  13.949 -0.8574  0.1036 -0.0110
  122MPD2    N1 1907   4.556   4.279  14.298 -0.1146 -0.1050 -0.0490
  122MPD2    H7 1908   4.591   4.227  14.218 -0.5657  0.1876 -0.4390
  123TMC2    C1 1909   2.354   2.555  10.483  0.2237  0.0734 -0.5226
  123TMC2    C2 1910   2.287   2.673  10.457  0.3491  0.6830  0.1745
  123TMC2    C3 1911   2.281   2.706  10.323  0.3465  0.0420  0.7472
  123TMC2    C4 1912   2.419   2.479  10.389  0.1446  0.7343 -0.3301
  123TMC2    C5 1913   2.406   2.521  10.256  0.1639 -0.2634 -0.1137
  123TMC2    C6 1914   2.333   2.632  10.221  0.3611  0.4029  0.2623
  123TMC2     C 1915   2.293   2.463  10.586 -0.2675  0.1164 -1.1050
  123TMC2     O 1916   2.257   2.517  10.690 -0.0590  0.0077  0.0681
  123TMC2     H 1917   2.228   2.720  10.535  0.4447 -0.3739  0.8866
  123TMC2    H1 1918   2.472   2.388  10.414 -1.2074  0.3631  1.1622
  123TMC2    H2 1919   2.309   2.670  10.122 -0.8127  1.2318  0.8540
  123TMC2    C7 1920   2.440   2.407  10.166 -0.6248 -0.9491 -0.0272
  123TMC2    C8 1921   2.176   2.804  10.281  0.7236  0.2311 -0.1628
  123TMC2    O1 1922   2.431   2.293  10.205 -0.0782 -0.1844 -0.0581
  123TMC2    O2 1923   2.130   2.802  10.166  0.1325 -0.2815  0.0013
  123TMC2    O5 1924   2.223   2.919  10.346 -0.2947 -0.0190  0.4896
  123TMC2    H5 1925   2.295   2.907  10.411  0.3671 -0.5257 -0.3423
  124MPD2     C 1926   2.113   2.013  10.763 -0.9071  0.0005 -0.7706
  124MPD2    C1 1927   2.130   2.006  10.626  0.3822 -0.5403  0.5743
  124MPD2    C2 1928   2.186   2.114  10.557 -0.0422  0.8049  0.4560
  124MPD2    C3 1929   2.241   2.221  10.627  0.0590  0.1736  0.5901
  124MPD2    C4 1930   2.226   2.224  10.765 -0.1588 -0.4504 -0.2811
  124MPD2    C5 1931   2.159   2.125  10.827 -0.3321 -0.3174 -0.4401
  124MPD2     H 1932   2.184   2.127  10.450  0.2156 -3.4766 -0.0778
  124MPD2    H1 1933   2.261   2.305  10.828 -2.1644 -0.7066  1.1855
  124MPD2    H2 1934   2.080   1.928  10.821 -0.1956  0.0230 -0.3264
  124MPD2    H3 1935   2.147   2.129  10.935 -1.2811  0.1502 -0.5661
  124MPD2     N 1936   2.287   2.330  10.544  0.1394  0.2098 -0.5812
  124MPD2    H5 1937   2.308   2.314  10.446  1.2747 -0.3961 -0.2448
  124MPD2    N1 1938   2.080   1.889  10.556 -0.4757  0.1877 -0.1278
  124MPD2    H7 1939   2.040   1.819  10.617 -2.7580  0.4145 -1.3675
  125TMC2    C1 1940   3.375   3.365  10.314 -0.1025 -0.0575 -0.8324
  125TMC2    C2 1941   3.369   3.371  10.452 -0.3821  0.1561  1.0024
  125TMC2    C3 1942   3.406   3.492  10.512 -0.3692 -0.0548  0.2880
  125TMC2    C4 1943   3.419   3.469  10.243  0.3703 -0.3599 -0.5932
  125TMC2    C5 1944   3.439   3.592  10.303 -0.2963 -0.5810  0.7644
  125TMC2    C6 1945   3.434   3.601  10.435  0.1158  0.2576 -0.0252
  125TMC2     C 1946   3.331   3.241  10.256  0.5596  0.0047 -0.4530
  125TMC2     O 1947   3.332   3.139  10.326  0.3181 -0.2283 -0.0764
  125TMC2     H 1948   3.331   3.288  10.511 -0.1419 -1.0443 -0.5086
  125TMC2    H1 1949   3.439   3.461  10.136 -1.0912  1.0998 -0.9830
  125TMC2    H2 1950   3.460   3.690  10.491  1.6599  0.4984 -1.1347
  125TMC2    C7 1951   3.479   3.708  10.227  1.0382  0.0479 -1.0103
  125TMC2    C8 1952   3.355   3.518  10.643  0.3690  0.0999 -0.7709
  125TMC2    O1 1953   3.553   3.778  10.292  0.2239  0.6222  0.1238
  125TMC2    O2 1954   3.292   3.620  10.662 -0.7665  0.5529 -0.4080
  125TMC2    O5 1955   3.328   3.403  10.705 -0.3687 -0.6073 -0.3843
  125TMC2    H5 1956   3.395   3.336  10.679 -0.1349 -0.8237  0.7851
  126MPD1     C 1957   3.352   2.956   9.840 -0.3658  0.1168  0.3045
  126MPD1    C1 1958   3.303   3.082   9.805 -0.3947 -0.3064 -0.0283
  126MPD1    C2 1959   3.300   3.183   9.899  0.2518 -0.1016 -0.1925
  126MPD1    C3 1960   3.331   3.156  10.026 -0.1845  0.3927  0.9709
  126MPD1    C4 1961   3.396   3.036  10.056  1.2021  0.2866 -0.2785
  126MPD1    C5 1962   3.407   2.934   9.961  0.1150  0.3394  0.1690
  126MPD1     H 1963   3.258   3.280   9.874  0.1170  0.0339  0.5611
  126MPD1    H1 1964   3.431   3.024  10.157 -1.2206 -2.9137  0.1725
  126MPD1    H2 1965   3.357   2.881   9.761  1.2578  0.7729 -0.2151
  126MPD1    H3 1966   3.440   2.833   9.983  0.7135  0.4769 -0.1297
  126MPD1     N 1967   3.309   3.257  10.122 -0.3127 -0.5799 -0.6330
  126MPD1    H5 1968   3.288   3.351  10.091  0.6844  0.1156  0.7758
  126MPD1    N1 1969   3.265   3.099   9.666  0.0658  0.1045 -0.4917
  126MPD1    H6 1970   3.243   3.016   9.611 -3.4677  0.6538  0.0977
  126MPD1    H7 1971   3.219   3.182   9.630  0.5384 -0.0622 -1.5005
  127TMC2    C1 1972   3.887   2.020   9.810 -0.0251  0.7208 -0.3158
  127TMC2    C2 1973   3.988   1.949   9.872 -0.5882 -0.0066 -0.2707
  127TMC2    C3 1974   3.966   1.861   9.973  0.7293 -0.0033 -0.1557
  127TMC2    C4 1975   3.757   1.984   9.840  0.7801  0.3364  0.7423
  127TMC2    C5 1976   3.735   1.877   9.922 -0.0019  0.7594 -0.1771
  127TMC2    C6 1977   3.839   1.819   9.995  0.2946  0.0061 -0.0367
  127TMC2     C 1978   3.919   2.134   9.738 -0.4635  0.4137 -0.1069
  127TMC2     O 1979   4.025   2.191   9.764 -0.5511 -0.2098 -0.1385
  127TMC2     H 1980   4.094   1.958   9.847 -1.0661  0.9423 -1.9359
  127TMC2    H1 1981   3.676   2.050   9.811 -0.2529 -0.9068  0.7904
  127TMC2    H2 1982   3.817   1.738  10.064  2.0204 -0.1051  0.3754
  127TMC2    C7 1983   3.592   1.857   9.962  0.8951  1.0900 -0.4694
  127TMC2    C8 1984   4.077   1.810  10.054  0.2244 -0.2535 -0.4679
  127TMC2    O1 1985   3.515   1.894   9.875 -0.4241  0.1877  0.2579
  127TMC2    O2 1986   4.195   1.826  10.021 -0.4382  0.3376  0.2147
  127TMC2    O5 1987   4.019   1.813  10.173  0.1611  1.0501 -0.4212
  127TMC2    H5 1988   3.933   1.860  10.175 -0.6490 -0.3822 -1.8031
  128MPD2     C 1989   3.703   2.294   9.469  0.3761 -0.0292 -0.2894
  128MPD2    C1 1990   3.816   2.279   9.550 -0.3563  0.0551  0.2671
  128MPD2    C2 1991   3.917   2.378   9.550 -0.4614  0.9833 -0.6045
  128MPD2    C3 1992   3.901   2.487   9.462 -0.1222 -0.6168  0.0162
  128MPD2    C4 1993   3.787   2.496   9.388 -0.2071 -0.0425 -0.4157
  128MPD2    C5 1994   3.688   2.400   9.387  0.1377  0.2394 -0.4502
  128MPD2     H 1995   4.005   2.375   9.613 -0.7376 -0.1277 -0.2745
  128MPD2    H1 1996   3.756   2.571   9.316 -1.0060 -1.2199 -1.2984
  128MPD2    H2 1997   3.619   2.227   9.460 -0.2842  0.3325  2.9713
  128MPD2    H3 1998   3.598   2.408   9.326  0.2178 -1.5270 -0.7830
  128MPD2     N 1999   4.010   2.581   9.459  0.4524  0.0753 -0.4541
  128MPD2    H5 2000   4.087   2.576   9.525  0.5459  2.2099 -0.4184
  128MPD2    N1 2001   3.823   2.165   9.641  0.2443  0.0656 -0.3473
  128MPD2    H7 2002   3.739   2.109   9.633 -1.0273  1.5199  2.7380
  129TMC2    C1 2003   3.576   3.437   1.141 -0.4001  0.4087 -0.0288
  129TMC2    C2 2004   3.681   3.498   1.075 -0.2204 -0.8028  0.6155
  129TMC2    C3 2005   3.780   3.416   1.038  0.0085 -0.5557  0.5091
  129TMC2    C4 2006   3.581   3.306   1.170  0.0567 -0.3855  0.3571
  129TMC2    C5 2007   3.679   3.227   1.116  0.2923  0.0694 -0.1886
  129TMC2    C6 2008   3.787   3.280   1.048 -0.7321  0.1365  0.3476
  129TMC2     C 2009   3.472   3.510   1.212 -0.2143 -0.1912 -0.0309
  129TMC2     O 2010   3.366   3.452   1.233 -0.3095 -0.0132 -0.7262
  129TMC2     H 2011   3.663   3.594   1.028  0.1446 -2.0385 -2.0612
  129TMC2    H1 2012   3.502   3.253   1.221 -1.1043  0.2526 -0.7601
  129TMC2    H2 2013   3.867   3.219   1.008 -0.7554 -0.0195  0.5379
  129TMC2    C7 2014   3.651   3.090   1.105 -0.2895  0.1438  0.0358
  129TMC2    C8 2015   3.882   3.470   0.957  0.2816 -0.0513  0.1145
  129TMC2    O1 2016   3.533   3.057   1.101  0.1842 -0.7408 -0.1663
  129TMC2    O2 2017   3.954   3.417   0.876  1.0276 -0.5693  0.0045
  129TMC2    O5 2018   3.922   3.579   1.022 -0.0372  0.1795  0.2211
  129TMC2    H5 2019   3.868   3.604   1.099 -1.0948 -0.0798 -0.4338
  130MPD2     C 2020   3.324   3.686   1.399 -0.1766  0.2931  0.3116
  130MPD2    C1 2021   3.443   3.718   1.329  0.0197  0.3795  0.4763
  130MPD2    C2 2022   3.494   3.841   1.347  0.1730 -0.0515  0.5970
  130MPD2    C3 2023   3.433   3.937   1.424  0.4806  0.0833  0.7352
  130MPD2    C4 2024   3.296   3.920   1.452  0.1983 -0.0716  0.5186
  130MPD2    C5 2025   3.246   3.793   1.445  0.0029  0.1446  0.0395
  130MPD2     H 2026   3.592   3.862   1.306 -0.3219  0.9594 -0.0791
  130MPD2    H1 2027   3.232   4.003   1.482  2.1019  1.6449 -0.2316
  130MPD2    H2 2028   3.269   3.593   1.399 -0.6744  0.5835 -0.8585
  130MPD2    H3 2029   3.150   3.774   1.490  0.5419 -0.8536  0.7709
  130MPD2     N 2030   3.516   4.051   1.456  0.1930  0.1095 -0.4058
  130MPD2    H5 2031   3.610   4.047   1.418 -0.3594 -2.8160 -1.4375
  130MPD2    N1 2032   3.511   3.634   1.240  0.1497  0.2720 -0.1773
  130MPD2    H7 2033   3.605   3.666   1.216 -0.2173  1.0632 -0.5438
  131TMC2    C1 2034   2.222   2.216   9.592 -0.3313 -0.4154 -0.0416
  131TMC2    C2 2035   2.282   2.214   9.469  0.0294 -0.5875  0.1361
  131TMC2    C3 2036   2.321   2.331   9.417  0.2433 -0.8014 -0.0559
  131TMC2    C4 2037   2.198   2.335   9.656 -0.2605  0.0881  0.2937
  131TMC2    C5 2038   2.227   2.455   9.593 -1.1179 -0.1709 -0.0064
  131TMC2    C6 2039   2.303   2.453   9.482 -0.4818  0.0880 -0.6330
  131TMC2     C 2040   2.191   2.104   9.671 -0.1369 -0.3576 -0.8295
  131TMC2     O 2041   2.175   2.120   9.792 -0.1456  0.2100 -0.2835
  131TMC2     H 2042   2.309   2.121   9.419 -0.5822 -0.6222 -0.1394
  131TMC2    H1 2043   2.134   2.337   9.744 -1.9265 -2.0873 -0.8605
  131TMC2    H2 2044   2.333   2.547   9.437  3.1669 -0.7791 -0.0146
  131TMC2    C7 2045   2.219   2.578   9.671  0.5323  0.1843 -0.2488
  131TMC2    C8 2046   2.362   2.326   9.278  0.2249 -0.0292  0.3036
  131TMC2    O1 2047   2.119   2.584   9.744 -0.4067  0.0953 -0.6183
  131TMC2    O2 2048   2.389   2.219   9.220 -1.0498 -0.2778  0.1534
  131TMC2    O5 2049   2.282   2.416   9.229  0.3251 -0.1896  0.2233
  131TMC2    H5 2050   2.241   2.485   9.286 -0.4179  0.5405 -1.1965
  132MPD2     C 2051   2.157   1.752   9.575 -0.2505 -0.5338  0.0548
  132MPD2    C1 2052   2.142   1.860   9.659 -0.1513 -0.2725 -0.0635
  132MPD2    C2 2053   2.097   1.835   9.789  0.3308 -0.0960 -0.3206
  132MPD2    C3 2054   2.062   1.714   9.839 -0.4593 -0.4851  0.1849
  132MPD2    C4 2055   2.076   1.607   9.750 -0.3289  0.0355  0.3696
  132MPD2    C5 2056   2.125   1.627   9.618  0.0494 -0.4091 -0.0606
  132MPD2     H 2057   2.075   1.917   9.856  0.0839  0.4611 -1.0915
  132MPD2    H1 2058   2.067   1.506   9.787  0.8040  0.2833  1.3361
  132MPD2    H2 2059   2.182   1.765   9.471  0.5730  1.0304  0.4548
  132MPD2    H3 2060   2.124   1.543   9.550  0.4749 -1.4252  1.1993
  132MPD2     N 2061   2.020   1.706   9.978 -0.0455  0.0413 -0.4937
  132MPD2    H5 2062   2.009   1.793  10.028  0.2881 -0.0911 -0.1922
  132MPD2    N1 2063   2.180   1.986   9.603  0.0431 -0.2721  0.0108
  132MPD2    H7 2064   2.180   1.992   9.502 -0.8586 -1.6769 -0.0730
  133TMC2    C1 2065   0.183   3.482   8.370  0.1767 -0.3587 -0.0512
  133TMC2    C2 2066   0.156   3.443   8.246 -0.9737 -0.5810  0.3163
  133TMC2    C3 2067   0.125   3.547   8.153 -0.4086  0.0572  0.4047
  133TMC2    C4 2068   0.178   3.608   8.414 -0.0792 -0.1323 -0.0224
  133TMC2    C5 2069   0.124   3.703   8.329 -0.3430 -0.5665 -0.5545
  133TMC2    C6 2070   0.105   3.675   8.201  0.2322  0.4518 -0.6353
  133TMC2     C 2071   0.233   3.389   8.462  0.4036 -0.0761 -0.2401
  133TMC2     O 2072   0.304   3.431   8.554 -0.2787  0.1013  0.2838
  133TMC2     H 2073   0.164   3.339   8.214  0.1411 -0.2873 -0.3477
  133TMC2    H1 2074   0.194   3.633   8.518  1.0026 -0.8252 -0.0200
  133TMC2    H2 2075   0.092   3.752   8.125  0.7904  0.4142 -0.7690
  133TMC2    C7 2076   0.132   3.846   8.366  0.3115  0.0766 -0.4117
  133TMC2    C8 2077   0.099   3.500   8.018 -0.2329  0.2416 -0.2172
  133TMC2    O1 2078   0.089   3.929   8.289  0.1957 -0.0423 -0.1741
  133TMC2    O2 2079   0.129   3.384   7.981  0.0161  0.3971  0.0500
  133TMC2    O5 2080   4.734   3.572   7.969 -0.3516 -0.0282  0.5128
  133TMC2    H5 2081   4.704   3.654   8.013 -0.3869 -0.6544  1.6417
  134MPD2     C 2082   0.257   3.030   8.445 -0.6234 -0.4381 -0.2889
  134MPD2    C1 2083   0.255   3.154   8.508  0.3891 -0.6946  0.3533
  134MPD2    C2 2084   0.305   3.152   8.641 -1.1430 -0.2600 -0.0374
  134MPD2    C3 2085   0.344   3.039   8.709 -0.3606  0.3780  0.3174
  134MPD2    C4 2086   0.346   2.919   8.646  1.0906 -0.2335 -0.3923
  134MPD2    C5 2087   0.306   2.917   8.517 -0.2005 -0.0347 -0.3553
  134MPD2     H 2088   0.310   3.250   8.686  0.4905 -0.4463  0.1941
  134MPD2    H1 2089   0.379   2.825   8.690 -1.2189 -0.0569  1.7144
  134MPD2    H2 2090   0.229   3.013   8.342 -0.6178  1.3809 -0.5897
  134MPD2    H3 2091   0.308   2.823   8.463 -1.7933 -1.7122  2.4799
  134MPD2     N 2092   0.382   3.034   8.848 -0.3237  0.0119  0.5243
  134MPD2    H5 2093   0.414   2.946   8.887  2.0461  2.0315  3.1399
  134MPD2    N1 2094   0.195   3.263   8.443 -0.5199 -0.2570  0.7505
  134MPD2    H7 2095   0.141   3.257   8.357  0.1014 -1.5372  0.4595
  135TMC2    C1 2096   3.961   4.657   9.873  0.1531 -0.4746 -0.1387
  135TMC2    C2 2097   3.980   4.704  10.000 -0.3934 -0.7464  0.2277
  135TMC2    C3 2098   3.883   0.050  10.045  0.0695  0.6419  0.1440
  135TMC2    C4 2099   3.848   4.687   9.803  0.1266  0.4293  0.3701
  135TMC2    C5 2100   3.746   0.018   9.869 -0.3446 -0.4300  0.2682
  135TMC2    C6 2101   3.758   0.074   9.992 -0.3064 -0.3803  0.8447
  135TMC2     C 2102   4.055   4.558   9.828  0.4862  0.4341 -0.1432
  135TMC2     O 2103   4.156   4.534   9.895  0.3037 -0.5091  0.0679
  135TMC2     H 2104   4.081   4.704  10.040 -0.6275 -1.3268  0.8116
  135TMC2    H1 2105   3.832   4.661   9.699  1.5051  1.7256 -0.1635
  135TMC2    H2 2106   3.678   0.127  10.040  0.0638 -1.7962  3.0142
  135TMC2    C7 2107   3.606   4.723   9.825 -0.4139  0.2290  0.0096
  135TMC2    C8 2108   3.908   0.133  10.155  0.2903 -0.2352  0.4332
  135TMC2    O1 2109   3.575   4.723   9.703  0.5111  0.2338 -0.2958
  135TMC2    O2 2110   3.845   0.239  10.178 -0.3275 -0.8947  0.2061
  135TMC2    O5 2111   3.992   0.076  10.243  0.4361  0.2321  0.2252
  135TMC2    H5 2112   4.028   4.722  10.224 -1.4772 -0.2547 -1.1232
  136MPD2     C 2113   4.219   4.392   9.655  0.0916  0.0269  0.3753
  136MPD2    C1 2114   4.091   4.418   9.625 -0.0380  0.2287 -0.3463
  136MPD2    C2 2115   4.029   4.353   9.523 -1.0022  0.1407 -0.2012
  136MPD2    C3 2116   4.090   4.252   9.447 -0.2237 -0.4974  0.2958
  136MPD2    C4 2117   4.222   4.234   9.471 -0.2255  0.7201 -0.8611
  136MPD2    C5 2118   4.284   4.297   9.577  0.3312 -0.1774 -0.6156
  136MPD2     H 2119   3.928   4.379   9.494 -0.2713  0.3513 -2.5190
  136MPD2    H1 2120   4.276   4.154   9.421 -1.2907  0.7098 -1.9903
  136MPD2    H2 2121   4.270   4.459   9.722  1.9618 -1.1461  0.1293
  136MPD2    H3 2122   4.391   4.289   9.594 -0.0452  0.1551  1.8001
  136MPD2     N 2123   4.031   4.185   9.336  0.4356  0.5263 -0.2927
  136MPD2    H5 2124   4.094   4.140   9.270  1.2880  0.7567  0.3588
  136MPD2    N1 2125   4.008   4.505   9.704  0.2305  0.9219  0.6515
  136MPD2    H7 2126   3.916   4.527   9.667  1.4906  0.4886 -2.8012
  137TMC2    C1 2127   3.761   2.428  10.330 -0.5726  0.4035 -0.0554
  137TMC2    C2 2128   3.823   2.308  10.368 -0.3882 -0.3665  0.0101
  137TMC2    C3 2129   3.783   2.201  10.285 -0.3141  0.5157 -0.7220
  137TMC2    C4 2130   3.672   2.431  10.229  0.5646  0.0386 -0.4384
  137TMC2    C5 2131   3.631   2.316  10.165  0.5557 -0.4150  0.7850
  137TMC2    C6 2132   3.697   2.196  10.181  0.5946  0.1323  0.0669
  137TMC2     C 2133   3.808   2.555  10.376 -0.4850 -0.2616  0.0459
  137TMC2     O 2134   3.745   2.658  10.343 -0.2367  0.6662  0.2832
  137TMC2     H 2135   3.901   2.307  10.444  0.7707  2.9856 -1.1305
  137TMC2    H1 2136   3.617   2.521  10.205 -0.2381  0.1250  1.6850
  137TMC2    H2 2137   3.666   2.103  10.135  1.6362 -0.3528  0.3658
  137TMC2    C7 2138   3.551   2.324  10.042  0.2783 -0.1065 -0.0199
  137TMC2    C8 2139   3.851   2.068  10.299 -0.3302  0.8595  0.3122
  137TMC2    O1 2140   3.582   2.238   9.965 -0.6177  0.1764  0.0296
  137TMC2    O2 2141   3.807   1.968  10.241 -0.6513  0.1941 -0.0401
  137TMC2    O5 2142   3.990   2.087  10.309 -0.1820 -0.2672 -0.2593
  137TMC2    H5 2143   4.002   2.182  10.326 -0.7428 -0.4712  1.2498
  138MPD2     C 2144   4.077   2.634  10.611  0.3903  0.4293  0.6055
  138MPD2    C1 2145   3.968   2.666  10.531 -0.2997  0.1348 -0.0490
  138MPD2    C2 2146   3.909   2.789  10.540 -0.2121 -0.4029  0.0410
  138MPD2    C3 2147   3.960   2.885  10.627  0.2851  0.1153 -0.4321
  138MPD2    C4 2148   4.070   2.860  10.702  0.0519  0.0522  0.7740
  138MPD2    C5 2149   4.124   2.734  10.697  0.0675 -0.3073 -0.0028
  138MPD2     H 2150   3.832   2.809  10.467 -0.9008 -1.3562  0.5152
  138MPD2    H1 2151   4.126   2.931  10.763  0.1561 -0.0046  0.7449
  138MPD2    H2 2152   4.137   2.547  10.587 -1.6447 -0.1258 -2.4237
  138MPD2    H3 2153   4.222   2.717  10.739 -0.5961 -1.3562  1.1121
  138MPD2     N 2154   3.910   3.017  10.606  0.2297 -0.1994  0.8126
  138MPD2    H5 2155   3.824   3.029  10.555  0.3706  0.7906  0.8163
  138MPD2    N1 2156   3.923   2.553  10.455  0.0168 -0.1090  0.3402
  138MPD2    H7 2157   3.966   2.462  10.466 -0.9118 -0.6009 -0.0281
  139TMC2    C1 2158   4.287   1.376  13.126 -0.4733 -0.2773  0.0475
  139TMC2    C2 2159   4.238   1.395  13.001 -0.1512  0.4806  0.0689
  139TMC2    C3 2160   4.111   1.439  12.996 -0.1179  0.0926  0.5698
  139TMC2    C4 2161   4.229   1.427  13.240 -0.1062 -0.3719  0.6318
  139TMC2    C5 2162   4.109   1.480  13.221  1.3259  0.2688  0.3728
  139TMC2    C6 2163   4.048   1.488  13.101  0.3280  0.1023 -1.1774
  139TMC2     C 2164   4.434   1.371  13.136 -0.7058  0.6572 -0.8155
  139TMC2     O 2165   4.489   1.333  13.235  0.0173 -0.6154  0.0516
  139TMC2     H 2166   4.297   1.367  12.915  2.0421  1.5085  1.2397
  139TMC2    H1 2167   4.299   1.440  13.323  0.4431 -0.6879  0.2237
  139TMC2    H2 2168   3.947   1.526  13.092 -0.5456 -1.4937  1.5976
  139TMC2    C7 2169   4.059   1.577  13.316 -0.4296 -0.6400  0.1632
  139TMC2    C8 2170   4.049   1.467  12.867 -0.2912 -0.6229 -0.4043
  139TMC2    O1 2171   4.018   1.676  13.265  0.0577 -0.0359  0.0510
  139TMC2    O2 2172   3.954   1.545  12.866 -0.2177 -0.6557  0.0375
  139TMC2    O5 2173   4.043   1.337  12.827  0.1780 -0.0194 -0.1117
  139TMC2    H5 2174   4.131   1.294  12.825 -0.2690 -1.0644  3.0186
  140MPD2     C 2175   4.658   1.606  12.974  0.1552 -0.3625  0.4968
  140MPD2    C1 2176   4.622   1.493  13.042  0.1617 -0.1421 -0.3570
  140MPD2    C2 2177   4.716   1.407  13.069  0.7532 -0.3391  0.4862
  140MPD2    C3 2178   0.110   1.421  13.035 -0.6821 -0.1595  0.6497
  140MPD2    C4 2179   0.147   1.537  12.961 -0.5548  0.1969  0.1147
  140MPD2    C5 2180   0.052   1.627  12.935  0.1969  0.2962  0.4283
  140MPD2     H 2181   4.687   1.320  13.127 -0.0117  1.4920  2.8668
  140MPD2    H1 2182   0.251   1.564  12.946 -1.2049  2.5666 -0.0784
  140MPD2    H2 2183   4.581   1.678  12.951  0.1723 -0.4949  0.0122
  140MPD2    H3 2184   0.076   1.719  12.884  0.7292  0.1307  0.3801
  140MPD2     N 2185   0.198   1.322  13.075  0.0991  0.1088  0.0306
  140MPD2    H5 2186   0.176   1.243  13.135 -0.9398  0.5204  0.2044
  140MPD2    N1 2187   4.481   1.469  13.054  0.2056 -0.4967 -0.8920
  140MPD2    H7 2188   4.418   1.525  12.997  1.4762  2.6088  0.7499
  141TMC2    C1 2189   0.481   3.241  13.839  0.4185  0.5103  0.4355
  141TMC2    C2 2190   0.376   3.323  13.881  0.4748  0.1694  0.0688
  141TMC2    C3 2191   0.338   3.315  14.012  0.8358  0.2827  0.3902
  141TMC2    C4 2192   0.552   3.160  13.928  0.2401  0.6146  0.2836
  141TMC2    C5 2193   0.505   3.155  14.054 -0.3954 -0.1409 -0.7816
  141TMC2    C6 2194   0.400   3.228  14.102 -0.0752  0.2284 -0.1338
  141TMC2     C 2195   0.482   3.207  13.700  0.4661  0.3479  0.1382
  141TMC2     O 2196   0.448   3.295  13.620  0.6277  0.4536 -0.5073
  141TMC2     H 2197   0.322   3.393  13.818 -0.2719  1.2508  1.9194
  141TMC2    H1 2198   0.633   3.092  13.905 -0.6531 -0.5488  0.5908
  141TMC2    H2 2199   0.374   3.215  14.206 -1.5001 -2.5372 -0.8385
  141TMC2    C7 2200   0.540   3.037  14.127 -1.0800  0.4451  0.3400
  141TMC2    C8 2201   0.223   3.376  14.053  0.3489  0.3164  0.0786
  141TMC2    O1 2202   0.448   2.969  14.174 -0.2953  0.0427 -0.5574
  141TMC2    O2 2203   0.147   3.334  14.142 -0.5047 -0.0501 -0.2418
  141TMC2    O5 2204   0.220   3.504  14.010 -0.0430  0.3926  0.3939
  141TMC2    H5 2205   0.296   3.527  13.954  0.1253 -0.3736  0.3160
  142TMC2    C1 2206   2.453   1.588   9.977  0.2223 -0.5153  0.5357
  142TMC2    C2 2207   2.571   1.548   9.924  0.0265 -0.3020 -0.5736
  142TMC2    C3 2208   2.645   1.643   9.855 -0.0609  0.1513  0.1203
  142TMC2    C4 2209   2.407   1.716   9.972 -0.5313  0.0294 -0.3207
  142TMC2    C5 2210   2.478   1.807   9.891  0.2386  1.2348  0.0872
  142TMC2    C6 2211   2.597   1.769   9.835  0.6344  0.6877 -1.4354
  142TMC2     C 2212   2.379   1.496  10.051  0.2097  0.0167 -0.3498
  142TMC2     O 2213   2.369   1.384  10.000 -0.2431 -0.0426  0.2895
  142TMC2     H 2214   2.591   1.443   9.908  0.6034 -0.2886  0.0801
  142TMC2    H1 2215   2.311   1.748  10.012  0.6177  2.5354  0.4133
  142TMC2    H2 2216   2.660   1.840   9.782  1.4044 -1.1753 -3.0327
  142TMC2    C7 2217   2.458   1.946   9.902  0.1801 -0.8731 -0.6671
  142TMC2    C8 2218   2.766   1.592   9.779  0.5289 -0.0593  0.1344
  142TMC2    O1 2219   2.383   1.969   9.998 -0.0030  0.0234 -0.2289
  142TMC2    O2 2220   2.845   1.501   9.814  0.2300 -0.3336 -0.2095
  142TMC2    O5 2221   2.761   1.655   9.664  0.1447 -0.3404  0.6421
  142TMC2    H5 2222   2.671   1.692   9.647  1.0492  0.3307 -2.5665
  143MPD2     C 2223   2.162   1.357  10.491 -0.4892 -0.4045  0.2992
  143MPD2    C1 2224   2.144   1.300  10.365  0.0536  0.2167  0.2852
  143MPD2    C2 2225   2.205   1.366  10.256  0.5026 -0.0641  0.0832
  143MPD2    C3 2226   2.287   1.478  10.277 -0.2996  0.4310  0.3573
  143MPD2    C4 2227   2.292   1.535  10.400  0.6487 -0.0297 -0.2345
  143MPD2    C5 2228   2.245   1.466  10.507 -0.3787 -0.2592 -0.3193
  143MPD2     H 2229   2.192   1.324  10.157  2.2743 -0.8603  0.2060
  143MPD2    H1 2230   2.353   1.624  10.411 -0.2264  0.6329 -0.7699
  143MPD2    H2 2231   2.125   1.307  10.580 -2.1549  1.1015  0.4815
  143MPD2    H3 2232   2.258   1.498  10.609 -0.1473  1.0911 -0.7747
  143MPD2     N 2233   2.352   1.545  10.176 -0.1320 -0.6357 -0.4549
  143MPD2    H5 2234   2.401   1.632  10.197 -0.0020 -0.5997 -0.9056
  143MPD2    N1 2235   2.043   1.198  10.345  0.2331  0.0855  0.5984
  143MPD2    H7 2236   2.027   1.185  10.246  1.6125  0.2288  0.3609
  144TMC2    C1 2237   1.264   0.475   0.713  0.3348 -0.7102 -0.1386
  144TMC2    C2 2238   1.356   0.402   0.654  0.7789 -0.5463  0.0272
  144TMC2    C3 2239   1.463   0.356   0.729  0.4821  0.2770  0.0914
  144TMC2    C4 2240   1.260   0.499   0.844 -0.3335 -0.1879  0.4240
  144TMC2    C5 2241   1.364   0.455   0.916 -0.0571  0.2150 -0.0061
  144TMC2    C6 2242   1.464   0.378   0.859  0.4017 -0.0414 -0.2381
  144TMC2     C 2243   1.158   0.523   0.621 -0.1587  0.1070 -0.5185
  144TMC2     O 2244   1.140   0.451   0.524  0.5627  0.1732 -0.3959
  144TMC2     H 2245   1.351   0.369   0.551 -0.1922  0.6079 -0.3011
  144TMC2    H1 2246   1.165   0.513   0.895 -0.5984  1.2982 -0.4993
  144TMC2    H2 2247   1.552   0.363   0.921  1.5124 -1.1813 -2.0784
  144TMC2    C7 2248   1.358   0.455   1.062 -0.0351  0.0502 -0.4046
  144TMC2    C8 2249   1.569   0.279   0.661 -0.4679  0.4869 -0.7897
  144TMC2    O1 2250   1.430   0.377   1.120  0.8022 -0.0983  0.5952
  144TMC2    O2 2251   1.548   0.207   0.563  0.5646  0.1375  0.0105
  144TMC2    O5 2252   1.684   0.287   0.737  0.6292  0.2700  0.0192
  144TMC2    H5 2253   1.680   0.352   0.810 -0.4846 -0.8769  0.9839
  145MPD2     C 2254   0.690   0.751   0.573 -0.5204  0.3425 -0.0012
  145MPD2    C1 2255   0.754   0.652   0.490  0.2648 -0.1316  0.5536
  145MPD2    C2 2256   0.877   0.612   0.522  0.2174 -0.3505  0.1162
  145MPD2    C3 2257   0.953   0.669   0.621  0.5796  0.3956 -0.4462
  145MPD2    C4 2258   0.892   0.770   0.688 -0.3610  0.2365  0.3153
  145MPD2    C5 2259   0.762   0.808   0.674  0.0736 -0.2307  0.4280
  145MPD2     H 2260   0.919   0.535   0.459 -0.0235 -0.8076  0.5052
  145MPD2    H1 2261   0.942   0.808   0.777  1.9968  0.9967 -1.3353
  145MPD2    H2 2262   0.587   0.780   0.553 -0.6180  0.2298  0.3392
  145MPD2    H3 2263   0.721   0.877   0.747  0.6058  1.1345 -0.5651
  145MPD2     N 2264   1.083   0.625   0.665  0.6823  0.3131  0.3248
  145MPD2    H5 2265   1.114   0.672   0.750  1.9090 -1.6978  0.9823
  145MPD2    N1 2266   0.692   0.603   0.372  0.3460  0.3881  0.2945
  145MPD2    H7 2267   0.743   0.523   0.335 -0.6693 -0.1510  0.0504
  146TMC2    C1 2268   2.387   3.646  12.521  0.2000 -0.5575  0.4140
  146TMC2    C2 2269   2.310   3.671  12.408  0.8196 -0.6200 -0.5596
  146TMC2    C3 2270   2.352   3.622  12.290 -0.2761  0.2450 -0.0483
  146TMC2    C4 2271   2.504   3.587  12.520  0.3614 -0.3546 -0.2537
  146TMC2    C5 2272   2.535   3.527  12.400  0.5238 -0.1779 -1.0308
  146TMC2    C6 2273   2.462   3.544  12.286  0.3283 -0.1881  0.0698
  146TMC2     C 2274   2.355   3.734  12.633 -0.0344 -0.0683 -1.0775
  146TMC2     O 2275   2.302   3.841  12.612  0.1295  0.0778 -0.0038
  146TMC2     H 2276   2.214   3.720  12.421  0.1214 -1.9766 -0.6747
  146TMC2    H1 2277   2.572   3.586  12.605  1.0619 -0.5697 -0.8206
  146TMC2    H2 2278   2.487   3.497  12.191  1.3545 -0.7958  0.6441
  146TMC2    C7 2279   2.663   3.458  12.376  0.2272 -0.8022  0.2025
  146TMC2    C8 2280   2.251   3.623  12.188  0.3406  0.5328  0.1100
  146TMC2    O1 2281   2.703   3.454  12.259 -0.3448 -0.1141  0.3319
  146TMC2    O2 2282   2.240   3.547  12.099  0.0917 -0.4080  0.0350
  146TMC2    O5 2283   2.250   3.755  12.168  0.2098  0.0382 -0.1339
  146TMC2    H5 2284   2.287   3.793  12.250  1.1576 -1.3429  0.0794
  147MPD2     C 2285   3.075   3.196  12.532 -0.2678 -0.1051 -0.3152
  147MPD2    C1 2286   3.007   3.237  12.640  0.1612  0.8071  0.4850
  147MPD2    C2 2287   2.879   3.295  12.621  0.0103  0.3114  0.0482
  147MPD2    C3 2288   2.841   3.333  12.498  0.8450 -0.3912 -0.1076
  147MPD2    C4 2289   2.923   3.310  12.385  0.3273  0.2862  0.5457
  147MPD2    C5 2290   3.036   3.229  12.401  0.3268 -1.4474 -0.3213
  147MPD2     H 2291   2.820   3.332  12.704  0.1832  0.0625  0.2805
  147MPD2    H1 2292   2.900   3.332  12.282 -1.3985 -2.0865  0.4421
  147MPD2    H2 2293   3.163   3.133  12.533 -1.4225 -1.6945  1.0621
  147MPD2    H3 2294   3.098   3.194  12.320  0.5390 -1.5883 -0.0958
  147MPD2     N 2295   2.719   3.405  12.486  0.4758  0.1637  0.4842
  147MPD2    H5 2296   2.665   3.402  12.572 -1.4561 -0.6105 -0.7566
  147MPD2    N1 2297   3.052   3.198  12.769 -0.0262 -0.3091 -0.7137
  147MPD2    H7 2298   3.139   3.146  12.761 -0.7301 -1.2701 -2.1280
  148TMC2    C1 2299   1.763   2.170  10.500 -0.2846 -1.0422  0.4799
  148TMC2    C2 2300   1.859   2.268  10.468 -0.3538  0.2817  0.9717
  148TMC2    C3 2301   1.931   2.252  10.354  0.3005  0.7963 -0.0961
  148TMC2    C4 2302   1.750   2.054  10.435  0.4387  0.3843 -0.2705
  148TMC2    C5 2303   1.818   2.056  10.320  0.5673 -0.4017 -0.0022
  148TMC2    C6 2304   1.906   2.146  10.273  0.2606 -0.1761 -0.0493
  148TMC2     C 2305   1.640   2.227  10.555  0.3818 -1.1288  0.0785
  148TMC2     O 2306   1.648   2.342  10.604 -0.2057 -0.4842 -0.3539
  148TMC2     H 2307   1.884   2.354  10.529  1.9256 -0.8060  1.5668
  148TMC2    H1 2308   1.681   1.976  10.467  1.0990 -0.2388 -0.3550
  148TMC2    H2 2309   1.973   2.134  10.188  0.4762 -2.6712  0.4928
  148TMC2    C7 2310   1.791   1.940  10.236  0.1144 -0.2622 -1.0309
  148TMC2    C8 2311   2.015   2.371  10.320  0.1388 -0.1872  0.7113
  148TMC2    O1 2312   1.727   1.844  10.277  0.1811 -0.9926  0.7478
  148TMC2    O2 2313   2.002   2.474  10.390 -0.2599  0.2654 -0.5198
  148TMC2    O5 2314   2.126   2.319  10.263  0.2297 -0.2826  0.4235
  148TMC2    H5 2315   2.124   2.254  10.190  1.5692 -0.1855  0.3019
  149MPD2     C 2316   1.345   2.280  10.634  0.8796 -0.4760  0.0820
  149MPD2    C1 2317   1.392   2.196  10.539  0.3512  0.2409  0.7475
  149MPD2    C2 2318   1.301   2.148  10.446  0.1028  0.3660 -0.4478
  149MPD2    C3 2319   1.164   2.179  10.461 -0.2586 -0.0623  0.1577
  149MPD2    C4 2320   1.124   2.273  10.558  0.3112  0.2247  0.1651
  149MPD2    C5 2321   1.216   2.316  10.647  0.0640  1.0953 -0.4520
  149MPD2     H 2322   1.330   2.070  10.376  1.1277  1.1848 -0.9309
  149MPD2    H1 2323   1.019   2.302  10.558  0.0241 -0.8377  1.9457
  149MPD2    H2 2324   1.412   2.307  10.715 -0.8643 -1.2416  1.8022
  149MPD2    H3 2325   1.189   2.369  10.737  0.5607 -1.6088  1.2928
  149MPD2     N 2326   1.057   2.136  10.382  0.2688  0.9820 -0.4819
  149MPD2    H5 2327   0.964   2.169  10.403 -0.2767 -0.0706 -1.2163
  149MPD2    N1 2328   1.526   2.152  10.526 -0.2505  0.0118 -0.2917
  149MPD2    H7 2329   1.537   2.068  10.470 -0.2068  0.2803 -0.6825
  150TMC2    C1 2330   4.136   1.848  12.146  0.2632 -0.7029  0.6179
  150TMC2    C2 2331   4.122   1.981  12.128  0.3232 -0.1860  1.2344
  150TMC2    C3 2332   4.238   2.049  12.110  0.3618 -0.3827 -0.1383
  150TMC2    C4 2333   4.251   1.778  12.160 -0.2262  0.0685  0.5644
  150TMC2    C5 2334   4.366   1.858  12.165  0.4892 -0.2501  0.7226
  150TMC2    C6 2335   4.363   1.991  12.127 -0.4134  0.3404 -0.5200
  150TMC2     C 2336   4.013   1.766  12.155  0.3786  0.2708  0.1980
  150TMC2     O 2337   4.031   1.670  12.230  0.0655 -0.3533  0.5376
  150TMC2     H 2338   4.026   2.030  12.139 -0.4173 -2.2329  3.7142
  150TMC2    H1 2339   4.259   1.672  12.183 -4.3574 -0.5131 -0.7818
  150TMC2    H2 2340   4.448   2.056  12.110 -0.3180  0.5885  0.8781
  150TMC2    C7 2341   4.472   1.808  12.248  0.2318 -0.6486 -0.2834
  150TMC2    C8 2342   4.231   2.190  12.069  0.6765  0.2924 -0.1223
  150TMC2    O1 2343   4.455   1.696  12.292 -0.1608 -0.1739 -0.0955
  150TMC2    O2 2344   4.294   2.275  12.123  0.0018 -0.1585  0.2595
  150TMC2    O5 2345   4.155   2.192  11.953  0.0435  0.6197 -0.7595
  150TMC2    H5 2346   4.124   2.109  11.912  1.0270 -0.0548 -0.1492
  151MPD2     C 2347   3.537   1.612  12.106 -0.5182 -0.2376 -0.2587
  151MPD2    C1 2348   3.557   1.712  12.013  0.1759 -1.0818  0.6569
  151MPD2    C2 2349   3.679   1.770  12.010 -0.6272 -0.1947  0.0338
  151MPD2    C3 2350   3.787   1.732  12.090 -0.4655  0.3345  0.1122
  151MPD2    C4 2351   3.763   1.627  12.177 -0.1648  0.0323  0.0038
  151MPD2    C5 2352   3.640   1.575  12.188  0.7365 -0.4685  0.0283
  151MPD2     H 2353   3.701   1.842  11.931  1.2698  0.5003  1.2143
  151MPD2    H1 2354   3.836   1.581  12.243 -2.1975 -1.1844  1.4242
  151MPD2    H2 2355   3.441   1.563  12.120 -1.3614  2.3841  3.3598
  151MPD2    H3 2356   3.624   1.491  12.255  0.2971  0.2148  0.7862
  151MPD2     N 2357   3.905   1.799  12.074  0.2784  0.3895  0.1368
  151MPD2    H5 2358   3.908   1.880  12.013 -1.4618 -0.0887 -0.6042
  151MPD2    N1 2359   3.448   1.738  11.917  0.3918  0.0470  0.6516
  151MPD2    H7 2360   3.364   1.685  11.938  0.3818  0.9252  2.8500
  152TMC2    C1 2361   3.947   1.714  12.546  0.0034 -0.7343  0.8585
  152TMC2    C2 2362   4.019   1.591  12.558  0.8914 -0.1275  0.4004
  152TMC2    C3 2363   4.150   1.595  12.549  0.0967 -0.2284 -0.6906
  152TMC2    C4 2364   4.004   1.834  12.522 -1.1655  0.5173 -0.5137
  152TMC2    C5 2365   4.141   1.837  12.515  0.4456  0.4797  0.3232
  152TMC2    C6 2366   4.211   1.721  12.528  0.4376  0.1341 -0.5363
  152TMC2     C 2367   3.807   1.703  12.552  0.0221  0.4973 -0.2637
  152TMC2     O 2368   3.750   1.799  12.502  0.1098 -0.1325 -0.2688
  152TMC2     H 2369   3.978   1.492  12.576  1.7610 -0.4569  0.5695
  152TMC2    H1 2370   3.942   1.922  12.511 -0.7441  0.8407 -0.2842
  152TMC2    H2 2371   4.317   1.727  12.506  0.5212  0.5627 -0.0158
  152TMC2    C7 2372   4.212   1.958  12.489 -0.5947  0.3534  0.2789
  152TMC2    C8 2373   4.244   1.482  12.580 -0.0067 -0.1613  0.4516
  152TMC2    O1 2374   4.148   2.056  12.452  0.0615  0.0460 -0.2969
  152TMC2    O2 2375   4.323   1.480  12.671  0.4195 -0.0178 -0.6971
  152TMC2    O5 2376   4.177   1.376  12.540  0.4267  0.2081  0.0326
  152TMC2    H5 2377   4.121   1.394  12.461  0.3238  0.6707  0.2120
  153MPD2     C 2378   3.617   1.499  12.779 -0.6402 -0.2567  0.1690
  153MPD2    C1 2379   3.633   1.584  12.670  0.6917  0.0467  0.6937
  153MPD2    C2 2380   3.521   1.625  12.592  0.2381 -0.0648  0.3497
  153MPD2    C3 2381   3.398   1.584  12.631 -1.0814 -0.5881 -0.0842
  153MPD2    C4 2382   3.384   1.503  12.743  0.0985  0.2807  0.0894
  153MPD2    C5 2383   3.492   1.473  12.820  0.5745 -0.6132 -0.1142
  153MPD2     H 2384   3.524   1.693  12.508  3.0366 -0.7842 -0.1197
  153MPD2    H1 2385   3.282   1.494  12.778  0.4570 -1.1366  0.7497
  153MPD2    H2 2386   3.698   1.460  12.840 -0.3416  0.2027  0.0647
  153MPD2    H3 2387   3.476   1.422  12.914  0.6896  0.2732  0.3854
  153MPD2     N 2388   3.284   1.617  12.553  0.5033  0.3624  0.2156
  153MPD2    H5 2389   3.302   1.686  12.481  1.5745 -1.0150 -0.8439
  153MPD2    N1 2390   3.761   1.611  12.636 -0.1608  0.7333 -0.1160
  153MPD2    H7 2391   3.843   1.569  12.678 -0.9331  0.2756  0.9114
  154TMC2    C1 2392   1.384   1.493   0.572  0.5740  0.3124 -0.0695
  154TMC2    C2 2393   1.441   1.518   0.695 -0.0605  0.5051  0.0381
  154TMC2    C3 2394   1.575   1.509   0.701 -0.2684  0.5299  0.0761
  154TMC2    C4 2395   1.464   1.462   0.463 -0.2214 -0.2932 -0.1394
  154TMC2    C5 2396   1.600   1.433   0.483 -0.3026 -0.0163  0.2183
  154TMC2    C6 2397   1.653   1.461   0.603 -0.4746  0.1319  0.2937
  154TMC2     C 2398   1.244   1.521   0.566 -0.3488  0.7330 -0.1730
  154TMC2     O 2399   1.195   1.572   0.666 -0.2477 -0.8612 -0.0654
  154TMC2     H 2400   1.378   1.525   0.783 -0.3145 -1.8596  0.0380
  154TMC2    H1 2401   1.428   1.447   0.362  1.0830 -1.3594 -0.4569
  154TMC2    H2 2402   1.761   1.450   0.612 -0.6455 -1.0496  0.9077
  154TMC2    C7 2403   1.689   1.421   0.367 -0.8123  0.4506 -0.0331
  154TMC2    C8 2404   1.633   1.513   0.829 -0.5099  0.0980 -0.2025
  154TMC2    O1 2405   1.801   1.470   0.367  0.0978 -0.2618  0.0763
  154TMC2    O2 2406   1.723   1.437   0.863  0.1537  0.0993 -0.2389
  154TMC2    O5 2407   1.571   1.617   0.896  0.1451 -0.0495 -0.1078
  154TMC2    H5 2408   1.518   1.678   0.840 -1.1945 -0.7951  0.3607
  155MPD2     C 2409   1.041   1.539   0.263 -1.0725 -0.8425  0.5259
  155MPD2    C1 2410   1.068   1.570   0.401 -0.3716 -0.5840 -0.0989
  155MPD2    C2 2411   0.989   1.661   0.469 -0.2902  0.1009  0.3258
  155MPD2    C3 2412   0.887   1.728   0.404 -0.2332  0.2777  0.2795
  155MPD2    C4 2413   0.866   1.703   0.269 -0.0965  0.2182 -0.2505
  155MPD2    C5 2414   0.934   1.606   0.200  0.1335 -0.2053  0.7479
  155MPD2     H 2415   1.010   1.684   0.573 -1.1732  0.6540  0.3783
  155MPD2    H1 2416   0.794   1.758   0.209 -0.0664  1.5930  0.9455
  155MPD2    H2 2417   1.099   1.470   0.201  2.1458  1.5220  0.9191
  155MPD2    H3 2418   0.916   1.592   0.094 -2.5353  0.9295  1.0720
  155MPD2     N 2419   0.804   1.813   0.476 -0.3445 -0.5154 -0.1794
  155MPD2    H5 2420   0.812   1.812   0.577  1.1822  1.0489 -0.2856
  155MPD2    N1 2421   1.192   1.507   0.445 -0.1378 -0.2515  0.5636
  155MPD2    H7 2422   1.238   1.450   0.374  0.2640 -1.9435  2.1711
  156TMC2    C1 2423   4.286   3.562  11.658  1.2623  0.6487 -0.7081
  156TMC2    C2 2424   4.374   3.610  11.569  0.1076 -0.3573 -0.0913
  156TMC2    C3 2425   4.338   3.609  11.438  1.0833  0.3752 -0.4935
  156TMC2    C4 2426   4.161   3.511  11.620 -0.1401 -0.3816  0.6561
  156TMC2    C5 2427   4.126   3.526  11.492  0.3019  0.4187 -0.1136
  156TMC2    C6 2428   4.219   3.564  11.401 -0.5820 -0.2428  0.4075
  156TMC2     C 2429   4.291   3.596  11.794  0.6525  0.4840 -0.8147
  156TMC2     O 2430   4.181   3.600  11.849  0.1585  0.7624 -0.0126
  156TMC2     H 2431   4.472   3.648  11.594  0.1120 -0.4316  0.0025
  156TMC2    H1 2432   4.103   3.455  11.692  1.7911 -1.5878  1.2488
  156TMC2    H2 2433   4.191   3.568  11.296  0.8509 -0.1075  0.0253
  156TMC2    C7 2434   4.019   3.634  11.496  0.5716 -0.2745 -0.3521
  156TMC2    C8 2435   4.379   3.714  11.346  0.0144  0.3431 -0.1671
  156TMC2    O1 2436   4.044   3.725  11.418  0.0816  0.4187 -0.4509
  156TMC2    O2 2437   4.498   3.748  11.330 -0.4292  0.8959 -0.8754
  156TMC2    O5 2438   4.280   3.797  11.316  0.1220  0.1637  0.6945
  156TMC2    H5 2439   4.193   3.767  11.348 -0.5625  2.2524  0.8058
  157MPD2     C 2440   4.559   3.625  12.042 -0.2577  0.1672 -0.5062
  157MPD2    C1 2441   4.446   3.662  11.973  0.2092 -0.0755 -0.8136
  157MPD2    C2 2442   4.351   3.730  12.041  0.0279  0.3094  0.3421
  157MPD2    C3 2443   4.355   3.762  12.174  0.5915 -0.8428  0.2977
  157MPD2    C4 2444   4.469   3.727  12.240  0.3396 -0.4198 -0.6829
  157MPD2    C5 2445   4.568   3.658  12.173  0.5257 -0.4518 -0.1187
  157MPD2     H 2446   4.260   3.762  11.991  0.2264  0.9060  0.3616
  157MPD2    H1 2447   4.479   3.753  12.344 -0.7536  0.4947 -0.8041
  157MPD2    H2 2448   4.633   3.560  11.997 -0.3466 -0.1902 -0.1379
  157MPD2    H3 2449   4.661   3.629  12.221 -1.2319 -0.5802  3.2037
  157MPD2     N 2450   4.242   3.821  12.229 -0.2256  0.2300 -0.0474
  157MPD2    H5 2451   4.156   3.824  12.175 -0.9410  1.7899  1.1764
  157MPD2    N1 2452   4.420   3.614  11.844 -0.1045 -0.0372 -0.2801
  157MPD2    H7 2453   4.499   3.567  11.802 -1.3710 -1.9909 -0.5136
  158TMC2    C1 2454   3.802   3.416  13.369 -0.0231 -0.3401 -0.3705
  158TMC2    C2 2455   3.719   3.498  13.291 -0.4044  0.3058 -0.5265
  158TMC2    C3 2456   3.592   3.473  13.296 -0.6933  1.1240  0.1029
  158TMC2    C4 2457   3.746   3.317  13.452 -0.7127 -0.2990  0.1455
  158TMC2    C5 2458   3.610   3.301  13.447  0.2490  0.3849 -0.0791
  158TMC2    C6 2459   3.530   3.368  13.361 -0.0631  0.1316  0.9057
  158TMC2     C 2460   3.912   3.486  13.425 -0.1609  0.3188 -0.2987
  158TMC2     O 2461   3.913   3.611  13.399 -0.6076 -0.1202 -0.1576
  158TMC2     H 2462   3.763   3.571  13.224 -2.5206  0.6233 -1.5484
  158TMC2    H1 2463   3.805   3.258  13.521  0.5489  1.2982  0.4574
  158TMC2    H2 2464   3.426   3.345  13.341  0.6542 -1.4537 -0.9645
  158TMC2    C7 2465   3.544   3.174  13.490  0.2278  0.3935 -0.0795
  158TMC2    C8 2466   3.495   3.567  13.238  0.8672  0.1687  0.6654
  158TMC2    O1 2467   3.423   3.171  13.496  0.2348  0.6703 -0.1882
  158TMC2    O2 2468   3.419   3.532  13.152  0.0253 -0.8855 -0.0348
  158TMC2    O5 2469   3.558   3.681  13.252 -0.2102  0.1533  0.4190
  158TMC2    H5 2470   3.620   3.679  13.328 -1.5008  4.3993  1.5897
  159MPD2     C 2471   4.263   3.549  13.806  0.1164 -0.1858  0.3944
  159MPD2    C1 2472   4.254   3.416  13.776  0.0389 -1.1769  0.1517
  159MPD2    C2 2473   4.174   3.373  13.670  0.4407 -0.3420 -0.3399
  159MPD2    C3 2474   4.101   3.465  13.595 -0.3401 -0.1059  0.1085
  159MPD2    C4 2475   4.116   3.599  13.620 -0.0968  0.1261 -0.2946
  159MPD2    C5 2476   4.187   3.641  13.734 -0.6151 -0.7141  0.6877
  159MPD2     H 2477   4.162   3.266  13.657  1.5913 -0.4445 -0.5988
  159MPD2    H1 2478   4.056   3.665  13.558  0.6805  1.4626  0.3674
  159MPD2    H2 2479   4.309   3.579  13.899 -1.5704 -0.8296  1.4285
  159MPD2    H3 2480   4.171   3.743  13.766  0.6755  0.2427 -1.6851
  159MPD2     N 2481   4.005   3.412  13.503 -0.1443  0.1392  0.3144
  159MPD2    H5 2482   3.995   3.311  13.494  0.1736  0.4179 -3.0003
  159MPD2    N1 2483   4.332   3.320  13.852 -0.5256 -0.5516  0.2078
  159MPD2    H7 2484   4.382   3.358  13.932 -0.7560  0.4902 -0.1364
  160TMC2    C1 2485   4.333   1.018   1.312  0.5956 -0.1774  0.1254
  160TMC2    C2 2486   4.410   1.035   1.425  0.1869 -0.3036 -0.3912
  160TMC2    C3 2487   4.547   1.031   1.415 -0.6713 -0.5557  0.4464
  160TMC2    C4 2488   4.387   0.993   1.193 -0.1371 -0.0923  0.9449
  160TMC2    C5 2489   4.522   0.974   1.186 -0.0631 -0.1870  0.1781
  160TMC2    C6 2490   4.602   0.985   1.296 -0.2737 -0.8816  0.6392
  160TMC2     C 2491   4.199   1.061   1.323  0.6671 -0.6668  0.1379
  160TMC2     O 2492   4.141   1.033   1.425  0.1525  0.4290 -0.0465
  160TMC2     H 2493   4.355   1.049   1.517  0.9588 -0.3504  0.0744
  160TMC2    H1 2494   4.324   0.992   1.104  2.9944  2.3033 -1.2980
  160TMC2    H2 2495   4.706   0.954   1.288 -0.1707 -0.3237 -0.2313
  160TMC2    C7 2496   4.576   0.982   1.056 -0.0695 -0.0832 -0.0982
  160TMC2    C8 2497   4.634   1.013   1.534  0.4796 -0.6708 -0.0169
  160TMC2    O1 2498   4.524   0.900   0.975  0.0863  0.5026  0.8740
  160TMC2    O2 2499   0.013   0.966   1.519  0.5343  0.0561  0.6614
  160TMC2    O5 2500   4.578   1.042   1.659  0.3306 -0.2836 -0.2872
  160TMC2    H5 2501   4.513   1.111   1.635  1.4399  1.4277  1.5872
  161MPD2     C 2502   3.913   1.126   1.287 -0.1548  0.0572 -0.2399
  161MPD2    C1 2503   4.017   1.186   1.218  0.0181  0.2790 -0.4939
  161MPD2    C2 2504   3.980   1.290   1.136  0.0094  0.2925  1.0020
  161MPD2    C3 2505   3.853   1.335   1.116  0.2537  0.2522 -0.3749
  161MPD2    C4 2506   3.758   1.274   1.184  0.1653  0.4291  0.1591
  161MPD2    C5 2507   3.785   1.170   1.270  0.2820 -0.3581  0.4392
  161MPD2     H 2508   4.061   1.340   1.083  0.0127  0.0529  0.7786
  161MPD2    H1 2509   3.653   1.303   1.180 -0.3301 -1.4399 -0.3330
  161MPD2    H2 2510   3.931   1.044   1.355 -1.0608  0.4115  0.4179
  161MPD2    H3 2511   3.703   1.119   1.319 -1.0757  0.4591 -0.9985
  161MPD2     N 2512   3.821   1.429   1.022 -0.1607 -0.2353  0.5185
  161MPD2    H5 2513   3.724   1.455   1.010 -0.2305 -0.6252  0.2534
  161MPD2    N1 2514   4.151   1.140   1.223 -0.5868 -0.1741 -0.0734
  161MPD2    H7 2515   4.219   1.181   1.159 -0.7164 -1.1890 -0.8555
  162TMC2    C1 2516   2.620   3.151   1.278  0.4472 -0.2025  0.1180
  162TMC2    C2 2517   2.656   3.259   1.360  0.1337  0.2111  0.3531
  162TMC2    C3 2518   2.679   3.234   1.491  0.8193  0.6148 -0.3237
  162TMC2    C4 2519   2.618   3.018   1.327 -0.0810  0.1687 -0.7194
  162TMC2    C5 2520   2.640   3.003   1.461  0.5823  0.5883 -0.6121
  162TMC2    C6 2521   2.670   3.108   1.539 -0.4365 -0.3931  0.6212
  162TMC2     C 2522   2.645   3.152   1.137  0.6201  0.6587 -1.1655
  162TMC2     O 2523   2.619   3.051   1.075 -0.2075  0.0322 -0.0210
  162TMC2     H 2524   2.637   3.365   1.348  0.6987  0.2681 -0.0104
  162TMC2    H1 2525   2.597   2.935   1.260 -1.0467  0.1094 -0.3299
  162TMC2    H2 2526   2.706   3.091   1.640  0.7687 -0.5275  0.1648
  162TMC2    C7 2527   2.639   2.866   1.509  0.0204  0.1575 -0.0911
  162TMC2    C8 2528   2.693   3.337   1.594 -0.0534  0.5982  0.5622
  162TMC2    O1 2529   2.601   2.848   1.623  0.3037 -0.2808  0.5720
  162TMC2    O2 2530   2.653   3.333   1.711 -0.1922  0.1919  1.0781
  162TMC2    O5 2531   2.755   3.441   1.541  0.1998  0.1745  0.0246
  162TMC2    H5 2532   2.790   3.426   1.451 -1.4724  2.0692 -0.9468
  163MPD2     C 2533   2.788   3.380   0.704 -0.1894  0.6824  0.3367
  163MPD2    C1 2534   2.685   3.291   0.717  0.5420 -0.3570 -0.2830
  163MPD2    C2 2535   2.651   3.257   0.847  0.2647 -0.7149 -0.3242
  163MPD2    C3 2536   2.722   3.300   0.957 -0.6243  0.4165  0.2210
  163MPD2    C4 2537   2.827   3.387   0.938 -0.0435  0.3950  0.8241
  163MPD2    C5 2538   2.853   3.428   0.813  0.2320  1.1666 -0.1776
  163MPD2     H 2539   2.563   3.196   0.864 -0.4067 -0.0915 -1.5990
  163MPD2    H1 2540   2.894   3.420   1.016  1.4114  0.2891 -0.3836
  163MPD2    H2 2541   2.811   3.419   0.605 -1.3044  1.4942  0.4038
  163MPD2    H3 2542   2.946   3.484   0.814 -1.2024  3.5488 -0.5817
  163MPD2     N 2543   2.698   3.271   1.093  0.4788 -0.4727 -0.9203
  163MPD2    H5 2544   2.739   3.319   1.172  3.1194 -2.2639 -1.2191
  163MPD2    N1 2545   2.628   3.235   0.596 -0.0646 -0.1439  0.6395
  163MPD2    H7 2546   2.656   3.275   0.506  1.4872  0.8372  1.5572
  164TMC2    C1 2547   2.521   2.889  10.705  0.3968  0.3800  0.3983
  164TMC2    C2 2548   2.622   2.850  10.783 -0.8977 -0.0177  0.2175
  164TMC2    C3 2549   2.612   2.831  10.918  0.6130 -0.0829  0.0299
  164TMC2    C4 2550   2.401   2.901  10.772 -0.2132  0.3238  0.1178
  164TMC2    C5 2551   2.392   2.886  10.910 -0.0381 -0.8881 -1.4585
  164TMC2    C6 2552   2.494   2.851  10.991  0.0429 -0.6531 -0.0034
  164TMC2     C 2553   2.524   2.902  10.565 -0.0365 -0.4072 -0.7017
  164TMC2     O 2554   2.417   2.944  10.517  0.2794  0.1654 -0.2309
  164TMC2     H 2555   2.724   2.842  10.747 -0.6583  1.8115  0.5130
  164TMC2    H1 2556   2.314   2.936  10.718  0.9228 -0.1881 -2.0446
  164TMC2    H2 2557   2.484   2.832  11.097  1.5022  0.9173  0.4117
  164TMC2    C7 2558   2.263   2.927  10.958 -0.2954  0.5401 -0.7140
  164TMC2    C8 2559   2.719   2.761  10.976 -0.1721  0.3386  0.9254
  164TMC2    O1 2560   2.173   2.954  10.882 -0.3662 -0.3221 -0.1964
  164TMC2    O2 2561   2.798   2.695  10.912 -0.2707 -0.1881 -0.0421
  164TMC2    O5 2562   2.718   2.785  11.106  0.0075  0.0175 -0.4066
  164TMC2    H5 2563   2.683   2.875  11.122  0.6478 -0.2104  2.2669
  165TMC2    C1 2564   3.716   0.493   0.955  0.2949 -0.0665 -0.2002
  165TMC2    C2 2565   3.695   0.376   0.890 -0.2262 -0.1831 -0.2840
  165TMC2    C3 2566   3.807   0.309   0.850 -0.1521  0.6341 -0.4064
  165TMC2    C4 2567   3.840   0.547   0.980  0.0967 -0.3228  0.7291
  165TMC2    C5 2568   3.949   0.482   0.938  0.2517  0.2794 -0.1216
  165TMC2    C6 2569   3.933   0.359   0.871 -0.0692 -0.1729  0.1824
  165TMC2     C 2570   3.601   0.548   1.027 -0.2163  0.6956  0.1931
  165TMC2     O 2571   3.633   0.602   1.135 -0.3815 -0.1200 -0.0624
  165TMC2     H 2572   3.596   0.331   0.894 -0.0784 -0.3143  1.8625
  165TMC2    H1 2573   3.838   0.646   1.024  0.8585  0.1429 -0.2938
  165TMC2    H2 2574   4.024   0.308   0.841  0.8342  0.1151  2.4517
  165TMC2    C7 2575   4.081   0.545   0.962  0.6579 -0.1279  0.6020
  165TMC2    C8 2576   3.790   0.168   0.829  0.9469 -0.0336 -0.4129
  165TMC2    O1 2577   4.172   0.505   0.893  0.0512  0.6561  0.1493
  165TMC2    O2 2578   3.684   0.111   0.795 -0.0084 -0.0687  0.8867
  165TMC2    O5 2579   3.875   0.117   0.919  0.7161  0.2602  0.2979
  165TMC2    H5 2580   3.937   0.176   0.966 -0.6216  1.1633  0.9150
  166MPD2     C 2581   3.137   0.748   1.057  0.7393 -0.7400 -0.7448
  166MPD2    C1 2582   3.225   0.705   1.157 -0.4238  0.5413 -0.3849
  166MPD2    C2 2583   3.341   0.640   1.119 -0.3031 -0.3528  0.5580
  166MPD2    C3 2584   3.373   0.623   0.984 -0.6112  0.3958 -0.5845
  166MPD2    C4 2585   3.283   0.670   0.887  0.0951 -0.6742 -0.7441
  166MPD2    C5 2586   3.169   0.729   0.924  0.1576  0.4714 -0.2114
  166MPD2     H 2587   3.409   0.601   1.193  0.9863 -0.8615 -0.8979
  166MPD2    H1 2588   3.304   0.666   0.781  0.3152 -0.3740 -0.7138
  166MPD2    H2 2589   3.041   0.793   1.079  2.1757  1.5261  0.9099
  166MPD2    H3 2590   3.092   0.761   0.855 -0.4090 -1.7149 -0.5821
  166MPD2     N 2591   3.494   0.558   0.934  0.1118  0.0761  0.3172
  166MPD2    H5 2592   3.509   0.552   0.833  0.4910  1.4244  0.2959
  166MPD2    N1 2593   3.196   0.711   1.293 -0.1371  0.8751 -0.2688
  166MPD2    H7 2594   3.265   0.663   1.349  1.3797  3.4790  0.0616
  167TMC2    C1 2595   1.719   2.077  12.738 -0.0177  0.7275 -0.5386
  167TMC2    C2 2596   1.726   2.091  12.877 -0.8962 -0.1206 -0.1753
  167TMC2    C3 2597   1.697   1.978  12.954 -0.1795  0.0216  0.6964
  167TMC2    C4 2598   1.680   1.967  12.681  0.3725 -0.6721 -0.9023
  167TMC2    C5 2599   1.660   1.854  12.759 -0.0431  0.0649  0.1648
  167TMC2    C6 2600   1.676   1.854  12.892  0.5161 -0.5445 -0.9436
  167TMC2     C 2601   1.774   2.177  12.651 -0.2735  0.3424 -0.9509
  167TMC2     O 2602   1.799   2.286  12.699  0.0751 -0.1238  0.5434
  167TMC2     H 2603   1.749   2.192  12.909  1.3421 -0.8398  0.4994
  167TMC2    H1 2604   1.633   1.978  12.584 -0.9376 -1.1144 -0.3220
  167TMC2    H2 2605   1.659   1.762  12.946 -1.7357 -0.3950 -1.4043
  167TMC2    C7 2606   1.596   1.739  12.696 -0.1157  0.2238 -0.0656
  167TMC2    C8 2607   1.697   1.984  13.091  0.3538 -0.0893  0.3599
  167TMC2    O1 2608   1.527   1.666  12.760 -0.2353  0.1028  0.6857
  167TMC2    O2 2609   1.676   1.887  13.157 -0.2158  0.2715 -0.6554
  167TMC2    O5 2610   1.711   2.106  13.141 -0.0998  0.1603 -0.4066
  167TMC2    H5 2611   1.750   2.180  13.089 -0.6260 -0.0007 -1.0238
  168MPD2     C 2612   1.892   2.339  12.430 -0.0059 -0.2740  0.2883
  168MPD2    C1 2613   1.846   2.211  12.413  0.9597 -0.0163 -0.0066
  168MPD2    C2 2614   1.866   2.149  12.290 -0.4557 -0.2331 -0.0810
  168MPD2    C3 2615   1.915   2.229  12.181  0.6938  0.8074 -0.3101
  168MPD2    C4 2616   1.962   2.356  12.199 -0.4680  0.4002 -0.1328
  168MPD2    C5 2617   1.940   2.407  12.322  0.4830 -0.9573  0.0415
  168MPD2     H 2618   1.826   2.048  12.283  0.6943 -0.6386 -0.8540
  168MPD2    H1 2619   2.014   2.413  12.123  2.4950  0.1484  1.7104
  168MPD2    H2 2620   1.891   2.385  12.528  2.9332 -1.3794  0.8413
  168MPD2    H3 2621   1.961   2.512  12.340 -1.9402 -0.5317  0.3632
  168MPD2     N 2622   1.897   2.186  12.045  0.3075 -1.0249 -0.0156
  168MPD2    H5 2623   1.954   2.218  11.967 -0.7625 -0.6559 -0.6560
  168MPD2    N1 2624   1.800   2.135  12.524 -0.3501 -0.5383  0.2157
  168MPD2    H7 2625   1.796   2.035  12.513 -0.8345 -0.4469 -0.4532
  169MPD1     C 2626   2.709   2.047  10.187  1.0642  0.0631 -0.2718
  169MPD1    C1 2627   2.761   1.930  10.253 -0.1880  0.0898 -0.0141
  169MPD1    C2 2628   2.856   1.852  10.191  0.4631  0.5146  0.4448
  169MPD1    C3 2629   2.885   1.878  10.060  0.0521  0.6157 -0.0841
  169MPD1    C4 2630   2.833   1.987   9.993 -0.1847  0.1444 -0.0859
  169MPD1    C5 2631   2.743   2.075  10.059  0.4092 -0.0093 -0.0620
  169MPD1     H 2632   2.903   1.772  10.246  0.0574  0.2381  0.3820
  169MPD1    H1 2633   2.853   2.011   9.889  0.6091 -0.0779  0.0191
  169MPD1    H2 2634   2.644   2.125  10.226 -0.4130 -1.3919  0.1937
  169MPD1    H3 2635   2.706   2.162  10.005 -3.1706 -1.0732  0.7148
  169MPD1     N 2636   2.983   1.790  10.003 -0.4160 -0.1833 -0.0458
  169MPD1    H5 2637   3.001   1.704  10.053 -1.3229 -0.1989  0.2608
  169MPD1    N1 2638   2.740   1.906  10.391 -0.0335  0.4469 -0.7226
  169MPD1    H6 2639   2.671   1.954  10.449  1.1698 -0.4370  1.4404
  169MPD1    H7 2640   2.741   1.806  10.409  1.6135  0.1902 -2.2488
  170MPD1     C 2641   2.638   4.314  12.448 -0.3006 -0.3180  0.0655
  170MPD1    C1 2642   2.749   4.269  12.515 -0.1015  0.0802 -0.5074
  170MPD1    C2 2643   2.776   4.330  12.638 -0.0021  0.0106  0.2156
  170MPD1    C3 2644   2.716   4.447  12.676  0.1910 -0.4827  0.1426
  170MPD1    C4 2645   2.628   4.504  12.590  0.7934  0.4192 -0.6613
  170MPD1    C5 2646   2.585   4.434  12.480 -0.1128  0.8675  0.0524
  170MPD1     H 2647   2.856   4.290  12.699  0.5822  0.9223  0.0514
  170MPD1    H1 2648   2.568   4.591  12.615 -0.4974 -0.4089 -0.8833
  170MPD1    H2 2649   2.613   4.256  12.360 -2.2215 -0.4634  0.7162
  170MPD1    H3 2650   2.515   4.476  12.409  1.5839  1.7154 -1.1455
  170MPD1     N 2651   2.734   4.493  12.808 -0.1090  0.2245 -0.4941
  170MPD1    H5 2652   2.790   4.433  12.869 -1.2804 -1.6692 -1.2918
  170MPD1    N1 2653   2.811   4.150  12.480  0.6772  0.1048 -0.6162
  170MPD1    H6 2654   2.796   4.119  12.385  1.6616 -0.1193 -0.7023
  170MPD1    H7 2655   2.910   4.149  12.504  0.6416  0.1070 -0.4662
  171MPD1     C 2656   1.346   1.011  14.897 -0.2884  0.3165 -0.5601
  171MPD1    C1 2657   1.325   1.083  15.014  0.1862 -0.8803  0.3438
  171MPD1    C2 2658   1.404   1.046  15.116 -0.3908  0.2237  0.2103
  171MPD1    C3 2659   1.515   0.967  15.102 -0.5693  0.5842 -0.3141
  171MPD1    C4 2660   1.532   0.899  14.988  0.7046  0.6604 -0.0781
  171MPD1    C5 2661   1.449   0.925  14.881  0.1721 -0.4629  0.4586
  171MPD1     H 2662   1.372   1.078  15.214  1.0565  1.4747  0.2765
  171MPD1    H1 2663   1.614   0.829  14.971  0.1667 -0.6600  2.8460
  171MPD1    H2 2664   1.279   1.030  14.814  0.5537  1.8410 -0.8804
  171MPD1    H3 2665   1.472   0.877  14.787 -0.0735  0.5902 -0.1300
  171MPD1     N 2666   1.605   0.925  15.209 -0.4237  0.0994  0.2554
  171MPD1    H5 2667   1.678   0.859  15.184  0.8793  2.0611 -1.1641
  171MPD1    N1 2668   1.205   1.145  15.041 -0.7233 -0.0402  0.1258
  171MPD1    H6 2669   1.157   1.198  14.968  1.4112  0.0061 -1.2486
  171MPD1    H7 2670   1.211   1.200  15.127 -1.4352  0.4702 -0.1476
  172MPD1     C 2671   0.953   0.017   0.005 -0.2673 -0.0230  0.4031
  172MPD1    C1 2672   0.867   0.110   0.048 -0.1871 -0.2743 -0.7117
  172MPD1    C2 2673   0.916   0.238   0.089 -0.8680  0.0209  0.0905
  172MPD1    C3 2674   1.050   0.259   0.102 -0.0515  0.0616  0.3253
  172MPD1    C4 2675   1.137   0.153   0.062  0.2397  0.0496  0.1017
  172MPD1    C5 2676   1.088   0.041   0.009  0.2351  0.0092  0.0203
  172MPD1     H 2677   0.850   0.322   0.108  2.3846  2.0266  2.3359
  172MPD1    H1 2678   1.245   0.151   0.068  0.3897 -1.3475 -2.8377
  172MPD1    H2 2679   0.916   4.654  17.718 -0.9125  0.6641 -1.2348
  172MPD1    H3 2680   1.153   4.693  17.724 -1.6393 -1.0965 -1.0923
  172MPD1     N 2681   1.110   0.377   0.160 -0.2402  0.0107  0.0630
  172MPD1    H5 2682   1.211   0.386   0.154 -0.2490  0.6266  0.8721
  172MPD1    N1 2683   0.726   0.089   0.039  0.2165  0.1946  0.2742
  172MPD1    H6 2684   0.702   4.727   0.055 -2.4577  0.6263 -1.0614
  172MPD1    H7 2685   0.689   0.136   0.122  1.1751  0.8165  0.3484
  173MPD1     C 2686   1.674   0.424  13.655 -0.0107  1.4560 -0.6561
  173MPD1    C1 2687   1.657   0.287  13.678 -0.0257  0.2058 -0.6732
  173MPD1    C2 2688   1.770   0.217  13.706  0.1296 -0.1888 -0.2451
  173MPD1    C3 2689   1.890   0.276  13.732  0.3744 -0.0797  0.0455
  173MPD1    C4 2690   1.905   0.412  13.711 -0.6681  0.1857 -0.0007
  173MPD1    C5 2691   1.797   0.485  13.670 -0.2338 -0.2796 -0.3317
  173MPD1     H 2692   1.767   0.110  13.716  1.9068 -0.1622  0.5722
  173MPD1    H1 2693   2.003   0.454  13.726 -0.9635  1.3984 -1.4688
  173MPD1    H2 2694   1.590   0.490  13.638 -1.0781  0.2262 -0.1366
  173MPD1    H3 2695   1.813   0.593  13.666  1.7023 -0.5241  0.6178
  173MPD1     N 2696   2.005   0.204  13.778  0.6885  0.1265 -0.2233
  173MPD1    H5 2697   2.090   0.255  13.797  1.6295 -2.1180  1.5885
  173MPD1    N1 2698   1.533   0.224  13.651 -0.2000 -0.2460  0.2006
  173MPD1    H6 2699   1.532   0.137  13.704  0.5088 -1.8479 -2.3942
  173MPD1    H7 2700   1.462   0.287  13.689 -1.0994 -1.2326  0.1539
  174MPD1     C 2701   2.745   0.584  14.073  0.9461  0.3249 -0.5234
  174MPD1    C1 2702   2.663   0.593  13.960 -0.5141  0.0852  0.0026
  174MPD1    C2 2703   2.603   0.479  13.920  0.3390 -0.4783  0.4786
  174MPD1    C3 2704   2.599   0.361  14.002 -0.2386  0.4471 -0.4173
  174MPD1    C4 2705   2.683   0.356  14.110  0.4138 -0.3103 -0.8483
  174MPD1    C5 2706   2.765   0.460  14.139 -0.2235  0.2854 -0.4254
  174MPD1     H 2707   2.548   0.478  13.826 -0.9383 -0.9849  1.2330
  174MPD1    H1 2708   2.708   0.270  14.171  1.1307  0.7562  0.3685
  174MPD1    H2 2709   2.807   0.665  14.110  2.6009 -1.0689 -0.2439
  174MPD1    H3 2710   2.830   0.446  14.224  0.2628  2.2324 -0.4827
  174MPD1     N 2711   2.533   0.241  13.962 -0.2670  0.2830 -0.2161
  174MPD1    H5 2712   2.551   0.162  14.023 -0.1624 -0.4886 -1.2463
  174MPD1    N1 2713   2.669   0.710  13.880 -0.4208  0.4280  0.5603
  174MPD1    H6 2714   2.683   0.783  13.949 -1.3279  0.8918  0.2527
  174MPD1    H7 2715   2.584   0.736  13.831 -0.6637  0.7185  1.1438
  175MPD1     C 2716   0.496   1.848  15.504 -0.2135 -0.0320  0.3058
  175MPD1    C1 2717   0.376   1.791  15.464 -0.2654  0.3380  0.2629
  175MPD1    C2 2718   0.327   1.683  15.535  0.1726  0.4246 -0.3735
  175MPD1    C3 2719   0.399   1.638  15.644 -0.2205 -0.0811 -0.3185
  175MPD1    C4 2720   0.513   1.699  15.684 -0.0682 -0.0576  0.1362
  175MPD1    C5 2721   0.558   1.811  15.620 -0.0927 -0.6979 -0.2486
  175MPD1     H 2722   0.236   1.630  15.509  1.1561 -0.2958 -2.2775
  175MPD1    H1 2723   0.585   1.662  15.756  1.2383  1.0225 -0.5971
  175MPD1    H2 2724   0.541   1.926  15.445  1.2125 -0.4600  0.8289
  175MPD1    H3 2725   0.640   1.871  15.658  1.5237 -1.4021 -2.5957
  175MPD1     N 2726   0.362   1.521  15.720  0.2888 -0.9923  0.6564
  175MPD1    H5 2727   0.432   1.478  15.780  0.8168 -1.2288 -0.1271
  175MPD1    N1 2728   0.321   1.829  15.342 -0.5697 -0.5748 -0.4011
  175MPD1    H6 2729   0.355   1.916  15.301 -2.3187  0.9212  1.3062
  175MPD1    H7 2730   0.219   1.829  15.334 -0.7462 -4.1756  2.1355
  176MPD1     C 2731   2.478   2.722  16.452 -0.0422  0.0459  0.0276
  176MPD1    C1 2732   2.542   2.823  16.509 -0.2316  0.4804  0.5253
  176MPD1    C2 2733   2.473   2.915  16.586  0.7074 -0.1641  0.2182
  176MPD1    C3 2734   2.350   2.889  16.635  0.0135  1.0460 -0.1232
  176MPD1    C4 2735   2.288   2.772  16.588  0.4198 -0.1400  0.2156
  176MPD1    C5 2736   2.351   2.693  16.501 -0.4175 -0.3866 -1.0750
  176MPD1     H 2737   2.523   3.001  16.631  1.5956 -0.7449  0.3512
  176MPD1    H1 2738   2.185   2.745  16.606  0.6481 -2.3024 -1.7181
  176MPD1    H2 2739   2.520   2.658  16.376 -1.5289  0.0043 -0.7574
  176MPD1    H3 2740   2.300   2.603  16.467  1.4365 -0.7513 -2.8601
  176MPD1     N 2741   2.284   2.989  16.707  0.3211  0.0179 -0.4429
  176MPD1    H5 2742   2.346   3.066  16.731 -0.0414  0.1404  0.0989
  176MPD1    N1 2743   2.667   2.862  16.458  0.7810  0.1831  0.5323
  176MPD1    H6 2744   2.724   2.787  16.419  1.2157  1.0709 -0.5526
  176MPD1    H7 2745   2.718   2.938  16.503 -1.2961  1.7706  0.1992
  177MPD1     C 2746   0.250   2.771   9.582  0.0347 -0.0505 -0.5160
  177MPD1    C1 2747   0.235   2.833   9.461 -0.3914 -0.1275  0.4431
  177MPD1    C2 2748   0.105   2.852   9.406  0.4399 -1.0187  0.6357
  177MPD1    C3 2749   0.003   2.783   9.461  0.0868 -0.1324  0.7803
  177MPD1    C4 2750   0.018   2.728   9.591 -0.1632  0.6622 -0.2361
  177MPD1    C5 2751   0.141   2.730   9.652  0.2834 -0.5941 -0.0733
  177MPD1     H 2752   0.089   2.919   9.323 -0.4830 -1.6014  0.3480
  177MPD1    H1 2753   4.672   2.686   9.649 -0.3980 -0.3065 -1.2514
  177MPD1    H2 2754   0.345   2.774   9.635  0.5229  0.1138 -1.3975
  177MPD1    H3 2755   0.153   2.689   9.751  0.5575  1.1955  0.6398
  177MPD1     N 2756   4.609   2.800   9.404  0.1952  0.0822  0.3496
  177MPD1    H5 2757   4.606   2.853   9.318  1.6638  0.3913  0.4816
  177MPD1    N1 2758   0.349   2.897   9.401  1.1001 -0.2276  0.1052
  177MPD1    H6 2759   0.329   2.908   9.302  2.2874 -2.2933 -0.3423
  177MPD1    H7 2760   0.432   2.839   9.408  1.8673  0.4876 -3.1256
  178MPD1     C 2761   2.605   4.366  17.726  0.2503 -0.1749  0.4745
  178MPD1    C1 2762   2.704   4.453  17.682 -0.2595 -0.2354 -0.0614
  178MPD1    C2 2763   2.747   4.438  17.552  0.7628  0.2395  0.0327
  178MPD1    C3 2764   2.706   4.331  17.475 -0.2715 -0.0197 -0.2892
  178MPD1    C4 2765   2.607   4.253  17.522 -0.7584 -0.2617 -0.4144
  178MPD1    C5 2766   2.546   4.277  17.640 -0.3499  0.2318  0.1194
  178MPD1     H 2767   2.837   4.494  17.530  0.3825  1.6907  2.1586
  178MPD1    H1 2768   2.566   4.172  17.462  1.3967 -1.0122 -0.8750
  178MPD1    H2 2769   2.561   4.389   0.082 -0.4437 -0.5413  0.2421
  178MPD1    H3 2770   2.464   4.216  17.676 -1.6170  1.3944 -0.7535
  178MPD1     N 2771   2.765   4.296  17.344 -0.1152 -0.0935 -0.6539
  178MPD1    H5 2772   2.738   4.213  17.293  0.7850 -0.1572 -1.0249
  178MPD1    N1 2773   2.770   4.528   0.030  0.3268 -0.0160  0.2138
  178MPD1    H6 2774   2.798   4.617  17.731 -1.3476  0.8012  0.9008
  178MPD1    H7 2775   2.704   4.543   0.106  0.9672  0.7293  0.6225
  179MPD1     C 2776   2.738   2.297  14.872 -0.6695  1.1274  0.4978
  179MPD1    C1 2777   2.810   2.281  14.988  0.4567  0.0257  0.9098
  179MPD1    C2 2778   2.790   2.160  15.058 -0.0216 -0.2755 -0.2317
  179MPD1    C3 2779   2.718   2.055  15.011 -0.1013  0.1375 -0.8933
  179MPD1    C4 2780   2.652   2.072  14.895 -0.4430 -0.4536 -0.3136
  179MPD1    C5 2781   2.659   2.194  14.826  0.2345 -0.7646 -0.0404
  179MPD1     H 2782   2.837   2.144  15.155 -1.7314 -0.8796  0.5200
  179MPD1    H1 2783   2.584   1.994  14.861  0.5319 -0.1856 -2.8789
  179MPD1    H2 2784   2.754   2.390  14.819 -1.7629  0.7139 -0.5529
  179MPD1    H3 2785   2.606   2.193  14.731 -0.5723  2.2652  0.3807
  179MPD1     N 2786   2.679   1.944  15.080 -0.0567 -0.7003 -0.5236
  179MPD1    H5 2787   2.622   1.876  15.028 -3.6873  0.8666  1.3967
  179MPD1    N1 2788   2.882   2.394  15.031  0.0074 -0.6462  0.0284
  179MPD1    H6 2789   2.916   2.455  14.957 -1.4543  0.4317  0.2554
  179MPD1    H7 2790   2.961   2.377  15.093 -0.1145  0.1560  0.4086
  180MPD1     C 2791   3.116   3.165  15.406  0.6085  0.1011 -0.3548
  180MPD1    C1 2792   3.137   3.253  15.293  0.1780  0.8901 -0.0125
  180MPD1    C2 2793   3.054   3.249  15.183 -0.8723  0.6498  0.1762
  180MPD1    C3 2794   2.931   3.191  15.199 -0.4106  0.2277 -0.3623
  180MPD1    C4 2795   2.908   3.113  15.306  0.4552 -0.6760 -0.2664
  180MPD1    C5 2796   3.000   3.089  15.407 -0.2685  0.1685  0.5033
  180MPD1     H 2797   3.081   3.300  15.091  0.2279 -1.1078 -0.4681
  180MPD1    H1 2798   2.813   3.071  15.337 -0.2314  0.3955 -0.9353
  180MPD1    H2 2799   3.183   3.149  15.491 -0.1426 -0.0780  0.2070
  180MPD1    H3 2800   2.976   3.051  15.506 -2.9766 -0.0088 -0.2288
  180MPD1     N 2801   2.843   3.206  15.089 -0.5561 -0.0325  0.0376
  180MPD1    H5 2802   2.877   3.256  15.008 -1.7692 -0.4284 -0.7146
  180MPD1    N1 2803   3.258   3.323  15.274  0.4211 -0.0754 -0.1213
  180MPD1    H6 2804   3.260   3.399  15.206 -1.0441  1.3933  1.4881
  180MPD1    H7 2805   3.297   3.346  15.366  1.1815 -1.3457 -0.1205
  181MPD1     C 2806   4.146   4.182   8.737 -0.0760  0.0360 -0.5961
  181MPD1    C1 2807   4.094   4.308   8.761 -0.0097  0.8116  0.2084
  181MPD1    C2 2808   4.141   4.380   8.872  0.3728  0.3235  0.4208
  181MPD1    C3 2809   4.254   4.342   8.942 -0.2146 -0.6668  0.3948
  181MPD1    C4 2810   4.308   4.221   8.906  0.3830  0.4146 -0.0211
  181MPD1    C5 2811   4.257   4.145   8.801 -0.4998 -0.1865  0.2860
  181MPD1     H 2812   4.097   4.475   8.898 -0.4921 -0.7963  3.0522
  181MPD1    H1 2813   4.393   4.172   8.953 -1.9513 -2.7363  0.9461
  181MPD1    H2 2814   4.111   4.109   8.665 -1.4934 -0.8188  0.9298
  181MPD1    H3 2815   4.300   4.047   8.789  0.1011 -0.1158  1.9568
  181MPD1     N 2816   4.321   4.414   9.051  0.2700  0.2973 -0.1081
  181MPD1    H5 2817   4.395   4.362   9.097  0.9519  0.3486 -1.1464
  181MPD1    N1 2818   3.983   4.347   8.688 -0.0975  0.1492 -0.4612
  181MPD1    H6 2819   3.983   4.447   8.673  0.7378  0.3000  0.5921
  181MPD1    H7 2820   3.989   4.296   8.600  3.0293 -2.1227  1.0694
  182MPD1     C 2821   0.816   0.252   0.522 -0.2922 -0.7176  0.0760
  182MPD1    C1 2822   0.813   0.175   0.407  0.2082 -0.6601  0.5232
  182MPD1    C2 2823   0.687   0.139   0.365 -0.6527 -0.3149 -0.1340
  182MPD1    C3 2824   0.576   0.193   0.421 -0.8496 -0.0127  0.4705
  182MPD1    C4 2825   0.580   0.297   0.513 -0.5889 -0.4730  0.7787
  182MPD1    C5 2826   0.701   0.314   0.568 -0.0625 -0.6540  0.2979
  182MPD1     H 2827   0.676   0.051   0.303  1.4535 -2.1429  2.1007
  182MPD1    H1 2828   0.495   0.343   0.561  1.5529  3.5749  0.6899
  182MPD1    H2 2829   0.909   0.263   0.575  0.0325 -3.5866  0.1300
  182MPD1    H3 2830   0.703   0.382   0.653 -1.5899 -1.6295  1.1145
  182MPD1     N 2831   0.448   0.157   0.375 -0.5547  0.4659 -0.2716
  182MPD1    H5 2832   0.375   0.210   0.422 -0.8591  0.1306 -0.3689
  182MPD1    N1 2833   0.916   0.086   0.371 -0.3790  0.2391 -0.2894
  182MPD1    H6 2834   1.005   0.136   0.373  0.7783 -1.8439  0.6006
  182MPD1    H7 2835   0.913   0.051   0.276  0.8116  1.5906 -0.8227
  183MPD1     C 2836   0.791   3.717   9.106 -1.0158 -0.1803 -0.6948
  183MPD1    C1 2837   0.888   3.805   9.149 -0.1667 -0.1417 -0.3224
  183MPD1    C2 2838   0.853   3.897   9.245  0.2746 -0.2166 -0.3522
  183MPD1    C3 2839   0.723   3.918   9.285  0.1912  0.5732 -0.4265
  183MPD1    C4 2840   0.628   3.828   9.235 -0.0250  0.4016  0.1785
  183MPD1    C5 2841   0.665   3.729   9.148  0.3208  0.2644 -0.2599
  183MPD1     H 2842   0.939   3.940   9.294  1.1639 -0.4626 -1.6975
  183MPD1    H1 2843   0.526   3.836   9.268 -1.2147  0.0296 -3.3955
  183MPD1    H2 2844   0.818   3.634   9.041  1.6427  0.5227 -0.4788
  183MPD1    H3 2845   0.595   3.649   9.126  1.2822 -0.0642 -2.1253
  183MPD1     N 2846   0.695   4.027   9.365  0.4799 -0.2025 -0.8991
  183MPD1    H5 2847   0.768   4.095   9.381 -0.6238  0.7869 -0.0228
  183MPD1    N1 2848   1.022   3.784   9.114 -0.0313 -0.5938  0.1361
  183MPD1    H6 2849   1.085   3.862   9.127  0.3285 -0.7601 -0.6332
  183MPD1    H7 2850   1.020   3.759   9.016 -1.1618 -1.7208  0.4415
  184MPD1     C 2851   0.032   2.183  10.385  0.7567  0.3967 -0.1908
  184MPD1    C1 2852   4.683   2.140  10.285 -0.3530 -0.2397 -0.6345
  184MPD1    C2 2853   4.619   2.242  10.205  0.6931  0.6128  0.3033
  184MPD1    C3 2854   4.641   2.381  10.229 -0.2369 -0.4159 -0.3444
  184MPD1    C4 2855   4.725   2.413  10.331  0.0913 -0.2178  0.4841
  184MPD1    C5 2856   0.056   2.317  10.401  0.5285 -0.4050 -0.4416
  184MPD1     H 2857   4.562   2.207  10.119 -0.6276  1.1033  0.9679
  184MPD1    H1 2858   4.731   2.514  10.368  0.8241  0.1457 -0.6092
  184MPD1    H2 2859   0.084   2.109  10.444  1.0833 -0.7487 -1.9261
  184MPD1    H3 2860   0.120   2.347  10.483  0.7720 -0.4210 -0.6289
  184MPD1     N 2861   4.596   2.488  10.141 -0.5487  0.1074 -0.1100
  184MPD1    H5 2862   4.630   2.583  10.155 -1.3883  0.1535  1.5598
  184MPD1    N1 2863   4.669   2.005  10.249  0.0507  0.4941  0.5540
  184MPD1    H6 2864   4.688   1.946  10.330  1.1198  1.6427  1.1433
  184MPD1    H7 2865   4.575   1.971  10.231 -0.2044  0.5601  1.7243
  185MPD1     C 2866   3.727   2.925   9.751  0.2349 -0.6845 -0.3903
  185MPD1    C1 2867   3.763   2.799   9.708  0.2505 -0.0637  0.2085
  185MPD1    C2 2868   3.899   2.763   9.731  0.2084  0.4635 -0.5054
  185MPD1    C3 2869   3.993   2.860   9.778  0.5634  0.7455  0.2086
  185MPD1    C4 2870   3.945   2.982   9.814 -1.1079  0.8985 -0.1701
  185MPD1    C5 2871   3.818   3.015   9.788  0.1212  0.4827 -0.1974
  185MPD1     H 2872   3.938   2.666   9.703 -0.6631  0.2923 -1.1156
  185MPD1    H1 2873   4.011   3.052   9.864 -2.6506  2.0732  0.2069
  185MPD1    H2 2874   3.627   2.966   9.748  0.1798 -0.8356 -0.6040
  185MPD1    H3 2875   3.802   3.117   9.822  0.6582  0.0576  1.3152
  185MPD1     N 2876   4.132   2.845   9.773 -0.4881 -0.6276  0.2807
  185MPD1    H5 2877   4.186   2.925   9.803  0.0623 -1.6090  1.9380
  185MPD1    N1 2878   3.668   2.703   9.684 -0.1079  0.8585  0.0474
  185MPD1    H6 2879   3.702   2.630   9.622  3.0477  1.3775  1.1289
  185MPD1    H7 2880   3.590   2.744   9.634 -0.6730  0.6524  0.7674
  186MPD1     C 2881   2.994   2.316  15.543 -0.5895  0.6251  0.0571
  186MPD1    C1 2882   3.040   2.445  15.532  0.0036 -0.7794 -0.5984
  186MPD1    C2 2883   3.098   2.501  15.647  0.5337 -0.0724 -0.0552
  186MPD1    C3 2884   3.106   2.432  15.773  0.1268  0.1638 -0.3719
  186MPD1    C4 2885   3.058   2.306  15.775  0.6797 -0.6172  0.1111
  186MPD1    C5 2886   3.001   2.249  15.667 -0.0183 -0.2468  0.4672
  186MPD1     H 2887   3.130   2.605  15.647 -0.4023  0.2145  0.6124
  186MPD1    H1 2888   3.068   2.254  15.870 -0.7964 -0.6240  0.2558
  186MPD1    H2 2889   2.957   2.269  15.453 -0.0755  0.1942  0.0721
  186MPD1    H3 2890   2.977   2.144  15.664 -0.5867 -0.0370 -2.6176
  186MPD1     N 2891   3.156   2.489  15.893 -0.0797  0.3440 -0.1490
  186MPD1    H5 2892   3.141   2.444  15.983 -2.7169  1.5219 -0.0020
  186MPD1    N1 2893   3.010   2.520  15.420 -0.0552  0.1177  0.2778
  186MPD1    H6 2894   2.992   2.461  15.340  1.3585 -0.4971  0.4096
  186MPD1    H7 2895   3.084   2.587  15.395  0.5395 -0.8559 -0.5655
  187MPD1     C 2896   2.692   4.710   0.424  0.5094 -0.0511  0.1509
  187MPD1    C1 2897   2.607   4.616   0.372 -0.4370  1.1647  0.9213
  187MPD1    C2 2898   2.548   4.651   0.253 -0.4321 -0.2587  0.3253
  187MPD1    C3 2899   2.587   0.021   0.180  0.1427 -0.2311 -0.2147
  187MPD1    C4 2900   2.677   0.109   0.235  0.1317 -0.2589  0.0927
  187MPD1    C5 2901   2.734   0.085   0.358  0.1104 -0.3506  0.8434
  187MPD1     H 2902   2.461   4.595   0.221 -0.8442  1.6255 -1.9025
  187MPD1    H1 2903   2.711   0.196   0.179  1.6357 -0.2343  1.0420
  187MPD1    H2 2904   2.735   4.694   0.522 -1.3765 -2.8150  0.5135
  187MPD1    H3 2905   2.801   0.157   0.404 -1.6928  0.7827  1.7064
  187MPD1     N 2906   2.545   0.039   0.045 -0.3455  0.0621 -0.7834
  187MPD1    H5 2907   2.588   0.107  17.724  1.2895 -1.3404 -1.2030
  187MPD1    N1 2908   2.563   4.505   0.449  0.0019  0.0527 -0.3392
  187MPD1    H6 2909   2.557   4.416   0.399  0.1429 -0.4570  0.5502
  187MPD1    H7 2910   2.630   4.488   0.524  0.4340 -0.8174 -0.9168
  188MPD1     C 2911   1.821   4.092   9.920  0.2840 -0.4237 -0.4657
  188MPD1    C1 2912   1.780   4.049   9.798  0.3959 -0.4486  0.7003
  188MPD1    C2 2913   1.716   3.930   9.784 -1.1238  0.5103  0.3522
  188MPD1    C3 2914   1.703   3.835   9.889 -0.2509  0.0641  0.3008
  188MPD1    C4 2915   1.760   3.869  10.012 -0.2990  0.2640 -0.5366
  188MPD1    C5 2916   1.816   4.000  10.023  0.1440 -0.2353  0.5082
  188MPD1     H 2917   1.678   3.903   9.686 -0.9247 -1.0624  0.7002
  188MPD1    H1 2918   1.742   3.809  10.101 -0.1914  0.3495 -0.4559
  188MPD1    H2 2919   1.866   4.190   9.928 -3.6731  1.2851  0.6343
  188MPD1    H3 2920   1.858   4.032  10.118 -1.7683 -0.4078  1.4196
  188MPD1     N 2921   1.626   3.711   9.886 -0.7711  0.1519 -0.1416
  188MPD1    H5 2922   1.632   3.654   9.970 -0.0525  0.9033  0.3152
  188MPD1    N1 2923   1.786   4.144   9.696 -0.1426 -0.0517  0.1016
  188MPD1    H6 2924   1.851   4.218   9.722  0.0939 -1.1013  2.4929
  188MPD1    H7 2925   1.825   4.108   9.609  0.6554 -0.5940  0.6962
  189MPD1     C 2926   3.946   0.549   0.556  0.3470  1.2344  0.0702
  189MPD1    C1 2927   3.805   0.548   0.545 -0.0273 -0.4251  0.5366
  189MPD1    C2 2928   3.742   0.666   0.525 -0.1505 -1.4177  0.3734
  189MPD1    C3 2929   3.810   0.783   0.522 -0.1816 -0.6350 -0.4182
  189MPD1    C4 2930   3.952   0.780   0.532  0.3508 -0.2112 -0.2362
  189MPD1    C5 2931   4.017   0.663   0.546 -0.1376 -0.7084  0.6091
  189MPD1     H 2932   3.635   0.673   0.511  0.2273  0.2616 -1.5527
  189MPD1    H1 2933   4.004   0.874   0.519 -0.3979  0.5354  2.1637
  189MPD1    H2 2934   4.003   0.458   0.567 -0.4729  0.5589 -1.2357
  189MPD1    H3 2935   4.125   0.667   0.556 -0.1632 -0.8015  0.9174
  189MPD1     N 2936   3.738   0.901   0.504  0.4758  0.3980 -0.3839
  189MPD1    H5 2937   3.636   0.896   0.503  0.4592  0.3983  0.7185
  189MPD1    N1 2938   3.739   0.429   0.534  0.1173 -0.1968  0.3353
  189MPD1    H6 2939   3.776   0.365   0.604 -0.5261  0.9284  1.7022
  189MPD1    H7 2940   3.640   0.438   0.555  0.1266  0.2700  0.1827
  190MPD1     C 2941   3.121   3.027  15.960 -0.2635  0.6458 -0.0308
  190MPD1    C1 2942   3.062   3.140  15.999 -0.2960 -0.7115  0.9860
  190MPD1    C2 2943   3.116   3.257  15.945  0.3532  0.4189  0.0463
  190MPD1    C3 2944   3.211   3.257  15.844 -0.1846  0.1162 -0.7220
  190MPD1    C4 2945   3.260   3.138  15.804 -0.5738  0.0928  0.6332
  190MPD1    C5 2946   3.213   3.020  15.862  1.1947 -0.9285 -0.5766
  190MPD1     H 2947   3.075   3.353  15.976  1.4155  1.6749 -2.4192
  190MPD1    H1 2948   3.334   3.137  15.725 -1.5686 -0.4923 -0.2897
  190MPD1    H2 2949   3.086   2.931  15.995  0.4884  0.6211  0.6664
  190MPD1    H3 2950   3.248   2.922  15.834 -1.0841 -1.4576 -1.5340
  190MPD1     N 2951   3.246   3.376  15.778  0.0498 -0.2711 -0.2681
  190MPD1    H5 2952   3.203   3.460  15.814 -0.9667  0.1461 -2.4301
  190MPD1    N1 2953   2.969   3.140  16.101  0.4087 -0.1231  0.5464
  190MPD1    H6 2954   2.917   3.226  16.116  1.8528  0.7435  0.5293
  190MPD1    H7 2955   2.904   3.061  16.108 -1.3529  1.3131  0.4392
  191MPD1     C 2956   2.152   0.307  12.368  0.1521 -0.0145 -0.3230
  191MPD1    C1 2957   2.260   0.336  12.290  0.5591 -0.5877 -0.4988
  191MPD1    C2 2958   2.282   0.256  12.181  0.4946 -0.7037 -0.1322
  191MPD1    C3 2959   2.196   0.146  12.161  0.1156 -0.3000 -0.1631
  191MPD1    C4 2960   2.091   0.113  12.246 -0.3630 -0.7647 -0.5577
  191MPD1    C5 2961   2.064   0.205  12.347 -0.4285 -0.0245 -0.8283
  191MPD1     H 2962   2.369   0.275  12.119  0.0108 -0.9610 -0.8933
  191MPD1    H1 2963   2.036   0.020  12.240  0.0289 -0.9781 -0.8719
  191MPD1    H2 2964   2.131   0.375  12.449  1.6570  0.5682 -0.4142
  191MPD1    H3 2965   1.981   0.186  12.415 -0.2418 -2.6800 -1.3462
  191MPD1     N 2966   2.225   0.068  12.045 -0.1513  0.0136  0.0194
  191MPD1    H5 2967   2.312   0.087  11.997 -0.2941 -0.1570 -0.3030
  191MPD1    N1 2968   2.336   0.453  12.313 -0.1951  0.0147 -0.5872
  191MPD1    H6 2969   2.428   0.440  12.271  0.0438  0.8368 -0.3244
  191MPD1    H7 2970   2.343   0.456  12.415  0.9428 -1.4623 -0.6062
  192MPD1     C 2971   2.167   4.327  11.091  0.5358  0.0113  0.9155
  192MPD1    C1 2972   2.072   4.376  11.177  0.0597 -0.2220 -0.3678
  192MPD1    C2 2973   2.115   4.383  11.311  0.0868 -0.2030 -0.7648
  192MPD1    C3 2974   2.242   4.357  11.355  0.1990  0.2699  0.6241
  192MPD1    C4 2975   2.334   4.295  11.269  0.0168 -0.5764 -0.7088
  192MPD1    C5 2976   2.287   4.279  11.138  0.5074 -0.6479  0.2121
  192MPD1     H 2977   2.041   4.428  11.376  1.9207  1.5403  0.1413
  192MPD1    H1 2978   2.431   4.259  11.299 -0.7984  0.0545  2.6968
  192MPD1    H2 2979   2.149   4.331  10.984 -1.2650  0.5798  1.2315
  192MPD1    H3 2980   2.356   4.225  11.074  1.5824  0.8204  0.1357
  192MPD1     N 2981   2.284   4.386  11.489  0.0929  1.2077  0.8477
  192MPD1    H5 2982   2.374   4.351  11.522 -0.7066 -0.3948  1.3520
  192MPD1    N1 2983   1.952   4.433  11.135 -0.3720  0.9568  0.1906
  192MPD1    H6 2984   1.927   4.401  11.041 -0.5879  3.7752 -0.7013
  192MPD1    H7 2985   1.872   4.413  11.195  0.0304 -4.5420 -1.1032
  193MPD1     C 2986   1.021   0.980  16.441  0.7717 -0.5014 -0.0546
  193MPD1    C1 2987   1.119   0.887  16.442 -0.2832 -0.4336 -0.2445
  193MPD1    C2 2988   1.257   0.930  16.442 -0.3177  0.1859  0.1211
  193MPD1    C3 2989   1.286   1.065  16.440  0.1026 -0.4078 -0.1400
  193MPD1    C4 2990   1.186   1.160  16.432  0.2893 -0.3157  0.3696
  193MPD1    C5 2991   1.055   1.118  16.425  0.6278 -0.7623 -0.3753
  193MPD1     H 2992   1.338   0.859  16.437 -0.4927  0.0349 -0.5882
  193MPD1    H1 2993   1.209   1.266  16.437  1.8661 -0.6995  1.1366
  193MPD1    H2 2994   0.918   0.952  16.422  1.0310  0.0213 -2.2688
  193MPD1    H3 2995   0.980   1.189  16.393  0.8329 -0.5848 -0.4572
  193MPD1     N 2996   1.416   1.120  16.423 -0.2563 -0.3299 -0.0963
  193MPD1    H5 2997   1.434   1.220  16.421 -1.0142 -0.1820  0.6401
  193MPD1    N1 2998   1.089   0.761  16.473  0.0927  0.2002  0.5157
  193MPD1    H6 2999   0.997   0.736  16.439  0.8763 -4.8410  2.0229
  193MPD1    H7 3000   1.159   0.710  16.418  0.5293  1.6589 -0.2571
  194MPD1     C 3001   3.708   3.137  16.733 -0.0045 -0.9278 -0.1342
  194MPD1    C1 3002   3.814   3.227  16.756  0.2858 -0.3954 -0.7157
  194MPD1    C2 3003   3.942   3.175  16.764  0.1416 -0.0523  0.0476
  194MPD1    C3 3004   3.978   3.047  16.718 -0.7639  0.4085 -0.4293
  194MPD1    C4 3005   3.876   2.962  16.680 -0.1083  0.1192 -0.1685
  194MPD1    C5 3006   3.742   3.010  16.689 -0.4106  0.5565 -0.5572
  194MPD1     H 3007   4.009   3.253  16.799  3.0441 -2.1383 -0.8140
  194MPD1    H1 3008   3.888   2.862  16.641  2.7084  1.1366 -1.9206
  194MPD1    H2 3009   3.605   3.165  16.750  0.4246 -0.3899  1.6239
  194MPD1    H3 3010   3.662   2.942  16.659 -2.0798  1.9176  0.7984
  194MPD1     N 3011   4.104   2.992  16.724 -0.9311 -0.2431 -0.0961
  194MPD1    H5 3012   4.104   2.892  16.704 -0.4473 -0.0556 -1.0478
  194MPD1    N1 3013   3.785   3.355  16.810  0.6158  0.2242 -0.5125
  194MPD1    H6 3014   3.697   3.392  16.774  0.0220  0.2438  0.9769
  194MPD1    H7 3015   3.857   3.416  16.774 -1.4086  2.2617 -1.1351
  195MPD1     C 3016   1.680   4.732   0.007 -0.4181 -0.0656 -0.0107
  195MPD1    C1 3017   1.698   4.725  17.608 -0.1518  0.9354  0.2560
  195MPD1    C2 3018   1.708   4.600  17.555 -0.0122  0.2013 -0.0154
  195MPD1    C3 3019   1.693   4.484  17.630 -0.5331 -0.3580 -0.6277
  195MPD1    C4 3020   1.654   4.499   0.019 -0.2750  0.3437 -0.9240
  195MPD1    C5 3021   1.650   4.622   0.078 -0.2894  0.0559  0.1255
  195MPD1     H 3022   1.731   4.586  17.450 -2.4384  0.8843 -0.6227
  195MPD1    H1 3023   1.637   4.415   0.085  0.5764  0.0561 -1.0744
  195MPD1    H2 3024   1.686   0.089   0.063  0.2519 -0.3069  0.3146
  195MPD1    H3 3025   1.616   4.629   0.180 -1.3517  0.4121 -0.2430
  195MPD1     N 3026   1.726   4.355  17.592 -0.2186  0.2463  0.4808
  195MPD1    H5 3027   1.732   4.290  17.670  0.4003  0.8938  0.9664
  195MPD1    N1 3028   1.713   0.104  17.524 -0.5231  0.0049 -0.1730
  195MPD1    H6 3029   1.694   0.081  17.427 -0.1957  3.9136 -1.1270
  195MPD1    H7 3030   1.658   0.183  17.556  0.5494  1.0177 -0.8846
  196MPD1     C 3031   0.895   3.364   0.161 -0.6645  0.1572  0.8352
  196MPD1    C1 3032   0.938   3.463   0.072  0.1201 -0.0480  0.6772
  196MPD1    C2 3033   1.030   3.561   0.121  1.1461  1.0966 -0.6309
  196MPD1    C3 3034   1.077   3.564   0.247  0.1075  0.2767  0.2451
  196MPD1    C4 3035   1.030   3.468   0.337  0.0584 -0.6235 -0.0505
  196MPD1    C5 3036   0.944   3.366   0.282  0.7316  0.1439  0.8046
  196MPD1     H 3037   1.079   3.622   0.045  3.5732 -0.4406 -0.3051
  196MPD1    H1 3038   1.056   3.462   0.442  1.3483  1.7993 -0.2320
  196MPD1    H2 3039   0.833   3.279   0.135 -1.2982  0.8359  0.1469
  196MPD1    H3 3040   0.914   3.285   0.348 -4.2440  0.4685 -1.1156
  196MPD1     N 3041   1.166   3.660   0.296  0.1542  0.2711 -0.1912
  196MPD1    H5 3042   1.191   3.649   0.394 -1.1295  1.0041  0.2139
  196MPD1    N1 3043   0.919   3.462  17.671 -0.2208 -0.0478  0.0971
  196MPD1    H6 3044   0.901   3.551  17.626  0.2435  1.0770  2.1494
  196MPD1    H7 3045   0.839   3.407  17.640 -1.0065  0.9591  0.3230
  197MPD1     C 3046   0.512   0.723  17.347 -0.5592 -0.2769  0.0752
  197MPD1    C1 3047   0.608   0.810  17.399 -0.3132 -0.7514  0.2248
  197MPD1    C2 3048   0.624   0.936  17.344 -0.6142 -0.0004  0.2685
  197MPD1    C3 3049   0.552   0.968  17.229 -0.1817  0.0376 -0.2834
  197MPD1    C4 3050   0.460   0.875  17.181 -0.1055  0.2729 -0.3911
  197MPD1    C5 3051   0.440   0.756  17.237 -0.2675  0.0984  0.5919
  197MPD1     H 3052   0.697   1.001  17.390 -0.0687 -0.2263 -0.2802
  197MPD1    H1 3053   0.401   0.896  17.092 -0.1037  0.8742 -0.2487
  197MPD1    H2 3054   0.497   0.624  17.389  0.9309 -0.0556  1.1383
  197MPD1    H3 3055   0.372   0.683  17.194  0.1011  1.0265 -1.5681
  197MPD1     N 3056   0.578   1.078  17.148  0.3492 -0.0785 -0.1835
  197MPD1    H5 3057   0.517   1.091  17.069  0.5389 -2.1393 -0.6678
  197MPD1    N1 3058   0.684   0.776  17.509 -0.2943 -0.0245 -0.5737
  197MPD1    H6 3059   0.687   0.677  17.533 -1.7704  0.6815  2.4829
  197MPD1    H7 3060   0.780   0.808  17.506 -0.9045  1.7364 -0.8034
  198MPD1     C 3061   2.119   0.022  15.579  0.3672 -0.1700  0.2269
  198MPD1    C1 3062   2.167   4.733  15.702 -1.1034  0.0415 -0.1265
  198MPD1    C2 3063   2.307   4.724  15.720 -0.3382 -0.4086  0.1880
  198MPD1    C3 3064   2.389   4.727  15.607 -0.2523 -0.0597  0.0059
  198MPD1    C4 3065   2.344   0.026  15.485  0.1795 -0.0345  0.5813
  198MPD1    C5 3066   2.205   0.035  15.479 -0.3083 -0.0719  0.3832
  198MPD1     H 3067   2.339   4.710  15.823  0.2901  1.3954  0.2329
  198MPD1    H1 3068   2.411   0.038  15.401 -0.6487 -0.8849 -0.1891
  198MPD1    H2 3069   2.015   0.047  15.562  1.7515  3.2474 -3.1552
  198MPD1    H3 3070   2.157   0.034  15.381  0.6900 -1.0848 -0.0828
  198MPD1     N 3071   2.526   4.689  15.629 -0.2563  0.0204 -0.2919
  198MPD1    H5 3072   2.560   4.699  15.724 -2.4280 -1.0619  0.6122
  198MPD1    N1 3073   2.085   0.016  15.814  0.0521  0.6715  0.4094
  198MPD1    H6 3074   1.984   0.019  15.804  0.0385  1.6546  0.8955
  198MPD1    H7 3075   2.116   4.699  15.896 -1.2313  0.5567  0.8190
  199MPD1     C 3076   4.587   0.780   9.789  0.0588 -0.0861  0.1230
  199MPD1    C1 3077   4.528   0.660   9.824 -0.6154 -0.1949  0.0409
  199MPD1    C2 3078   4.408   0.663   9.889 -0.3741 -0.7396 -0.1721
  199MPD1    C3 3079   4.357   0.786   9.935  1.0757  0.0517 -0.7455
  199MPD1    C4 3080   4.422   0.900   9.913  1.3396  0.0158 -0.3186
  199MPD1    C5 3081   4.539   0.903   9.842  1.2837 -0.2206  0.2103
  199MPD1     H 3082   4.352   0.572   9.907  0.8859 -1.2927  1.0434
  199MPD1    H1 3083   4.378   0.994   9.943 -0.2892 -0.4072 -1.3330
  199MPD1    H2 3084   4.681   0.788   9.735 -0.1381 -2.0703 -0.4935
  199MPD1    H3 3085   4.595   0.995   9.826 -0.6297  0.8014 -0.5551
  199MPD1     N 3086   4.235   0.783  10.000 -0.1531  0.2935 -0.3100
  199MPD1    H5 3087   4.205   0.691  10.030 -2.9064  1.1351 -0.4065
  199MPD1    N1 3088   4.576   0.542   9.764 -0.3782 -0.4644 -0.3430
  199MPD1    H6 3089   4.574   0.470   9.836  1.5676 -0.2820 -0.1190
  199MPD1    H7 3090   4.676   0.559   9.759 -0.4423  0.6679  2.1239
  200MPD1     C 3091   4.108   1.125  16.238  0.3304 -0.6331  0.2882
  200MPD1    C1 3092   4.095   0.994  16.189  0.0312 -0.0012 -0.3082
  200MPD1    C2 3093   4.125   0.967  16.056 -0.0173  0.4724 -0.0798
  200MPD1    C3 3094   4.152   1.072  15.976 -0.1643 -0.2570 -0.4637
  200MPD1    C4 3095   4.147   1.207  16.023 -0.0081  0.6077  0.5783
  200MPD1    C5 3096   4.127   1.227  16.155 -0.3986  0.0215  0.2215
  200MPD1     H 3097   4.139   0.871  16.008 -0.9602  1.5174 -2.5013
  200MPD1    H1 3098   4.181   1.291  15.964  1.5170  0.4807  1.2510
  200MPD1    H2 3099   4.117   1.135  16.345  0.0817  1.4355  0.1171
  200MPD1    H3 3100   4.122   1.327  16.197  0.1986  0.3270 -0.4403
  200MPD1     N 3101   4.171   1.044  15.840 -0.3928 -0.1647  0.1351
  200MPD1    H5 3102   4.148   0.949  15.813  0.7630  0.0766 -1.7315
  200MPD1    N1 3103   4.093   0.886  16.281  0.5976  0.2106  0.5724
  200MPD1    H6 3104   4.054   0.904  16.373 -1.5428  0.0761 -0.3264
  200MPD1    H7 3105   4.054   0.798  16.247 -0.4679  1.5730 -1.7407
  201MPD1     C 3106   1.889   4.404  12.723  0.3547  0.1522  0.1503
  201MPD1    C1 3107   1.850   4.348  12.602  0.8626  0.0585  0.2633
  201MPD1    C2 3108   1.769   4.238  12.608  0.0487 -0.7662 -0.3476
  201MPD1    C3 3109   1.700   4.205  12.725  0.3455  0.8252 -0.4807
  201MPD1    C4 3110   1.733   4.277  12.841  0.1025 -0.1554  0.5061
  201MPD1    C5 3111   1.829   4.371  12.841 -0.0660 -0.2477 -0.8990
  201MPD1     H 3112   1.750   4.179  12.519  1.0487 -0.2466 -0.9153
  201MPD1    H1 3113   1.700   4.245  12.939  0.5782 -1.4758  0.2376
  201MPD1    H2 3114   1.963   4.483  12.719 -0.0284  0.5204  0.4383
  201MPD1    H3 3115   1.863   4.417  12.933  0.5648  0.1500 -1.3281
  201MPD1     N 3116   1.603   4.109  12.719 -0.4292  0.0954 -0.0932
  201MPD1    H5 3117   1.590   4.060  12.631 -0.8110  0.8758 -0.4741
  201MPD1    N1 3118   1.916   4.383  12.487  0.2471  0.1549 -0.4103
  201MPD1    H6 3119   1.926   4.484  12.495 -2.5138  0.1727  2.8778
  201MPD1    H7 3120   1.865   4.362  12.402 -0.7579  1.7565 -0.1965
  202MPD1     C 3121   1.966   4.687  10.524 -0.0851 -0.1601  0.8647
  202MPD1    C1 3122   1.895   4.598  10.599 -0.2595 -0.0748 -0.2116
  202MPD1    C2 3123   1.803   4.526  10.523  0.3158  0.4629  0.4304
  202MPD1    C3 3124   1.778   4.546  10.386  0.8114  0.8166 -0.2639
  202MPD1    C4 3125   1.839   4.651  10.326  0.4046 -0.7342 -0.4133
  202MPD1    C5 3126   1.936   4.723  10.396 -0.2868  0.3316 -0.0398
  202MPD1     H 3127   1.758   4.433  10.556  1.7195  0.0376  1.1483
  202MPD1    H1 3128   1.825   4.674  10.221 -0.6193 -0.6624 -0.2656
  202MPD1    H2 3129   2.052   0.004  10.565 -0.6119  1.6951 -0.3891
  202MPD1    H3 3130   2.006   0.050  10.341  1.2663 -1.2755  0.0967
  202MPD1     N 3131   1.687   4.471  10.302  0.0243 -0.2936  0.0387
  202MPD1    H5 3132   1.667   4.493  10.205 -1.0417 -0.4058  0.2345
  202MPD1    N1 3133   1.964   4.537  10.704 -0.6242  0.2035  0.3421
  202MPD1    H6 3134   2.005   4.604  10.768  1.2375 -0.4944 -0.1331
  202MPD1    H7 3135   1.905   4.472  10.756 -0.5286 -1.6732 -1.8577
  203MPD1     C 3136   3.892   4.357  12.151 -0.5514  0.6717  0.6462
  203MPD1    C1 3137   3.984   4.258  12.117  0.1072 -0.6159 -0.2578
  203MPD1    C2 3138   4.099   4.248  12.196  0.7851 -0.4428  0.6032
  203MPD1    C3 3139   4.127   4.338  12.301 -0.1625  0.4400  0.8449
  203MPD1    C4 3140   4.028   4.432  12.327  0.0211  0.1405  0.0370
  203MPD1    C5 3141   3.914   4.438  12.255  0.3204  0.2738  0.1073
  203MPD1     H 3142   4.164   4.168  12.163 -1.6823 -1.8341 -0.8950
  203MPD1    H1 3143   4.031   4.510  12.403 -1.6166 -0.9893  1.2336
  203MPD1    H2 3144   3.804   4.382  12.093 -3.0455 -5.2391  1.9280
  203MPD1    H3 3145   3.843   4.512  12.292  0.1148 -0.1415  0.5466
  203MPD1     N 3146   4.249   4.325  12.376 -0.5350 -0.1697 -0.1592
  203MPD1    H5 3147   4.308   4.243  12.367 -0.7619 -0.4674  1.0465
  203MPD1    N1 3148   3.964   4.174  12.001  0.0891  0.0450  0.3209
  203MPD1    H6 3149   3.868   4.164  11.969  0.1187  2.3204 -0.5306
  203MPD1    H7 3150   4.007   4.082  12.007  2.1172  0.9040 -0.8404
  204MPD1     C 3151   4.163   2.121  17.675  0.6141 -0.1792  0.8422
  204MPD1    C1 3152   4.233   2.082  17.563  0.4106 -0.0130  0.1963
  204MPD1    C2 3153   4.270   1.946  17.557  0.0240 -0.2687 -0.1670
  204MPD1    C3 3154   4.248   1.853  17.655  0.0936  0.1708 -0.1521
  204MPD1    C4 3155   4.187   1.902   0.028  0.4724 -0.5352  0.0472
  204MPD1    C5 3156   4.139   2.028   0.036 -0.4068 -0.2215 -0.1215
  204MPD1     H 3157   4.316   1.919  17.462 -2.0726  1.6713 -1.7240
  204MPD1    H1 3158   4.152   1.839   0.109  1.4675 -2.5695 -1.0809
  204MPD1    H2 3159   4.112   2.216  17.688  4.1864  1.9773 -1.1970
  204MPD1    H3 3160   4.085   2.060   0.125  1.2915  0.8674  0.5167
  204MPD1     N 3161   4.282   1.719  17.633 -0.5943  0.4051  0.2303
  204MPD1    H5 3162   4.318   1.697  17.541 -0.3746  1.2385  0.1185
  204MPD1    N1 3163   4.272   2.174  17.455  0.3475 -0.2919 -0.2741
  204MPD1    H6 3164   4.289   2.116  17.372 -0.8234  1.0053 -1.4200
  204MPD1    H7 3165   4.196   2.237  17.433 -0.3753 -1.1198 -0.1568
  205MPD1     C 3166   3.591   0.960  16.747 -0.0751  0.0082  0.2113
  205MPD1    C1 3167   3.481   0.892  16.799  0.8386 -0.2056  0.1863
  205MPD1    C2 3168   3.502   0.803  16.904 -0.1181  0.3289 -0.4013
  205MPD1    C3 3169   3.627   0.787  16.960 -0.2646  0.3765  0.6537
  205MPD1    C4 3170   3.729   0.849  16.902 -0.4306 -0.0149  0.2239
  205MPD1    C5 3171   3.719   0.935  16.792  0.0878 -0.1683 -0.2255
  205MPD1     H 3172   3.416   0.755  16.947  0.4570 -0.0527  0.3348
  205MPD1    H1 3173   3.826   0.847  16.951  0.1046 -2.5278 -0.9401
  205MPD1    H2 3174   3.572   1.036  16.672 -1.1816 -0.2412  0.2343
  205MPD1    H3 3175   3.804   0.979  16.741  0.5027  0.1440  0.7410
  205MPD1     N 3176   3.656   0.729  17.086  0.1705 -0.2145  0.0490
  205MPD1    H5 3177   3.735   0.762  17.141  0.3936  0.5726 -0.7438
  205MPD1    N1 3178   3.356   0.930  16.761  0.0011  0.2193  0.2885
  205MPD1    H6 3179   3.356   0.960  16.663  0.4193 -0.0083  0.2196
  205MPD1    H7 3180   3.295   0.849  16.773  1.0817 -0.3958  1.5944
  206MPD1     C 3181   0.137   2.474  16.936  0.5128  0.1797  0.1656
  206MPD1    C1 3182   0.162   2.595  16.899  0.3751  0.9035 -0.5022
  206MPD1    C2 3183   0.124   2.641  16.772  0.6633 -0.5504  0.2800
  206MPD1    C3 3184   0.039   2.568  16.694  0.2729  0.1542 -0.4252
  206MPD1    C4 3185   0.010   2.437  16.730  0.0971  0.1712 -0.5144
  206MPD1    C5 3186   0.057   2.397  16.855 -0.4492  0.0637  0.4333
  206MPD1     H 3187   0.157   2.739  16.740  2.0138 -1.3928 -0.9077
  206MPD1    H1 3188   4.679   2.372  16.674  1.0062 -1.8137  0.7239
  206MPD1    H2 3189   0.152   2.436  17.036  0.6842 -1.0270 -0.3203
  206MPD1    H3 3190   0.049   2.293  16.883 -1.4112 -0.4568 -1.7895
  206MPD1     N 3191   4.724   2.618  16.570 -0.2966  0.4929  0.8037
  206MPD1    H5 3192   4.700   2.548  16.500 -1.9445 -0.4939  2.3465
  206MPD1    N1 3193   0.244   2.669  16.989 -0.5580 -0.2784 -0.1796
  206MPD1    H6 3194   0.240   2.623  17.080 -0.7565  1.0724  0.4952
  206MPD1    H7 3195   0.208   2.764  16.993 -1.7028 -0.8138  2.2089
  207MPD1     C 3196   1.571   1.306   9.684 -0.3517  0.6604 -0.6127
  207MPD1    C1 3197   1.495   1.204   9.734 -0.3691  0.4856  0.2955
  207MPD1    C2 3198   1.547   1.141   9.843 -0.0968 -0.2062  0.7304
  207MPD1    C3 3199   1.658   1.180   9.913 -0.6545 -0.1948 -0.4521
  207MPD1    C4 3200   1.730   1.286   9.860 -0.5762 -0.6140 -0.1656
  207MPD1    C5 3201   1.684   1.346   9.743  0.3425  0.4261 -0.1317
  207MPD1     H 3202   1.475   1.069   9.879  1.4086 -1.4720  1.2042
  207MPD1    H1 3203   1.811   1.328   9.918 -1.6249 -1.5090  1.9361
  207MPD1    H2 3204   1.538   1.373   9.605 -0.4037  1.0123 -0.2943
  207MPD1    H3 3205   1.734   1.435   9.707  0.2685 -0.1466 -1.6669
  207MPD1     N 3206   1.704   1.132  10.034 -0.0599 -0.0403  0.8808
  207MPD1    H5 3207   1.792   1.168  10.069  0.2116  0.8265 -0.6951
  207MPD1    N1 3208   1.383   1.162   9.655 -0.8093 -0.2861 -0.4248
  207MPD1    H6 3209   1.338   1.242   9.611 -1.6321 -1.2817 -1.3878
  207MPD1    H7 3210   1.303   1.118   9.699 -0.2161  0.3092  1.2157
  208MPD1     C 3211   3.744   4.035  16.789 -0.7277  0.4824  0.3175
  208MPD1    C1 3212   3.682   4.056  16.913  0.2550 -0.1395 -0.4495
  208MPD1    C2 3213   3.764   4.085  17.022  0.2118 -0.1652  0.5385
  208MPD1    C3 3214   3.903   4.094  17.022  0.2654 -0.3766  0.1419
  208MPD1    C4 3215   3.958   4.067  16.902  0.3741  0.3016 -0.0823
  208MPD1    C5 3216   3.884   4.036  16.790 -0.2204  0.4270 -0.2818
  208MPD1     H 3217   3.717   4.092  17.119 -1.6595 -2.2313 -0.2246
  208MPD1    H1 3218   4.064   4.044  16.890  0.3136  0.3015 -0.6547
  208MPD1    H2 3219   3.687   4.000  16.704  0.8853  2.4306 -1.5637
  208MPD1    H3 3220   3.944   4.011  16.703  0.8601  2.1902 -0.0455
  208MPD1     N 3221   3.972   4.135  17.135  0.1473 -0.2605  0.3231
  208MPD1    H5 3222   3.921   4.145  17.222  1.3499 -2.0976  1.2420
  208MPD1    N1 3223   3.553   4.016  16.930  0.2192  0.5436  0.4803
  208MPD1    H6 3224   3.497   4.024  16.845 -2.1215 -1.1336  1.8713
  208MPD1    H7 3225   3.503   4.080  16.991  1.3453  1.1955  0.7041
  209MPD1     C 3226   1.027   4.657   9.919 -0.1796 -0.2598 -0.1569
  209MPD1    C1 3227   0.991   4.626  10.044 -0.2291 -0.3127  1.0436
  209MPD1    C2 3228   1.079   4.627  10.155  0.1749 -0.0713 -0.2143
  209MPD1    C3 3229   1.204   4.687  10.129  0.7281  0.5380  0.3201
  209MPD1    C4 3230   1.238   0.000  10.002  0.3794 -0.1607 -0.0327
  209MPD1    C5 3231   1.145   4.716   9.897  0.0646 -0.0751 -0.4162
  209MPD1     H 3232   1.051   4.587  10.251  3.6148 -2.6851 -0.2797
  209MPD1    H1 3233   1.336   0.041   9.979 -0.1671  2.4362  2.3041
  209MPD1    H2 3234   0.965   4.656   9.830  1.0828  0.7019 -1.0626
  209MPD1    H3 3235   1.170   0.010   9.795 -0.1388  2.3058  0.2196
  209MPD1     N 3236   1.310   4.689  10.225 -0.4192  0.0817  0.0172
  209MPD1    H5 3237   1.398   4.730  10.195 -0.2204 -0.9153 -0.7657
  209MPD1    N1 3238   0.872   4.559  10.073 -0.1383  0.8050 -0.0741
  209MPD1    H6 3239   0.823   4.598  10.153  0.6682 -1.2267  1.4133
  209MPD1    H7 3240   0.813   4.565   9.990  1.4586 -2.1567 -1.4231
  210MPD1     C 3241   1.514   4.094  11.034  0.4906 -0.0430  0.8592
  210MPD1    C1 3242   1.494   4.229  11.069  0.0782 -0.2428  0.0904
  210MPD1    C2 3243   1.519   4.325  10.974  0.8601  0.2701 -0.1401
  210MPD1    C3 3244   1.529   4.297  10.840  0.1444 -0.4303 -0.0226
  210MPD1    C4 3245   1.537   4.166  10.805  0.2141  0.0698  0.5264
  210MPD1    C5 3246   1.527   4.068  10.901  0.0734 -0.4215 -0.4796
  210MPD1     H 3247   1.504   4.428  11.004  2.2530  0.2056  0.7762
  210MPD1    H1 3248   1.545   4.137  10.701 -0.1202 -0.8988  0.7756
  210MPD1    H2 3249   1.501   4.003  11.092 -2.0294 -0.3211 -0.1296
  210MPD1    H3 3250   1.539   3.962  10.879  1.0025 -0.9261  2.5214
  210MPD1     N 3251   1.536   4.400  10.740 -0.1928 -0.4885 -0.6769
  210MPD1    H5 3252   1.541   4.362  10.646  2.0022  0.0186 -0.7660
  210MPD1    N1 3253   1.486   4.267  11.204 -0.4920  0.1127 -0.6694
  210MPD1    H6 3254   1.445   4.200  11.269  0.0150  0.2461 -0.2070
  210MPD1    H7 3255   1.435   4.355  11.213 -0.5738  0.3116 -3.1045
  211MPD1     C 3256   0.440   0.178  16.269 -0.0303  0.7616 -0.1327
  211MPD1    C1 3257   0.429   0.293  16.339  0.0393 -0.4548 -0.3863
  211MPD1    C2 3258   0.313   0.365  16.350  0.4549 -0.3841 -0.3692
  211MPD1    C3 3259   0.203   0.321  16.277  0.1009 -0.3923 -0.5133
  211MPD1    C4 3260   0.203   0.195  16.222 -0.2788  0.2465  0.0945
  211MPD1    C5 3261   0.320   0.129  16.217  0.2911  0.2508  0.1022
  211MPD1     H 3262   0.295   0.459  16.401 -0.5646 -1.2113  0.7850
  211MPD1    H1 3263   0.119   0.147  16.173 -0.4919  1.3708 -0.6408
  211MPD1    H2 3264   0.535   0.128  16.254 -1.7371 -2.4449 -0.3612
  211MPD1    H3 3265   0.327   0.039  16.157 -2.4245 -0.3724  0.7298
  211MPD1     N 3266   0.084   0.400  16.285  0.0349 -0.5349  0.3977
  211MPD1    H5 3267   0.092   0.494  16.321  0.3113 -1.2553  2.2429
  211MPD1    N1 3268   0.545   0.353  16.381  0.0490  0.4976 -0.3596
  211MPD1    H6 3269   0.632   0.302  16.398 -0.1356  0.3731  0.2281
  211MPD1    H7 3270   0.523   0.409  16.464  0.7613  0.6124 -0.2436
  212MPD1     C 3271   4.319   3.256  17.259  0.0003  0.1790 -0.0417
  212MPD1    C1 3272   4.328   3.123  17.255  0.6422 -0.1394 -0.1714
  212MPD1    C2 3273   4.219   3.054  17.210 -0.2983 -0.0451  0.0013
  212MPD1    C3 3274   4.105   3.110  17.156 -0.3721 -0.4164 -0.4449
  212MPD1    C4 3275   4.104   3.249  17.164 -0.0245 -0.6761 -0.4862
  212MPD1    C5 3276   4.209   3.320  17.218 -0.2710  0.3861 -0.1414
  212MPD1     H 3277   4.227   2.946  17.203  0.0771  0.0312 -0.7523
  212MPD1    H1 3278   4.020   3.306  17.128  2.5620  3.0327 -0.6545
  212MPD1    H2 3279   4.394   3.313  17.313  0.8521  0.9459 -2.0434
  212MPD1    H3 3280   4.210   3.428  17.212  3.2340  0.3819  0.5774
  212MPD1     N 3281   3.999   3.034  17.095  0.2605  0.1603 -0.0665
  212MPD1    H5 3282   3.921   3.089  17.060 -0.7038  0.3720  2.4616
  212MPD1    N1 3283   4.430   3.056  17.327 -0.2514  0.4955 -0.5089
  212MPD1    H6 3284   4.502   3.117  17.365 -1.4973  0.5025  1.8793
  212MPD1    H7 3285   4.465   2.982  17.266  0.8909 -1.3213  2.3388
  213MPD1     C 3286   2.459   3.938  15.953 -0.7480  0.1479  0.5610
  213MPD1    C1 3287   2.537   3.852  15.881  0.3885  0.1378 -0.5254
  213MPD1    C2 3288   2.482   3.831  15.754 -0.2912  0.3411  0.2538
  213MPD1    C3 3289   2.381   3.912  15.698  0.1892 -0.2402  0.5278
  213MPD1    C4 3290   2.330   4.014  15.771  0.3843  0.1846  0.3133
  213MPD1    C5 3291   2.372   4.025  15.900 -0.0683 -0.5727  0.7573
  213MPD1     H 3292   2.514   3.757  15.682  1.1433 -0.2381  1.4968
  213MPD1    H1 3293   2.259   4.086  15.734 -0.0298  0.3735  1.4838
  213MPD1    H2 3294   2.483   3.956  16.057 -0.5575  1.7958  0.2316
  213MPD1    H3 3295   2.321   4.085  15.974 -1.9727 -1.8948  0.5096
  213MPD1     N 3296   2.341   3.887  15.568  0.4696  0.4699  0.1111
  213MPD1    H5 3297   2.383   3.807  15.521 -1.3543  0.2606 -1.1731
  213MPD1    N1 3298   2.612   3.748  15.935 -0.4885 -0.0440 -0.3679
  213MPD1    H6 3299   2.663   3.772  16.020  0.5706 -0.2474 -0.9402
  213MPD1    H7 3300   2.676   3.708  15.866  1.5560  3.9327 -0.7739
  214MPD1     C 3301   1.881   3.178  15.366 -0.2103  0.2803 -0.1535
  214MPD1    C1 3302   1.928   3.213  15.245 -0.3777 -0.2779  0.5241
  214MPD1    C2 3303   1.975   3.339  15.229  0.2726 -0.2140  0.2880
  214MPD1    C3 3304   1.995   3.422  15.337 -0.0570 -0.4300 -1.1028
  214MPD1    C4 3305   1.963   3.374  15.463  0.4078 -0.0920 -0.0486
  214MPD1    C5 3306   1.897   3.256  15.479  0.6946 -0.8747  0.9566
  214MPD1     H 3307   2.015   3.365  15.132  1.4328  0.8541  1.0491
  214MPD1    H1 3308   1.991   3.418  15.557  4.3471 -1.6686 -0.4824
  214MPD1    H2 3309   1.838   3.080  15.378  1.8659 -0.9591 -2.7081
  214MPD1    H3 3310   1.875   3.215  15.577 -1.0198 -0.9073  0.5585
  214MPD1     N 3311   2.078   3.534  15.329  0.3578  0.3652  0.7496
  214MPD1    H5 3312   2.089   3.593  15.411  1.2262  2.8441 -1.1337
  214MPD1    N1 3313   1.908   3.125  15.135 -0.2254 -0.3912 -0.1735
  214MPD1    H6 3314   1.983   3.127  15.066 -0.2465 -0.0574 -0.1856
  214MPD1    H7 3315   1.896   3.030  15.170 -1.6442  0.2292  1.0340
  215MPD1     C 3316   1.148   4.041  10.743  0.1204 -0.7743  0.4279
  215MPD1    C1 3317   1.152   4.153  10.661 -0.0598  0.3478  0.0293
  215MPD1    C2 3318   1.179   4.273  10.720  0.7265  0.0714 -0.0669
  215MPD1    C3 3319   1.178   4.291  10.860 -0.3098 -0.3866 -0.1324
  215MPD1    C4 3320   1.170   4.174  10.936 -1.0478  0.5496 -0.9761
  215MPD1    C5 3321   1.152   4.057  10.875 -0.6994 -0.0020 -0.3089
  215MPD1     H 3322   1.188   4.359  10.655  0.6763  0.3461  0.2895
  215MPD1    H1 3323   1.172   4.169  11.044  1.8072  1.0747 -1.0031
  215MPD1    H2 3324   1.130   3.939  10.712 -0.7330 -0.6400  0.4919
  215MPD1    H3 3325   1.132   3.973  10.940  0.4209 -0.7571 -0.9430
  215MPD1     N 3326   1.182   4.423  10.922  0.2312 -0.4694 -0.3290
  215MPD1    H5 3327   1.214   4.493  10.856  0.5247 -1.7539 -1.5677
  215MPD1    N1 3328   1.186   4.127  10.530 -0.5031 -0.2590 -0.0518
  215MPD1    H6 3329   1.134   4.044  10.502 -0.5197 -0.8326  1.6360
  215MPD1    H7 3330   1.149   4.205  10.476  0.9632  1.1218  0.9354
  216MPD1     C 3331   3.424   3.518  17.636 -0.2028  0.6425  1.0205
  216MPD1    C1 3332   3.420   3.457   0.017  0.4699  0.1690 -0.0926
  216MPD1    C2 3333   3.426   3.321   0.021 -0.3894 -0.1804 -0.2885
  216MPD1    C3 3334   3.461   3.248  17.648  0.2319 -0.2041  0.2462
  216MPD1    C4 3335   3.465   3.312  17.528 -0.5808  0.1075 -0.2413
  216MPD1    C5 3336   3.448   3.448  17.528  0.1167  0.5664  0.1007
  216MPD1     H 3337   3.405   3.275   0.116  2.0835 -0.2261  0.2310
  216MPD1    H1 3338   3.473   3.271  17.428  2.1615  0.3427 -0.1211
  216MPD1    H2 3339   3.413   3.625  17.629  1.7913  0.9010  1.8171
  216MPD1    H3 3340   3.450   3.495  17.430  1.3876  0.3866  0.0385
  216MPD1     N 3341   3.476   3.097  17.656 -0.5474 -0.3339 -0.1351
  216MPD1    H5 3342   3.468   3.054   0.007  0.4819  2.4689  1.2670
  216MPD1    N1 3343   3.372   3.535   0.123  0.3158 -0.5518  0.0665
  216MPD1    H6 3344   3.400   3.483   0.206 -0.3586  0.5797  0.9891
  216MPD1    H7 3345   3.419   3.624   0.108 -3.6547  1.3080 -1.1905
  217MPD1     C 3346   3.056   3.996   9.153 -0.1912  1.3066 -0.8924
  217MPD1    C1 3347   3.112   3.978   9.037 -0.8774  0.2828  0.1896
  217MPD1    C2 3348   3.257   3.986   9.026  0.2260  0.6917 -0.5518
  217MPD1    C3 3349   3.328   4.031   9.137  0.2114  0.8140 -0.0921
  217MPD1    C4 3350   3.265   4.073   9.249 -1.0823 -0.4722 -0.2272
  217MPD1    C5 3351   3.132   4.047   9.255  0.1549  0.1853  0.2007
  217MPD1     H 3352   3.305   3.969   8.930 -3.0289  2.1661 -2.4425
  217MPD1    H1 3353   3.325   4.097   9.336  0.5503 -2.6163 -0.7728
  217MPD1    H2 3354   2.952   3.975   9.177  0.1438 -0.2873 -0.8401
  217MPD1    H3 3355   3.077   4.060   9.347  0.9526 -2.9954  1.1468
  217MPD1     N 3356   3.466   4.025   9.142  0.0358 -0.2322 -0.3803
  217MPD1    H5 3357   3.513   4.060   9.226  1.0554  0.0142 -1.0461
  217MPD1    N1 3358   3.030   3.947   8.925 -0.7548  0.0135  0.3243
  217MPD1    H6 3359   2.938   3.990   8.931 -1.1117 -0.6745 -0.1911
  217MPD1    H7 3360   3.072   3.985   8.840 -0.0375  0.8322  1.0423
  218MPD1     C 3361   1.040   0.828  12.866  0.1305 -0.6424  0.3222
  218MPD1    C1 3362   1.121   0.860  12.766 -0.4609 -0.5952  1.0033
  218MPD1    C2 3363   1.244   0.795  12.770  0.7182  0.7530  0.1448
  218MPD1    C3 3364   1.278   0.692  12.858 -0.2110 -0.3466  0.0163
  218MPD1    C4 3365   1.178   0.645  12.944 -0.4801 -0.3546  0.2265
  218MPD1    C5 3366   1.060   0.713  12.948 -1.0747 -0.9658 -0.2396
  218MPD1     H 3367   1.323   0.839  12.711 -0.1306  1.5218 -0.4361
  218MPD1    H1 3368   1.196   0.568  13.018 -1.2600 -2.5737 -1.8784
  218MPD1    H2 3369   0.953   0.889  12.886 -0.1102 -0.7407 -0.4378
  218MPD1    H3 3370   0.982   0.691  13.020  1.1928 -0.6801  2.2699
  218MPD1     N 3371   1.407   0.639  12.862  0.1027  0.2231 -0.3140
  218MPD1    H5 3372   1.461   0.676  12.784  0.8712  2.6417  1.3617
  218MPD1    N1 3373   1.098   0.968  12.681 -0.2437 -0.6509 -0.3622
  218MPD1    H6 3374   1.002   0.997  12.667 -1.1675 -2.4015  2.4001
  218MPD1    H7 3375   1.136   0.959  12.587 -2.0057  1.3960 -1.2551
  219MPD1     C 3376   1.773   0.533  12.118  0.2973 -0.5431 -0.3149
  219MPD1    C1 3377   1.876   0.492  12.194 -0.1950  0.2128 -0.8408
  219MPD1    C2 3378   1.848   0.465  12.330  1.1930 -0.0566 -0.7639
  219MPD1    C3 3379   1.716   0.478  12.379 -0.0097  0.0290 -0.1523
  219MPD1    C4 3380   1.612   0.504  12.289 -0.0108 -0.3693  0.1196
  219MPD1    C5 3381   1.649   0.539  12.162  0.9786  0.6159  0.0579
  219MPD1     H 3382   1.939   0.451  12.387  0.1071  0.0361  0.9700
  219MPD1    H1 3383   1.509   0.504  12.322  0.7193 -2.4356  2.4185
  219MPD1    H2 3384   1.782   0.554  12.012 -0.5746 -1.0830 -0.4941
  219MPD1    H3 3385   1.575   0.562  12.086 -0.9437 -1.2689  1.3696
  219MPD1     N 3386   1.686   0.463  12.516 -0.1208 -0.2166 -0.1099
  219MPD1    H5 3387   1.593   0.481  12.551 -0.7879  1.9643 -2.9681
  219MPD1    N1 3388   2.004   0.485  12.145  0.1741 -0.5718 -0.1871
  219MPD1    H6 3389   2.070   0.441  12.208 -2.5492 -1.1342  2.2368
  219MPD1    H7 3390   2.011   0.441  12.053 -0.6259  3.4223 -2.1577
  220MPD1     C 3391   1.130   0.233   9.362 -0.5571 -0.2844  0.3897
  220MPD1    C1 3392   1.183   0.328   9.442 -0.2139  0.4689 -0.0681
  220MPD1    C2 3393   1.136   0.322   9.573 -0.3262 -0.3256 -0.1228
  220MPD1    C3 3394   1.030   0.246   9.614 -0.3088 -0.8796 -0.3002
  220MPD1    C4 3395   0.971   0.157   9.524 -0.3208 -0.4034 -0.4133
  220MPD1    C5 3396   1.029   0.149   9.400 -0.4842 -0.4934  0.2366
  220MPD1     H 3397   1.163   0.395   9.649 -1.1925  0.3130 -0.4197
  220MPD1    H1 3398   0.912   0.068   9.543  0.3086 -0.6556  0.3475
  220MPD1    H2 3399   1.171   0.214   9.263 -0.6866  0.2485  0.2327
  220MPD1    H3 3400   0.985   0.086   9.324 -0.9816 -0.4250  0.4625
  220MPD1     N 3401   0.988   0.261   9.752 -0.3858 -0.0440  0.0690
  220MPD1    H5 3402   1.057   0.306   9.810  0.0534 -1.2240  0.4733
  220MPD1    N1 3403   1.305   0.390   9.411 -0.4985 -0.5576  0.0031
  220MPD1    H6 3404   1.307   0.404   9.310 -0.6134  1.3919  0.2618
  220MPD1    H7 3405   1.323   0.476   9.463  0.8106 -1.0518  0.3437
  221MPD1     C 3406   4.085   0.415  16.544  0.1631  0.4144  0.4821
  221MPD1    C1 3407   4.169   0.428  16.650 -0.3358  0.2275  0.1945
  221MPD1    C2 3408   4.300   0.382  16.632 -0.1884  1.1026 -0.4893
  221MPD1    C3 3409   4.328   0.308  16.516  0.7691  0.1938 -0.5727
  221MPD1    C4 3410   4.237   0.298  16.411 -0.6444  0.4729  0.1331
  221MPD1    C5 3411   4.114   0.358  16.431 -0.2625 -0.3165  0.4251
  221MPD1     H 3412   4.375   0.404  16.708 -0.4043  0.6130 -0.1353
  221MPD1    H1 3413   4.245   0.243  16.318  3.1906  2.9349 -0.9747
  221MPD1    H2 3414   3.990   0.465  16.560 -0.7223 -1.5340  1.2379
  221MPD1    H3 3415   4.036   0.347  16.356  1.0438  1.2902 -1.1547
  221MPD1     N 3416   4.451   0.249  16.489  0.0571  0.0207 -0.4123
  221MPD1    H5 3417   4.458   0.219  16.392  2.2380 -0.4342 -0.1152
  221MPD1    N1 3418   4.131   0.503  16.763  0.2173 -0.5125  0.2011
  221MPD1    H6 3419   4.200   0.484  16.835 -0.1741  1.5813  1.0893
  221MPD1    H7 3420   4.038   0.476  16.794  0.3199 -3.3057 -1.8784
  222MPD1     C 3421   0.963   4.455  17.466  0.6094 -0.0408 -0.1154
  222MPD1    C1 3422   0.968   4.431  17.599  0.1142  0.0265 -0.4268
  222MPD1    C2 3423   0.845   4.393  17.662 -0.8096  0.1878  0.2862
  222MPD1    C3 3424   0.727   4.383  17.586 -0.1896 -0.0038  0.3248
  222MPD1    C4 3425   0.729   4.409  17.452  0.2339  0.2261 -0.3060
  222MPD1    C5 3426   0.848   4.440  17.388 -0.0128 -0.0726 -0.2018
  222MPD1     H 3427   0.850   4.353   0.022  0.0202 -1.0285 -0.2454
  222MPD1    H1 3428   0.644   4.395  17.386  1.2026  0.0068 -1.4992
  222MPD1    H2 3429   1.049   4.481  17.406  0.3059 -0.3347 -0.6693
  222MPD1    H3 3430   0.852   4.456  17.281  0.1410 -0.3376 -0.2361
  222MPD1     N 3431   0.605   4.334  17.635  0.4353  0.0521  0.3441
  222MPD1    H5 3432   0.527   4.317  17.572  1.0048 -0.4405 -0.2227
  222MPD1    N1 3433   1.091   4.412  17.656 -0.0749  0.3885 -0.5725
  222MPD1    H6 3434   1.085   4.427   0.017  2.8032 -1.0322 -0.1815
  222MPD1    H7 3435   1.163   4.469  17.612  0.6512 -3.2787 -4.0648
  223MPD1     C 3436   4.480   4.008  17.322 -0.3071 -0.2253  0.0855
  223MPD1    C1 3437   4.440   4.014  17.457 -0.2432 -0.4325 -0.5741
  223MPD1    C2 3438   4.542   4.033  17.550  0.7726  0.3593 -0.9910
  223MPD1    C3 3439   4.674   4.050  17.512  0.1714  0.1435 -0.2689
  223MPD1    C4 3440   4.707   4.050  17.380  0.1913  0.5654  0.3894
  223MPD1    C5 3441   4.613   4.025  17.282  0.0411 -0.5452 -0.1752
  223MPD1     H 3442   4.528   4.048  17.656 -0.6027 -2.1954 -0.8063
  223MPD1    H1 3443   0.070   4.067  17.338 -0.0003 -0.8998 -0.6334
  223MPD1    H2 3444   4.400   3.986  17.252  0.9218  0.3050 -1.4893
  223MPD1    H3 3445   4.632   4.022  17.175  0.4443 -2.2452 -0.0466
  223MPD1     N 3446   0.030   4.082  17.615  0.0035  0.0487  0.7058
  223MPD1    H5 3447   4.730   4.122  17.701 -1.4605 -1.1384  0.6394
  223MPD1    N1 3448   4.305   3.988  17.488 -0.4280  0.1470 -0.1605
  223MPD1    H6 3449   4.292   4.045  17.572  0.9889 -0.4577  0.4763
  223MPD1    H7 3450   4.235   4.018  17.421 -0.0380  1.0793 -0.1473
  224MPD1     C 3451   0.840   3.639  10.184 -0.1768  0.1800 -0.6338
  224MPD1    C1 3452   0.849   3.745  10.101  0.4671 -0.2129  0.1993
  224MPD1    C2 3453   0.732   3.788  10.034  0.7120  0.2325 -0.5208
  224MPD1    C3 3454   0.619   3.707  10.031  0.4091  0.2684 -0.4963
  224MPD1    C4 3455   0.617   3.584  10.088  0.3049  0.5766 -0.0012
  224MPD1    C5 3456   0.720   3.554  10.178 -0.1958 -0.2830  0.1725
  224MPD1     H 3457   0.740   3.871   9.964  0.9423 -0.3986 -1.2420
  224MPD1    H1 3458   0.524   3.527  10.089  0.1389  0.8097 -1.8670
  224MPD1    H2 3459   0.923   3.602  10.242 -0.4373  0.1013 -0.3123
  224MPD1    H3 3460   0.710   3.461  10.234 -3.3594 -1.7180 -2.8330
  224MPD1     N 3461   0.505   3.741   9.952  0.6391  0.2481  0.0186
  224MPD1    H5 3462   0.441   3.666   9.929 -0.9159  1.1753  1.3446
  224MPD1    N1 3463   0.970   3.814  10.100  0.5871 -0.2523 -0.2595
  224MPD1    H6 3464   1.053   3.757  10.091 -0.5321 -1.9403  0.0997
  224MPD1    H7 3465   0.974   3.890  10.032  0.5528 -1.4163 -1.5743
  225MPD1     C 3466   1.621   0.801  11.847 -0.2861 -0.5041 -0.3770
  225MPD1    C1 3467   1.517   0.800  11.748 -0.9062 -0.1365 -0.2236
  225MPD1    C2 3468   1.386   0.837  11.790 -0.7074  0.6234  0.0304
  225MPD1    C3 3469   1.353   0.844  11.930 -0.4657  0.2021  0.2067
  225MPD1    C4 3470   1.458   0.823  12.022 -0.7641  0.1900 -0.0008
  225MPD1    C5 3471   1.586   0.807  11.979 -0.0433  0.0639  0.1798
  225MPD1     H 3472   1.298   0.828  11.727  0.4476  0.4166 -1.5666
  225MPD1    H1 3473   1.446   0.826  12.129  0.2200  1.9798  0.0602
  225MPD1    H2 3474   1.722   0.792  11.810 -0.9479  0.0758 -2.3470
  225MPD1    H3 3475   1.667   0.793  12.049  0.1840 -1.2859 -0.3451
  225MPD1     N 3476   1.222   0.854  11.981 -0.1492 -0.4677  0.2398
  225MPD1    H5 3477   1.208   0.867  12.081 -0.7538 -0.4235  0.1497
  225MPD1    N1 3478   1.553   0.807  11.612  0.2949 -0.7339  0.0554
  225MPD1    H6 3479   1.629   0.745  11.587 -0.9598 -2.1017 -0.3945
  225MPD1    H7 3480   1.478   0.781  11.548 -0.6541 -2.0412  1.6967
  226MPD1     C 3481   0.271   3.550   8.968 -0.5203  0.3184 -0.0648
  226MPD1    C1 3482   0.225   3.644   9.051  0.2676  0.0675 -0.5026
  226MPD1    C2 3483   0.138   3.734   8.994  0.3843 -0.2439 -0.4176
  226MPD1    C3 3484   0.084   3.727   8.867  0.4565  0.2114 -0.5008
  226MPD1    C4 3485   0.131   3.623   8.788 -0.4770 -0.3192 -0.2987
  226MPD1    C5 3486   0.222   3.545   8.845  0.0189 -0.0997  0.0310
  226MPD1     H 3487   0.111   3.823   9.049  2.5825  0.5932 -0.6889
  226MPD1    H1 3488   0.112   3.605   8.683  2.5790  3.0244 -1.4226
  226MPD1    H2 3489   0.361   3.494   8.989 -1.0066 -0.7716 -0.8361
  226MPD1    H3 3490   0.278   3.472   8.788 -1.0631  1.1633 -2.6909
  226MPD1     N 3491   4.733   3.833   8.829  0.3785  0.5705 -0.5274
  226MPD1    H5 3492   4.717   3.900   8.903  1.8659 -0.2117  0.5084
  226MPD1    N1 3493   0.304   3.671   9.170  0.2662 -0.1653  0.2425
  226MPD1    H6 3494   0.348   3.586   9.205  0.0856 -0.8263 -1.1305
  226MPD1    H7 3495   0.248   3.709   9.246 -1.5848  1.6202 -1.9983
  227MPD1     C 3496   3.947   4.361   8.318  0.4824 -0.3887  0.6287
  227MPD1    C1 3497   4.045   4.457   8.334 -0.4340  0.1475  0.7044
  227MPD1    C2 3498   4.168   4.416   8.382  0.1811  0.2423 -0.0209
  227MPD1    C3 3499   4.201   4.282   8.397  0.7316  0.3612 -0.0159
  227MPD1    C4 3500   4.093   4.192   8.381  0.2218  0.6296  0.0597
  227MPD1    C5 3501   3.967   4.232   8.345 -0.0033 -0.0654  0.0318
  227MPD1     H 3502   4.236   4.497   8.409 -1.2717  1.3107  0.4087
  227MPD1    H1 3503   4.113   4.087   8.400 -0.4871  0.3125 -0.9839
  227MPD1    H2 3504   3.847   4.382   8.280  0.6479  0.0077  0.4124
  227MPD1    H3 3505   3.884   4.165   8.328 -0.0017 -0.3220  1.0764
  227MPD1     N 3506   4.327   4.252   8.442  0.1283  0.1684 -0.1611
  227MPD1    H5 3507   4.397   4.322   8.465 -1.7210  1.1446  2.4526
  227MPD1    N1 3508   4.023   4.598   8.331 -0.2536 -0.2334  0.2940
  227MPD1    H6 3509   3.949   4.620   8.264  0.2807  2.5422  0.6360
  227MPD1    H7 3510   4.105   4.652   8.304 -2.0962  1.8838 -1.1093
  228MPD1     C 3511   3.853   3.219  13.081 -0.7850 -0.6773 -0.1131
  228MPD1    C1 3512   3.777   3.295  12.993  0.7259 -0.6255  1.0036
  228MPD1    C2 3513   3.642   3.259  12.969 -0.4811 -0.4913  0.1216
  228MPD1    C3 3514   3.592   3.155  13.037 -0.5603  0.5414  0.5158
  228MPD1    C4 3515   3.670   3.075  13.122  0.1971  0.1050 -0.4016
  228MPD1    C5 3516   3.795   3.118  13.157 -0.1723  0.1161 -1.4550
  228MPD1     H 3517   3.584   3.325  12.905  0.4373 -0.4517 -0.6622
  228MPD1    H1 3518   3.629   2.996  13.183 -0.1976 -0.2779 -1.1680
  228MPD1    H2 3519   3.959   3.237  13.087 -0.7092 -0.9330 -0.6997
  228MPD1    H3 3520   3.840   3.045  13.223 -0.8215  0.1517 -0.9781
  228MPD1     N 3521   3.457   3.133  13.025  0.1239  0.2262  0.0348
  228MPD1    H5 3522   3.402   3.205  12.980 -0.3090  0.9629  1.7570
  228MPD1    N1 3523   3.843   3.391  12.917 -0.7706 -0.3550 -0.4802
  228MPD1    H6 3524   3.918   3.441  12.965 -0.3271  1.4403 -2.9979
  228MPD1    H7 3525   3.774   3.458  12.882 -1.7945 -2.2693 -2.1309
  229MPD1     C 3526   2.840   2.223  14.494 -0.3524 -0.1292 -0.1627
  229MPD1    C1 3527   2.795   2.094  14.501 -0.2582  0.5052 -0.3513
  229MPD1    C2 3528   2.852   2.008  14.605  0.4058  0.1238  0.0561
  229MPD1    C3 3529   2.963   2.053  14.673  0.1025  0.4945  0.1779
  229MPD1    C4 3530   3.010   2.177  14.652 -0.7850 -0.3805 -0.3654
  229MPD1    C5 3531   2.942   2.259  14.568  0.6401 -0.8966 -0.2675
  229MPD1     H 3532   2.809   1.912  14.630 -1.0301  0.6809 -0.3059
  229MPD1    H1 3533   3.095   2.204  14.714 -1.1201  0.0904 -0.1182
  229MPD1    H2 3534   2.801   2.304  14.434  0.7411  1.6900  1.5937
  229MPD1    H3 3535   2.972   2.364  14.567 -1.9853 -0.1526 -0.4580
  229MPD1     N 3536   3.024   1.976  14.774 -0.4740  0.7845  0.0256
  229MPD1    H5 3537   3.104   2.011  14.827 -0.1233  1.9549 -1.2861
  229MPD1    N1 3538   2.686   2.057  14.430  1.0687  0.4977  0.3271
  229MPD1    H6 3539   2.661   1.959  14.438 -1.5936  1.0765 -0.8865
  229MPD1    H7 3540   2.703   2.075  14.332 -1.8216  0.3337 -0.2138
  230MPD1     C 3541   3.353   2.175  15.690  0.2883 -0.1164  0.7063
  230MPD1    C1 3542   3.352   2.034  15.698 -0.3806 -0.3149 -0.1571
  230MPD1    C2 3543   3.321   1.970  15.582 -0.7139  0.1294  0.0409
  230MPD1    C3 3544   3.277   2.038  15.470  0.3850 -0.2110  0.2429
  230MPD1    C4 3545   3.272   2.173  15.469 -0.0280  0.1639 -0.2706
  230MPD1    C5 3546   3.311   2.243  15.576 -0.1093 -0.6889  0.6011
  230MPD1     H 3547   3.326   1.862  15.574  2.9085  0.2288  0.6540
  230MPD1    H1 3548   3.238   2.234  15.386  0.3483 -0.9941 -1.2747
  230MPD1    H2 3549   3.382   2.239  15.773  0.8936 -0.6588  0.9101
  230MPD1    H3 3550   3.300   2.350  15.568  0.3953 -0.5017  2.4188
  230MPD1     N 3551   3.246   1.960  15.357  0.1040 -0.1346 -0.2485
  230MPD1    H5 3552   3.261   1.861  15.374 -1.2061  0.3298  3.5337
  230MPD1    N1 3553   3.373   1.970  15.819  0.1444  0.0974  0.3370
  230MPD1    H6 3554   3.438   2.026  15.874 -0.2900  0.8498  0.0817
  230MPD1    H7 3555   3.415   1.881  15.794  1.9288  1.2556 -0.7524
  231MPD1     C 3556   1.863   3.894  15.358  0.0548  0.4256 -0.5461
  231MPD1    C1 3557   1.886   4.020  15.312  0.4455  0.8892 -0.1755
  231MPD1    C2 3558   1.871   4.047  15.172 -0.1161  0.2771 -0.9309
  231MPD1    C3 3559   1.854   3.940  15.087  0.4234  0.0681 -0.3111
  231MPD1    C4 3560   1.852   3.815  15.140 -0.0312 -0.6060  1.0474
  231MPD1    C5 3561   1.854   3.791  15.271 -0.3549  0.5007  0.3143
  231MPD1     H 3562   1.870   4.151  15.142 -1.1666  0.8917  1.2586
  231MPD1    H1 3563   1.852   3.732  15.069 -2.1751 -0.6880  1.1417
  231MPD1    H2 3564   1.862   3.879  15.466  1.7451  1.8080 -0.3339
  231MPD1    H3 3565   1.827   3.696  15.316  1.2146 -0.7255 -1.3470
  231MPD1     N 3566   1.854   3.968  14.950 -0.3940  0.3127 -0.1067
  231MPD1    H5 3567   1.845   4.067  14.930 -0.6622  0.5372  1.1044
  231MPD1    N1 3568   1.867   4.121  15.406  0.4683  0.5507  0.8258
  231MPD1    H6 3569   1.907   4.209  15.375 -0.5581 -0.2909 -2.8204
  231MPD1    H7 3570   1.890   4.100  15.503  1.8414  2.0287  0.8237
  232MPD1     C 3571   3.100   2.311   0.278  0.3122  0.3376  0.3807
  232MPD1    C1 3572   2.988   2.384   0.251 -0.1208 -0.3304 -0.3932
  232MPD1    C2 3573   2.897   2.333   0.158 -0.2724  0.7807  0.4424
  232MPD1    C3 3574   2.934   2.219   0.083 -0.4786  0.0880 -0.3190
  232MPD1    C4 3575   3.060   2.166   0.107 -0.0493  0.0520 -0.3516
  232MPD1    C5 3576   3.152   2.219   0.198 -0.5059 -0.7409 -0.3653
  232MPD1     H 3577   2.796   2.372   0.148 -1.1978 -2.2787 -2.2735
  232MPD1    H1 3578   3.112   2.087   0.054 -0.7713 -1.2734  0.9387
  232MPD1    H2 3579   3.163   2.339   0.362  3.1888 -0.3992 -1.5471
  232MPD1    H3 3580   3.249   2.172   0.213  2.6570  5.6073 -1.1442
  232MPD1     N 3581   2.846   2.164  17.735  0.7196 -0.1105  0.5918
  232MPD1    H5 3582   2.751   2.200  17.731  0.7142 -0.1986 -0.0110
  232MPD1    N1 3583   2.960   2.498   0.329 -0.1919  0.0982  0.0480
  232MPD1    H6 3584   3.047   2.544   0.354 -0.2385  0.6492 -0.7965
  232MPD1    H7 3585   2.896   2.560   0.279 -0.3551 -0.9090 -0.9936
  233MPD1     C 3586   3.663   0.181   1.467  0.9265  0.3841 -0.0782
  233MPD1    C1 3587   3.698   0.145   1.343 -0.0146  0.0897  0.4013
  233MPD1    C2 3588   3.813   0.191   1.282  0.4602 -0.2962  0.0576
  233MPD1    C3 3589   3.910   0.239   1.367  0.7331  0.0302  0.2977
  233MPD1    C4 3590   3.884   0.255   1.505  0.7912 -0.6513  0.5878
  233MPD1    C5 3591   3.764   0.224   1.549  0.2695 -0.6004  0.0007
  233MPD1     H 3592   3.820   0.175   1.175  0.7342 -0.5161  0.1053
  233MPD1    H1 3593   3.956   0.282   1.581  1.4827 -2.0749  0.4346
  233MPD1    H2 3594   3.574   0.151   1.522  0.7996 -1.0007 -1.0447
  233MPD1    H3 3595   3.742   0.251   1.652 -0.8061 -0.5767 -0.2316
  233MPD1     N 3596   4.046   0.265   1.332  1.0219  0.3062 -0.3259
  233MPD1    H5 3597   4.110   0.303   1.401  0.5810 -1.0270  0.8403
  233MPD1    N1 3598   3.595   0.094   1.259 -0.2037  0.6798 -0.3310
  233MPD1    H6 3599   3.534   0.029   1.308  0.3027 -0.3386 -1.0537
  233MPD1    H7 3600   3.615   0.046   1.172 -0.3678 -0.9208  0.4996
  234MPD1     C 3601   4.677   2.642   8.521  0.3451 -0.4060 -0.1507
  234MPD1    C1 3602   4.708   2.660   8.652 -0.1070 -0.3003  0.2231
  234MPD1    C2 3603   4.686   2.788   8.706 -0.6385  0.0795  0.2812
  234MPD1    C3 3604   4.655   2.900   8.631 -0.4108 -0.2211  0.3077
  234MPD1    C4 3605   4.637   2.882   8.497  0.1548 -0.2985  0.5390
  234MPD1    C5 3606   4.638   2.751   8.448  0.1166  0.3377 -0.3196
  234MPD1     H 3607   4.693   2.789   8.814  0.2543 -1.1893  0.2399
  234MPD1    H1 3608   4.628   2.965   8.428  0.4789  0.0898  0.9677
  234MPD1    H2 3609   4.683   2.546   8.471 -1.0332  0.3568 -1.7810
  234MPD1    H3 3610   4.618   2.751   8.342  0.8722 -1.6657 -0.4621
  234MPD1     N 3611   4.642   3.020   8.706 -0.6415  0.0653  0.0903
  234MPD1    H5 3612   4.654   3.014   8.807  0.4235 -1.6678 -0.1365
  234MPD1    N1 3613   4.723   2.549   8.733  0.0726  0.2960 -0.2747
  234MPD1    H6 3614   0.025   2.473   8.677  0.0853 -0.0738  0.2414
  234MPD1    H7 3615   0.035   2.568   8.821  3.6402 -3.2129 -1.4836
  235MPD1     C 3616   1.748   1.256  10.952 -0.3302  0.9929 -0.7636
  235MPD1    C1 3617   1.881   1.293  10.939 -0.6878 -0.6886 -0.7866
  235MPD1    C2 3618   1.917   1.353  10.821  0.1729  0.0408  0.1711
  235MPD1    C3 3619   1.830   1.376  10.719  0.8374  0.4100  1.6101
  235MPD1    C4 3620   1.697   1.346  10.740 -0.0949 -0.1921 -0.7036
  235MPD1    C5 3621   1.660   1.275  10.848  0.2383  0.2098  0.0344
  235MPD1     H 3622   2.022   1.372  10.802 -0.2813  0.9125 -1.5089
  235MPD1    H1 3623   1.622   1.377  10.669 -0.0031 -1.3253 -1.2895
  235MPD1    H2 3624   1.707   1.214  11.043  1.4382  0.9293  0.0178
  235MPD1    H3 3625   1.554   1.271  10.867 -0.0410  0.1484 -1.5490
  235MPD1     N 3626   1.875   1.450  10.602 -0.5425  0.3949 -0.1917
  235MPD1    H5 3627   1.965   1.496  10.610 -0.9610  1.4043 -1.2439
  235MPD1    N1 3628   1.974   1.289  11.042  0.2867 -0.5104 -0.7853
  235MPD1    H6 3629   1.945   1.216  11.106 -0.6320  0.3839 -0.1700
  235MPD1    H7 3630   2.066   1.266  11.006  0.6541  0.7851 -0.6810
  236MPD1     C 3631   0.691   2.698  10.014 -0.4072 -0.5999  1.0243
  236MPD1    C1 3632   0.633   2.600   9.935 -0.2897 -0.0480  0.1762
  236MPD1    C2 3633   0.613   2.476   9.990 -0.0085  0.1874 -0.7888
  236MPD1    C3 3634   0.682   2.430  10.106 -0.1932  0.4113  0.7666
  236MPD1    C4 3635   0.756   2.528  10.170 -0.0787  0.1812  0.2071
  236MPD1    C5 3636   0.750   2.657  10.129  0.2662  0.4316  0.0388
  236MPD1     H 3637   0.559   2.404   9.930 -1.8513  0.4720  0.4860
  236MPD1    H1 3638   0.794   2.515  10.271 -0.5154 -2.7259 -0.0197
  236MPD1    H2 3639   0.720   2.799   9.989  0.8757 -1.2434 -0.0523
  236MPD1    H3 3640   0.804   2.735  10.181  1.3183  0.5091 -1.1742
  236MPD1     N 3641   0.700   2.299  10.155  0.4363 -0.6332  0.0353
  236MPD1    H5 3642   0.757   2.285  10.238 -0.3146  0.4881  0.7435
  236MPD1    N1 3643   0.568   2.643   9.822 -0.0166  0.0186 -0.3616
  236MPD1    H6 3644   0.626   2.699   9.760 -1.0335  0.4282 -0.9419
  236MPD1    H7 3645   0.552   2.558   9.769  4.3015  0.0088 -1.6679
  237MPD1     C 3646   1.666   4.320  15.193  0.0481 -0.9313  0.2326
  237MPD1    C1 3647   1.698   4.361  15.068 -0.2726  0.0213 -0.4737
  237MPD1    C2 3648   1.698   4.497  15.036 -0.6352  0.3111 -0.6539
  237MPD1    C3 3649   1.643   4.593  15.120  0.1450  0.0539  0.8127
  237MPD1    C4 3650   1.610   4.552  15.248 -0.0146  0.9693  0.0672
  237MPD1    C5 3651   1.631   4.419  15.285  0.2129 -0.0850  0.6241
  237MPD1     H 3652   1.720   4.515  14.931 -1.3248 -0.3196 -0.9023
  237MPD1    H1 3653   1.575   4.619  15.326 -1.3398 -0.9024  1.0859
  237MPD1    H2 3654   1.664   4.216  15.223 -1.6712 -0.2779  2.3908
  237MPD1    H3 3655   1.617   4.385  15.387  0.9472 -3.3580 -0.3781
  237MPD1     N 3656   1.642   4.727  15.086 -0.1500 -0.1117  0.1097
  237MPD1    H5 3657   1.593   0.050  15.153 -0.8738 -1.1855  0.5125
  237MPD1    N1 3658   1.721   4.263  14.972  0.1496 -0.1782 -0.3438
  237MPD1    H6 3659   1.709   4.298  14.878  0.3434  0.3403 -0.1752
  237MPD1    H7 3660   1.654   4.189  14.990  0.2909 -0.2727 -0.2064
  238MPD1     C 3661   3.713   3.769  15.227 -0.1104 -0.4691 -0.1394
  238MPD1    C1 3662   3.660   3.648  15.190  0.0145 -0.0654 -0.4211
  238MPD1    C2 3663   3.527   3.647  15.156 -0.0537  0.3864 -0.6587
  238MPD1    C3 3664   3.444   3.757  15.183 -0.3021 -0.5540 -0.0617
  238MPD1    C4 3665   3.510   3.876  15.218 -0.0009 -0.1884 -0.8521
  238MPD1    C5 3666   3.643   3.880  15.243 -0.0585  0.3464  0.7087
  238MPD1     H 3667   3.492   3.548  15.131 -0.5816  0.2052  0.8125
  238MPD1    H1 3668   3.453   3.966  15.239 -0.1888 -0.3365 -0.7279
  238MPD1    H2 3669   3.817   3.772  15.259  0.4465 -1.1990 -1.8626
  238MPD1    H3 3670   3.689   3.974  15.272 -0.8466  1.1640 -0.6498
  238MPD1     N 3671   3.300   3.750  15.166 -0.3470  0.5553  0.0847
  238MPD1    H5 3672   3.245   3.834  15.184  0.9413  1.3170  0.5162
  238MPD1    N1 3673   3.746   3.538  15.178  0.6651  0.1442  0.0070
  238MPD1    H6 3674   3.706   3.449  15.208  0.2025  1.6070  3.6433
  238MPD1    H7 3675   3.843   3.563  15.191 -0.0092  1.0780  3.2088
  239MPD1     C 3676   3.874   0.397  15.116  0.1419 -0.3305 -0.0560
  239MPD1    C1 3677   3.746   0.455  15.126  0.4548 -0.2466 -0.4205
  239MPD1    C2 3678   3.667   0.452  15.008  0.6336  0.0522 -0.2262
  239MPD1    C3 3679   3.721   0.420  14.883  0.6727 -0.9840  0.0411
  239MPD1    C4 3680   3.851   0.376  14.874 -0.5950 -0.2292 -0.1562
  239MPD1    C5 3681   3.928   0.366  14.987 -0.4163  0.2282  0.0079
  239MPD1     H 3682   3.565   0.488  15.015  0.2176 -1.1029 -0.4435
  239MPD1    H1 3683   3.890   0.352  14.775  0.0792  0.1821  0.0096
  239MPD1    H2 3684   3.930   0.374  15.206 -0.5493 -2.6899 -0.2387
  239MPD1    H3 3685   4.023   0.315  14.978  0.1557  1.3807 -0.4277
  239MPD1     N 3686   3.646   0.422  14.767 -0.0487 -0.4173  0.3257
  239MPD1    H5 3687   3.693   0.376  14.689  1.9709  0.8594  0.7992
  239MPD1    N1 3688   3.693   0.478  15.252  0.2830  0.0478 -0.2111
  239MPD1    H6 3689   3.604   0.528  15.255 -0.7061 -1.7159  0.0689
  239MPD1    H7 3690   3.757   0.528  15.313 -0.9953 -1.2253  2.1370
  240MPD1     C 3691   2.852   0.060  14.610  0.1244 -0.1712 -1.2840
  240MPD1    C1 3692   2.730   0.041  14.550 -0.1240  0.0689 -0.0162
  240MPD1    C2 3693   2.660   4.661  14.568  0.0597 -0.1494  0.0679
  240MPD1    C3 3694   2.710   4.569  14.659 -0.1695  0.6090  0.5988
  240MPD1    C4 3695   2.828   4.598  14.730  0.0622  0.3444  0.0887
  240MPD1    C5 3696   2.894   4.713  14.710  0.4459 -0.4561 -0.2211
  240MPD1     H 3697   2.573   4.646  14.505 -0.1811  0.1326  0.3370
  240MPD1    H1 3698   2.874   4.530  14.801 -0.7753 -2.0263 -1.6586
  240MPD1    H2 3699   2.912   0.148  14.590 -0.5114  0.9232  1.6084
  240MPD1    H3 3700   2.992   4.730  14.752 -0.0324 -0.3948  0.8694
  240MPD1     N 3701   2.636   4.452  14.687  0.0262  0.1999 -0.0277
  240MPD1    H5 3702   2.560   4.427  14.625  0.7525 -1.5566 -0.2120
  240MPD1    N1 3703   2.689   0.132  14.449 -0.7889  0.0393  0.2515
  240MPD1    H6 3704   2.741   0.219  14.458  0.5141 -0.3529 -3.4178
  240MPD1    H7 3705   2.589   0.148  14.434 -0.4272  0.6644 -1.4468
  241MPD1     C 3706   2.709   3.765  15.468  0.8872 -0.1122  0.1455
  241MPD1    C1 3707   2.605   3.727  15.389 -0.0995  0.0020 -0.3318
  241MPD1    C2 3708   2.575   3.811  15.280  0.6120 -0.3496 -0.3750
  241MPD1    C3 3709   2.657   3.909  15.223 -0.2924 -0.3553 -0.0637
  241MPD1    C4 3710   2.762   3.937  15.309 -0.8655  0.4067  0.0031
  241MPD1    C5 3711   2.787   3.869  15.427 -0.1450  0.2153 -0.0498
  241MPD1     H 3712   2.492   3.783  15.217  0.3045  1.2352 -0.6751
  241MPD1    H1 3713   2.828   4.021  15.291 -1.6536  1.0292 -0.0254
  241MPD1    H2 3714   2.719   3.721  15.567  1.0379 -1.0319 -0.2790
  241MPD1    H3 3715   2.856   3.903  15.503 -0.3923 -1.6518  1.0005
  241MPD1     N 3716   2.631   3.983  15.104  0.6369  0.3213 -0.0338
  241MPD1    H5 3717   2.692   4.061  15.081  0.6913  0.8383  1.8671
  241MPD1    N1 3718   2.514   3.626  15.430 -0.8633  0.5494  0.0147
  241MPD1    H6 3719   2.570   3.561  15.484  0.7731  1.7706 -0.2145
  241MPD1    H7 3720   2.476   3.580  15.347  1.4969  1.0837 -1.3701
  242MPD1     C 3721   2.285   2.536  15.606  0.5421 -0.1021  0.7129
  242MPD1    C1 3722   2.387   2.609  15.648 -0.0670  0.7438 -0.7287
  242MPD1    C2 3723   2.476   2.654  15.554 -0.1173 -0.1001  0.0245
  242MPD1    C3 3724   2.452   2.635  15.418  0.2861  0.6044 -0.0249
  242MPD1    C4 3725   2.350   2.557  15.384  0.2924 -0.0708 -0.0384
  242MPD1    C5 3726   2.270   2.500  15.477  0.2536 -0.4122  0.4570
  242MPD1     H 3727   2.559   2.718  15.585  1.6406 -0.9150 -2.9872
  242MPD1    H1 3728   2.336   2.531  15.279  1.2177 -1.9114  0.2891
  242MPD1    H2 3729   2.213   2.491  15.673  2.8295 -0.6375  2.8166
  242MPD1    H3 3730   2.185   2.434  15.462 -1.0547  1.5909 -0.9482
  242MPD1     N 3731   2.527   2.688  15.315 -0.2433  0.3224  0.4663
  242MPD1    H5 3732   2.504   2.663  15.219 -1.3223  0.6515  0.6410
  242MPD1    N1 3733   2.416   2.608  15.784 -0.2111 -0.1115 -0.0524
  242MPD1    H6 3734   2.328   2.601  15.834  1.1100 -0.2617  2.2557
  242MPD1    H7 3735   2.456   2.698  15.809 -1.9452  0.6717 -0.0544
  243MPD1     C 3736   3.530   2.172   0.168 -0.1951  0.2994 -0.6458
  243MPD1    C1 3737   3.542   2.037   0.162  0.4204  0.0810 -0.1864
  243MPD1    C2 3738   3.627   1.985   0.066  0.5860  0.1609  0.1017
  243MPD1    C3 3739   3.698   2.064  17.719 -1.0057 -0.1254  0.1158
  243MPD1    C4 3740   3.701   2.203   0.002  0.2978  0.0281  0.4893
  243MPD1    C5 3741   3.610   2.250   0.093  0.0727 -0.5823 -0.2077
  243MPD1     H 3742   3.637   1.879   0.045  3.0009  0.1939  1.0519
  243MPD1    H1 3743   3.766   2.275  17.694 -0.5271  0.9627  0.7746
  243MPD1    H2 3744   3.469   2.218   0.245  1.1781  0.8826  0.0984
  243MPD1    H3 3745   3.612   2.358   0.100  2.4097 -0.4005 -3.2870
  243MPD1     N 3746   3.780   2.003  17.616  0.1561 -0.0335 -0.1468
  243MPD1    H5 3747   3.764   1.904  17.602 -0.3258 -0.1539  1.2250
  243MPD1    N1 3748   3.448   1.953   0.232 -0.0119  0.0380  0.0205
  243MPD1    H6 3749   3.480   1.856   0.240 -0.9618 -0.2813 -0.0908
  243MPD1    H7 3750   3.418   1.994   0.320 -0.4077 -0.7374  0.2535
  244MPD1     C 3751   3.933   1.168  17.591 -0.3866 -0.7182 -0.4513
  244MPD1    C1 3752   3.914   1.273  17.684  0.8483  0.3760  0.0727
  244MPD1    C2 3753   3.916   1.404  17.638 -1.0485  0.4664  1.2063
  244MPD1    C3 3754   3.948   1.433  17.506 -0.1814  0.4690  0.1217
  244MPD1    C4 3755   3.971   1.329  17.413  0.2436 -0.2382  0.3765
  244MPD1    C5 3756   3.964   1.201  17.462 -0.0030 -0.5149  0.4584
  244MPD1     H 3757   3.892   1.483  17.708 -1.1430  0.9501  0.6281
  244MPD1    H1 3758   3.991   1.344  17.308 -0.5315  0.0711  0.2757
  244MPD1    H2 3759   3.922   1.064  17.618 -1.6095  0.2052  2.6649
  244MPD1    H3 3760   3.960   1.112  17.400  1.1380 -0.8351  0.8551
  244MPD1     N 3761   3.966   1.568  17.480 -0.2548  0.4813 -0.2373
  244MPD1    H5 3762   3.969   1.624  17.565  3.0898  0.2957 -0.2629
  244MPD1    N1 3763   3.867   1.236   0.070  0.1196 -0.0505 -0.0971
  244MPD1    H6 3764   3.914   1.305   0.128 -0.7171  3.2071 -3.3501
  244MPD1    H7 3765   3.904   1.142   0.084 -0.6780 -0.5544 -1.4077
  245MPD1     C 3766   1.605   1.218  13.723 -0.2622 -0.2626  0.0782
  245MPD1    C1 3767   1.567   1.261  13.849  0.6833 -0.0092  0.0232
  245MPD1    C2 3768   1.605   1.388  13.889 -0.1823  0.4106  0.0332
  245MPD1    C3 3769   1.661   1.474  13.801 -0.8481 -0.1615  0.3076
  245MPD1    C4 3770   1.704   1.435  13.676 -0.0399 -0.2285 -0.2217
  245MPD1    C5 3771   1.682   1.304  13.635  0.0553  0.0532  0.2254
  245MPD1     H 3772   1.578   1.420  13.989 -0.8420  1.5566 -0.5066
  245MPD1    H1 3773   1.752   1.492  13.597  0.7090  1.6657  1.5841
  245MPD1    H2 3774   1.576   1.123  13.679 -1.1840 -1.3953  3.1722
  245MPD1    H3 3775   1.709   1.273  13.535 -1.5116 -0.7163  0.0408
  245MPD1     N 3776   1.695   1.603  13.848  0.2531 -0.1096 -0.3789
  245MPD1    H5 3777   1.653   1.631  13.936  0.8418  0.3731 -0.2480
  245MPD1    N1 3778   1.493   1.171  13.929 -0.2003  0.4166  0.1921
  245MPD1    H6 3779   1.431   1.218  13.995 -1.7865  1.2190 -1.8866
  245MPD1    H7 3780   1.436   1.121  13.861  0.0850  2.0968 -1.2837
  246MPD1     C 3781   0.292   4.237   8.653 -0.5346  0.6279  0.2055
  246MPD1    C1 3782   0.359   4.126   8.690  0.0354 -1.1188 -0.2297
  246MPD1    C2 3783   0.318   4.003   8.639  0.0637 -0.7509 -0.5526
  246MPD1    C3 3784   0.224   3.989   8.537  0.8739 -0.4880  0.1718
  246MPD1    C4 3785   0.167   4.108   8.489  0.3442  0.2110 -0.1654
  246MPD1    C5 3786   0.210   4.230   8.546  0.3768  0.4540  0.4407
  246MPD1     H 3787   0.362   3.913   8.682  0.9596 -0.7560 -1.4914
  246MPD1    H1 3788   0.121   4.114   8.391 -1.4091  0.0245  0.6500
  246MPD1    H2 3789   0.316   4.330   8.704  3.4891 -0.3871  0.1680
  246MPD1    H3 3790   0.163   4.321   8.513 -1.1706 -0.3404  0.4764
  246MPD1     N 3791   0.207   3.865   8.481 -0.0809 -0.3766 -0.3472
  246MPD1    H5 3792   0.246   3.789   8.535  0.1015  0.5581  0.8634
  246MPD1    N1 3793   0.454   4.141   8.797 -0.1312 -0.6019  0.6065
  246MPD1    H6 3794   0.521   4.067   8.817 -0.0745 -0.9745 -1.0324
  246MPD1    H7 3795   0.486   4.237   8.809 -1.5659 -0.0130 -0.3368
  247MPD1     C 3796   0.015   2.940  14.829  0.7448  0.7720 -0.6345
  247MPD1    C1 3797   0.139   2.891  14.793 -0.1546 -1.0101  0.2449
  247MPD1    C2 3798   0.209   2.834  14.898  0.2239  0.5435  0.3013
  247MPD1    C3 3799   0.159   2.836  15.030  0.2727  0.2906 -0.5736
  247MPD1    C4 3800   0.031   2.886  15.057 -0.1325 -0.4299  0.4643
  247MPD1    C5 3801   4.696   2.941  14.955  0.3507  0.5522  0.3700
  247MPD1     H 3802   0.308   2.792  14.891 -0.0329  0.2189 -1.4146
  247MPD1    H1 3803   4.726   2.898  15.157 -0.9566 -1.2534  0.2285
  247MPD1    H2 3804   4.687   2.980  14.751  0.3170  1.5684  0.1103
  247MPD1    H3 3805   4.599   2.985  14.975  0.1710 -0.6033  2.0687
  247MPD1     N 3806   0.243   2.787  15.139  1.1852  0.5631 -0.2597
  247MPD1    H5 3807   0.320   2.724  15.120 -0.8277 -2.0786  0.3272
  247MPD1    N1 3808   0.168   2.865  14.659 -0.0684 -0.6742 -0.2683
  247MPD1    H6 3809   0.122   2.933  14.599  1.4793 -0.0124 -0.7138
  247MPD1    H7 3810   0.268   2.872  14.640  0.3889 -3.1571  1.2200
  248MPD1     C 3811   1.763   1.274  17.627 -0.0554 -0.1598  0.4055
  248MPD1    C1 3812   1.645   1.220  17.671  0.1713 -0.6452 -0.1268
  248MPD1    C2 3813   1.613   1.232   0.065 -0.1007 -0.5470  0.3926
  248MPD1    C3 3814   1.693   1.316   0.140 -0.1218  0.3259 -0.0394
  248MPD1    C4 3815   1.815   1.369   0.095 -0.4593  0.5100 -0.7969
  248MPD1    C5 3816   1.841   1.343  17.704  0.3823 -0.0339  0.0733
  248MPD1     H 3817   1.527   1.187   0.111 -2.3792  1.6308 -1.6990
  248MPD1    H1 3818   1.885   1.426   0.155 -0.6898  0.2317 -0.2635
  248MPD1    H2 3819   1.788   1.260  17.523 -0.4204  0.5371  0.2280
  248MPD1    H3 3820   1.933   1.382  17.661  0.2726 -2.1028 -2.0404
  248MPD1     N 3821   1.637   1.339   0.268  0.1478 -0.1683  0.0069
  248MPD1    H5 3822   1.561   1.278   0.295 -1.7440  1.4273 -1.7553
  248MPD1    N1 3823   1.565   1.140  17.588  0.0674  0.0192 -0.5608
  248MPD1    H6 3824   1.477   1.138  17.640 -1.1949  1.9746 -2.6122
  248MPD1    H7 3825   1.552   1.184  17.497 -0.4705 -1.1865 -1.0711
  249MPD1     C 3826   3.334   4.600  11.066  1.0716  0.2426  1.1069
  249MPD1    C1 3827   3.256   4.700  11.013 -0.5278 -0.4361 -0.2361
  249MPD1    C2 3828   3.152   4.659  10.927 -1.6788  0.0088  0.2015
  249MPD1    C3 3829   3.114   4.528  10.916  0.6163 -0.0961 -0.3332
  249MPD1    C4 3830   3.189   4.431  10.976 -0.4450  0.8185  0.3385
  249MPD1    C5 3831   3.301   4.468  11.049 -0.2193 -0.6328 -0.2396
  249MPD1     H 3832   3.098   0.002  10.877 -3.2634 -0.1049  1.7188
  249MPD1    H1 3833   3.157   4.328  10.985  4.2078 -0.6206  0.2353
  249MPD1    H2 3834   3.413   4.623  11.136  1.3733  0.9606  0.5298
  249MPD1    H3 3835   3.369   4.395  11.091 -0.0009 -0.1433  0.2661
  249MPD1     N 3836   2.986   4.509  10.853 -0.0555  0.3288 -0.5809
  249MPD1    H5 3837   2.926   4.585  10.824 -0.0213  0.3010 -0.7287
  249MPD1    N1 3838   3.308   0.089  11.011 -0.3636  0.1421  0.2910
  249MPD1    H6 3839   3.349   0.111  11.102  1.5124  0.9566 -0.7706
  249MPD1    H7 3840   3.240   0.162  10.993  0.3781  0.7619 -0.0083
  250MPD2     C 3841   4.170   0.427  12.659  0.2061  0.0691  0.1415
  250MPD2    C1 3842   4.076   0.492  12.741  0.1593  0.3411 -0.5187
  250MPD2    C2 3843   3.948   0.442  12.760  0.3338 -0.7697 -0.3403
  250MPD2    C3 3844   3.917   0.324  12.701  0.7451  0.7078 -0.1279
  250MPD2    C4 3845   4.014   0.252  12.630 -0.7925 -0.6404  0.0688
  250MPD2    C5 3846   4.137   0.305  12.599  1.2520  0.4679 -0.0811
  250MPD2     H 3847   3.875   0.500  12.817  0.6346 -2.3941  1.7177
  250MPD2    H1 3848   3.992   0.160  12.577 -1.4086 -1.0665  1.0634
  250MPD2    H2 3849   4.274   0.455  12.644  0.1887  0.6831  1.1544
  250MPD2    H3 3850   4.207   0.248  12.539 -0.1080  0.0126 -1.2450
  250MPD2     N 3851   3.795   0.260  12.713 -0.1437  0.3160  0.0259
  250MPD2    H5 3852   3.790   0.160  12.696 -1.1694  0.6712 -1.8142
  250MPD2    N1 3853   4.116   0.613  12.802  0.0625  1.0075  0.5064
  250MPD2    H7 3854   4.202   0.652  12.766 -0.6525 -0.4213 -2.7134
  251TMC3    C1 3855   4.134   0.811  12.925 -0.3983  0.1724  0.5916
  251TMC3    C2 3856   4.072   0.902  13.006 -0.4986  0.0103 -0.0268
  251TMC3    C3 3857   4.156   0.992  13.075  1.3151 -0.4515  0.1570
  251TMC3    C4 3858   4.275   0.803  12.931 -0.0393 -0.5491  0.3675
  251TMC3    C5 3859   4.350   0.886  13.009  0.4289 -0.2655  0.0055
  251TMC3    C6 3860   4.291   0.987  13.073  0.2308 -0.3952 -0.3730
  251TMC3     C 3861   4.048   0.697  12.893  0.1180  0.8726 -0.1214
  251TMC3     O 3862   3.935   0.692  12.939 -0.2523  0.6314 -0.0343
  251TMC3     H 3863   3.969   0.886  13.034  0.6725 -3.0112  2.4898
  251TMC3    H1 3864   4.338   0.738  12.873  1.8299  1.0361  0.6184
  251TMC3    H2 3865   4.356   1.042  13.140 -1.0515 -1.3333  1.6551
  251TMC3    C7 3866   4.483   0.848  13.049  0.2423 -0.5123  0.0804
  251TMC3    C8 3867   4.102   1.089  13.155 -0.0126  0.0934  0.6702
  251TMC3    O1 3868   4.559   0.938  13.082 -0.4068 -0.2196 -0.7567
  251TMC3    O2 3869   4.174   1.119  13.249 -0.0268 -0.2147  0.1739
  252TMC3    C1 3870   3.145   1.704   9.853  0.5394 -0.0171  0.1688
  252TMC3    C2 3871   3.254   1.739   9.776  1.5708  0.7940  0.0949
  252TMC3    C3 3872   3.364   1.646   9.774  0.3765  0.2070 -0.6249
  252TMC3    C4 3873   3.143   1.591   9.921 -0.0552  0.4405 -0.0346
  252TMC3    C5 3874   3.249   1.500   9.907  0.4133  0.0105 -0.4823
  252TMC3    C6 3875   3.363   1.521   9.838 -0.3704  0.4581  0.1013
  252TMC3     C 3876   3.057   1.814   9.894 -0.0916  0.8942  0.1679
  252TMC3     O 3877   3.070   1.928   9.848 -0.1100 -0.0540 -0.0767
  252TMC3     H 3878   3.254   1.839   9.736  2.4268  1.1195  0.9144
  252TMC3    H1 3879   3.055   1.562   9.977 -0.3231  1.0373 -0.1548
  252TMC3    H2 3880   3.441   1.445   9.828 -1.7405 -0.8531 -0.5995
  252TMC3    C7 3881   3.228   1.370   9.980  0.1922  0.1445  1.1428
  252TMC3    C8 3882   3.456   1.668   9.663 -0.0697 -0.7222 -0.4729
  252TMC3    O1 3883   3.115   1.333   9.975 -0.0703  0.4244 -0.5020
  252TMC3    O2 3884   3.422   1.752   9.580 -0.2174  0.0336  0.0534
  253MPD2     C 3885   1.036   1.144  15.453  0.3558  0.2131 -0.4285
  253MPD2    C1 3886   0.902   1.152  15.424  0.3058 -0.1688 -0.0217
  253MPD2    C2 3887   0.812   1.102  15.518 -0.2690  0.5889 -0.1178
  253MPD2    C3 3888   0.853   1.061  15.643  0.1789  0.2760  0.5129
  253MPD2    C4 3889   0.993   1.069  15.678 -0.0937  0.0696  0.1429
  253MPD2    C5 3890   1.076   1.103  15.577 -0.2960 -0.0543 -0.0921
  253MPD2     H 3891   0.709   1.097  15.484 -0.5568  0.1474  0.8315
  253MPD2    H1 3892   1.031   1.050  15.777  1.1866  1.5959 -0.0463
  253MPD2    H2 3893   1.114   1.168  15.382 -1.8570  1.4810 -2.4325
  253MPD2    H3 3894   1.182   1.103  15.601 -0.6785  0.3755  1.6057
  253MPD2     N 3895   0.772   0.998  15.726 -0.0145 -0.0833  0.4211
  253MPD2    H5 3896   0.816   0.949  15.803  1.4997  0.0447 -0.3532
  253MPD2    N1 3897   0.855   1.203  15.304 -0.2888  0.2854  0.0544
  253MPD2    H7 3898   0.757   1.210  15.278  0.1402  1.4124 -1.2464
  254TMC3    C1 3899   0.581   0.883  15.807  0.7746 -0.8848  0.5449
  254TMC3    C2 3900   0.443   0.874  15.815  0.4745 -1.0220  0.4153
  254TMC3    C3 3901   0.394   0.769  15.887 -0.0029 -0.4272  0.9452
  254TMC3    C4 3902   0.665   0.788  15.856  0.3817  0.0621  0.1903
  254TMC3    C5 3903   0.614   0.694  15.937 -0.3350 -0.7355  0.1683
  254TMC3    C6 3904   0.478   0.683  15.957 -0.3701  0.2581 -0.6099
  254TMC3     C 3905   0.636   0.979  15.713  0.3182  0.0498 -0.8688
  254TMC3     O 3906   0.554   1.047  15.650  0.6102 -0.5262 -0.1985
  254TMC3     H 3907   0.384   0.957  15.779  2.3660 -0.3231 -1.0860
  254TMC3    H1 3908   0.773   0.790  15.847  0.2653 -0.8356 -1.3734
  254TMC3    H2 3909   0.445   0.606  16.026 -2.0982 -0.1489 -1.8773
  254TMC3    C7 3910   0.676   0.687  16.066 -0.1849  0.3906 -0.4862
  254TMC3    C8 3911   0.278   0.798  15.974  0.3178 -0.2744  0.3451
  254TMC3    O1 3912   0.798   0.684  16.067  0.0813 -0.2856  0.2243
  254TMC3    O2 3913   0.274   0.750  16.086 -0.5357 -0.3202  0.4378
  255MPD2     C 3914   3.472   3.880  10.815  0.2951 -0.1461 -0.6117
  255MPD2    C1 3915   3.494   3.897  10.683 -0.0341  0.7306 -0.3891
  255MPD2    C2 3916   3.616   3.850  10.628 -0.2082 -0.2110 -0.2884
  255MPD2    C3 3917   3.696   3.766  10.702 -0.2347  0.6029 -0.3382
  255MPD2    C4 3918   3.669   3.762  10.839 -0.7280  0.0766 -0.1799
  255MPD2    C5 3919   3.565   3.825  10.896 -0.0087  0.5774  0.7694
  255MPD2     H 3920   3.627   3.854  10.521  0.4603 -0.2125 -0.2202
  255MPD2    H1 3921   3.743   3.711  10.900 -0.3909 -0.3250 -0.9132
  255MPD2    H2 3922   3.390   3.927  10.868 -0.2218  1.8679 -3.1745
  255MPD2    H3 3923   3.545   3.808  11.001 -1.5758 -1.0878  0.1961
  255MPD2     N 3924   3.783   3.681  10.635  0.1641  0.1551  0.7137
  255MPD2    H5 3925   3.784   3.702  10.535  0.0052 -0.7984  0.5130
  255MPD2    N1 3926   3.403   3.965  10.597  0.9443 -0.0033  0.9131
  255MPD2    H7 3927   3.311   3.995  10.630  2.0964  3.0149  1.4173
  256TMC3    C1 3928   3.310   4.018  10.389  0.3909 -0.0033  0.7572
  256TMC3    C2 3929   3.324   4.107  10.285  0.5048  0.3369  0.4587
  256TMC3    C3 3930   3.269   4.062  10.162  0.3216 -0.4283  0.4491
  256TMC3    C4 3931   3.246   3.904  10.373 -0.6087  0.2175  0.2548
  256TMC3    C5 3932   3.182   3.870  10.256 -0.2650  0.3014 -0.0932
  256TMC3    C6 3933   3.193   3.947  10.147  0.1009 -0.0905  0.7936
  256TMC3     C 3934   3.431   4.002  10.470 -0.1762  0.0781 -0.3297
  256TMC3     O 3935   3.540   4.049  10.424 -0.7263  0.2700 -0.0490
  256TMC3     H 3936   3.386   4.195  10.293  0.6610 -0.0406  3.4011
  256TMC3    H1 3937   3.244   3.831  10.453  1.2518  1.4745  1.4611
  256TMC3    H2 3938   3.160   3.916  10.049  1.7401  0.7509 -0.0261
  256TMC3    C7 3939   3.117   3.736  10.237 -0.2298  0.1126 -0.1390
  256TMC3    C8 3940   3.245   4.162  10.057 -0.1307  0.2552 -0.2475
  256TMC3    O1 3941   3.083   3.701  10.125  0.3697  0.0933  0.0631
  256TMC3    O2 3942   3.203   4.123   9.953  0.3494  0.9875  0.3957
  257MPD2     C 3943   2.841   0.695  12.894  0.4412  0.4140  0.7940
  257MPD2    C1 3944   2.829   0.594  12.804 -0.3935  0.8556  0.3681
  257MPD2    C2 3945   2.838   0.461  12.847  0.0532  0.1768  0.0747
  257MPD2    C3 3946   2.853   0.429  12.981 -0.4971 -0.4105 -0.5100
  257MPD2    C4 3947   2.865   0.537  13.070 -0.0598  0.5732  0.6525
  257MPD2    C5 3948   2.868   0.666  13.020 -0.0818  1.0035  0.7175
  257MPD2     H 3949   2.828   0.385  12.770  1.1471  2.1525 -2.0228
  257MPD2    H1 3950   2.891   0.517  13.173 -0.3393  1.2449  0.8562
  257MPD2    H2 3951   2.844   0.798  12.862 -2.2609  0.2590  0.0261
  257MPD2    H3 3952   2.895   0.748  13.086  0.9825  0.2976  1.1555
  257MPD2     N 3953   2.856   0.293  13.013  1.0985  0.7687 -0.4987
  257MPD2    H5 3954   2.833   0.234  12.933 -0.0985  0.3038  0.1858
  257MPD2    N1 3955   2.799   0.636  12.671 -0.6327  0.0199  0.6521
  257MPD2    H7 3956   2.802   0.734  12.645 -0.3679  0.4936  2.4568
  258TMC3    C1 3957   2.822   0.090  13.126 -0.1742  0.5257  0.4246
  258TMC3    C2 3958   2.753   0.047  13.019  0.3646  0.5129  0.2865
  258TMC3    C3 3959   2.738   4.650  12.990  0.3295  0.6194 -0.6851
  258TMC3    C4 3960   2.885   4.734  13.202  0.0347  0.1229 -0.4122
  258TMC3    C5 3961   2.870   4.600  13.166  0.3958 -0.0530  0.4585
  258TMC3    C6 3962   2.803   4.562  13.060  1.0079  0.9726  0.4000
  258TMC3     C 3963   2.864   0.228  13.140 -0.5212  0.4430  0.4230
  258TMC3     O 3964   2.913   0.266  13.249 -0.9155 -0.5884 -0.3789
  258TMC3     H 3965   2.694   0.126  12.974 -0.5326 -0.5080 -0.3252
  258TMC3    H1 3966   2.938   0.038  13.288 -0.2383 -1.9636  0.7002
  258TMC3    H2 3967   2.779   4.459  13.036 -0.1806  1.2499  0.3881
  258TMC3    C7 3968   2.947   4.496  13.246  0.9745 -0.5604 -0.0845
  258TMC3    C8 3969   2.695   4.615  12.857  0.0119 -0.2012  0.4175
  258TMC3    O1 3970   2.930   4.383  13.214  0.0111 -0.0744 -0.0131
  258TMC3    O2 3971   2.649   4.712  12.795 -0.5768  0.2748  0.0418
  259MPD2     C 3972   2.285   2.333   0.590 -0.2226  0.1279  0.0802
  259MPD2    C1 3973   2.238   2.224   0.525  0.6572 -0.2989 -0.6900
  259MPD2    C2 3974   2.159   2.237   0.412 -0.2834 -0.9703  0.1223
  259MPD2    C3 3975   2.126   2.366   0.368 -0.9678  0.3574  0.4060
  259MPD2    C4 3976   2.168   2.476   0.437  0.0480  1.1700  0.0039
  259MPD2    C5 3977   2.244   2.460   0.551  0.4487  0.7669 -0.4744
  259MPD2     H 3978   2.135   2.141   0.365 -2.3868  0.8386 -2.5022
  259MPD2    H1 3979   2.136   2.575   0.405 -1.0041  1.2196  1.2309
  259MPD2    H2 3980   2.357   2.327   0.671  0.4794  1.0296 -0.4717
  259MPD2    H3 3981   2.288   2.547   0.600  2.4502 -1.7150  2.1711
  259MPD2     N 3982   2.042   2.365   0.252  0.5577 -0.2378 -0.2857
  259MPD2    H5 3983   2.003   2.278   0.217  0.6052  0.4824 -2.1234
  259MPD2    N1 3984   2.276   2.098   0.597  0.2451 -0.7336 -0.2347
  259MPD2    H7 3985   2.326   2.108   0.685  1.0253  2.2277 -1.0264
  260TMC3    C1 3986   1.875   2.454   0.107  0.5577 -0.0265 -0.3469
  260TMC3    C2 3987   1.868   2.555   0.012 -0.5336  0.5908  0.4453
  260TMC3    C3 3988   1.835   2.533  17.628 -0.6573  0.7406  0.5373
  260TMC3    C4 3989   1.835   2.329   0.073  0.7938 -0.3283  0.0017
  260TMC3    C5 3990   1.790   2.305  17.686  0.8345  0.0401 -0.4106
  260TMC3    C6 3991   1.788   2.409  17.595 -0.6835 -0.5871  0.7150
  260TMC3     C 3992   1.985   2.477   0.197 -0.6450 -0.6240  0.0981
  260TMC3     O 3993   2.026   2.589   0.199 -0.2559  0.2994  0.1064
  260TMC3     H 3994   1.903   2.655   0.033  0.8396  0.6155 -2.0306
  260TMC3    H1 3995   1.845   2.249   0.145  1.1550  0.2451  0.5883
  260TMC3    H2 3996   1.766   2.392  17.490  0.3265  1.4499  0.1682
  260TMC3    C7 3997   1.833   2.180  17.624  0.0740  1.0697  0.5990
  260TMC3    C8 3998   1.944   2.574  17.545  0.1316  0.5645  0.0043
  260TMC3    O1 3999   1.912   2.196  17.533  0.8287  0.4818 -0.3923
  260TMC3    O2 4000   1.977   2.694  17.551  0.6542 -0.1246  0.1204
  261MPD2     C 4001   3.114   0.224  12.366  0.8707 -0.2509 -0.5026
  261MPD2    C1 4002   3.243   0.273  12.375  0.5856  0.7525  0.0211
  261MPD2    C2 4003   3.287   0.367  12.284 -0.2784  0.4252 -0.7030
  261MPD2    C3 4004   3.203   0.410  12.183  0.4577 -0.7096  0.1547
  261MPD2    C4 4005   3.074   0.363  12.171 -0.6510 -0.2364 -0.8293
  261MPD2    C5 4006   3.034   0.272  12.267  0.3935 -0.8320  0.5648
  261MPD2     H 4007   3.387   0.409  12.289 -0.7013  1.2814  0.6485
  261MPD2    H1 4008   3.011   0.397  12.090 -0.0181  0.1852 -1.1355
  261MPD2    H2 4009   3.071   0.156  12.439  0.9937 -0.7638 -0.9079
  261MPD2    H3 4010   2.934   0.232  12.258 -1.3462  3.2232  1.5615
  261MPD2     N 4011   3.240   0.517  12.098  0.4917 -0.7177  0.4836
  261MPD2    H5 4012   3.333   0.550  12.123  0.9484 -1.2386 -0.5076
  261MPD2    N1 4013   3.327   0.243  12.486  0.4391  0.6654  0.4893
  261MPD2    H7 4014   3.414   0.294  12.498 -1.3809  4.2467 -1.8956
  262TMC3    C1 4015   3.234   0.689  11.953  0.6172 -0.0671 -0.2323
  262TMC3    C2 4016   3.183   0.813  11.956  0.2345 -0.3668  0.1459
  262TMC3    C3 4017   3.270   0.919  11.935 -0.2368 -0.2555  0.4778
  262TMC3    C4 4018   3.364   0.668  11.921  0.2476  0.3787 -0.6517
  262TMC3    C5 4019   3.453   0.767  11.913  0.1597 -0.6404 -0.1016
  262TMC3    C6 4020   3.410   0.899  11.911 -0.2384 -0.9790 -0.1121
  262TMC3     C 4021   3.162   0.584  12.011  0.0461 -0.1188 -0.8761
  262TMC3     O 4022   3.040   0.587  12.000 -0.1845 -0.4408 -0.2059
  262TMC3     H 4023   3.082   0.832  11.990 -0.5103 -1.7458 -1.3196
  262TMC3    H1 4024   3.408   0.569  11.925  2.0011  1.0941 -2.8802
  262TMC3    H2 4025   3.481   0.980  11.911 -1.2138 -0.1277  1.9740
  262TMC3    C7 4026   3.570   0.743  11.834 -0.2368  0.6844  0.3405
  262TMC3    C8 4027   3.223   1.055  11.922  0.5993  0.1313 -0.4592
  262TMC3    O1 4028   3.631   0.636  11.850 -0.5099 -0.0420  0.3826
  262TMC3    O2 4029   3.302   1.151  11.911 -0.2802 -0.1634  0.1700
  263MPD2     C 4030   4.379   4.006  11.892 -0.2979  0.5221 -0.0463
  263MPD2    C1 4031   4.464   3.975  11.786  0.1086  0.1076  0.6203
  263MPD2    C2 4032   4.416   3.991  11.658 -0.3278  0.1069 -0.2011
  263MPD2    C3 4033   4.288   4.029  11.626  0.5501  0.0230 -0.1898
  263MPD2    C4 4034   4.201   4.047  11.728 -0.0014 -0.0308 -0.0421
  263MPD2    C5 4035   4.252   4.036  11.858  0.1819 -0.9448 -0.3599
  263MPD2     H 4036   4.482   3.974  11.574  1.2283 -2.1455  1.4614
  263MPD2    H1 4037   4.102   4.091  11.715 -0.3449  0.1761  3.0511
  263MPD2    H2 4038   4.406   3.991  11.996 -0.4191  0.2711 -0.0507
  263MPD2    H3 4039   4.184   4.053  11.941  0.8265  0.4592 -0.1358
  263MPD2     N 4040   4.259   4.066  11.496  0.2295 -0.6521  0.2531
  263MPD2    H5 4041   4.334   4.073  11.428  1.0184  3.9302  1.5729
  263MPD2    N1 4042   4.594   3.936  11.822  0.2532  0.5776 -0.1133
  263MPD2    H7 4043   4.606   3.939  11.922  0.5466  0.0674 -0.1310
  264TMC3    C1 4044   4.141   4.158  11.306 -0.3722  0.0676 -0.5105
  264TMC3    C2 4045   4.040   4.247  11.273 -0.0618  1.0486  0.4878
  264TMC3    C3 4046   4.061   4.308  11.154  0.0309  0.4161 -0.0064
  264TMC3    C4 4047   4.238   4.119  11.221  0.2672 -0.5064  0.0666
  264TMC3    C5 4048   4.242   4.165  11.094 -0.2995  0.2775 -0.5637
  264TMC3    C6 4049   4.156   4.266  11.060 -0.3520 -0.5685 -0.5138
  264TMC3     C 4050   4.139   4.111  11.444  0.1338 -0.0166 -0.4735
  264TMC3     O 4051   4.034   4.134  11.504 -0.4998  0.5607  0.2088
  264TMC3     H 4052   3.965   4.283  11.342 -1.3357 -1.3620  0.3537
  264TMC3    H1 4053   4.300   4.035  11.249 -1.6045 -1.7227  0.5687
  264TMC3    H2 4054   4.155   4.299  10.957  3.8371  3.5451  0.7555
  264TMC3    C7 4055   4.339   4.128  10.999 -0.2051  0.9218  0.3139
  264TMC3    C8 4056   4.072   4.453  11.151 -0.6258  0.0054  0.6532
  264TMC3    O1 4057   4.329   4.167  10.882 -0.0632 -0.4999 -0.2376
  264TMC3    O2 4058   4.135   4.495  11.054  0.0629  0.1691 -0.2591
  265MPD2     C 4059   1.770   0.269  15.416  0.0965 -0.3221 -0.0544
  265MPD2    C1 4060   1.836   0.380  15.369 -0.2248 -0.3172  0.0073
  265MPD2    C2 4061   1.927   0.360  15.268 -0.5354 -0.1598 -0.4302
  265MPD2    C3 4062   1.960   0.231  15.230  0.2658  0.1436  0.4573
  265MPD2    C4 4063   1.893   0.122  15.275 -0.2821  0.0441 -0.2001
  265MPD2    C5 4064   1.791   0.139  15.370  0.1699 -0.6520 -0.4632
  265MPD2     H 4065   1.986   0.444  15.232  0.2867 -0.9262 -0.8454
  265MPD2    H1 4066   1.914   0.029  15.223 -1.2781 -0.8094  0.9301
  265MPD2    H2 4067   1.692   0.274  15.492 -0.1944 -0.1794 -0.3634
  265MPD2    H3 4068   1.737   0.052  15.405 -2.4037  1.3947  0.6421
  265MPD2     N 4069   2.069   0.199  15.135 -0.0846 -0.2054 -0.2402
  265MPD2    H5 4070   2.078   0.100  15.114 -0.4888 -0.3436  0.2529
  265MPD2    N1 4071   1.801   0.514  15.395  0.1009 -0.5918  0.3173
  265MPD2    H7 4072   1.836   0.576  15.323  0.7259 -0.1839  0.9704
  266TMC3    C1 4073   1.742   0.696  15.522 -0.2680  0.4092 -0.2164
  266TMC3    C2 4074   1.745   0.751  15.646  0.0473  0.0916  0.6623
  266TMC3    C3 4075   1.745   0.884  15.654 -0.4427 -0.2227  0.1729
  266TMC3    C4 4076   1.716   0.769  15.410 -0.6186  0.7419  0.4189
  266TMC3    C5 4077   1.692   0.902  15.427  0.0379  0.0724 -0.3448
  266TMC3    C6 4078   1.708   0.959  15.549 -0.1711  0.2419 -0.0489
  266TMC3     C 4079   1.736   0.559  15.511 -0.3067  0.0600  0.4578
  266TMC3     O 4080   1.686   0.488  15.600 -0.1394  0.0351  0.2200
  266TMC3     H 4081   1.748   0.688  15.734  0.3914 -0.0869  0.5267
  266TMC3    H1 4082   1.705   0.721  15.314  1.4065  0.7269  0.1949
  266TMC3    H2 4083   1.663   1.056  15.568 -1.3977 -0.3538  0.0959
  266TMC3    C7 4084   1.604   0.973  15.335 -0.3320  0.0862 -0.6409
  266TMC3    C8 4085   1.703   0.933  15.782  0.1058  0.1957  0.3389
  266TMC3    O1 4086   1.524   1.054  15.386 -0.4347  0.2653  0.7694
  266TMC3    O2 4087   1.642   0.860  15.852  0.0232  0.2683 -0.0054
  267MPD2     C 4088   3.998   2.403   0.337 -0.0316 -0.0890 -0.0658
  267MPD2    C1 4089   4.035   2.417   0.210  0.1012  0.3355  0.1885
  267MPD2    C2 4090   3.939   2.461   0.123 -0.0457  0.0028  0.5125
  267MPD2    C3 4091   3.815   2.507   0.171  0.2167  0.3236 -0.2060
  267MPD2    C4 4092   3.785   2.492   0.304  0.1001  0.5284 -0.1563
  267MPD2    C5 4093   3.874   2.429   0.385  0.3969  0.0496  0.2555
  267MPD2     H 4094   3.952   2.466   0.016  0.9038 -1.0901  0.5807
  267MPD2    H1 4095   3.686   2.521   0.337  0.0164 -0.6057  0.5980
  267MPD2    H2 4096   4.075   2.359   0.401 -0.9741 -1.2585  0.2630
  267MPD2    H3 4097   3.847   2.411   0.488 -1.1421  1.0314  0.0237
  267MPD2     N 4098   3.736   2.578   0.080  0.3570 -0.3176  0.1753
  267MPD2    H5 4099   3.770   2.580  17.725  1.4371 -0.0157  0.5606
  267MPD2    N1 4100   4.171   2.388   0.174  0.3033 -0.1274  0.0336
  267MPD2    H7 4101   4.227   2.349   0.250  1.3083  1.3352  0.0380
  268TMC3    C1 4102   4.362   2.359   0.048 -0.0587 -0.2129  0.6025
  268TMC3    C2 4103   4.437   2.420  17.683 -0.0985 -0.4307 -0.5343
  268TMC3    C3 4104   4.570   2.430  17.704  1.0042  0.0982 -0.3304
  268TMC3    C4 4105   4.424   2.307   0.159 -0.1696  0.3752  0.4182
  268TMC3    C5 4106   4.560   2.328   0.173  0.1602  0.4184  0.0584
  268TMC3    C6 4107   4.637   2.389   0.075 -0.3866  0.0069 -0.4494
  268TMC3     C 4108   4.221   2.410   0.052  0.2461  0.8149  1.2571
  268TMC3     O 4109   4.167   2.466  17.697  0.0757  0.6809  0.8469
  268TMC3     H 4110   4.381   2.470  17.606 -0.3435  1.2410  0.7254
  268TMC3    H1 4111   4.363   2.255   0.232 -2.6453 -0.2823 -2.1360
  268TMC3    H2 4112   0.009   2.386   0.089 -0.6188  1.4150  1.6724
  268TMC3    C7 4113   4.631   2.260   0.275 -0.1372  0.5808 -0.3060
  268TMC3    C8 4114   4.646   2.529  17.625 -0.3279  0.4748  0.3119
  268TMC3    O1 4115   0.013   2.218   0.265 -0.3717 -0.3605 -0.1608
  268TMC3    O2 4116   0.009   2.575  17.685  0.4116  0.1051  0.4735
  269MPD2     C 4117   0.204   1.340  15.324 -0.1130  0.6417  0.1173
  269MPD2    C1 4118   0.068   1.315  15.344 -0.1121 -0.4469 -0.1289
  269MPD2    C2 4119   4.713   1.414  15.314 -0.5271  0.1588 -0.3104
  269MPD2    C3 4120   0.020   1.525  15.242  0.3915  0.3446  0.0103
  269MPD2    C4 4121   0.157   1.541  15.219 -0.0780  0.3193 -0.0289
  269MPD2    C5 4122   0.252   1.451  15.269  0.2075 -0.1951 -0.5587
  269MPD2     H 4123   4.605   1.402  15.319 -0.3083 -0.4748  2.7317
  269MPD2    H1 4124   0.194   1.622  15.157 -0.4314  0.8739  0.4894
  269MPD2    H2 4125   0.276   1.266  15.358  2.8960  3.3024 -0.5243
  269MPD2    H3 4126   0.359   1.462  15.253  0.1622  2.1046  0.6343
  269MPD2     N 4127   4.653   1.617  15.201 -0.9289  0.4074  0.5501
  269MPD2    H5 4128   4.557   1.589  15.220 -2.0317  3.0758 -1.1640
  269MPD2    N1 4129   0.039   1.185  15.394  0.2680 -0.0273  0.1922
  269MPD2    H7 4130   0.118   1.121  15.401  0.2314 -0.0375  0.4955
  270TMC3    C1 4131   4.646   0.998  15.453 -0.8187 -0.0191 -0.1517
  270TMC3    C2 4132   4.526   0.935  15.448  0.0844 -0.0927  0.0693
  270TMC3    C3 4133   4.527   0.798  15.458  0.4791  0.3496 -0.2040
  270TMC3    C4 4134   0.030   0.928  15.477 -0.2928 -0.0416 -0.3063
  270TMC3    C5 4135   0.019   0.795  15.509 -0.5216 -0.2529 -0.2647
  270TMC3    C6 4136   4.636   0.727  15.482 -0.2506 -0.2891 -0.4285
  270TMC3     C 4137   4.645   1.145  15.436  0.2780  0.1344  0.2034
  270TMC3     O 4138   4.542   1.208  15.441 -0.5418  0.2043 -0.6781
  270TMC3     H 4139   4.437   0.996  15.443  1.8971  2.6746  1.2271
  270TMC3    H1 4140   0.115   0.985  15.513 -0.2966 -0.2769  0.0669
  270TMC3    H2 4141   4.628   0.619  15.481  1.9156 -0.4398 -2.1877
  270TMC3    C7 4142   0.109   0.729  15.605  0.3770  0.4416  0.7812
  270TMC3    C8 4143   4.423   0.729  15.386 -0.2125  0.9617  0.2970
  270TMC3    O1 4144   0.225   0.767  15.602  0.1648 -0.4996  0.4059
  270TMC3    O2 4145   4.307   0.733  15.432  0.4235  0.2492 -0.1147
  271MPD2     C 4146   3.904   0.577  13.640 -0.2346  0.7943 -0.4871
  271MPD2    C1 4147   3.857   0.625  13.756 -0.4214  0.1887 -0.7539
  271MPD2    C2 4148   3.724   0.658  13.760  0.2285  0.2006 -0.3667
  271MPD2    C3 4149   3.638   0.648  13.652 -0.0940  0.0734 -0.0306
  271MPD2    C4 4150   3.693   0.589  13.541 -0.2583 -0.2736  0.3550
  271MPD2    C5 4151   3.822   0.553  13.535  0.1919 -0.1941  0.6818
  271MPD2     H 4152   3.690   0.691  13.857 -0.8720  0.5012 -0.8583
  271MPD2    H1 4153   3.640   0.575  13.447  2.1834  1.5724 -1.2977
  271MPD2    H2 4154   4.004   0.535  13.641 -1.2224 -1.5718  1.0796
  271MPD2    H3 4155   3.856   0.508  13.442  2.5717  0.3919  1.2609
  271MPD2     N 4156   3.502   0.682  13.646 -0.3061  0.0658  0.1279
  271MPD2    H5 4157   3.454   0.666  13.559 -0.0248 -0.1176  0.0086
  271MPD2    N1 4158   3.932   0.612  13.876 -0.9338  0.7045 -0.8944
  271MPD2    H7 4159   3.886   0.634  13.963 -0.6953 -0.3019 -0.5156
  272TMC3    C1 4160   4.097   0.559  14.031  0.2531 -0.7862  0.1769
  272TMC3    C2 4161   4.224   0.503  14.043  1.2865  0.1215  0.8031
  272TMC3    C3 4162   4.254   0.444  14.163  0.2179 -0.1990  0.6958
  272TMC3    C4 4163   4.003   0.546  14.124 -0.1844 -0.4717 -0.2449
  272TMC3    C5 4164   4.046   0.503  14.249  0.8022 -0.0317  0.6016
  272TMC3    C6 4165   4.173   0.447  14.272 -0.3255  0.4307  0.1879
  272TMC3     C 4166   4.057   0.571  13.892 -0.2036 -0.2711 -0.0850
  272TMC3     O 4167   4.142   0.549  13.805  0.6531  0.1992  0.0600
  272TMC3     H 4168   4.278   0.488  13.950 -0.3590 -2.4879  0.2568
  272TMC3    H1 4169   3.906   0.596  14.122  0.7527  1.3124 -1.1876
  272TMC3    H2 4170   4.194   0.405  14.369 -1.2630 -0.8455 -0.1622
  272TMC3    C7 4171   3.965   0.538  14.364 -0.3072  0.4789 -0.8049
  272TMC3    C8 4172   4.392   0.408  14.172  0.6865  0.2441 -0.3857
  272TMC3    O1 4173   3.844   0.550  14.360 -0.2351 -0.4131  0.0542
  272TMC3    O2 4174   4.469   0.474  14.103  0.3864 -0.3039  0.1642
  273MPD2     C 4175   0.243   2.947  11.699  0.1890  0.7074 -0.4387
  273MPD2    C1 4176   0.339   3.029  11.752  0.1373  0.3364  1.0527
  273MPD2    C2 4177   0.431   3.083  11.669 -0.0483  0.2190 -1.2581
  273MPD2    C3 4178   0.441   3.054  11.537  0.2167 -0.6854  0.3345
  273MPD2    C4 4179   0.341   2.974  11.482  0.3893  0.6424 -0.3610
  273MPD2    C5 4180   0.245   2.925  11.565 -0.5680 -0.2779 -0.4230
  273MPD2     H 4181   0.492   3.160  11.715  0.9291 -1.8758  0.9369
  273MPD2    H1 4182   0.341   2.936  11.380 -1.8356  0.0801 -0.1371
  273MPD2    H2 4183   0.155   2.916  11.753  1.9030 -2.5317  0.5152
  273MPD2    H3 4184   0.166   2.861  11.526 -1.1308  0.9767 -1.3406
  273MPD2     N 4185   0.536   3.107  11.453  0.3527 -0.3120 -0.3672
  273MPD2    H5 4186   0.546   3.076  11.356 -0.8326 -2.2429  0.1183
  273MPD2    N1 4187   0.352   3.065  11.885  0.4007 -1.2780 -0.1209
  273MPD2    H7 4188   0.436   3.115  11.912  0.6177 -1.0219 -1.2963
  274TMC3    C1 4189   0.684   3.267  11.360 -0.2905 -0.1865  0.0595
  274TMC3    C2 4190   0.610   3.266  11.242 -0.1487  0.2196  0.2865
  274TMC3    C3 4191   0.638   3.363  11.147 -0.0581  0.7091  1.2296
  274TMC3    C4 4192   0.786   3.354  11.379  0.3338 -0.6639  0.2839
  274TMC3    C5 4193   0.812   3.447  11.278 -0.4885 -0.4790 -0.1176
  274TMC3    C6 4194   0.738   3.453  11.166  0.2035  0.0105 -0.7692
  274TMC3     C 4195   0.632   3.198  11.484  0.6220 -1.0050 -0.3715
  274TMC3     O 4196   0.671   3.238  11.593 -0.1763  0.0757 -0.4651
  274TMC3     H 4197   0.524   3.201  11.232  1.2139 -1.7651  1.5180
  274TMC3    H1 4198   0.836   3.357  11.475 -0.1450  1.4800  0.4676
  274TMC3    H2 4199   0.744   3.540  11.101  0.3736  0.2174 -0.4789
  274TMC3    C7 4200   0.854   3.576  11.326 -0.2749  0.1897 -0.0728
  274TMC3    C8 4201   0.528   3.382  11.053  0.4998  0.1522 -0.1101
  274TMC3    O1 4202   0.921   3.652  11.264  0.1971  0.2872  0.3374
  274TMC3    O2 4203   0.420   3.319  11.074 -0.3354  0.5543  0.5847
  275MPD2     C 4204   0.568   1.620  13.965  0.0306 -0.7823 -0.6530
  275MPD2    C1 4205   0.511   1.670  14.081 -0.3355 -0.3423  0.5587
  275MPD2    C2 4206   0.374   1.664  14.093 -0.5559 -0.8504 -0.5920
  275MPD2    C3 4207   0.292   1.603  13.995  0.7819  0.0454 -0.0138
  275MPD2    C4 4208   0.350   1.553  13.879 -0.2781  0.3474 -0.5261
  275MPD2    C5 4209   0.489   1.556  13.873  0.3011  0.6239  0.6704
  275MPD2     H 4210   0.335   1.704  14.185  0.3675 -1.8387  0.2352
  275MPD2    H1 4211   0.300   1.502  13.799  1.3195 -1.4750 -0.3693
  275MPD2    H2 4212   0.675   1.609  13.954  0.2011  1.1823 -0.9358
  275MPD2    H3 4213   0.541   1.505  13.793  1.4230 -0.1101  1.8734
  275MPD2     N 4214   0.156   1.587  14.013  0.4346  0.1460 -0.0026
  275MPD2    H5 4215   0.107   1.528  13.947 -1.3421  1.0579  0.5280
  275MPD2    N1 4216   0.584   1.746  14.180  0.0323 -1.2135  0.5419
  275MPD2    H7 4217   0.531   1.780  14.260  1.5681 -0.5703  1.2859
  276TMC3    C1 4218   0.754   1.876  14.284 -0.7524 -0.7485 -0.0129
  276TMC3    C2 4219   0.655   1.964  14.323 -0.2525 -0.6395  0.4065
  276TMC3    C3 4220   0.690   2.033  14.434 -0.9010  0.2348 -0.1182
  276TMC3    C4 4221   0.876   1.856  14.347 -0.2685  0.1854 -0.1428
  276TMC3    C5 4222   0.904   1.925  14.461  0.4749  0.1743  0.0246
  276TMC3    C6 4223   0.812   2.017  14.502 -0.1717 -0.7052  0.4932
  276TMC3     C 4224   0.713   1.791  14.175 -0.9393  0.5355 -0.0589
  276TMC3     O 4225   0.806   1.769  14.100 -0.2221  0.0864  0.8689
  276TMC3     H 4226   0.555   1.970  14.280 -1.5562 -2.5077  3.2035
  276TMC3    H1 4227   0.942   1.779  14.309  0.5475  1.1556 -0.6959
  276TMC3    H2 4228   0.828   2.076  14.592  0.7060  0.6097 -0.5240
  276TMC3    C7 4229   0.957   1.853  14.576  0.1972 -0.0520 -0.5441
  276TMC3    C8 4230   0.577   2.040  14.515  0.1563 -0.7240 -0.0561
  276TMC3    O1 4231   0.876   1.838  14.665  0.4510 -0.3742 -0.1728
  276TMC3    O2 4232   0.466   2.083  14.481 -0.7174  0.5427  0.1069
  277MPD2     C 4233   2.169   0.233  13.299 -0.5131  0.1591  0.6237
  277MPD2    C1 4234   2.038   0.269  13.307  0.2838  0.1794 -0.7941
  277MPD2    C2 4235   1.953   0.167  13.352 -0.9160 -0.1782  0.2243
  277MPD2    C3 4236   2.005   0.045  13.394 -0.2406 -0.0153 -0.0032
  277MPD2    C4 4237   2.137   0.021  13.386 -0.2967  0.4503  0.0996
  277MPD2    C5 4238   2.218   0.113  13.337  0.6675 -0.4430 -0.4724
  277MPD2     H 4239   1.846   0.179  13.367 -0.3998 -0.6889  4.3736
  277MPD2    H1 4240   2.174   4.664  13.430 -0.7442  0.0212 -0.4269
  277MPD2    H2 4241   2.234   0.306  13.253  2.2798 -1.8616  1.3544
  277MPD2    H3 4242   2.320   0.079  13.322  1.8046  2.7454  0.1427
  277MPD2     N 4243   1.913   4.695  13.458 -0.0395 -0.3935  0.0222
  277MPD2    H5 4244   1.819   4.733  13.466  0.7246  1.6017 -0.4064
  277MPD2    N1 4245   2.000   0.399  13.259  0.8264 -0.1685  0.2094
  277MPD2    H7 4246   2.070   0.466  13.228 -1.3392  2.1400  0.2789
  278TMC3    C1 4247   1.830   4.501  13.568 -0.0079  0.8329  0.6125
  278TMC3    C2 4248   1.845   4.369  13.585  0.0547  0.0158  0.0862
  278TMC3    C3 4249   1.741   4.293  13.630 -0.0357  0.2314 -0.1960
  278TMC3    C4 4250   1.710   4.563  13.592 -0.2091  0.3251 -0.3581
  278TMC3    C5 4251   1.607   4.493  13.647  0.0734  0.6869 -0.0493
  278TMC3    C6 4252   1.614   4.356  13.648 -0.5604  0.2523  0.4934
  278TMC3     C 4253   1.938   4.569  13.495  0.3411 -0.4457  0.2714
  278TMC3     O 4254   2.034   4.501  13.450 -0.9415  0.0798  0.0149
  278TMC3     H 4255   1.943   4.323  13.574 -0.1208 -0.3379 -0.0122
  278TMC3    H1 4256   1.701   4.670  13.576 -0.4049  0.5741  1.4229
  278TMC3    H2 4257   1.537   4.285  13.679 -1.8477  1.3797 -0.0993
  278TMC3    C7 4258   1.516   4.571  13.719  0.0666  0.3961  0.4616
  278TMC3    C8 4259   1.740   4.160  13.589  0.4169  0.3640  0.8127
  278TMC3    O1 4260   1.542   4.683  13.759  0.5569 -0.1337  0.6039
  278TMC3    O2 4261   1.847   4.104  13.586 -0.2152 -0.2723 -0.1752
  279MPD2     C 4262   1.733   0.436   0.126 -0.3724 -0.6505 -0.6503
  279MPD2    C1 4263   1.655   0.527   0.066 -0.1430 -0.6840 -0.5150
  279MPD2    C2 4264   1.694   0.572  17.684  0.4830 -0.1183  0.1276
  279MPD2    C3 4265   1.804   0.522  17.616  0.3816 -0.3055 -0.0163
  279MPD2    C4 4266   1.877   0.419  17.675  0.0307  0.4087 -0.0080
  279MPD2    C5 4267   1.849   0.390   0.060  0.1746  0.0660 -0.0185
  279MPD2     H 4268   1.636   0.646  17.629 -0.9731  0.0383  1.8756
  279MPD2    H1 4269   1.967   0.375  17.633 -2.1854 -1.9958 -2.2469
  279MPD2    H2 4270   1.719   0.406   0.229  1.5262  1.6112  0.2744
  279MPD2    H3 4271   1.906   0.314   0.112  1.4749  0.0632 -1.4607
  279MPD2     N 4272   1.829   0.569  17.485 -0.0120 -0.5716 -0.4529
  279MPD2    H5 4273   1.776   0.651  17.458 -0.8662 -0.3590  1.8562
  279MPD2    N1 4274   1.535   0.575   0.129 -0.7034 -0.3566  0.6062
  279MPD2    H7 4275   1.516   0.539   0.222 -1.7663 -0.4927  0.3420
  280TMC3    C1 4276   1.337   0.701   0.171 -0.1708 -0.3786 -0.4815
  280TMC3    C2 4277   1.267   0.584   0.182 -0.6667  0.2436 -0.5604
  280TMC3    C3 4278   1.139   0.597   0.231  0.9502  0.2507  0.1839
  280TMC3    C4 4279   1.285   0.828   0.194  0.2719  0.1726  0.2945
  280TMC3    C5 4280   1.150   0.833   0.233  0.7429  0.2475 -0.3220
  280TMC3    C6 4281   1.081   0.716   0.253  0.4423  0.0035  0.1687
  280TMC3     C 4282   1.460   0.686   0.089 -0.0572  0.5126  0.0164
  280TMC3     O 4283   1.476   0.760  17.732 -0.0614  0.0428  0.1597
  280TMC3     H 4284   1.308   0.491   0.143  1.0906  0.0573  1.6825
  280TMC3    H1 4285   1.348   0.915   0.198  1.3612 -0.5137 -2.1783
  280TMC3    H2 4286   0.973   0.722   0.267  0.4579  0.5529  0.0605
  280TMC3    C7 4287   1.085   0.961   0.256 -0.1460  0.0192 -0.1596
  280TMC3    C8 4288   1.041   0.490   0.200  0.6378 -0.3578 -0.7015
  280TMC3    O1 4289   1.157   1.047   0.299 -0.6592 -0.4180 -0.2758
  280TMC3    O2 4290   0.923   0.528   0.187 -0.2188  0.1478  0.1622
  281TMC3    C1 4291   0.395   1.193  13.079 -0.1385 -0.1072  0.2202
  281TMC3    C2 4292   0.384   1.079  13.002 -0.2994 -0.0486 -0.2216
  281TMC3    C3 4293   0.367   0.956  13.057 -0.4682  0.6140 -0.8157
  281TMC3    C4 4294   0.374   1.182  13.213 -0.6543  0.3206  0.6381
  281TMC3    C5 4295   0.342   1.058  13.269  0.2399  0.3853 -0.0500
  281TMC3    C6 4296   0.341   0.942  13.191 -0.4133  0.2483  0.3477
  281TMC3     C 4297   0.319   1.300  13.015  0.3861 -0.5916 -0.5728
  281TMC3     O 4298   0.367   1.332  12.904  0.2945  0.5477  0.6389
  281TMC3     H 4299   0.383   1.078  12.894 -1.0057 -0.9789 -0.2038
  281TMC3    H1 4300   0.412   1.257  13.281  2.8436 -0.8724  0.0278
  281TMC3    H2 4301   0.335   0.842  13.233 -0.4357  0.2743  0.4062
  281TMC3    C7 4302   0.357   1.040  13.411 -0.0489 -0.4771 -0.5353
  281TMC3    C8 4303   0.280   0.883  12.972 -0.5300  0.9110  0.5073
  281TMC3    O1 4304   0.441   1.120  13.454  1.2169  0.0916  0.1748
  281TMC3    O2 4305   0.202   0.944  12.898 -0.2330 -0.0624 -0.5339
  282MPD2     C 4306   1.761   1.756  15.039 -0.3229 -0.1570 -0.1908
  282MPD2    C1 4307   1.731   1.891  15.059 -0.1327 -0.1797 -0.5391
  282MPD2    C2 4308   1.704   1.970  14.943 -0.0159 -0.2577 -0.0499
  282MPD2    C3 4309   1.698   1.916  14.815  0.3416 -0.0054 -0.0816
  282MPD2    C4 4310   1.751   1.786  14.807 -0.3629 -0.6069  0.4811
  282MPD2    C5 4311   1.784   1.710  14.914 -0.2506  0.3793 -0.3599
  282MPD2     H 4312   1.679   2.076  14.949  1.7448  0.0790  1.4802
  282MPD2    H1 4313   1.762   1.739  14.710 -0.2479  1.0033 -0.2854
  282MPD2    H2 4314   1.773   1.690  15.124 -4.1840  1.4488  1.6018
  282MPD2    H3 4315   1.823   1.609  14.912  2.1289  1.2888  1.0887
  282MPD2     N 4316   1.665   1.999  14.707 -0.1868  0.2694 -0.2673
  282MPD2    H5 4317   1.635   2.095  14.720  1.4806  1.0781 -2.3562
  282MPD2    N1 4318   1.711   1.928  15.191 -0.1386 -0.8215 -0.2648
  282MPD2    H7 4319   1.717   1.855  15.262 -0.3881 -0.1728  0.4223
  283TMC3    C1 4320   1.652   2.037  15.377  0.7079 -0.0707 -0.2975
  283TMC3    C2 4321   1.688   2.139  15.459 -0.7165 -0.1818 -0.0170
  283TMC3    C3 4322   1.698   2.115  15.593  0.4788  0.1414 -0.6853
  283TMC3    C4 4323   1.604   1.918  15.419  0.0141 -0.3293  0.4885
  283TMC3    C5 4324   1.607   1.895  15.556  0.2337  0.1169  0.4576
  283TMC3    C6 4325   1.648   1.995  15.638 -0.1897 -0.1863  0.4802
  283TMC3     C 4326   1.680   2.051  15.237 -0.6839 -0.4421  0.9069
  283TMC3     O 4327   1.694   2.163  15.184 -0.3363  0.8997  0.4081
  283TMC3     H 4328   1.714   2.237  15.423 -0.2462 -0.8267 -1.4365
  283TMC3    H1 4329   1.574   1.846  15.343 -0.5540  1.0346 -0.5927
  283TMC3    H2 4330   1.648   1.976  15.744 -2.8404 -2.0689  0.1705
  283TMC3    C7 4331   1.509   1.805  15.615 -0.3051  0.1829  0.0817
  283TMC3    C8 4332   1.716   2.218  15.690 -0.2074 -0.3166 -0.2574
  283TMC3    O1 4333   1.465   1.834  15.725  0.1220  0.2234  0.0222
  283TMC3    O2 4334   1.698   2.187  15.812  0.0745  0.1085  0.2867
  284MPD2     C 4335   3.959   1.147  11.792 -0.1922  0.5258 -0.4583
  284MPD2    C1 4336   4.085   1.091  11.756 -0.2311 -0.4921  0.0834
  284MPD2    C2 4337   4.111   0.960  11.782 -0.3585  0.0360 -0.0713
  284MPD2    C3 4338   4.019   0.883  11.855 -0.0025 -0.4134 -0.1596
  284MPD2    C4 4339   3.895   0.932  11.885 -0.2619 -0.2144  0.0658
  284MPD2    C5 4340   3.872   1.065  11.855 -0.2723 -0.2141  0.2295
  284MPD2     H 4341   4.205   0.919  11.746 -0.9763 -2.4368  1.1076
  284MPD2    H1 4342   3.823   0.870  11.938  1.8292 -0.2123  2.8829
  284MPD2    H2 4343   3.933   1.245  11.753  2.5960  1.2761 -0.4121
  284MPD2    H3 4344   3.771   1.103  11.873  0.3840  0.8491  1.6854
  284MPD2     N 4345   4.040   0.746  11.887 -0.8333 -0.1088  0.3858
  284MPD2    H5 4346   3.959   0.693  11.920  0.3711 -0.8053  2.2490
  284MPD2    N1 4347   4.186   1.162  11.691  0.0761  0.1174  0.6473
  284MPD2    H7 4348   4.262   1.102  11.661 -1.0908 -0.8460 -0.4171
  285TMC3    C1 4349   4.306   1.330  11.581 -0.4396  0.4118  0.7814
  285TMC3    C2 4350   4.335   1.227  11.492 -0.1003  0.9630  0.3447
  285TMC3    C3 4351   4.461   1.195  11.451 -0.0286  0.1128  0.2660
  285TMC3    C4 4352   4.408   1.410  11.618 -0.7077 -0.1637 -0.1697
  285TMC3    C5 4353   4.539   1.379  11.578  0.3660 -0.1144 -0.7426
  285TMC3    C6 4354   4.568   1.275  11.496  0.0480  0.0749  0.0681
  285TMC3     C 4355   4.201   1.298  11.671 -0.1600 -0.7621 -0.4801
  285TMC3     O 4356   4.153   1.388  11.743  0.6076 -0.1411 -0.6421
  285TMC3     H 4357   4.249   1.171  11.457 -0.5882  0.1803  2.7767
  285TMC3    H1 4358   4.394   1.492  11.688  2.8310 -0.1269  0.4718
  285TMC3    H2 4359   4.669   1.264  11.460 -0.1864 -1.2310 -0.2114
  285TMC3    C7 4360   4.639   1.481  11.591  0.0064 -0.7552 -0.4508
  285TMC3    C8 4361   4.468   1.093  11.342 -0.4175 -0.2601 -0.1555
  285TMC3    O1 4362   4.597   1.591  11.624  0.4290 -0.3212 -0.6101
  285TMC3    O2 4363   4.372   1.024  11.316 -0.1897  0.3343 -0.4711
  286MPD2     C 4364   0.580   0.224   1.369  0.5484 -0.6517 -0.0429
  286MPD2    C1 4365   0.557   0.205   1.235  0.0418 -0.4222  0.3803
  286MPD2    C2 4366   0.656   0.145   1.154  1.1544  0.3958  0.1589
  286MPD2    C3 4367   0.773   0.103   1.217 -0.0606 -0.3911  0.1632
  286MPD2    C4 4368   0.790   0.129   1.356  0.1319  0.1079  0.1325
  286MPD2    C5 4369   0.693   0.183   1.429  0.6277  0.1272 -0.5849
  286MPD2     H 4370   0.648   0.135   1.046  2.3355  1.2767 -0.0073
  286MPD2    H1 4371   0.884   0.096   1.399  0.5291  1.3122  0.2020
  286MPD2    H2 4372   0.508   0.272   1.434 -0.0337 -0.1550 -1.0661
  286MPD2    H3 4373   0.703   0.201   1.536  0.2353  0.5183 -0.6134
  286MPD2     N 4374   0.866   0.016   1.159  0.4040  0.6370 -0.1629
  286MPD2    H5 4375   0.937   4.718   1.224  0.0593  3.3702  1.5987
  286MPD2    N1 4376   0.447   0.271   1.172 -0.4861 -0.3174  1.0869
  286MPD2    H7 4377   0.444   0.272   1.071 -1.3223  0.0273  1.1169
  287TMC3    C1 4378   0.982   4.627   1.000 -0.1767  0.7314 -0.2702
  287TMC3    C2 4379   0.978   4.561   0.883  0.2281 -0.3041  0.1079
  287TMC3    C3 4380   1.042   4.440   0.870  0.3615  0.2923  0.2760
  287TMC3    C4 4381   1.062   4.584   1.105  0.2106  0.0394 -0.0681
  287TMC3    C5 4382   1.133   4.471   1.082 -0.0306 -0.5357  0.1860
  287TMC3    C6 4383   1.121   4.393   0.971 -0.0216  0.2128 -0.4050
  287TMC3     C 4384   0.870   4.715   1.025  0.2557 -0.6953  0.2876
  287TMC3     O 4385   0.797   0.018   0.936 -0.0840 -0.6351 -0.1143
  287TMC3     H 4386   0.903   4.585   0.808  0.0372 -2.0570 -0.2642
  287TMC3    H1 4387   1.064   4.634   1.201  1.0305 -0.2111  0.0453
  287TMC3    H2 4388   1.169   4.296   0.972 -1.2190 -0.3778  0.6994
  287TMC3    C7 4389   1.241   4.457   1.176 -0.3425  0.3131 -0.2705
  287TMC3    C8 4390   1.035   4.367   0.745 -0.1062 -0.9670  0.6430
  287TMC3    O1 4391   1.219   4.489   1.289 -0.5404 -0.3243  0.1484
  287TMC3    O2 4392   1.039   4.245   0.760 -0.2261 -0.1271 -0.2312
  288TMC3    C1 4393   2.356   0.111  13.869  0.3191  0.3964  0.3347
  288TMC3    C2 4394   2.365   0.031  13.978 -0.2308  0.1678 -0.3320
  288TMC3    C3 4395   2.263   4.683  14.012  0.0599  0.3991  0.2945
  288TMC3    C4 4396   2.248   0.105  13.787  0.1225 -0.2413  0.2909
  288TMC3    C5 4397   2.143   0.026  13.825  0.2401 -0.4481 -0.2723
  288TMC3    C6 4398   2.154   4.673  13.930  0.5582  0.5190  0.7697
  288TMC3     C 4399   2.441   0.226  13.858 -0.7901 -0.2572 -0.3036
  288TMC3     O 4400   2.409   0.310  13.773  0.7679 -0.0465 -0.5004
  288TMC3     H 4401   2.449   0.039  14.046  0.4714  3.2646 -1.5775
  288TMC3    H1 4402   2.248   0.170  13.700  1.6487  0.9716  1.1973
  288TMC3    H2 4403   2.069   4.614  13.963 -0.5975  0.3658 -2.4040
  288TMC3    C7 4404   2.013   0.070  13.792 -0.6467  0.1584  0.3800
  288TMC3    C8 4405   2.241   4.688  14.158  0.1523  0.1094  0.1906
  288TMC3    O1 4406   1.922   4.725  13.799 -0.4309 -0.3967 -0.1515
  288TMC3    O2 4407   2.290   0.046  14.219  0.5613  0.1920  0.4947
  289MPD2     C 4408   2.149   3.750  14.633 -0.3176 -0.3223  0.6050
  289MPD2    C1 4409   2.207   3.850  14.557  0.4680  0.5215  0.2240
  289MPD2    C2 4410   2.191   3.855  14.424 -0.1377 -0.1315  0.2443
  289MPD2    C3 4411   2.101   3.763  14.368 -0.6868  0.3853  0.5333
  289MPD2    C4 4412   2.047   3.668  14.452  0.2979  0.6856 -0.6670
  289MPD2    C5 4413   2.066   3.653  14.583 -0.5138 -0.6187  0.4249
  289MPD2     H 4414   2.238   3.928  14.359  1.5886 -1.1919  0.3034
  289MPD2    H1 4415   1.978   3.593  14.415  1.1195 -0.4471  0.0827
  289MPD2    H2 4416   2.162   3.748  14.741 -1.6727  0.5493  0.7858
  289MPD2    H3 4417   2.024   3.572  14.643 -0.6486 -1.0497 -0.2565
  289MPD2     N 4418   2.060   3.770  14.236  0.6192 -0.0767 -0.6151
  289MPD2    H5 4419   1.991   3.702  14.206  0.9262 -0.7527  0.1934
  289MPD2    N1 4420   2.295   3.928  14.623 -0.6400 -0.0968 -0.3477
  289MPD2    H7 4421   2.288   3.918  14.723  2.5939 -2.0162 -0.3316
  290TMC3    C1 4422   2.021   3.827  14.026 -0.4785  0.1322 -0.3314
  290TMC3    C2 4423   1.929   3.924  13.977 -0.2965 -0.2912 -0.8351
  290TMC3    C3 4424   1.832   3.891  13.888  0.5880  0.4456 -0.3562
  290TMC3    C4 4425   2.008   3.697  13.985 -0.6121  0.1143 -0.3209
  290TMC3    C5 4426   1.908   3.667  13.893 -0.0844  0.0553  0.1177
  290TMC3    C6 4427   1.826   3.761  13.845 -0.0882 -0.2461  0.4610
  290TMC3     C 4428   2.088   3.865  14.144  0.5546  0.8250 -0.4463
  290TMC3     O 4429   2.139   3.980  14.159 -0.4273  0.0074 -0.5992
  290TMC3     H 4430   1.941   4.020  14.026 -0.0775  0.6788 -2.8140
  290TMC3    H1 4431   2.060   3.610  14.023 -3.8518 -1.7768 -0.1524
  290TMC3    H2 4432   1.739   3.731  13.788  0.4226 -2.2167  0.7184
  290TMC3    C7 4433   1.892   3.533  13.843 -0.0273 -0.1987  0.7753
  290TMC3    C8 4434   1.713   3.970  13.877 -0.0613 -0.6321  0.2526
  290TMC3    O1 4435   1.844   3.524  13.730  0.0113 -0.6261  0.1463
  290TMC3    O2 4436   1.609   3.922  13.833 -0.4934  0.4012  0.2491
  291MPD2     C 4437   2.229   3.949   0.385  0.3907 -1.1519  0.0976
  291MPD2    C1 4438   2.149   3.863   0.309 -0.1984 -0.5568  0.1644
  291MPD2    C2 4439   2.102   3.886   0.185  0.0973 -0.2315  0.0711
  291MPD2    C3 4440   2.144   4.005   0.113  0.0311  0.0603  0.3791
  291MPD2    C4 4441   2.217   4.090   0.188 -0.1366 -0.0272 -0.2112
  291MPD2    C5 4442   2.255   4.062   0.320 -0.1013  0.0552  0.1570
  291MPD2     H 4443   2.029   3.823   0.133  1.0972 -0.9200 -0.4959
  291MPD2    H1 4444   2.250   4.188   0.156 -1.4567  0.6248  0.4050
  291MPD2    H2 4445   2.266   3.936   0.486 -1.5656  0.0692  0.9620
  291MPD2    H3 4446   2.323   4.135   0.361  1.2967 -1.3015  0.2518
  291MPD2     N 4447   2.089   4.037  17.729 -1.0804  0.0916  0.2563
  291MPD2    H5 4448   2.107   4.132  17.697  0.0994 -0.7729 -1.5813
  291MPD2    N1 4449   2.098   3.738   0.361 -0.1851  0.6077  0.2805
  291MPD2    H7 4450   2.032   3.682   0.309 -0.0319  1.9009 -1.2965
  292TMC3    C1 4451   2.016   3.576   0.511  0.5070 -0.4512  0.2146
  292TMC3    C2 4452   1.999   3.535   0.643  0.3149  0.0578 -0.2223
  292TMC3    C3 4453   1.914   3.435   0.671 -0.0924  0.0106 -0.5168
  292TMC3    C4 4454   1.949   3.512   0.407  0.7319 -0.1706  0.4548
  292TMC3    C5 4455   1.869   3.409   0.446 -1.5674  0.1326 -0.2319
  292TMC3    C6 4456   1.848   3.368   0.573  0.2166  0.5297 -0.0303
  292TMC3     C 4457   2.111   3.685   0.486  0.3342  0.1083  0.0455
  292TMC3     O 4458   2.179   3.725   0.580  0.4197 -0.0864 -0.1672
  292TMC3     H 4459   2.047   3.599   0.716 -1.4074 -1.0325  1.8641
  292TMC3    H1 4460   1.952   3.547   0.304  0.9815  0.9857  0.8500
  292TMC3    H2 4461   1.787   3.280   0.588 -2.7374  2.4727 -0.5154
  292TMC3    C7 4462   1.774   3.364   0.352  0.2883 -0.5620 -0.3977
  292TMC3    C8 4463   1.921   3.376   0.801 -0.0221  0.4297  0.6241
  292TMC3    O1 4464   1.811   3.352   0.237  0.7947  0.3320  0.1497
  292TMC3    O2 4465   2.016   3.413   0.871 -0.2966  0.3855 -0.6290
  293MPD2     C 4466   3.085   4.491  12.803  0.2756  0.2595 -0.4324
  293MPD2    C1 4467   3.049   4.623  12.796  0.0270  1.1754  0.5628
  293MPD2    C2 4468   3.090   4.718  12.888 -0.3686 -0.4449 -0.0598
  293MPD2    C3 4469   3.182   4.679  12.988 -0.0027 -0.7422  0.7529
  293MPD2    C4 4470   3.210   4.542  12.998 -0.3113 -0.2065 -0.3741
  293MPD2    C5 4471   3.157   4.452  12.909  0.7608 -0.3586  0.3999
  293MPD2     H 4472   3.043   0.080  12.896 -0.1866 -0.3200 -0.4893
  293MPD2    H1 4473   3.263   4.504  13.085  0.6468  0.8969 -0.4891
  293MPD2    H2 4474   3.040   4.416  12.740  1.7641 -1.2196  0.2784
  293MPD2    H3 4475   3.181   4.347  12.919  1.1581 -0.4565 -1.5664
  293MPD2     N 4476   3.232   0.034  13.078  0.1128 -0.2790 -1.1001
  293MPD2    H5 4477   3.181   0.121  13.077 -0.9613 -0.8843  1.7233
  293MPD2    N1 4478   2.973   4.655  12.679 -0.0870  0.0136  0.1469
  293MPD2    H7 4479   2.937   4.573  12.631  0.8471 -2.1575  3.1452
  294TMC3    C1 4480   2.831   0.041  12.526  0.0898 -0.0056 -0.4358
  294TMC3    C2 4481   2.754   0.151  12.526 -0.0287 -0.5002 -0.2147
  294TMC3    C3 4482   2.668   0.173  12.423  0.1128 -0.2578 -0.2980
  294TMC3    C4 4483   2.835   4.696  12.419 -0.2684 -0.1457 -0.5718
  294TMC3    C5 4484   2.761   4.728  12.315  0.1539  0.1702 -0.7100
  294TMC3    C6 4485   2.677   0.104  12.308  0.0221  0.3339 -0.1505
  294TMC3     C 4486   2.927   0.043  12.639  0.2608  0.0559 -0.4577
  294TMC3     O 4487   2.932   0.141  12.707 -0.5976 -0.6308 -0.4348
  294TMC3     H 4488   2.746   0.219  12.611 -1.1479  1.4737 -1.8949
  294TMC3    H1 4489   2.905   4.616  12.401  0.2003  0.1681 -0.1412
  294TMC3    H2 4490   2.618   0.130  12.221  0.4764  2.0603  0.0708
  294TMC3    C7 4491   2.696   4.624  12.234 -0.0224 -0.0430  0.5702
  294TMC3    C8 4492   2.530   0.174  12.468 -0.1079  0.2513 -0.0202
  294TMC3    O1 4493   2.585   4.645  12.201 -0.5153 -0.0219  0.8310
  294TMC3    O2 4494   2.501   0.233  12.573 -0.1909  0.4285  0.6419
  295MPD2     C 4495   4.211   4.703   1.299  0.1685  0.5675 -0.1847
  295MPD2    C1 4496   4.129   4.652   1.199 -0.3516 -0.8147 -0.1206
  295MPD2    C2 4497   3.995   4.622   1.245  0.2993  0.7070  0.0179
  295MPD2    C3 4498   3.965   4.631   1.381 -0.8088 -0.1211  0.1256
  295MPD2    C4 4499   4.049   4.684   1.469 -0.7153 -0.4037  0.1529
  295MPD2    C5 4500   4.177   4.705   1.433  0.8196  0.2139  0.1469
  295MPD2     H 4501   3.920   4.578   1.181  1.8809  0.0211 -1.3841
  295MPD2    H1 4502   4.018   4.695   1.573 -1.1424  1.8815 -0.2036
  295MPD2    H2 4503   4.310   0.007   1.276  0.1284  0.3465 -0.7342
  295MPD2    H3 4504   4.253   0.009   1.500  2.1683  0.4032 -1.4967
  295MPD2     N 4505   3.840   4.590   1.427  0.3665 -0.2613 -0.0516
  295MPD2    H5 4506   3.815   4.603   1.524 -0.0308  1.0858 -0.3340
  295MPD2    N1 4507   4.163   4.638   1.063  0.9085 -0.2333 -0.5668
  295MPD2    H7 4508   4.088   4.602   1.005  0.6827 -1.2041  0.3243
  296TMC3    C1 4509   3.651   4.452   1.457  0.0918 -0.5998  0.1854
  296TMC3    C2 4510   3.620   4.540   1.563  0.1355  0.1077  0.0346
  296TMC3    C3 4511   3.555   4.483   1.668  0.4571 -0.3072 -0.1090
  296TMC3    C4 4512   3.605   4.326   1.433 -0.4334 -0.0775 -0.4297
  296TMC3    C5 4513   3.555   4.267   1.551 -0.3248 -0.5239 -0.3806
  296TMC3    C6 4514   3.527   4.346   1.668 -0.1266 -0.5135  0.1930
  296TMC3     C 4515   3.747   4.506   1.360 -0.5836 -0.3431  0.8583
  296TMC3     O 4516   3.754   4.448   1.257  0.4409  0.3412  0.3128
  296TMC3     H 4517   3.653   4.642   1.573 -0.4156  0.5127 -2.2402
  296TMC3    H1 4518   3.632   4.265   1.347 -2.9396 -1.2233 -0.3894
  296TMC3    H2 4519   3.482   4.301   1.756 -1.3982 -0.3344 -0.3596
  296TMC3    C7 4520   3.466   4.155   1.531 -0.1058 -1.0110 -0.4981
  296TMC3    C8 4521   3.501   4.564   1.776 -0.2407  0.2257 -1.0521
  296TMC3    O1 4522   3.356   4.184   1.574 -0.2174 -0.6783  0.2271
  296TMC3    O2 4523   3.457   4.504   1.872 -0.6668  0.7137  0.3691
  297MPD2     C 4524   0.695   1.046  16.109  0.2168 -0.0066  0.6291
  297MPD2    C1 4525   0.670   1.162  16.042  0.1923  0.4140  0.1351
  297MPD2    C2 4526   0.774   1.248  16.012  0.7709 -0.5290  0.5356
  297MPD2    C3 4527   0.906   1.210  16.021  0.1888 -0.8140  0.3577
  297MPD2    C4 4528   0.927   1.083  16.083  0.5724  0.0415 -0.1205
  297MPD2    C5 4529   0.822   1.009  16.129  0.7009 -0.1511  0.2190
  297MPD2     H 4530   0.751   1.341  15.961 -0.2361 -0.0421  1.8850
  297MPD2    H1 4531   1.027   1.043  16.092  0.0216 -1.5821 -1.1850
  297MPD2    H2 4532   0.622   0.978  16.151  4.0364 -2.8915  2.5834
  297MPD2    H3 4533   0.843   0.910  16.167 -1.3701 -0.8142 -0.3399
  297MPD2     N 4534   1.009   1.293  15.973  0.0363 -0.5567 -0.7031
  297MPD2    H5 4535   0.982   1.387  15.948  2.6553  0.3221 -0.2376
  297MPD2    N1 4536   0.536   1.206  16.008  0.0079 -0.0173  0.3749
  297MPD2    H7 4537   0.529   1.303  15.981 -0.2804  0.4851  2.2747
  298TMC3    C1 4538   0.315   1.214  15.995  0.2238  0.0573  0.2802
  298TMC3    C2 4539   0.338   1.299  15.889 -0.1298  0.0885 -0.2802
  298TMC3    C3 4540   0.232   1.368  15.842  0.3347 -0.1730  0.1827
  298TMC3    C4 4541   0.193   1.197  16.052 -0.5042 -0.2694  0.0107
  298TMC3    C5 4542   0.092   1.276  16.012 -0.3459 -0.5406  0.2676
  298TMC3    C6 4543   0.112   1.364  15.911  0.2217  0.1434 -0.0223
  298TMC3     C 4544   0.425   1.138  16.046 -0.1319  0.8519  0.1180
  298TMC3     O 4545   0.413   1.055  16.134 -0.6847 -0.2321 -0.5059
  298TMC3     H 4546   0.428   1.284  15.830 -1.3690 -2.1607 -1.6537
  298TMC3    H1 4547   0.173   1.133  16.137  1.0210  0.2033  0.7233
  298TMC3    H2 4548   0.035   1.435  15.884  1.6250  0.4072 -3.3603
  298TMC3    C7 4549   0.004   1.312  16.121  0.3854  0.3427 -0.6118
  298TMC3    C8 4550   0.235   1.471  15.738 -0.3089  0.8767 -0.5768
  298TMC3    O1 4551   0.033   1.295  16.240 -0.2544 -0.3820  0.2159
  298TMC3    O2 4552   0.129   1.522  15.710  0.2602 -0.4661  0.0765
  299MPD2     C 4553   0.850   0.609  10.096  0.4223  0.5282 -0.0601
  299MPD2    C1 4554   0.783   0.554  10.204 -0.5182  0.4529 -0.1885
  299MPD2    C2 4555   0.668   0.487  10.183  0.1597  0.3375 -0.7582
  299MPD2    C3 4556   0.607   0.486  10.058  0.0249  0.4565 -0.3768
  299MPD2    C4 4557   0.670   0.542   9.954  0.0378 -0.0146  0.1936
  299MPD2    C5 4558   0.797   0.597   9.972  0.2671  0.1760  0.1434
  299MPD2     H 4559   0.621   0.438  10.267 -0.0176 -0.7323 -1.4792
  299MPD2    H1 4560   0.633   0.544   9.852  0.2440 -0.9089  0.0998
  299MPD2    H2 4561   0.942   0.661  10.120  1.3597 -0.2199 -1.9578
  299MPD2    H3 4562   0.841   0.636   9.881 -0.5747 -1.0256 -0.7876
  299MPD2     N 4563   0.492   0.402  10.033  1.3576  0.0481  0.0142
  299MPD2    H5 4564   0.470   0.391   9.935 -0.9020 -0.5568  0.5848
  299MPD2    N1 4565   0.839   0.573  10.330  0.1112 -0.0733  0.1210
  299MPD2    H7 4566   0.916   0.639  10.329  2.4625 -2.8028  1.2068
  300TMC3    C1 4567   0.306   0.266  10.069 -0.2683  0.4754  0.6464
  300TMC3    C2 4568   0.236   0.330   9.973  0.5107 -0.3092 -0.8122
  300TMC3    C3 4569   0.112   0.287   9.946  0.0365 -0.0205 -0.4832
  300TMC3    C4 4570   0.257   0.165  10.150  0.0830  0.6929 -0.0103
  300TMC3    C5 4571   0.139   0.112  10.106 -0.2128  0.3225 -0.1257
  300TMC3    C6 4572   0.071   0.167  10.002 -0.0433  0.4846  0.5529
  300TMC3     C 4573   0.417   0.338  10.128  0.7972  0.1328  0.2345
  300TMC3     O 4574   0.430   0.336  10.249 -0.1178  0.0970  0.0567
  300TMC3     H 4575   0.268   0.418   9.918  0.2578 -1.7163 -3.2460
  300TMC3    H1 4576   0.304   0.131  10.242  0.1128  0.6675 -0.0349
  300TMC3    H2 4577   4.710   0.123   9.978 -1.5018  1.9334  3.8040
  300TMC3    C7 4578   0.050   0.037  10.197  0.0820  0.8272  0.6633
  300TMC3    C8 4579   0.022   0.391   9.995  0.0508  0.2879  0.3165
  300TMC3    O1 4580   4.702   4.692  10.152  0.1376  0.1067  0.2519
  300TMC3    O2 4581   4.637   0.377  10.000 -0.3593 -0.0838  0.6587
  301MPD2     C 4582   4.030   2.437   0.749 -0.2964 -0.0765  0.2051
  301MPD2    C1 4583   3.899   2.399   0.756  0.4128  0.6356 -0.2844
  301MPD2    C2 4584   3.867   2.269   0.781  0.3412  0.5803 -0.4266
  301MPD2    C3 4585   3.964   2.165   0.771 -0.7075  0.5798 -0.8815
  301MPD2    C4 4586   4.093   2.203   0.729 -0.4231 -0.2342 -0.3357
  301MPD2    C5 4587   4.126   2.340   0.722  0.5609  0.1992  0.7693
  301MPD2     H 4588   3.765   2.246   0.810  0.3545  1.7633  0.5511
  301MPD2    H1 4589   4.161   2.127   0.692  0.8578 -0.4466  2.4781
  301MPD2    H2 4590   4.059   2.542   0.750  0.2185 -0.1711 -2.9779
  301MPD2    H3 4591   4.225   2.364   0.687  0.4265  0.1259  0.3409
  301MPD2     N 4592   3.941   2.025   0.780  0.3360  0.4758 -0.0044
  301MPD2    H5 4593   4.022   1.965   0.770 -0.0235 -0.2286  1.2518
  301MPD2    N1 4594   3.788   2.490   0.760  0.1593  0.2800  0.0097
  301MPD2    H7 4595   3.705   2.444   0.794 -0.2731 -0.5721 -2.1710
  302TMC3    C1 4596   3.803   1.816   0.780  0.2288 -0.1018 -0.3847
  302TMC3    C2 4597   3.874   1.740   0.872 -0.8071  0.3015  0.0241
  302TMC3    C3 4598   3.851   1.607   0.870 -0.0761 -0.4414  0.4513
  302TMC3    C4 4599   3.713   1.768   0.688 -0.2660  0.4016  0.6824
  302TMC3    C5 4600   3.691   1.635   0.696 -0.0139 -0.1591  0.2093
  302TMC3    C6 4601   3.762   1.547   0.780  0.2271  0.2017  0.1129
  302TMC3     C 4602   3.810   1.966   0.780  0.6451 -0.2715 -0.4063
  302TMC3     O 4603   3.701   2.022   0.770 -0.5727  0.7135 -0.3388
  302TMC3     H 4604   3.916   1.791   0.959  3.0367 -0.0835 -1.6161
  302TMC3    H1 4605   3.659   1.833   0.620  1.1846  1.4075  0.4943
  302TMC3    H2 4606   3.746   1.440   0.772 -0.3877  0.2736  0.3326
  302TMC3    C7 4607   3.564   1.584   0.637 -0.8030 -0.0192 -0.2233
  302TMC3    C8 4608   3.910   1.515   0.963 -0.1902  0.1750  0.0292
  302TMC3    O1 4609   3.569   1.465   0.609  0.3769  0.2966 -0.0140
  302TMC3    O2 4610   4.029   1.531   0.978 -0.2842  0.1430  0.9911
  303MPD2     C 4611   3.208   0.418  10.920 -1.0984 -0.0729  0.3198
  303MPD2    C1 4612   3.104   0.335  10.897  0.0372  0.1858  0.4001
  303MPD2    C2 4613   3.104   0.260  10.781 -0.2878 -0.6963  0.4175
  303MPD2    C3 4614   3.202   0.276  10.684  0.2655 -0.3649  0.0172
  303MPD2    C4 4615   3.306   0.362  10.702  0.2035  0.3256 -0.1164
  303MPD2    C5 4616   3.305   0.437  10.819  1.0659 -0.3064  0.1677
  303MPD2     H 4617   3.019   0.196  10.761  0.6940 -1.7237 -0.4563
  303MPD2    H1 4618   3.384   0.374  10.628 -2.0471  1.4697 -2.3178
  303MPD2    H2 4619   3.229   0.475  11.009 -1.7939 -0.4671  0.7411
  303MPD2    H3 4620   3.381   0.514  10.825  0.4787  0.2760  0.1751
  303MPD2     N 4621   3.204   0.207  10.564 -0.0465 -0.2670 -0.4204
  303MPD2    H5 4622   3.266   0.242  10.492  0.0118 -0.2002 -0.3366
  303MPD2    N1 4623   3.024   0.304  11.007  0.2690  0.3340  0.1463
  303MPD2    H7 4624   3.059   0.347  11.092  0.3534 -0.0494  0.3044
  304TMC3    C1 4625   2.893   0.170  11.151  0.6039 -0.5146  0.1212
  304TMC3    C2 4626   2.772   0.100  11.158  0.9639  0.5183 -0.0876
  304TMC3    C3 4627   2.759   0.006  11.253 -0.0929 -0.3585 -0.0197
  304TMC3    C4 4628   2.999   0.137  11.238  0.0220  0.0221  0.1850
  304TMC3    C5 4629   2.979   0.048  11.331  0.7761 -0.1785  0.2566
  304TMC3    C6 4630   2.857   4.720  11.343 -0.2202  0.9009  0.1669
  304TMC3     C 4631   2.928   0.205  11.016 -0.1200  0.4443  0.5774
  304TMC3     O 4632   2.879   0.142  10.927 -0.0196 -0.0605 -0.6384
  304TMC3     H 4633   2.692   0.130  11.092 -0.2679 -0.0599  1.1448
  304TMC3    H1 4634   3.103   0.165  11.222 -0.7655  1.9156 -1.7382
  304TMC3    H2 4635   2.846   4.657  11.430 -0.2271  0.3791 -0.2148
  304TMC3    C7 4636   3.095   4.701  11.366 -0.5578 -0.2626  0.0168
  304TMC3    C8 4637   2.725   4.610  11.197  0.5378  0.1444 -0.0279
  304TMC3    O1 4638   3.207   0.013  11.384 -0.3961 -0.0175 -0.1841
  304TMC3    O2 4639   2.791   4.515  11.239  0.0663  0.2557  0.4351
  305MPD2     C 4640   2.062   2.465  13.811  0.5159  0.1003 -0.0140
  305MPD2    C1 4641   2.109   2.340  13.835  0.0670  0.6962 -0.7494
  305MPD2    C2 4642   2.089   2.239  13.745 -0.1083  0.6997  0.5307
  305MPD2    C3 4643   2.019   2.267  13.626 -0.1297  0.1565  0.5255
  305MPD2    C4 4644   1.976   2.396  13.598  0.4972 -0.0975  0.4996
  305MPD2    C5 4645   2.002   2.497  13.688 -0.4026 -0.5863 -0.3606
  305MPD2     H 4646   2.131   2.140  13.759 -0.1940  0.4949 -0.6174
  305MPD2    H1 4647   1.920   2.427  13.511  2.0193  1.9129  0.2314
  305MPD2    H2 4648   2.093   2.541  13.882 -0.7246  0.3620  0.2318
  305MPD2    H3 4649   1.956   2.594  13.675  0.2271 -0.5752 -2.5751
  305MPD2     N 4650   2.005   2.174  13.527  0.0365  0.1507  0.1039
  305MPD2    H5 4651   1.972   2.218  13.441 -1.7753 -0.8458  0.3000
  305MPD2    N1 4652   2.182   2.333  13.955  0.0860  0.4418  0.3927
  305MPD2    H7 4653   2.211   2.420  13.999 -0.4343  1.0437 -0.4375
  306TMC3    C1 4654   2.299   2.235  14.130 -0.3607 -0.0978  0.2580
  306TMC3    C2 4655   2.298   2.129  14.219  0.4038 -0.1360 -0.7489
  306TMC3    C3 4656   2.376   2.147  14.327  0.2995 -0.0380  0.0279
  306TMC3    C4 4657   2.388   2.337  14.141  0.5381  0.1532 -0.6473
  306TMC3    C5 4658   2.459   2.344  14.249  0.1171  0.8205 -0.3529
  306TMC3    C6 4659   2.437   2.262  14.354  0.4423 -0.4883  0.4009
  306TMC3     C 4660   2.212   2.218  14.015  0.4816  0.2978 -0.6666
  306TMC3     O 4661   2.165   2.105  13.998 -0.2701 -0.2052 -0.1393
  306TMC3     H 4662   2.235   2.042  14.208 -1.0537  0.5394  2.3666
  306TMC3    H1 4663   2.413   2.398  14.054  1.7960  2.3300  1.2511
  306TMC3    H2 4664   2.494   2.264  14.446 -0.1335 -0.7407  0.7690
  306TMC3    C7 4665   2.545   2.457  14.263 -0.4005 -0.1968  0.0409
  306TMC3    C8 4666   2.360   2.042  14.419  0.0159 -0.2977  0.0327
  306TMC3    O1 4667   2.558   2.523  14.161  0.4070 -0.0570  0.6015
  306TMC3    O2 4668   2.340   1.934  14.375 -0.3657  0.1318 -0.2889
  307MPD2     C 4669   4.526   0.651   0.192  0.5104 -0.3473  0.6227
  307MPD2    C1 4670   4.530   0.783   0.186 -0.5343  0.2319 -0.6651
  307MPD2    C2 4671   4.512   0.854   0.309  0.3220  0.3326 -0.1917
  307MPD2    C3 4672   4.481   0.792   0.424 -0.3131  0.3240 -0.0227
  307MPD2    C4 4673   4.489   0.650   0.436  1.0528 -0.1840 -1.1388
  307MPD2    C5 4674   4.514   0.586   0.315 -0.2419 -0.6135 -0.5466
  307MPD2     H 4675   4.536   0.960   0.309 -0.6967  0.5744  3.0088
  307MPD2    H1 4676   4.473   0.597   0.528 -0.6989 -1.2385 -2.0448
  307MPD2    H2 4677   4.562   0.587   0.113 -2.4790 -1.2599 -0.0116
  307MPD2    H3 4678   4.527   0.478   0.313  3.0462 -0.2475  0.8136
  307MPD2     N 4679   4.431   0.868   0.538 -0.4347  0.1005  0.7742
  307MPD2    H5 4680   4.428   0.969   0.529  0.5408  0.0400 -0.1421
  307MPD2    N1 4681   4.556   0.862   0.073 -0.1200  0.0899 -0.3680
  307MPD2    H7 4682   4.548   0.962   0.083  1.6518  0.1929  0.0014
  308TMC3    C1 4683   4.107   0.973   0.839  0.0974  0.5096  0.2564
  308TMC3    C2 4684   4.149   1.100   0.852 -0.1409  0.2330 -0.3504
  308TMC3    C3 4685   4.278   1.128   0.814  0.3621  0.7427 -0.3715
  308TMC3    C4 4686   4.185   0.886   0.765 -0.0830  0.4788 -0.1296
  308TMC3    C5 4687   4.307   0.921   0.726 -0.2694  0.6803 -0.0340
  308TMC3    C6 4688   4.365   1.047   0.743 -0.5840 -0.3905  0.4035
  308TMC3     C 4689   3.968   0.940   0.872 -0.6248  1.0394 -0.1807
  308TMC3     O 4690   3.943   0.823   0.883 -0.5807 -0.3714  0.0335
  308TMC3     H 4691   4.083   1.166   0.908  0.0461 -0.8345  1.1430
  308TMC3    H1 4692   4.136   0.789   0.758  0.0073  0.1116  4.0431
  308TMC3    H2 4693   4.467   1.074   0.718 -0.6036 -0.3095  0.4115
  308TMC3    C7 4694   4.380   0.814   0.654  0.2400  1.0073  0.3352
  308TMC3    C8 4695   4.335   1.237   0.893 -0.0862 -0.1327  0.0128
  308TMC3    O1 4696   4.358   0.701   0.695  0.2621  0.0599 -0.4229
  308TMC3    O2 4697   4.279   1.268   0.999  0.0645  0.5463 -0.1950
  309MPD2     C 4698   3.612   1.376  17.281  0.1563  0.0416 -0.4608
  309MPD2    C1 4699   3.542   1.342  17.166 -0.7494  0.4733  0.0230
  309MPD2    C2 4700   3.409   1.365  17.172  0.2873  0.2997  0.2037
  309MPD2    C3 4701   3.352   1.412  17.287 -0.8394  0.3701  0.0724
  309MPD2    C4 4702   3.425   1.466  17.395 -0.4435  0.6000  0.1368
  309MPD2    C5 4703   3.561   1.446  17.384 -1.5372 -0.1133  0.4444
  309MPD2     H 4704   3.352   1.337  17.084 -2.6349 -0.2513  2.2509
  309MPD2    H1 4705   3.386   1.536  17.468  0.0545  0.7740  0.2366
  309MPD2    H2 4706   3.717   1.352  17.287  0.4298  0.6327 -2.8372
  309MPD2    H3 4707   3.623   1.473  17.469 -1.9159  1.5116  0.2024
  309MPD2     N 4708   3.211   1.432  17.288 -0.0973  0.1607  0.2764
  309MPD2    H5 4709   3.175   1.437  17.383  0.8392  1.3398  0.5674
  309MPD2    N1 4710   3.604   1.302  17.048 -0.4827 -0.1758  0.1642
  309MPD2    H7 4711   3.547   1.290  16.965  1.7097 -1.2632 -1.1823
  310TMC3    C1 4712   3.783   1.260  16.901  0.0973 -0.0078  0.2938
  310TMC3    C2 4713   3.698   1.291  16.795 -0.2974 -0.4111 -0.1670
  310TMC3    C3 4714   3.751   1.284  16.666  0.4212 -0.2013 -0.4155
  310TMC3    C4 4715   3.915   1.230  16.875 -0.0247 -0.2556 -0.2473
  310TMC3    C5 4716   3.961   1.215  16.745  0.0816 -0.0758  0.5916
  310TMC3    C6 4717   3.879   1.244  16.644 -0.2990 -0.3415  0.5364
  310TMC3     C 4718   3.737   1.276  17.039  0.6254  1.1929 -0.1198
  310TMC3     O 4719   3.823   1.271  17.123 -0.0784  0.3653  0.3347
  310TMC3     H 4720   3.594   1.316  16.813 -0.1280 -0.6836  1.2106
  310TMC3    H1 4721   3.984   1.239  16.958 -2.7036  0.3067  1.9166
  310TMC3    H2 4722   3.915   1.219  16.545  2.1092  0.2839  1.2462
  310TMC3    C7 4723   4.089   1.149  16.718 -0.8162 -0.1347  0.5046
  310TMC3    C8 4724   3.665   1.313  16.557  0.0233 -0.3130  0.4922
  310TMC3    O1 4725   4.132   1.142  16.602  0.8525  0.7016  0.0387
  310TMC3    O2 4726   3.545   1.301  16.569  0.2899 -0.0065  0.1104
  311MPD2     C 4727   0.897   1.627  12.891  0.3328  0.0269 -0.4587
  311MPD2    C1 4728   0.921   1.762  12.891 -0.8330  0.2326 -1.0814
  311MPD2    C2 4729   0.820   1.847  12.927 -0.5109 -0.2496  0.2345
  311MPD2    C3 4730   0.693   1.795  12.957  0.0514  0.8109 -0.2346
  311MPD2    C4 4731   0.677   1.657  12.951 -0.2116  0.6169 -0.2296
  311MPD2    C5 4732   0.777   1.572  12.926  0.4221  0.0880 -0.0106
  311MPD2     H 4733   0.833   1.954  12.932  0.3723 -0.3324 -0.4024
  311MPD2    H1 4734   0.582   1.610  12.970  0.9209 -0.7322  2.0903
  311MPD2    H2 4735   0.977   1.557  12.869  1.4008  1.0907  0.0645
  311MPD2    H3 4736   0.762   1.465  12.933  0.2697  0.0074 -1.5301
  311MPD2     N 4737   0.594   1.889  12.981 -0.4520  0.2944 -0.1717
  311MPD2    H5 4738   0.619   1.987  12.980 -1.2094  0.4814 -3.0571
  311MPD2    N1 4739   1.045   1.825  12.854  1.0434  0.7498 -0.3200
  311MPD2    H7 4740   1.057   1.926  12.843  3.0021  0.3610 -1.6799
  312TMC3    C1 4741   0.380   1.979  12.940  0.5288  0.2939  0.3995
  312TMC3    C2 4742   0.275   1.962  12.857  0.3488  0.0533  0.2396
  312TMC3    C3 4743   0.192   2.075  12.834  0.1752 -0.1923  0.1875
  312TMC3    C4 4744   0.401   2.095  13.008  0.4899  0.7734  0.2520
  312TMC3    C5 4745   0.323   2.206  12.983  0.3253 -0.3594  0.9619
  312TMC3    C6 4746   0.211   2.191  12.900 -0.4472 -0.6896 -0.4966
  312TMC3     C 4747   0.459   1.862  12.970 -0.3981  0.7059 -0.0934
  312TMC3     O 4748   0.402   1.751  12.953 -0.3714 -0.7294  0.0123
  312TMC3     H 4749   0.254   1.868  12.807  1.6779 -0.7146  1.1264
  312TMC3    H1 4750   0.491   2.106  13.068 -1.3706  0.7091  3.0644
  312TMC3    H2 4751   0.144   2.275  12.885  0.9774  0.3060 -1.2401
  312TMC3    C7 4752   0.373   2.343  12.985  0.7334  0.6635  0.1421
  312TMC3    C8 4753   0.069   2.048  12.767  0.4217  0.0983 -0.3337
  312TMC3    O1 4754   0.290   2.429  12.960 -0.5964 -0.1649 -0.8234
  312TMC3    O2 4755   0.023   1.937  12.781 -0.9685  0.7299 -0.3021
  313MPD2     C 4756   4.438   0.927  10.859  0.0995 -0.3192  0.5343
  313MPD2    C1 4757   4.541   0.940  10.763  0.6683  0.0926  0.4412
  313MPD2    C2 4758   4.549   0.851  10.662  0.0987  0.4027  0.0972
  313MPD2    C3 4759   4.468   0.745  10.660 -0.1069  0.9564  0.2106
  313MPD2    C4 4760   4.373   0.721  10.762 -0.2238  0.3092 -0.6080
  313MPD2    C5 4761   4.362   0.816  10.856 -0.5828 -0.1664  0.0460
  313MPD2     H 4762   4.631   0.872  10.595 -1.1521  0.8409 -1.2952
  313MPD2    H1 4763   4.301   0.640  10.763  0.7747 -0.5689  0.3698
  313MPD2    H2 4764   4.415   0.995  10.941 -0.1685 -0.4969  0.6071
  313MPD2    H3 4765   4.274   0.810  10.919 -2.0798  0.8306 -1.9577
  313MPD2     N 4766   4.502   0.651  10.556 -0.6113  0.0893  0.5156
  313MPD2    H5 4767   4.573   0.668  10.485 -1.7452  0.3428 -0.5453
  313MPD2    N1 4768   4.630   1.054  10.761 -0.3045 -0.3963 -0.9507
  313MPD2    H7 4769   4.704   1.032  10.696  0.4893  1.4070 -0.6483
  314TMC3    C1 4770   4.734   1.257  10.789  0.0909  0.9232  0.0006
  314TMC3    C2 4771   0.059   1.347  10.874  0.0208 -0.7140  0.1163
  314TMC3    C3 4772   0.145   1.441  10.810 -0.2328  0.6279 -0.7419
  314TMC3    C4 4773   0.009   1.254  10.653  0.6180  0.3471  0.4099
  314TMC3    C5 4774   0.086   1.350  10.596 -0.1955 -0.0153  0.1403
  314TMC3    C6 4775   0.142   1.446  10.671  0.4965 -0.1511  0.3939
  314TMC3     C 4776   4.633   1.170  10.840 -0.2597  0.4113  0.0113
  314TMC3     O 4777   4.557   1.219  10.925  0.7679 -0.0289 -0.1644
  314TMC3     H 4778   0.050   1.346  10.982  1.7983 -0.6378  0.2669
  314TMC3    H1 4779   4.673   1.196  10.596  2.6026 -1.3498 -0.3764
  314TMC3    H2 4780   0.207   1.512  10.614  0.7597 -0.3172  0.4983
  314TMC3    C7 4781   0.078   1.377  10.456  0.6091  0.5283  0.3490
  314TMC3    C8 4782   0.216   1.542  10.875 -0.3620 -0.4942 -0.0976
  314TMC3    O1 4783   0.084   1.492  10.417 -0.8529 -0.4105  0.5427
  314TMC3    O2 4784   0.259   1.632  10.803 -0.2046 -0.4985  1.0328
  315MPD2     C 4785   0.142   0.668  17.520  0.7966 -0.5665  0.1155
  315MPD2    C1 4786   0.209   0.731  17.630  0.0620  0.1119  0.8315
  315MPD2    C2 4787   0.252   0.862  17.614  0.3671 -0.0249 -0.7802
  315MPD2    C3 4788   0.244   0.920  17.487 -0.5976 -0.4438 -0.1274
  315MPD2    C4 4789   0.185   0.858  17.381 -0.2810 -0.3130  0.1574
  315MPD2    C5 4790   0.134   0.735  17.398 -0.4830 -0.4437  0.0288
  315MPD2     H 4791   0.298   0.913  17.698 -1.3190 -1.9155  1.2902
  315MPD2    H1 4792   0.184   0.905  17.283  1.3000  0.0879  0.3377
  315MPD2    H2 4793   0.097   0.569  17.523 -1.7847  0.6324  0.4830
  315MPD2    H3 4794   0.088   0.676  17.320 -0.0340  0.9782 -1.3025
  315MPD2     N 4795   0.302   1.046  17.474 -0.3333  0.5691 -0.4535
  315MPD2    H5 4796   0.361   1.071  17.553 -1.6054  0.8052  0.4238
  315MPD2    N1 4797   0.228   0.675   0.011 -0.4469  0.2983  0.1184
  315MPD2    H7 4798   0.306   0.714   0.062  0.6230 -2.2902  0.4582
  316TMC3    C1 4799   0.360   1.264  17.407  0.1475 -0.0066  0.7596
  316TMC3    C2 4800   0.458   1.253  17.498 -0.2538 -0.4328 -0.1708
  316TMC3    C3 4801   0.501   1.367  17.560  0.5667  0.8371 -0.0497
  316TMC3    C4 4802   0.305   1.385  17.367  0.2303  0.0678 -0.1682
  316TMC3    C5 4803   0.333   1.495  17.441  0.1919 -0.5701 -0.3673
  316TMC3    C6 4804   0.443   1.487  17.523  0.0123  0.3333 -0.4038
  316TMC3     C 4805   0.284   1.142  17.374  0.2678 -1.1766 -0.2576
  316TMC3     O 4806   0.199   1.136  17.284  0.0662  0.2304  0.0765
  316TMC3     H 4807   0.511   1.161  17.517  2.7969  1.7031  1.6941
  316TMC3    H1 4808   0.221   1.378  17.299  1.2663 -0.3522 -1.4075
  316TMC3    H2 4809   0.472   1.580  17.570 -0.8895  0.4247 -0.0242
  316TMC3    C7 4810   0.288   1.630  17.406 -0.4421 -0.1120 -0.1481
  316TMC3    C8 4811   0.596   1.359  17.672  0.3828 -0.3594  0.2728
  316TMC3    O1 4812   0.305   1.717  17.488 -0.4688  0.5558 -0.2122
  316TMC3    O2 4813   0.638   1.467  17.705  0.2494  0.4217  0.4353
  317MPD2     C 4814   2.293   3.840  12.909  0.4954  0.8175  0.2408
  317MPD2    C1 4815   2.348   3.711  12.875 -0.1616 -0.0388 -0.1078
  317MPD2    C2 4816   2.389   3.637  12.980  0.4390  0.2352  0.3824
  317MPD2    C3 4817   2.363   3.674  13.110  0.0405  0.9486 -0.0881
  317MPD2    C4 4818   2.300   3.794  13.137 -0.6142 -0.0889 -0.0053
  317MPD2    C5 4819   2.269   3.877  13.034 -0.1484  0.5360  0.7095
  317MPD2     H 4820   2.439   3.542  12.961  0.3800  0.0143  1.3365
  317MPD2    H1 4821   2.274   3.824  13.238 -0.6757  0.6160 -0.2289
  317MPD2    H2 4822   2.256   3.905  12.831  1.3923  1.3768  0.2840
  317MPD2    H3 4823   2.235   3.978  13.056  2.1458  1.1443  1.5093
  317MPD2     N 4824   2.410   3.587  13.210 -0.1671 -0.1294 -0.3731
  317MPD2    H5 4825   2.458   3.502  13.180 -0.2700 -0.9547  1.7825
  317MPD2    N1 4826   2.376   3.665  12.746 -0.7687  0.1657  0.5860
  317MPD2    H7 4827   2.425   3.577  12.737  0.9142  1.0814  0.8341
  318TMC3    C1 4828   2.453   3.502  13.424  0.1294  0.5292 -0.3791
  318TMC3    C2 4829   2.441   3.375  13.384  0.1643  0.6090 -0.0556
  318TMC3    C3 4830   2.512   3.276  13.452 -0.0375 -0.2478  0.4484
  318TMC3    C4 4831   2.525   3.539  13.537 -0.3194  0.5186  0.2092
  318TMC3    C5 4832   2.582   3.437  13.607 -0.0931 -0.0454  0.3855
  318TMC3    C6 4833   2.586   3.314  13.563  0.0404  0.2701  0.1284
  318TMC3     C 4834   2.400   3.610  13.345  0.0395  0.7916 -0.7316
  318TMC3     O 4835   2.354   3.704  13.410 -0.2499  0.2854 -0.2510
  318TMC3     H 4836   2.361   3.341  13.319 -0.5232 -0.4111  1.3097
  318TMC3    H1 4837   2.534   3.643  13.566 -0.3644  1.0053 -1.5438
  318TMC3    H2 4838   2.633   3.233  13.619 -3.1284 -2.8953 -1.7639
  318TMC3    C7 4839   2.670   3.484  13.717 -0.2027  0.5181 -0.1212
  318TMC3    C8 4840   2.505   3.129  13.423 -0.4428 -0.1444 -0.6659
  318TMC3    O1 4841   2.627   3.580  13.777 -0.0758 -0.3834 -0.0063
  318TMC3    O2 4842   2.587   3.058  13.480  0.3968 -0.7535  0.0461
  319MPD2     C 4843   3.078   0.646  16.514 -0.6309  0.6689  0.0272
  319MPD2    C1 4844   3.017   0.550  16.591 -0.1282  0.1382 -0.0625
  319MPD2    C2 4845   2.922   0.472  16.526  0.5165  0.1716 -0.4481
  319MPD2    C3 4846   2.898   0.491  16.388 -0.3153 -0.3730 -0.0109
  319MPD2    C4 4847   2.959   0.586  16.314 -0.1580 -0.2155 -0.0714
  319MPD2    C5 4848   3.057   0.659  16.376  0.3030 -0.1264 -0.2110
  319MPD2     H 4849   2.864   0.405  16.588  2.8271 -0.1925  1.3316
  319MPD2    H1 4850   2.947   0.603  16.208  0.2935  1.0008  0.0727
  319MPD2    H2 4851   3.162   0.705  16.552  1.2791 -0.6820 -2.0997
  319MPD2    H3 4852   3.114   0.725  16.312 -1.2125  0.8465 -0.5493
  319MPD2     N 4853   2.801   0.423  16.309 -0.3226 -0.5004  0.5327
  319MPD2    H5 4854   2.793   0.441  16.210  4.3657 -2.5867 -0.2361
  319MPD2    N1 4855   3.036   0.531  16.732 -0.0340  0.5138  0.3369
  319MPD2    H7 4856   2.983   0.460  16.781  0.3574 -1.0941 -1.5334
  320TMC3    C1 4857   2.626   0.289  16.248 -0.3726  0.1413  0.6381
  320TMC3    C2 4858   2.562   0.373  16.163  0.1229 -0.1542  0.6391
  320TMC3    C3 4859   2.470   0.332  16.064  0.4034  0.5800 -0.1107
  320TMC3    C4 4860   2.593   0.156  16.233 -0.5594 -0.1288 -0.4628
  320TMC3    C5 4861   2.511   0.117  16.141  0.1698  0.3706 -0.2584
  320TMC3    C6 4862   2.447   0.197  16.049  0.1635  0.0721 -0.2023
  320TMC3     C 4863   2.710   0.334  16.354 -0.2169  0.2082  0.0346
  320TMC3     O 4864   2.693   0.279  16.460  0.2861 -0.6103  0.5863
  320TMC3     H 4865   2.581   0.479  16.178 -1.6030 -0.1935  3.0770
  320TMC3    H1 4866   2.645   0.090  16.302 -0.5496  0.0064 -0.3406
  320TMC3    H2 4867   2.367   0.160  15.985 -0.7964  0.8543  0.5413
  320TMC3    C7 4868   2.540   4.722  16.079 -0.2859 -0.9519  0.0373
  320TMC3    C8 4869   2.427   0.427  15.962  0.4881 -0.0975 -0.2084
  320TMC3    O1 4870   2.522   4.716  15.959 -0.0107 -0.4858 -0.1791
  320TMC3    O2 4871   2.440   0.546  15.988  0.4186 -0.1617  0.0108
  321TMC3    C1 4872   3.099   0.589  16.951 -0.4672  0.1801 -0.7172
  321TMC3    C2 4873   3.057   0.467  17.005  0.9926 -0.7549  0.2397
  321TMC3    C3 4874   3.008   0.469  17.137 -0.5118 -0.2481 -0.6547
  321TMC3    C4 4875   3.117   0.693  17.034 -0.0946 -0.3025 -0.0397
  321TMC3    C5 4876   3.058   0.696  17.159  0.1886  0.0628 -0.0104
  321TMC3    C6 4877   2.994   0.583  17.203  0.4008 -0.3156 -0.4690
  321TMC3     C 4878   3.116   0.614  16.807  0.8394 -0.0867 -0.7886
  321TMC3     O 4879   3.174   0.718  16.785 -0.4707  0.3746  0.3378
  321TMC3     H 4880   3.076   0.374  16.952  2.8113 -0.5882  0.5963
  321TMC3    H1 4881   3.165   0.783  16.997 -0.6755  0.6982  1.6373
  321TMC3    H2 4882   2.933   0.588  17.292  0.7799 -0.5978 -0.1938
  321TMC3    C7 4883   3.145   0.745  17.265 -1.0721  0.9284  0.6302
  321TMC3    C8 4884   3.055   0.362  17.221  0.1007  0.8216 -0.5055
  321TMC3    O1 4885   3.128   0.691  17.374  0.2334 -0.5103 -0.6109
  321TMC3    O2 4886   3.067   0.249  17.178 -0.0253 -0.1127  0.2596
  322MPD2     C 4887   2.031   1.439  13.479  0.7989 -0.0548 -0.1458
  322MPD2    C1 4888   2.035   1.396  13.617  0.9147  0.4198  0.2832
  322MPD2    C2 4889   2.010   1.266  13.648  0.6287 -0.8901 -0.1721
  322MPD2    C3 4890   1.995   1.168  13.550  0.0411 -0.6842 -0.4701
  322MPD2    C4 4891   1.992   1.204  13.425  0.0195  0.5709  0.8854
  322MPD2    C5 4892   2.011   1.332  13.392 -0.0717  0.1747  0.1898
  322MPD2     H 4893   1.998   1.219  13.744 -0.9527  0.2997  0.2306
  322MPD2    H1 4894   1.980   1.136  13.341 -1.4203  1.4313  0.4113
  322MPD2    H2 4895   2.049   1.540  13.445  0.7616  0.2035  0.6025
  322MPD2    H3 4896   2.004   1.364  13.289  1.2582 -0.6604 -0.1680
  322MPD2     N 4897   1.984   1.032  13.594 -0.1662 -0.1779 -0.0532
  322MPD2    H5 4898   1.983   1.010  13.694  0.4097 -0.0000 -0.0049
  322MPD2    N1 4899   2.055   1.485  13.716  0.6286 -0.3087 -0.0527
  322MPD2    H7 4900   2.024   1.456  13.808 -0.6326 -0.6612 -0.5910
  323TMC3    C1 4901   2.131   1.687  13.827 -0.9624  0.2436  0.5621
  323TMC3    C2 4902   2.248   1.769  13.824  0.1262  1.3392 -0.0531
  323TMC3    C3 4903   2.290   1.816  13.947  0.0674  0.6127  0.0663
  323TMC3    C4 4904   2.067   1.649  13.948 -0.6503 -0.0819  0.4362
  323TMC3    C5 4905   2.120   1.706  14.060  0.3142 -0.1462  0.0763
  323TMC3    C6 4906   2.230   1.785  14.062  0.3592 -0.5887  0.6978
  323TMC3     C 4907   2.111   1.614  13.700 -0.0505  0.2032  0.5938
  323TMC3     O 4908   2.167   1.662  13.604  1.0087  0.0393 -0.0582
  323TMC3     H 4909   2.294   1.806  13.733 -2.0530  3.4527 -0.2857
  323TMC3    H1 4910   1.984   1.578  13.942 -1.2145  0.6944 -0.9252
  323TMC3    H2 4911   2.260   1.820  14.160  0.9832  3.0754 -0.8299
  323TMC3    C7 4912   2.081   1.639  14.193 -1.3187 -0.2850  0.0428
  323TMC3    C8 4913   2.432   1.845  13.964  0.3807  0.2423  0.6587
  323TMC3    O1 4914   2.035   1.529  14.181 -0.8269  0.3212  0.4353
  323TMC3    O2 4915   2.474   1.872  14.076 -0.1423 -0.2109  0.0140
  324MPD2     C 4916   3.808   2.711  14.440 -0.7857  0.4677  0.1890
  324MPD2    C1 4917   3.721   2.805  14.497  0.1117 -0.3678 -0.0207
  324MPD2    C2 4918   3.605   2.823  14.429  0.6469 -0.2702 -0.4171
  324MPD2    C3 4919   3.557   2.747  14.327  0.0571 -0.2778 -0.1510
  324MPD2    C4 4920   3.642   2.661  14.267  0.0475 -0.2393  1.3132
  324MPD2    C5 4921   3.770   2.647  14.319  0.3687  0.1870  0.3475
  324MPD2     H 4922   3.534   2.894  14.469  1.4176  0.6664 -0.7142
  324MPD2    H1 4923   3.608   2.600  14.184 -0.7313 -0.4324  1.7799
  324MPD2    H2 4924   3.913   2.704  14.467 -0.7540 -1.8365 -0.5199
  324MPD2    H3 4925   3.832   2.574  14.270  0.1182  0.6307 -0.6452
  324MPD2     N 4926   3.430   2.761  14.276 -0.7448 -0.1827 -0.6204
  324MPD2    H5 4927   3.392   2.678  14.231 -1.9508 -1.2154  2.2902
  324MPD2    N1 4928   3.757   2.899  14.599  0.4223 -0.0697  0.0691
  324MPD2    H7 4929   3.709   2.987  14.586  2.8857  0.9322 -2.2545
  325TMC3    C1 4930   3.216   2.840  14.256 -0.2616 -0.6249  0.0236
  325TMC3    C2 4931   3.182   2.713  14.221 -0.0913 -0.2747 -0.4299
  325TMC3    C3 4932   3.066   2.691  14.162 -0.4890 -0.4502  0.1754
  325TMC3    C4 4933   3.137   2.945  14.225 -0.3186 -0.2381  0.7462
  325TMC3    C5 4934   3.017   2.918  14.162 -0.0964  0.7215 -0.5569
  325TMC3    C6 4935   2.972   2.788  14.134  0.1759  0.5248 -0.2544
  325TMC3     C 4936   3.347   2.868  14.308  0.6628  0.5420  0.1897
  325TMC3     O 4937   3.373   2.984  14.343  0.2797  0.1242  0.0971
  325TMC3     H 4938   3.241   2.628  14.254  0.0501  0.1677  0.4482
  325TMC3    H1 4939   3.175   3.046  14.240 -2.8463  0.7728  0.2132
  325TMC3    H2 4940   2.884   2.779  14.070  0.0837  0.4449 -0.1168
  325TMC3    C7 4941   2.925   3.027  14.131 -0.0571 -0.1937  0.0810
  325TMC3    C8 4942   3.057   2.575  14.075  0.4571  0.4957 -0.5252
  325TMC3    O1 4943   2.839   3.013  14.042 -0.2418 -0.1910 -0.2121
  325TMC3    O2 4944   3.161   2.521  14.042 -0.8672 -0.1653  0.5445
  326MPD2     C 4945   4.632   3.469  11.356 -1.0592  0.2050  0.0110
  326MPD2    C1 4946   4.690   3.503  11.239 -0.2538 -0.5896 -0.1334
  326MPD2    C2 4947   0.081   3.562  11.235 -0.1186 -0.3754  0.4841
  326MPD2    C3 4948   0.145   3.609  11.347 -0.4665 -0.0108 -0.1043
  326MPD2    C4 4949   0.074   3.584  11.467 -0.0393 -0.4893  0.1745
  326MPD2    C5 4950   4.701   3.506  11.468 -0.0657 -0.0012  0.5050
  326MPD2     H 4951   0.122   3.594  11.140 -0.1551 -0.3567  0.4744
  326MPD2    H1 4952   0.098   3.622  11.565 -2.1418 -0.4949  0.6734
  326MPD2    H2 4953   4.536   3.419  11.360 -1.0045  0.3423  2.4809
  326MPD2    H3 4954   4.657   3.481  11.564  1.1951  0.8593  1.2982
  326MPD2     N 4955   0.263   3.690  11.348 -0.7259  0.0993  0.0030
  326MPD2    H5 4956   0.293   3.725  11.438 -1.7974 -1.6953  1.0648
  326MPD2    N1 4957   4.631   3.480  11.113  0.2544  0.1329 -0.8076
  326MPD2    H7 4958   4.699   3.497  11.038 -0.5139  2.5663 -0.9584
  327TMC3    C1 4959   4.495   3.445  10.941 -0.0864  0.3693 -0.0479
  327TMC3    C2 4960   4.383   3.508  10.891 -0.1557  0.4805 -0.0955
  327TMC3    C3 4961   4.397   3.589  10.779 -0.0795  0.2387 -1.2109
  327TMC3    C4 4962   4.611   3.438  10.872 -0.3237 -0.0276 -0.0287
  327TMC3    C5 4963   4.620   3.507  10.752 -0.3855  0.4579 -0.5427
  327TMC3    C6 4964   4.519   3.589  10.717 -0.7264  0.3013  0.1915
  327TMC3     C 4965   4.507   3.441  11.085  0.3600  0.7164 -0.1421
  327TMC3     O 4966   4.407   3.453  11.150 -0.1183  0.2282  0.5273
  327TMC3     H 4967   4.296   3.510  10.955 -0.3406 -0.3434 -0.3291
  327TMC3    H1 4968   4.691   3.368  10.897  0.9968  1.2708 -0.6500
  327TMC3    H2 4969   4.541   3.663  10.641 -0.9919  0.2332  0.0504
  327TMC3    C7 4970   0.014   3.550  10.701  0.0095  0.2105 -0.0892
  327TMC3    C8 4971   4.304   3.705  10.771  0.1058  0.4338  0.8695
  327TMC3    O1 4972   0.014   3.625  10.602  0.0133  0.0912 -0.1502
  327TMC3    O2 4973   4.299   3.771  10.665  0.4399  0.0894 -0.2549
  328MPD2     C 4974   2.495   3.512  17.174 -0.3788  0.5735 -0.6262
  328MPD2    C1 4975   2.450   3.471  17.047  0.9828 -0.2682 -0.1353
  328MPD2    C2 4976   2.459   3.562  16.938  0.0101  0.5659 -1.0716
  328MPD2    C3 4977   2.505   3.693  16.966  0.0342 -0.2219 -0.9275
  328MPD2    C4 4978   2.563   3.718  17.089  0.3605 -0.3823 -0.1855
  328MPD2    C5 4979   2.559   3.628  17.189  0.1427  0.3615  0.2663
  328MPD2     H 4980   2.413   3.533  16.845 -1.3671  1.8448 -0.8016
  328MPD2    H1 4981   2.608   3.817  17.096  1.0815 -0.7158 -0.1684
  328MPD2    H2 4982   2.483   3.453  17.265  0.2379  1.6492  0.1564
  328MPD2    H3 4983   2.613   3.651  17.280  1.4779  1.3986 -0.7763
  328MPD2     N 4984   2.467   3.810  16.892  0.7359  0.1146  0.0692
  328MPD2    H5 4985   2.473   3.902  16.933 -0.5092  0.1389  0.1898
  328MPD2    N1 4986   2.389   3.349  17.028  0.1482  0.1307  0.4013
  328MPD2    H7 4987   2.349   3.333  16.936 -1.4197  0.0367  1.0974
  329TMC3    C1 4988   2.248   3.183  17.063 -0.6081 -0.1980  0.2407
  329TMC3    C2 4989   2.123   3.197  17.116  0.4210  0.0149  0.1670
  329TMC3    C3 4990   2.010   3.150  17.049  0.0189 -0.1725  0.1294
  329TMC3    C4 4991   2.263   3.114  16.951  0.1817  0.0166  0.6192
  329TMC3    C5 4992   2.155   3.059  16.898 -0.3938  0.1613  0.2268
  329TMC3    C6 4993   2.023   3.074  16.938 -0.0192 -0.0227 -0.2520
  329TMC3     C 4994   2.363   3.250  17.117 -0.2794 -0.6109  0.2950
  329TMC3     O 4995   2.383   3.244  17.236 -0.5347 -0.0052  0.2198
  329TMC3     H 4996   2.118   3.264  17.201 -0.1411  0.4102 -0.1715
  329TMC3    H1 4997   2.359   3.079  16.915 -1.2265 -0.3252 -2.9094
  329TMC3    H2 4998   1.948   3.030  16.873  0.7601 -1.1894 -0.3729
  329TMC3    C7 4999   2.173   2.963  16.785  0.5006 -0.4738  0.8357
  329TMC3    C8 5000   1.884   3.215  17.070  0.5237 -0.0379 -0.4940
  329TMC3    O1 5001   2.085   2.875  16.781 -0.6453 -0.8226 -0.8840
  329TMC3    O2 5002   1.782   3.160  17.031 -0.4143 -0.1832  0.3970
  330TMC3    C1 5003   4.242   2.966   9.317  0.7159  0.6166 -0.1503
  330TMC3    C2 5004   4.123   2.898   9.341  0.0109  0.4583  0.1958
  330TMC3    C3 5005   4.131   2.768   9.388 -0.6606 -0.0623 -0.6350
  330TMC3    C4 5006   4.365   2.910   9.346 -0.3546 -0.7265  0.7968
  330TMC3    C5 5007   4.368   2.782   9.391 -1.0412  0.0363 -0.1154
  330TMC3    C6 5008   4.253   2.706   9.416  0.1219 -0.3701  1.0317
  330TMC3     C 5009   4.233   3.076   9.228 -0.1626 -0.0331 -0.0163
  330TMC3     O 5010   4.324   3.090   9.148  0.7476 -0.0011 -0.5806
  330TMC3     H 5011   4.033   2.939   9.297 -0.7489 -0.3445  1.0092
  330TMC3    H1 5012   4.455   2.968   9.328 -0.1133 -2.6219 -3.8825
  330TMC3    H2 5013   4.263   2.600   9.438  0.0682 -0.3063  1.3577
  330TMC3    C7 5014   4.496   2.734   9.452  0.0569 -0.0536  0.0523
  330TMC3    C8 5015   4.009   2.693   9.382  0.6706 -0.0482 -0.8735
  330TMC3    O1 5016   4.493   2.634   9.525 -0.1784  0.2173  0.5746
  330TMC3    O2 5017   3.924   2.737   9.306  0.0919  0.4553 -0.5199
  331MPD2     C 5018   2.830   2.378  12.753  0.7086 -0.0834  0.5673
  331MPD2    C1 5019   2.944   2.365  12.681 -0.0753  0.2788 -0.2322
  331MPD2    C2 5020   2.962   2.245  12.613  0.2653  0.3163 -0.6649
  331MPD2    C3 5021   2.872   2.142  12.616  0.7761 -0.1187  0.0811
  331MPD2    C4 5022   2.752   2.160  12.689  0.5366  0.5524  0.1692
  331MPD2    C5 5023   2.728   2.276  12.754  0.3612 -0.3629 -0.3934
  331MPD2     H 5024   3.050   2.222  12.554 -0.1037 -0.6531 -0.8305
  331MPD2    H1 5025   2.677   2.083  12.703  0.9515 -0.2425 -1.9768
  331MPD2    H2 5026   2.816   2.466  12.815  0.6585  0.6021 -0.4004
  331MPD2    H3 5027   2.634   2.286  12.808 -0.8096 -0.7914 -2.3511
  331MPD2     N 5028   2.899   2.025  12.545  0.5949 -0.0311  0.6303
  331MPD2    H5 5029   2.983   2.036  12.489 -1.9916  0.0922 -3.2696
  331MPD2    N1 5030   3.040   2.474  12.684  0.4762  0.3086  0.6404
  331MPD2    H7 5031   3.011   2.564  12.721 -0.8039  0.2406 -0.2275
  332TMC3    C1 5032   2.909   1.815  12.468 -0.1669  0.1350 -0.3448
  332TMC3    C2 5033   2.958   1.855  12.349 -0.3746  0.1256 -0.0614
  332TMC3    C3 5034   3.069   1.799  12.299 -0.5274  0.2457  0.4704
  332TMC3    C4 5035   2.968   1.706  12.528  1.3144  1.1083 -0.2068
  332TMC3    C5 5036   3.080   1.658  12.473  0.4057  0.2813  1.4121
  332TMC3    C6 5037   3.141   1.700  12.359  0.4363  0.1507 -0.1802
  332TMC3     C 5038   2.833   1.906  12.555  0.2734  0.0973  0.0892
  332TMC3     O 5039   2.761   1.876  12.647  0.0313 -0.0289 -0.4358
  332TMC3     H 5040   2.922   1.947  12.304  0.8756  0.5751 -0.1631
  332TMC3    H1 5041   2.939   1.686  12.630 -1.6109 -0.8091 -1.4075
  332TMC3    H2 5042   3.221   1.654  12.302 -0.6055 -2.5759  0.5890
  332TMC3    C7 5043   3.157   1.573  12.561 -0.9820  0.0550 -0.0133
  332TMC3    C8 5044   3.114   1.853  12.176 -0.4145  0.4383  0.3386
  332TMC3    O1 5045   3.103   1.489  12.632  0.1290 -0.5075 -0.5315
  332TMC3    O2 5046   3.229   1.826  12.143 -0.2909  0.3159 -0.5152
  333MPD2     C 5047   2.867   1.858  10.714  0.0227  0.0288 -0.0456
  333MPD2    C1 5048   2.991   1.813  10.750  0.2091  0.2313  0.4942
  333MPD2    C2 5049   3.006   1.776  10.881 -0.4209 -0.2240 -0.0444
  333MPD2    C3 5050   2.895   1.785  10.965  0.4333  0.3716 -0.5210
  333MPD2    C4 5051   2.769   1.826  10.928 -0.5779  0.5847  0.1309
  333MPD2    C5 5052   2.754   1.857  10.795 -0.1769 -0.1250  0.6721
  333MPD2     H 5053   3.098   1.733  10.918 -0.4819 -1.0117 -0.8045
  333MPD2    H1 5054   2.682   1.837  10.991 -1.3073  0.2118 -0.8014
  333MPD2    H2 5055   2.854   1.912  10.621  0.9338  1.4255  0.6364
  333MPD2    H3 5056   2.659   1.898  10.763 -0.9924 -1.4673  1.3679
  333MPD2     N 5057   2.925   1.738  11.095  0.1836  0.3069  0.8758
  333MPD2    H5 5058   3.015   1.692  11.103 -0.8981 -2.1163 -0.7279
  333MPD2    N1 5059   3.100   1.798  10.660  0.5145  0.5696 -0.4436
  333MPD2    H7 5060   3.103   1.835  10.565  1.7902 -2.7502 -1.7026
  334TMC3    C1 5061   3.326   1.741  10.599  0.1686  0.0193 -0.1077
  334TMC3    C2 5062   3.434   1.664  10.629 -0.5850  0.8262  0.4313
  334TMC3    C3 5063   3.556   1.703  10.572  0.0334  0.1236 -0.8348
  334TMC3    C4 5064   3.337   1.852  10.526  0.0567 -0.5118 -0.3015
  334TMC3    C5 5065   3.458   1.878  10.467  0.6923  0.8561 -0.2220
  334TMC3    C6 5066   3.565   1.802  10.481 -0.1451 -0.0394 -0.0917
  334TMC3     C 5067   3.214   1.730  10.693  0.1215  0.4612  0.3606
  334TMC3     O 5068   3.237   1.644  10.777 -0.3944 -0.0672 -0.2836
  334TMC3     H 5069   3.446   1.586  10.704 -0.1027 -1.5648 -2.1207
  334TMC3    H1 5070   3.261   1.929  10.514  0.5907  0.3077  1.6611
  334TMC3    H2 5071   3.662   1.819  10.434 -0.3939  1.8356  0.0738
  334TMC3    C7 5072   3.496   2.017  10.449 -0.1920  0.3996 -0.1596
  334TMC3    C8 5073   3.672   1.645  10.621  1.8608  0.2455 -0.1113
  334TMC3    O1 5074   3.603   2.044  10.504  0.4298  0.1425 -0.4622
  334TMC3    O2 5075   3.667   1.529  10.658  0.0658 -0.0029 -0.1053
  335TMC3    C1 5076   2.944   4.301  17.178  0.6379  0.3299  0.4162
  335TMC3    C2 5077   2.908   4.172  17.146  0.2684 -0.3345 -0.1686
  335TMC3    C3 5078   2.998   4.098  17.073  0.4362 -0.6936 -0.2699
  335TMC3    C4 5079   3.064   4.353  17.143 -0.8292  0.1857  0.3542
  335TMC3    C5 5080   3.158   4.270  17.081  0.1614  0.1640  0.2235
  335TMC3    C6 5081   3.122   4.145  17.041  0.6188  0.4336 -0.1977
  335TMC3     C 5082   2.870   4.370  17.288 -0.0987 -0.0540  0.1454
  335TMC3     O 5083   2.912   4.482  17.320  0.3380 -0.2301  0.0621
  335TMC3     H 5084   2.832   4.113  17.196  0.3753  0.4841  0.9797
  335TMC3    H1 5085   3.089   4.454  17.174 -0.8436  0.0261  0.8992
  335TMC3    H2 5086   3.198   4.081  16.997 -0.4694 -2.5981  2.3677
  335TMC3    C7 5087   3.294   4.308  17.061 -0.3197  0.3735 -0.2287
  335TMC3    C8 5088   2.948   3.975  17.023  0.3003 -0.3615 -0.0528
  335TMC3    O1 5089   3.364   4.234  16.996 -0.0340  0.3412  0.2387
  335TMC3    O2 5090   2.854   3.929  17.088 -0.0801  0.2512  0.3841
  336MPD2     C 5091   2.877   1.510  15.755 -0.0189 -0.0520 -0.6246
  336MPD2    C1 5092   2.796   1.423  15.692 -0.3902 -0.0986 -0.0424
  336MPD2    C2 5093   2.745   1.310  15.763 -0.2940  0.0289  1.2104
  336MPD2    C3 5094   2.785   1.282  15.893  0.2752 -0.0668  0.1328
  336MPD2    C4 5095   2.859   1.379  15.952  0.3185 -0.4048  0.3575
  336MPD2    C5 5096   2.909   1.483  15.880 -0.2201 -0.1423  0.0556
  336MPD2     H 5097   2.680   1.242  15.711  1.5145 -0.9919  0.2827
  336MPD2    H1 5098   2.883   1.379  16.058 -0.8068 -1.5022  0.6117
  336MPD2    H2 5099   2.923   1.598  15.712 -1.2297  1.7970  1.8498
  336MPD2    H3 5100   2.978   1.547  15.933 -0.3425 -0.8732  1.1088
  336MPD2     N 5101   2.755   1.165  15.966 -0.6829 -0.7347  0.9108
  336MPD2    H5 5102   2.793   1.145  16.058 -1.4879 -0.2433  1.3487
  336MPD2    N1 5103   2.760   1.434  15.554 -0.4951 -0.7674 -0.3511
  336MPD2    H7 5104   2.687   1.370  15.526 -0.1068 -0.7495 -1.3931
  337TMC3    C1 5105   2.748   1.561  15.338  0.1394 -0.5983 -0.3033
  337TMC3    C2 5106   2.627   1.515  15.314  0.1375  0.1359 -0.6828
  337TMC3    C3 5107   2.533   1.594  15.250 -0.3135 -0.4874  0.1180
  337TMC3    C4 5108   2.790   1.676  15.274  0.4731 -0.1898  0.4341
  337TMC3    C5 5109   2.695   1.755  15.216 -0.6190 -0.0102  0.4787
  337TMC3    C6 5110   2.563   1.720  15.202 -0.6301  0.6637 -0.1002
  337TMC3     C 5111   2.821   1.524  15.458 -0.0006  0.5371 -0.4736
  337TMC3     O 5112   2.936   1.581  15.469  0.4675 -0.0008  0.4929
  337TMC3     H 5113   2.594   1.419  15.351  0.7389  0.4352  0.6421
  337TMC3    H1 5114   2.884   1.729  15.288  0.3295  0.0739  0.4114
  337TMC3    H2 5115   2.488   1.785  15.157 -1.4010  0.2178  0.5305
  337TMC3    C7 5116   2.730   1.895  15.198 -0.2886  0.5422 -1.4339
  337TMC3    C8 5117   2.394   1.556  15.275 -0.8105  0.4798  0.0358
  337TMC3    O1 5118   2.812   1.944  15.274 -0.3904 -0.4742  0.0192
  337TMC3    O2 5119   2.368   1.433  15.278 -0.6073  0.0501  0.0600
  338MPD2     C 5120   2.701   1.474   0.911 -0.6804  0.1076 -0.2237
  338MPD2    C1 5121   2.706   1.475   0.777 -0.5963 -0.3796  0.1527
  338MPD2    C2 5122   2.590   1.488   0.709  0.0708 -0.5648  0.7427
  338MPD2    C3 5123   2.466   1.500   0.773  0.8064 -0.3719 -0.3792
  338MPD2    C4 5124   2.461   1.518   0.903 -0.4558 -0.6902  0.5090
  338MPD2    C5 5125   2.576   1.496   0.972 -0.6392  0.4500 -0.5055
  338MPD2     H 5126   2.583   1.491   0.601  1.4574  4.0531  0.7700
  338MPD2    H1 5127   2.364   1.528   0.950  0.6281  3.0675  1.9603
  338MPD2    H2 5128   2.789   1.468   0.975 -1.0326  0.6017  0.3050
  338MPD2    H3 5129   2.575   1.506   1.080  1.9718 -0.1345 -0.4256
  338MPD2     N 5130   2.348   1.504   0.689 -0.6076  0.7540 -0.7729
  338MPD2    H5 5131   2.359   1.489   0.589 -3.2020 -0.7742 -0.8338
  338MPD2    N1 5132   2.821   1.446   0.699  0.2670  0.6529 -0.0043
  338MPD2    H7 5133   2.806   1.446   0.599 -0.9424  2.3987  0.1882
  339TMC3    C1 5134   2.150   1.410   0.617  0.0640  0.9434 -0.1103
  339TMC3    C2 5135   2.084   1.294   0.632  0.9215 -0.0355 -0.5016
  339TMC3    C3 5136   2.044   1.226   0.521 -0.7541  0.6276 -0.4341
  339TMC3    C4 5137   2.168   1.474   0.496  0.0659  0.0564 -0.3561
  339TMC3    C5 5138   2.108   1.415   0.390 -0.4825  0.6501  0.4162
  339TMC3    C6 5139   2.053   1.283   0.396  0.1208  0.8196 -0.3037
  339TMC3     C 5140   2.231   1.451   0.728 -0.0622 -0.0966 -0.5461
  339TMC3     O 5141   2.200   1.406   0.837  0.2306  0.4722  0.8417
  339TMC3     H 5142   2.080   1.245   0.729 -2.9398 -2.2522 -1.7789
  339TMC3    H1 5143   2.204   1.576   0.482 -1.7347  0.6705 -0.4949
  339TMC3    H2 5144   2.016   1.229   0.310  0.9098  1.2587 -0.9123
  339TMC3    C7 5145   2.167   1.457   0.269 -0.6554 -0.3425 -0.1521
  339TMC3    C8 5146   2.062   1.086   0.520 -0.2710  0.7364 -0.0480
  339TMC3    O1 5147   2.192   1.578   0.264 -0.0450  1.0631 -0.3421
  339TMC3    O2 5148   2.076   1.036   0.407  0.2601 -0.4637 -0.1440
  340MPD2     C 5149   2.999   3.281  10.440  0.0323 -0.6475  0.2841
  340MPD2    C1 5150   2.994   3.319  10.306 -0.7949  0.0498  0.6985
  340MPD2    C2 5151   3.023   3.454  10.277 -0.1840  0.5773  0.2558
  340MPD2    C3 5152   3.054   3.543  10.378  0.3585  0.2539 -0.0498
  340MPD2    C4 5153   3.043   3.505  10.507 -0.8563 -0.1392 -0.3066
  340MPD2    C5 5154   3.026   3.373  10.536 -1.1334 -0.0206 -0.1585
  340MPD2     H 5155   3.011   3.500  10.180  0.3510  0.1453 -0.0128
  340MPD2    H1 5156   3.075   3.574  10.584  2.0352 -0.0471 -1.6138
  340MPD2    H2 5157   2.981   3.179  10.472 -2.8641  0.0021  0.6549
  340MPD2    H3 5158   3.044   3.333  10.635  1.2453  2.1445  0.2873
  340MPD2     N 5159   3.102   3.673  10.357 -0.6291 -0.0032  0.1714
  340MPD2    H5 5160   3.130   3.728  10.437 -0.4487  0.8729 -0.4971
  340MPD2    N1 5161   2.965   3.224  10.212  0.2672 -0.5783 -0.0031
  340MPD2    H7 5162   2.953   3.127  10.241 -0.1985  0.1924  2.4479
  341TMC3    C1 5163   2.923   3.121  10.009 -0.2297 -0.3475 -0.0675
  341TMC3    C2 5164   2.839   3.121   9.900 -0.0616 -0.5137 -0.0007
  341TMC3    C3 5165   2.843   3.018   9.810 -0.4494 -0.5333 -0.0489
  341TMC3    C4 5166   3.007   3.016  10.035  0.4242 -0.3964  0.4652
  341TMC3    C5 5167   2.993   2.907   9.952 -0.1330  0.2781  0.1672
  341TMC3    C6 5168   2.920   2.913   9.833  0.0386 -0.1537 -0.0258
  341TMC3     C 5169   2.938   3.246  10.083 -0.3166 -0.2501  0.1678
  341TMC3     O 5170   2.926   3.349  10.022 -0.2214 -0.6308  0.5146
  341TMC3     H 5171   2.783   3.209   9.867 -0.4804 -0.6921  0.2330
  341TMC3    H1 5172   3.078   3.014  10.117 -0.9446 -2.0705  1.6070
  341TMC3    H2 5173   2.923   2.824   9.770 -0.3637  0.4489 -0.8928
  341TMC3    C7 5174   3.087   2.795   9.970 -0.1091  0.2351  0.0251
  341TMC3    C8 5175   2.717   2.983   9.744 -0.2100  0.6798  0.4674
  341TMC3    O1 5176   3.134   2.777  10.080  0.6991 -0.1550  0.5470
  341TMC3    O2 5177   2.732   2.898   9.656 -0.2458 -0.0050 -0.0491
  342MPD2     C 5178   1.026   2.239  17.549 -0.5978 -0.1344  0.2809
  342MPD2    C1 5179   1.135   2.264  17.468 -0.4705 -0.9171  0.7465
  342MPD2    C2 5180   1.183   2.396  17.450 -0.2988  0.5349 -0.2613
  342MPD2    C3 5181   1.116   2.501  17.509  0.0750 -0.6624  0.3069
  342MPD2    C4 5182   1.000   2.478  17.583 -0.8109 -0.8941 -0.1501
  342MPD2    C5 5183   0.962   2.349  17.604  0.2740  0.4128 -0.2461
  342MPD2     H 5184   1.266   2.412  17.382  0.8430 -0.1657  0.9462
  342MPD2    H1 5185   0.943   2.558  17.629  1.1527  1.6728 -2.1735
  342MPD2    H2 5186   0.984   2.143  17.578 -0.5229 -0.0379  0.7077
  342MPD2    H3 5187   0.877   2.336  17.670  0.2564 -1.4973 -0.6483
  342MPD2     N 5188   1.155   2.639  17.493  0.2755  0.1921 -0.2089
  342MPD2    H5 5189   1.098   2.706  17.543 -0.5422 -0.5456 -0.1506
  342MPD2    N1 5190   1.190   2.159  17.392 -0.2931 -0.4127 -0.2875
  342MPD2    H7 5191   1.264   2.189  17.329 -0.2204 -3.8630 -1.8333
  343TMC3    C1 5192   1.247   1.934  17.336  0.5717 -0.3408 -0.6796
  343TMC3    C2 5193   1.274   1.962  17.204 -0.0038  0.0625 -0.8062
  343TMC3    C3 5194   1.303   1.863  17.122  0.5432 -0.4307  0.1092
  343TMC3    C4 5195   1.237   1.806  17.377 -0.2726 -0.5615 -0.7365
  343TMC3    C5 5196   1.248   1.706  17.285 -0.4205 -0.4036  0.0974
  343TMC3    C6 5197   1.291   1.731  17.158  0.1826 -0.1852  0.5141
  343TMC3     C 5198   1.166   2.024  17.415 -0.4136  0.5649  0.3060
  343TMC3     O 5199   1.108   1.976  17.509 -0.1988  0.5564 -0.3152
  343TMC3     H 5200   1.274   2.059  17.155  4.9564  0.7000  0.4208
  343TMC3    H1 5201   1.214   1.788  17.481  2.3473  0.5305  0.0088
  343TMC3    H2 5202   1.290   1.650  17.086 -3.0069  0.1707  0.1356
  343TMC3    C7 5203   1.214   1.573  17.319  0.6141 -0.2106  0.8343
  343TMC3    C8 5204   1.355   1.899  16.994 -0.0260  0.4054 -0.0752
  343TMC3    O1 5205   1.259   1.482  17.252  0.1440  0.0265  0.3625
  343TMC3    O2 5206   1.344   2.018  16.956  0.0021 -0.2139 -0.2561
  344MPD2     C 5207   1.379   0.953  10.611  0.6330  0.4239  0.6303
  344MPD2    C1 5208   1.272   0.924  10.526  0.0991 -0.5956 -0.0645
  344MPD2    C2 5209   1.255   1.002  10.412  0.5001 -0.3002  0.5223
  344MPD2    C3 5210   1.342   1.107  10.390 -0.0202 -0.0564 -0.0940
  344MPD2    C4 5211   1.449   1.126  10.475  1.0511  0.0069  0.0737
  344MPD2    C5 5212   1.468   1.055  10.585 -0.2932 -0.5032 -0.4848
  344MPD2     H 5213   1.170   0.996  10.346  2.1536  2.3846 -1.8536
  344MPD2    H1 5214   1.515   1.211  10.459  1.8908 -0.6785 -0.1329
  344MPD2    H2 5215   1.410   0.899  10.700  0.6819  2.7478  2.0524
  344MPD2    H3 5216   1.560   1.061  10.641 -0.1283  0.1624 -0.8306
  344MPD2     N 5217   1.321   1.193  10.280 -0.4604  0.8966 -0.4936
  344MPD2    H5 5218   1.385   1.271  10.277  0.4717  0.1671  0.5495
  344MPD2    N1 5219   1.179   0.815  10.545  0.7718  0.1719 -0.1684
  344MPD2    H7 5220   1.122   0.788  10.466 -0.9899 -0.2958  1.2633
  345TMC3    C1 5221   1.245   1.295  10.079 -0.6608 -0.1699  0.1867
  345TMC3    C2 5222   1.375   1.351  10.060 -0.1028  0.4696  0.8394
  345TMC3    C3 5223   1.381   1.470   9.993  0.6328 -0.3123 -0.2373
  345TMC3    C4 5224   1.133   1.358  10.029  0.5110  0.1584 -0.3977
  345TMC3    C5 5225   1.145   1.476   9.957 -1.0054 -0.4444 -0.4853
  345TMC3    C6 5226   1.268   1.534   9.951 -0.0549  0.1880  0.8290
  345TMC3     C 5227   1.221   1.193  10.183 -0.1737  0.5528  0.2459
  345TMC3     O 5228   1.117   1.125  10.169  0.6476  0.4007  0.3474
  345TMC3     H 5229   1.469   1.308  10.093 -0.1996  1.1211  1.9364
  345TMC3    H1 5230   1.033   1.320  10.046  1.1853 -1.6459 -0.5009
  345TMC3    H2 5231   1.285   1.628   9.899 -0.5431 -0.6166 -0.7671
  345TMC3    C7 5232   1.028   1.545   9.917  0.5134  0.3223  0.3428
  345TMC3    C8 5233   1.499   1.557  10.016  0.1211  0.0479 -0.3852
  345TMC3    O1 5234   0.934   1.470   9.899  0.1401 -0.0635 -0.0700
  345TMC3    O2 5235   1.545   1.551  10.130  0.1811  0.4671  0.1185
  346MPD2     C 5236   2.300   2.646  14.367  1.0158 -0.2779  0.7113
  346MPD2    C1 5237   2.340   2.762  14.303  0.1978  0.3207 -0.3032
  346MPD2    C2 5238   2.400   2.862  14.387  0.4572 -0.1230  0.5678
  346MPD2    C3 5239   2.403   2.851  14.528  0.8031  0.3789 -0.5592
  346MPD2    C4 5240   2.359   2.732  14.580 -0.1644  0.2535  0.3511
  346MPD2    C5 5241   2.313   2.632  14.501  0.1761 -0.2158  0.9338
  346MPD2     H 5242   2.428   2.957  14.343 -0.1894 -1.3040 -2.3840
  346MPD2    H1 5243   2.363   2.701  14.684 -1.1319 -0.9799  0.0182
  346MPD2    H2 5244   2.271   2.555  14.316 -1.2523 -0.3054  2.0439
  346MPD2    H3 5245   2.277   2.539  14.543  1.4236 -1.8752 -1.6625
  346MPD2     N 5246   2.451   2.959  14.609 -0.0652 -0.1273 -0.8000
  346MPD2    H5 5247   2.486   3.043  14.562  2.4496  0.1440  1.5567
  346MPD2    N1 5248   2.332   2.791  14.167  0.0660 -0.3815  0.7863
  346MPD2    H7 5249   2.375   2.877  14.134 -2.1088  0.9968  1.5521
  347TMC3    C1 5250   2.506   3.078  14.809 -0.2428  0.3446  0.2806
  347TMC3    C2 5251   2.518   3.185  14.722  1.1896 -0.6253  0.6329
  347TMC3    C3 5252   2.612   3.275  14.764 -0.6913 -0.0423 -0.0292
  347TMC3    C4 5253   2.559   3.069  14.932  0.1793  0.3209  0.3668
  347TMC3    C5 5254   2.642   3.173  14.974 -0.2539  0.0105  0.1954
  347TMC3    C6 5255   2.674   3.277  14.884 -0.0015 -0.4139  0.8229
  347TMC3     C 5256   2.443   2.960  14.746 -0.0260 -0.3265  0.7678
  347TMC3     O 5257   2.408   2.872  14.827  0.5499 -0.2201  0.5674
  347TMC3     H 5258   2.457   3.214  14.637 -0.9025 -0.3177  2.2584
  347TMC3    H1 5259   2.542   2.980  14.992  0.8218 -0.4975 -0.6680
  347TMC3    H2 5260   2.754   3.347  14.902  0.1456 -0.2851 -0.3152
  347TMC3    C7 5261   2.718   3.151  15.090 -1.0782  0.2822  0.3463
  347TMC3    C8 5262   2.697   3.310  14.659 -0.3216 -0.6171  0.1772
  347TMC3    O1 5263   2.663   3.071  15.163  0.7136  0.1706  0.4137
  347TMC3    O2 5264   2.810   3.269  14.686  0.2650 -0.4418  0.0549
  348MPD2     C 5265   0.714   2.566  12.292 -0.5151 -1.0408  0.2057
  348MPD2    C1 5266   0.829   2.555  12.221 -0.7410 -0.2198 -0.2859
  348MPD2    C2 5267   0.844   2.610  12.092 -0.4726 -0.3551  0.3817
  348MPD2    C3 5268   0.732   2.673  12.040 -0.4667 -0.0541 -0.1416
  348MPD2    C4 5269   0.614   2.683  12.109  0.0827 -0.4303  0.0956
  348MPD2    C5 5270   0.611   2.629  12.237  0.0077 -0.1469  0.6678
  348MPD2     H 5271   0.938   2.603  12.039  0.2774  1.9026  1.4087
  348MPD2    H1 5272   0.520   2.718  12.067 -0.0722 -0.5975  0.3038
  348MPD2    H2 5273   0.695   2.519  12.388  0.5082 -1.7207  0.0740
  348MPD2    H3 5274   0.520   2.628  12.295 -0.0644 -1.0452  0.5437
  348MPD2     N 5275   0.751   2.742  11.920 -0.5267  0.2337 -0.4341
  348MPD2    H5 5276   0.844   2.735  11.880  0.8845 -0.3314  2.8821
  348MPD2    N1 5277   0.941   2.479  12.264 -1.1124  0.5548 -0.0165
  348MPD2    H7 5278   1.026   2.483  12.209 -0.4172 -0.1075  1.0096
  349TMC3    C1 5279   1.032   2.261  12.315 -0.4499  0.6832 -0.0111
  349TMC3    C2 5280   0.995   2.152  12.392  0.2616 -0.6011  0.1366
  349TMC3    C3 5281   0.948   2.040  12.331  1.3142  0.4245  0.1909
  349TMC3    C4 5282   1.043   2.250  12.180  0.0779 -0.4869  0.4201
  349TMC3    C5 5283   0.989   2.133  12.124 -0.3188  0.1809 -0.1604
  349TMC3    C6 5284   0.938   2.023  12.198 -0.3082 -0.2758 -0.0413
  349TMC3     C 5285   0.943   2.378  12.359 -0.2765 -0.6161 -0.4974
  349TMC3     O 5286   0.863   2.350  12.444 -0.3507  0.6257 -0.0185
  349TMC3     H 5287   1.011   2.158  12.499 -0.0623 -2.3565  0.2934
  349TMC3    H1 5288   1.079   2.332  12.120 -2.7427  0.3087 -0.1839
  349TMC3    H2 5289   0.893   1.938  12.147 -0.0786 -0.7466  0.5492
  349TMC3    C7 5290   0.931   2.143  11.991  0.2264  0.0213 -0.2912
  349TMC3    C8 5291   0.945   1.920  12.410 -0.6279  0.0110 -0.1942
  349TMC3    O1 5292   0.864   2.046  11.945 -0.4386 -0.0705  0.9527
  349TMC3    O2 5293   1.010   1.919  12.514  0.1578 -0.0376  0.2077
  350MPD2     C 5294   4.064   0.247   9.670  0.1308  0.4004 -0.0947
  350MPD2    C1 5295   4.181   0.185   9.715 -0.2115 -0.7506  0.1434
  350MPD2    C2 5296   4.224   0.203   9.845 -0.5881  0.4336 -0.0455
  350MPD2    C3 5297   4.158   0.286   9.937  0.9753  0.3039  1.0125
  350MPD2    C4 5298   4.051   0.352   9.890 -0.3040 -0.4292 -0.0623
  350MPD2    C5 5299   4.003   0.332   9.762  0.2469 -0.1237  0.1110
  350MPD2     H 5300   4.315   0.153   9.877  1.1719  1.5637 -3.3222
  350MPD2    H1 5301   3.997   0.415   9.960 -0.2779  0.5396 -0.9010
  350MPD2    H2 5302   4.003   0.244   9.580  1.5857  0.7235 -1.0828
  350MPD2    H3 5303   3.901   0.362   9.743  0.0916 -0.9704 -0.3815
  350MPD2     N 5304   4.217   0.303  10.066  0.7711 -0.1903  0.2077
  350MPD2    H5 5305   4.272   0.223  10.093  0.4802 -0.7269 -0.7769
  350MPD2    N1 5306   4.253   0.104   9.632 -0.0995  0.0704 -0.5465
  350MPD2    H7 5307   4.336   0.061   9.672 -1.0650 -0.7660  0.5651
  351TMC3    C1 5308   4.292   4.706   9.438 -0.1959  0.4123 -0.0560
  351TMC3    C2 5309   4.420   4.679   9.476 -0.7577  0.4302  0.1952
  351TMC3    C3 5310   4.495   4.597   9.394  0.7538  0.2096 -0.1476
  351TMC3    C4 5311   4.239   4.646   9.325 -0.2501 -0.5476 -0.2592
  351TMC3    C5 5312   4.314   4.559   9.250 -0.1219 -0.1312  0.5839
  351TMC3    C6 5313   4.440   4.533   9.285 -0.0734  0.4983 -0.2446
  351TMC3     C 5314   4.204   0.053   9.514  0.8342  0.1169  0.0021
  351TMC3     O 5315   4.098   0.075   9.457 -1.1210  0.0600  0.8449
  351TMC3     H 5316   4.461   4.712   9.571  0.4418 -0.2031 -0.1088
  351TMC3    H1 5317   4.132   4.653   9.308 -0.1794  0.4548 -0.3142
  351TMC3    H2 5318   4.501   4.462   9.230 -0.5979 -0.3848  0.3027
  351TMC3    C7 5319   4.258   4.522   9.115  0.3512 -0.3271  0.0451
  351TMC3    C8 5320   4.595   4.521   9.473  0.5156  0.8988 -0.2419
  351TMC3    O1 5321   4.156   4.587   9.091 -0.1651  0.3425 -0.1396
  351TMC3    O2 5322   4.589   4.404   9.448 -0.3200 -0.3280  0.0505
  352MPD2     C 5323   3.642   3.496   0.662  0.2395  0.6616  0.4743
  352MPD2    C1 5324   3.532   3.456   0.735  0.3642  0.0136  0.1972
  352MPD2    C2 5325   3.513   3.312   0.738 -0.2531  0.7219 -0.3268
  352MPD2    C3 5326   3.600   3.220   0.683  0.3674 -0.5843  0.2391
  352MPD2    C4 5327   3.714   3.266   0.623 -0.0940 -0.5866 -0.1268
  352MPD2    C5 5328   3.733   3.404   0.608 -0.0462 -1.1554 -0.3512
  352MPD2     H 5329   3.426   3.273   0.790  0.0985  0.4915  0.0861
  352MPD2    H1 5330   3.797   3.204   0.591 -1.3257 -2.8590  1.1438
  352MPD2    H2 5331   3.655   3.597   0.626 -0.4536  0.4485 -0.3941
  352MPD2    H3 5332   3.824   3.437   0.560  0.1989 -3.3082 -1.3724
  352MPD2     N 5333   3.587   3.079   0.692 -0.1285  0.0770  0.0676
  352MPD2    H5 5334   3.653   3.026   0.636 -1.2708 -0.7529 -0.4953
  352MPD2    N1 5335   3.439   3.555   0.788  0.1594  0.0977  0.3603
  352MPD2    H7 5336   3.454   3.654   0.768  0.4674 -0.1093 -0.4309
  353TMC3    C1 5337   3.503   2.866   0.743 -0.3672  0.3836 -0.5999
  353TMC3    C2 5338   3.632   2.812   0.749 -0.0459 -0.1922  0.1497
  353TMC3    C3 5339   3.648   2.676   0.732  0.2296  0.3986 -0.2727
  353TMC3    C4 5340   3.393   2.787   0.726 -0.3623 -0.0214 -0.1780
  353TMC3    C5 5341   3.413   2.651   0.710  0.3492  0.5532  0.0671
  353TMC3    C6 5342   3.540   2.598   0.702  0.0443 -0.6081  0.2514
  353TMC3     C 5343   3.480   3.010   0.746  0.0952  0.1160  0.3612
  353TMC3     O 5344   3.384   3.046   0.810  0.5449  0.4034 -0.4699
  353TMC3     H 5345   3.718   2.875   0.771 -0.6447  0.1728  1.4565
  353TMC3    H1 5346   3.301   2.844   0.715 -0.8638 -0.3394  2.3118
  353TMC3    H2 5347   3.533   2.490   0.690  2.7986 -0.8309  0.6373
  353TMC3    C7 5348   3.297   2.560   0.698 -0.3538 -0.3302  0.3273
  353TMC3    C8 5349   3.785   2.622   0.731  0.0942 -0.3573 -0.0526
  353TMC3    O1 5350   3.307   2.452   0.642  0.5420 -0.1778  0.4437
  353TMC3    O2 5351   3.877   2.691   0.698  0.4757  0.1939  0.1485
  354TMC3    C1 5352   4.381   4.587  13.755 -0.3809  0.1982  0.6542
  354TMC3    C2 5353   4.483   4.658  13.697  0.7049 -0.2352 -0.4408
  354TMC3    C3 5354   4.461   4.710  13.573 -0.0297 -0.1941 -0.8156
  354TMC3    C4 5355   4.280   4.543  13.674  0.3552 -0.2414  0.2325
  354TMC3    C5 5356   4.249   4.607  13.560  0.2429  0.6646  0.2710
  354TMC3    C6 5357   4.337   4.699  13.509  0.8947 -0.1736 -0.5886
  354TMC3     C 5358   4.410   4.517  13.874  0.3110  0.2873 -0.3629
  354TMC3     O 5359   4.409   4.395  13.871 -0.4470 -0.5493  0.1385
  354TMC3     H 5360   4.574   4.688  13.747 -0.0211 -1.7115  1.7855
  354TMC3    H1 5361   4.202   4.489  13.725 -0.0498  0.4965  0.3901
  354TMC3    H2 5362   4.318   4.735  13.409  2.1927 -0.0357 -0.7848
  354TMC3    C7 5363   4.190   4.519  13.465  0.8546  0.2313  0.4160
  354TMC3    C8 5364   4.579   4.684  13.490  0.1590 -0.0297  0.0571
  354TMC3    O1 5365   4.081   4.554  13.422 -0.3630  0.3494  0.0954
  354TMC3    O2 5366   4.685   4.684  13.549 -0.0032  0.0048  0.6522
  355MPD2     C 5367   4.397   4.367  11.690  0.3585 -0.0123 -0.7227
  355MPD2    C1 5368   4.471   4.408  11.577  0.6500 -0.3886  0.3842
  355MPD2    C2 5369   4.599   4.454  11.591 -0.7839  0.3057  0.0013
  355MPD2    C3 5370   4.640   4.481  11.720 -0.4320  0.7284 -0.3053
  355MPD2    C4 5371   4.569   4.443  11.832  0.6810  0.2112  0.7480
  355MPD2    C5 5372   4.444   4.391  11.817  0.4510  0.0945  0.5448
  355MPD2     H 5373   4.658   4.464  11.501 -0.5771 -0.3189  0.0646
  355MPD2    H1 5374   4.604   4.479  11.928 -0.2135 -1.2595  1.6405
  355MPD2    H2 5375   4.299   4.322  11.677  1.1064 -2.1120  0.9202
  355MPD2    H3 5376   4.385   4.353  11.900  0.0111  0.5579  0.4403
  355MPD2     N 5377   0.010   4.568  11.746 -0.0721  0.7991  0.4023
  355MPD2    H5 5378   0.020   4.608  11.838  1.0065  2.5818 -0.4908
  355MPD2    N1 5379   4.402   4.399  11.448 -0.1773  0.3632 -0.2752
  355MPD2    H7 5380   4.309   4.362  11.435 -0.4237  0.5369  1.0633
  356TMC3    C1 5381   0.206   4.683  11.709 -0.4549  0.4480  0.4107
  356TMC3    C2 5382   0.272   0.008  11.609 -0.7510  0.6931 -0.0687
  356TMC3    C3 5383   0.312   0.134  11.638 -0.0495  0.8649 -0.2143
  356TMC3    C4 5384   0.192   0.009  11.831 -0.2038 -0.0560 -0.4905
  356TMC3    C5 5385   0.244   0.127  11.857  0.1218 -0.3317 -0.1529
  356TMC3    C6 5386   0.312   0.190  11.762 -0.0798  0.4203 -0.5879
  356TMC3     C 5387   0.119   4.578  11.661 -0.0262  0.3157  0.6186
  356TMC3     O 5388   0.155   4.512  11.566  0.2322  0.6916 -0.1837
  356TMC3     H 5389   0.291   4.692  11.515  2.9246  0.7706  0.6318
  356TMC3    H1 5390   0.151   4.682  11.909  1.4554 -1.2827 -0.5942
  356TMC3    H2 5391   0.307   0.298  11.752  0.2768  0.6172  1.5533
  356TMC3    C7 5392   0.275   0.153  11.985  0.1757  0.8574  0.4484
  356TMC3    C8 5393   0.343   0.208  11.514  0.5843  0.2618  0.2968
  356TMC3    O1 5394   0.235   0.084  12.079 -0.2313  0.0812 -0.9864
  356TMC3    O2 5395   0.274   0.176  11.420  0.2003  0.1816 -0.1035
  357MPD2     C 5396   4.368   0.288   0.388 -0.5197  0.1839  0.9901
  357MPD2    C1 5397   4.474   0.238   0.458 -0.7343  0.0573 -0.6656
  357MPD2    C2 5398   4.479   0.270   0.596 -0.1304  0.0593 -0.2316
  357MPD2    C3 5399   4.372   0.336   0.659  0.1434  0.1281 -0.0195
  357MPD2    C4 5400   4.278   0.395   0.579 -0.0804 -0.5473  0.3434
  357MPD2    C5 5401   4.275   0.367   0.441 -0.1370  0.2540 -0.2249
  357MPD2     H 5402   4.551   0.212   0.653  0.6038  1.1414 -0.0553
  357MPD2    H1 5403   4.202   0.454   0.628 -0.5623 -1.1121  0.2840
  357MPD2    H2 5404   4.354   0.267   0.282 -1.9702  1.4506  0.9354
  357MPD2    H3 5405   4.196   0.407   0.379 -1.4514  1.0280  1.9296
  357MPD2     N 5406   4.364   0.347   0.799 -1.0045 -0.3154 -0.3115
  357MPD2    H5 5407   4.291   0.411   0.830  0.1267  0.3446  1.0005
  357MPD2    N1 5408   4.567   0.154   0.398  0.0646  0.5539 -0.7822
  357MPD2    H7 5409   4.548   0.153   0.298 -0.3788 -0.2923 -0.6861
  358TMC3    C1 5410   0.048   0.076   0.340 -0.3762  0.7767 -0.4004
  358TMC3    C2 5411   0.008   4.704   0.261 -0.2706 -0.7461 -0.4930
  358TMC3    C3 5412   0.096   4.637   0.178 -0.1798 -0.8523 -0.2150
  358TMC3    C4 5413   0.183   0.104   0.351  0.4436  0.3998  0.5248
  358TMC3    C5 5414   0.268   0.045   0.267 -0.6743  0.0602  0.3066
  358TMC3    C6 5415   0.222   4.689   0.174 -0.0312  0.6101 -0.8084
  358TMC3     C 5416   4.695   0.129   0.441  1.0418  0.1310  0.0987
  358TMC3     O 5417   0.017   0.182   0.536 -0.2878  0.0862 -0.5707
  358TMC3     H 5418   4.641   4.671   0.260 -0.7951  0.8938 -0.3597
  358TMC3    H1 5419   0.212   0.179   0.424  0.4120  3.2562 -2.3902
  358TMC3    H2 5420   0.300   4.624   0.135 -1.0451 -1.8013  1.1817
  358TMC3    C7 5421   0.415   0.056   0.284  0.1320  0.2959  0.4517
  358TMC3    C8 5422   0.037   4.565   0.068 -0.8686 -0.0913  0.5439
  358TMC3    O1 5423   0.478   4.718   0.213 -0.0401 -0.0087  0.4656
  358TMC3    O2 5424   4.650   4.548   0.081  0.0243  0.2686  0.5674
  359MPD2     C 5425   0.353   3.468  12.558  0.1085  0.1429 -0.2056
  359MPD2    C1 5426   0.261   3.368  12.551  0.2835 -0.1844 -0.3516
  359MPD2    C2 5427   0.168   3.357  12.650  0.1799  0.5401 -0.2057
  359MPD2    C3 5428   0.167   3.446  12.752  0.4089 -0.3161 -0.1479
  359MPD2    C4 5429   0.254   3.552  12.755 -0.2866 -0.0227  0.1145
  359MPD2    C5 5430   0.346   3.556  12.659 -0.5779 -0.4286  0.5117
  359MPD2     H 5431   0.094   3.278  12.647 -0.0815  0.7327  1.3558
  359MPD2    H1 5432   0.256   3.622  12.837  1.5938 -0.7853  0.7190
  359MPD2    H2 5433   0.443   3.466  12.498 -0.5962 -1.3473 -1.2162
  359MPD2    H3 5434   0.427   3.623  12.688  0.0551 -1.5375  1.2781
  359MPD2     N 5435   0.079   3.434  12.866  0.1447 -0.3312  0.7533
  359MPD2    H5 5436   0.079   3.505  12.939  1.6503  1.2581 -0.7728
  359MPD2    N1 5437   0.279   3.272  12.447 -0.6520 -0.0229 -0.4180
  359MPD2    H7 5438   0.357   3.283  12.382  1.6157 -0.0044  2.3394
  360TMC3    C1 5439   0.292   3.077  12.337  0.1691 -0.3735  0.4001
  360TMC3    C2 5440   0.427   3.066  12.361 -0.0972  0.1159 -0.1195
  360TMC3    C3 5441   0.513   3.048  12.251 -0.2074 -0.1440 -0.0595
  360TMC3    C4 5442   0.244   3.062  12.211 -0.3848  0.1146 -0.6772
  360TMC3    C5 5443   0.328   3.033  12.109 -0.1579  0.3514  0.3626
  360TMC3    C6 5444   0.465   3.029  12.125 -0.8241 -0.0627  0.7512
  360TMC3     C 5445   0.218   3.148  12.432 -0.0361  0.0499  0.3857
  360TMC3     O 5446   0.138   3.093  12.505  0.6195 -0.2593 -0.0748
  360TMC3     H 5447   0.463   3.099  12.457 -0.5893  1.4456 -0.3949
  360TMC3    H1 5448   0.141   3.087  12.191 -0.9404 -2.4004 -0.9301
  360TMC3    H2 5449   0.535   3.020  12.044 -3.0480 -0.6343 -1.0986
  360TMC3    C7 5450   0.263   3.031  11.979  0.7511  0.7683 -0.7402
  360TMC3    C8 5451   0.647   3.091  12.270 -0.2951  0.5250  0.7318
  360TMC3    O1 5452   0.146   2.986  11.970 -0.1358 -0.6366 -0.1193
  360TMC3    O2 5453   0.667   3.184  12.347 -0.3574  0.1887  0.2516
  361MPD2     C 5454   2.004   2.373  16.747 -0.3241  0.7613 -0.4730
  361MPD2    C1 5455   2.032   2.504  16.758 -0.0191  0.6051 -0.5709
  361MPD2    C2 5456   2.157   2.537  16.802  0.1642  0.6322  1.0383
  361MPD2    C3 5457   2.251   2.435  16.802 -0.3409  0.1888  0.1966
  361MPD2    C4 5458   2.223   2.302  16.775 -0.3555  0.4791 -0.7228
  361MPD2    C5 5459   2.088   2.272  16.757 -0.1451  0.1096 -0.3802
  361MPD2     H 5460   2.178   2.641  16.823  1.9452  0.2996  0.8910
  361MPD2    H1 5461   2.294   2.221  16.791  1.8763  2.0789 -2.6044
  361MPD2    H2 5462   1.904   2.344  16.716  0.0974  0.4115 -1.4899
  361MPD2    H3 5463   2.056   2.169  16.744 -0.3387  0.3966 -2.1802
  361MPD2     N 5464   2.388   2.463  16.824  0.4991  0.3873  0.0266
  361MPD2    H5 5465   2.452   2.385  16.814  1.8534  1.2821  1.7319
  361MPD2    N1 5466   1.943   2.612  16.756 -0.2300  0.4165 -0.2594
  361MPD2    H7 5467   1.990   2.702  16.761  1.1905 -0.3310 -0.4100
  362TMC3    C1 5468   1.750   2.727  16.778  1.1288 -0.2852 -0.1705
  362TMC3    C2 5469   1.665   2.758  16.879 -0.2568 -0.1883 -0.1321
  362TMC3    C3 5470   1.622   2.885  16.893  0.1998 -0.5000 -0.1755
  362TMC3    C4 5471   1.789   2.814  16.685 -0.3626  0.2243 -0.0873
  362TMC3    C5 5472   1.744   2.938  16.697  0.5511 -0.0273  0.0082
  362TMC3    C6 5473   1.663   2.970  16.796  0.3003 -0.0316 -0.2076
  362TMC3     C 5474   1.809   2.599  16.771  0.2774 -0.3544  0.6607
  362TMC3     O 5475   1.742   2.501  16.800  0.3331  0.2990 -0.3453
  362TMC3     H 5476   1.628   2.684  16.949 -0.6915 -0.5624 -0.7565
  362TMC3    H1 5477   1.863   2.789  16.610 -1.2457  0.8673 -1.1711
  362TMC3    H2 5478   1.651   3.075  16.818 -1.5405 -0.0951 -0.9156
  362TMC3    C7 5479   1.790   3.043  16.612  0.0252 -0.2093 -0.0716
  362TMC3    C8 5480   1.508   2.912  16.973 -0.2348  0.0229  0.6886
  362TMC3    O1 5481   1.722   3.145  16.613  0.3750 -0.7917  0.1576
  362TMC3    O2 5482   1.433   2.815  16.982  0.6259  0.0892  0.2657
  363TMC3    C1 5483   0.564   4.196   9.449  0.2521 -0.3784  0.1044
  363TMC3    C2 5484   0.678   4.258   9.491 -0.6127 -0.2025  0.5326
  363TMC3    C3 5485   0.678   4.394   9.497  0.7835 -0.1217 -0.3017
  363TMC3    C4 5486   0.449   4.259   9.431 -0.2526  0.2652 -0.4696
  363TMC3    C5 5487   0.454   4.398   9.434  0.5726 -0.0312  0.6027
  363TMC3    C6 5488   0.565   4.469   9.471  0.1772  0.6972 -0.4215
  363TMC3     C 5489   0.570   4.060   9.408  0.3321 -0.1117 -0.3030
  363TMC3     O 5490   0.462   4.008   9.385 -0.5133  0.4707  0.2474
  363TMC3     H 5491   0.769   4.203   9.513 -0.4287  0.6306  1.8096
  363TMC3    H1 5492   0.354   4.213   9.408 -1.9562  4.0253 -1.0184
  363TMC3    H2 5493   0.566   4.577   9.478 -0.4749  0.6376  0.5661
  363TMC3    C7 5494   0.353   4.467   9.364  1.3971 -0.1350  0.7120
  363TMC3    C8 5495   0.811   4.463   9.485 -0.0582 -0.2063 -0.0613
  363TMC3    O1 5496   0.365   4.586   9.381 -0.3406  0.0361 -0.0284
  363TMC3    O2 5497   0.818   4.561   9.410  0.5248  0.1726 -0.1787
  364MPD2     C 5498   3.935   3.986  10.985 -0.2589 -0.2046 -0.0111
  364MPD2    C1 5499   3.993   3.996  10.862 -0.7578 -0.2796 -0.3595
  364MPD2    C2 5500   4.103   3.915  10.830  0.4416 -0.3272 -0.3404
  364MPD2    C3 5501   4.141   3.817  10.917  0.0172 -0.3884 -0.3508
  364MPD2    C4 5502   4.088   3.814  11.043 -0.5662  0.1444 -0.7597
  364MPD2    C5 5503   3.980   3.891  11.072  0.3143 -0.2101  0.1177
  364MPD2     H 5504   4.150   3.938  10.735  1.2606  0.5868  0.2913
  364MPD2    H1 5505   4.111   3.738  11.118  2.3057 -1.0343 -2.8435
  364MPD2    H2 5506   3.841   4.028  11.018 -0.3690 -0.3807 -0.0991
  364MPD2    H3 5507   3.944   3.883  11.174 -0.1390 -2.7906 -0.2556
  364MPD2     N 5508   4.242   3.728  10.893 -0.0016 -0.0721  0.7332
  364MPD2    H5 5509   4.254   3.659  10.966 -0.2606  0.3618  1.1894
  364MPD2    N1 5510   3.944   4.089  10.772  0.1281  0.5822  0.1249
  364MPD2    H7 5511   3.863   4.143  10.799 -0.6104 -0.8492  0.7661
  365TMC3    C1 5512   3.936   4.238  10.589 -0.1122 -0.0458  0.0330
  365TMC3    C2 5513   3.910   4.248  10.456 -0.1520  0.1483  0.3726
  365TMC3    C3 5514   3.886   4.371  10.409  0.4989 -0.4810  0.5566
  365TMC3    C4 5515   3.926   4.342  10.681 -0.3099  0.1766 -0.7269
  365TMC3    C5 5516   3.906   4.462  10.623  0.1147  0.6362 -0.4040
  365TMC3    C6 5517   3.892   4.476  10.488  0.6849  0.3407  0.0385
  365TMC3     C 5518   3.990   4.113  10.640  0.2918  0.0038  0.1943
  365TMC3     O 5519   4.055   4.045  10.565  0.0251 -0.1021  0.0102
  365TMC3     H 5520   3.884   4.158  10.401  0.7608 -0.4642  0.9538
  365TMC3    H1 5521   3.961   4.332  10.783  2.2963  0.9779 -1.5456
  365TMC3    H2 5522   3.864   4.577  10.459  1.8793  0.6705  0.0708
  365TMC3    C7 5523   3.843   4.564  10.710 -0.6283 -0.3559  0.5613
  365TMC3    C8 5524   3.836   4.393  10.274 -0.1795 -0.8791 -0.2907
  365TMC3    O1 5525   3.814   4.672  10.656 -1.0771  0.2202 -0.1561
  365TMC3    O2 5526   3.776   4.501  10.251 -0.7337 -0.0640  0.1104
  366MPD2     C 5527   2.631   0.154  15.182 -0.0806  0.2099 -0.3665
  366MPD2    C1 5528   2.670   0.280  15.142  0.0272 -0.4145 -0.0265
  366MPD2    C2 5529   2.786   0.288  15.068 -0.0849  0.2360  1.3314
  366MPD2    C3 5530   2.869   0.183  15.038  0.0911 -0.4908  0.2706
  366MPD2    C4 5531   2.818   0.054  15.063 -0.4674  0.7514  0.2175
  366MPD2    C5 5532   2.702   0.043  15.139 -0.5504  0.1499  0.3458
  366MPD2     H 5533   2.799   0.388  15.028  1.7310  0.2664  2.0317
  366MPD2    H1 5534   2.856   4.693  15.029  0.8015  2.0680 -2.1925
  366MPD2    H2 5535   2.542   0.137  15.241 -0.0393 -0.2325 -0.4375
  366MPD2    H3 5536   2.657   4.681  15.155 -1.0688  0.1766 -0.9066
  366MPD2     N 5537   2.994   0.186  14.973 -0.6975  0.2142 -0.7070
  366MPD2    H5 5538   3.034   0.095  14.955 -2.3827 -0.6622  0.0576
  366MPD2    N1 5539   2.606   0.401  15.181 -0.6274  0.0686  0.0823
  366MPD2    H7 5540   2.650   0.491  15.162  2.1672 -1.3117  0.0535
  367TMC3    C1 5541   2.463   0.554  15.262  0.3406  0.0773  0.2501
  367TMC3    C2 5542   2.571   0.625  15.310  0.2836 -0.5455 -0.2991
  367TMC3    C3 5543   2.579   0.765  15.278  0.0022  0.2148  0.1970
  367TMC3    C4 5544   2.365   0.612  15.188  0.2858  0.0894 -1.2025
  367TMC3    C5 5545   2.372   0.747  15.174 -0.5798  0.5123  0.5104
  367TMC3    C6 5546   2.479   0.822  15.206  0.1272 -0.0543 -0.1836
  367TMC3     C 5547   2.490   0.413  15.246  0.1985  0.4936 -0.1234
  367TMC3     O 5548   2.410   0.331  15.281  0.1415  0.0962 -0.4042
  367TMC3     H 5549   2.655   0.589  15.369  1.7662  0.8043 -1.5655
  367TMC3    H1 5550   2.275   0.559  15.157 -0.4843  1.7423 -1.7742
  367TMC3    H2 5551   2.472   0.930  15.210 -0.8682 -0.1467  0.9132
  367TMC3    C7 5552   2.266   0.813  15.102 -0.4230 -0.7169 -0.0706
  367TMC3    C8 5553   2.657   0.840  15.370  0.0552 -0.8716  1.0942
  367TMC3    O1 5554   2.266   0.932  15.083 -0.3728  0.2350  0.0403
  367TMC3    O2 5555   2.668   0.794  15.483  0.4644 -0.3519 -0.1406
  368MPD2     C 5556   4.459   2.138  13.660 -0.1331 -0.3613  0.5076
  368MPD2    C1 5557   4.476   2.243  13.573  0.3218  0.2067 -0.4887
  368MPD2    C2 5558   4.568   2.337  13.605 -0.2829  0.2224  0.5908
  368MPD2    C3 5559   4.621   2.341  13.735  0.8347 -0.7213 -0.4768
  368MPD2    C4 5560   4.592   2.252  13.830 -0.1013  0.0109 -0.3968
  368MPD2    C5 5561   4.515   2.147  13.791  0.1572 -0.0560 -0.4319
  368MPD2     H 5562   4.607   2.411  13.536  0.3524 -0.0162  0.6930
  368MPD2    H1 5563   4.625   2.264  13.932  0.9239  1.3930 -0.8967
  368MPD2    H2 5564   4.382   2.067  13.634  0.3162 -1.2959  1.7508
  368MPD2    H3 5565   4.472   2.074  13.858  2.3513 -0.8114  0.1495
  368MPD2     N 5566   4.700   2.454  13.763 -0.1246 -1.0993 -0.1107
  368MPD2    H5 5567   4.705   2.525  13.690 -1.4791 -0.3470  0.5423
  368MPD2    N1 5568   4.401   2.249  13.453  0.5722  0.0835 -0.4208
  368MPD2    H7 5569   4.347   2.167  13.428 -0.3530  1.0230 -1.5006
  369TMC3    C1 5570   4.335   2.328  13.236  0.5679 -0.1992 -0.2415
  369TMC3    C2 5571   4.394   2.374  13.124 -0.6302  0.1584 -0.2058
  369TMC3    C3 5572   4.314   2.376  13.010 -0.4742  0.9093  0.5123
  369TMC3    C4 5573   4.206   2.279  13.237  0.2640  0.0281  0.2716
  369TMC3    C5 5574   4.131   2.279  13.119 -0.2263 -0.1638  0.4490
  369TMC3    C6 5575   4.183   2.330  13.011 -0.6074 -0.0722 -0.2378
  369TMC3     C 5576   4.416   2.348  13.358 -0.1640  0.0532 -0.2858
  369TMC3     O 5577   4.483   2.454  13.361 -0.4758  0.6957 -0.1327
  369TMC3     H 5578   4.490   2.423  13.139  0.3026 -1.9952  0.8374
  369TMC3    H1 5579   4.154   2.266  13.331 -2.3801  1.2206 -1.0352
  369TMC3    H2 5580   4.123   2.331  12.921  1.1611  2.5994 -1.4080
  369TMC3    C7 5581   4.010   2.211  13.124 -0.1907  0.0854 -0.3586
  369TMC3    C8 5582   4.362   2.442  12.894 -0.3894 -0.0550 -0.3657
  369TMC3    O1 5583   3.998   2.138  13.224 -0.6796 -0.2228 -0.4530
  369TMC3    O2 5584   4.279   2.452  12.804  0.1534 -0.7645  0.1661
  370TMC3    C1 5585   3.446   3.555  16.176  0.2039 -0.4054  0.6911
  370TMC3    C2 5586   3.366   3.478  16.251 -0.1212 -0.1697  0.1185
  370TMC3    C3 5587   3.356   3.341  16.225  0.2164 -0.1777  0.2571
  370TMC3    C4 5588   3.528   3.494  16.079  0.9326  0.7992 -0.9940
  370TMC3    C5 5589   3.518   3.359  16.058 -0.3919  0.2718  0.6522
  370TMC3    C6 5590   3.434   3.285  16.136 -0.1439  0.1066 -0.6214
  370TMC3     C 5591   3.469   3.684  16.230 -0.6794  0.5652 -0.5420
  370TMC3     O 5592   3.412   3.707  16.337  0.4687  0.4458  0.6289
  370TMC3     H 5593   3.304   3.528  16.325 -0.2288  1.4734 -1.1064
  370TMC3    H1 5594   3.585   3.550  16.006 -0.6949  2.2154 -1.1728
  370TMC3    H2 5595   3.420   3.178  16.127 -0.5122  0.1018  0.0256
  370TMC3    C7 5596   3.586   3.305  15.941  0.2963  0.0500  0.5141
  370TMC3    C8 5597   3.283   3.256  16.318  0.0192  0.4553  0.8678
  370TMC3    O1 5598   3.620   3.387  15.856 -0.0998  0.1933  0.4751
  370TMC3    O2 5599   3.291   3.136  16.315  0.2114  0.1662  0.0126
  371TMC3    C1 5600   4.565   1.834  15.129  0.1998  0.0106 -0.2388
  371TMC3    C2 5601   4.442   1.801  15.192 -0.2356 -0.6857 -0.2904
  371TMC3    C3 5602   4.367   1.902  15.243 -0.2956  0.1679 -0.2428
  371TMC3    C4 5603   4.604   1.967  15.120 -0.2429  0.3107  0.0356
  371TMC3    C5 5604   4.524   2.057  15.173  0.1102  0.2519 -0.1248
  371TMC3    C6 5605   4.407   2.033  15.232 -0.0226 -0.2991  0.0569
  371TMC3     C 5606   4.674   1.737  15.136  0.3106 -0.3598  0.6462
  371TMC3     O 5607   0.044   1.776  15.087 -0.0090 -0.1397  0.0101
  371TMC3     H 5608   4.406   1.701  15.213 -1.0060 -0.0077  1.6382
  371TMC3    H1 5609   4.702   1.991  15.081 -0.5840 -1.4552 -1.9033
  371TMC3    H2 5610   4.360   2.115  15.285 -0.4879 -0.6546  0.1843
  371TMC3    C7 5611   4.592   2.175  15.234 -0.1092 -0.2810 -0.1739
  371TMC3    C8 5612   4.348   1.861  15.383  0.0411  0.5520  0.5476
  371TMC3    O1 5613   4.533   2.282  15.237  0.5020  0.5354 -0.2816
  371TMC3    O2 5614   4.420   1.768  15.430 -0.1981 -0.3607  0.5202
  372MPD2     C 5615   3.475   2.891  13.484  0.0825 -0.4820 -0.2267
  372MPD2    C1 5616   3.604   2.934  13.505 -0.4172  0.1490  0.1181
  372MPD2    C2 5617   3.706   2.841  13.506 -0.1420 -0.1119  0.5160
  372MPD2    C3 5618   3.679   2.703  13.505  0.0484  0.0745  0.0614
  372MPD2    C4 5619   3.544   2.665  13.497 -0.6228  0.5243  0.2805
  372MPD2    C5 5620   3.453   2.759  13.477 -0.0119  0.1252  0.8928
  372MPD2     H 5621   3.807   2.879  13.512 -0.7466  1.6627 -0.5235
  372MPD2    H1 5622   3.517   2.560  13.499  2.9963 -0.4223 -0.3687
  372MPD2    H2 5623   3.385   2.951  13.487 -0.5478 -1.3546 -1.4921
  372MPD2    H3 5624   3.353   2.718  13.469 -0.5598  1.8413 -0.8921
  372MPD2     N 5625   3.789   2.613  13.518  0.3310  0.4054  0.1943
  372MPD2    H5 5626   3.879   2.656  13.534  1.0328 -0.4114 -1.6737
  372MPD2    N1 5627   3.630   3.076  13.510 -0.5726  0.8151  0.6757
  372MPD2    H7 5628   3.728   3.103  13.516 -0.2446 -0.0057 -0.9679
  373TMC3    C1 5629   3.895   2.403  13.523  0.3330 -1.4469 -0.6666
  373TMC3    C2 5630   3.999   2.459  13.599 -1.3520  0.6239  0.0865
  373TMC3    C3 5631   4.095   2.373  13.658 -0.4198 -0.3017 -0.4470
  373TMC3    C4 5632   3.882   2.263  13.517 -0.3289  0.3858  0.1873
  373TMC3    C5 5633   3.982   2.181  13.570 -0.7288 -0.3067  0.4545
  373TMC3    C6 5634   4.089   2.233  13.636  0.1950  0.0016  0.3312
  373TMC3     C 5635   3.778   2.474  13.491 -0.1204 -0.1055 -0.3411
  373TMC3     O 5636   3.688   2.419  13.426 -0.0168 -0.4158 -0.5826
  373TMC3     H 5637   4.006   2.563  13.628 -1.1322  0.3353  1.0405
  373TMC3    H1 5638   3.799   2.209  13.472 -0.2219  1.2342 -1.0188
  373TMC3    H2 5639   4.170   2.167  13.663  1.1938  1.5972  1.1860
  373TMC3    C7 5640   3.980   2.032  13.567 -0.4612 -0.3297 -1.0192
  373TMC3    C8 5641   4.192   2.430  13.748 -0.6203 -0.0098 -0.5887
  373TMC3    O1 5642   3.948   1.990  13.459 -0.0280  0.2673  0.2858
  373TMC3    O2 5643   4.205   2.550  13.737  0.1815 -0.7889  0.4279
  374TMC3    C1 5644   4.476   2.591   9.960  0.1928 -0.0154 -0.6079
  374TMC3    C2 5645   4.575   2.678   9.928  0.9577 -0.1170  0.7563
  374TMC3    C3 5646   4.552   2.781   9.838 -0.7202 -0.1129 -0.4007
  374TMC3    C4 5647   4.353   2.603   9.905  0.1661  0.4273 -0.0679
  374TMC3    C5 5648   4.325   2.713   9.833  0.6957  0.0882  0.0847
  374TMC3    C6 5649   4.425   2.807   9.796  0.3293  0.7202 -0.2629
  374TMC3     C 5650   4.504   2.471  10.038 -1.0465  0.0024 -0.5631
  374TMC3     O 5651   4.413   2.389  10.027  0.0617 -0.0527  0.2807
  374TMC3     H 5652   4.674   2.648   9.958  0.9854 -1.6363 -0.8555
  374TMC3    H1 5653   4.267   2.547   9.942 -0.2574  0.5865 -0.8228
  374TMC3    H2 5654   4.404   2.894   9.735 -0.3677  0.8264  0.1275
  374TMC3    C7 5655   4.195   2.720   9.770 -0.4128  0.6981 -0.4508
  374TMC3    C8 5656   4.639   2.896   9.839  0.2243 -1.0428  0.1791
  374TMC3    O1 5657   4.163   2.613   9.717 -0.1575 -0.0592  0.4800
  374TMC3    O2 5658   4.623   2.978   9.752 -0.5056 -1.1484  0.4095
  375MPD2     C 5659   4.701   4.327  17.011 -0.0667  0.3080 -0.3032
  375MPD2    C1 5660   4.614   4.235  16.956 -0.2957 -0.1404 -1.1283
  375MPD2    C2 5661   4.656   4.116  16.898  0.8706 -0.3821 -0.3015
  375MPD2    C3 5662   0.056   4.089  16.898  0.5776 -0.1738  0.9410
  375MPD2    C4 5663   0.145   4.177  16.963 -0.1012  0.0249 -0.3503
  375MPD2    C5 5664   0.095   4.289  17.026  0.2494  0.2272  0.0465
  375MPD2     H 5665   4.582   4.059  16.843  1.9669  0.3688 -2.5834
  375MPD2    H1 5666   0.252   4.157  16.968 -0.5413 -2.1467  0.0868
  375MPD2    H2 5667   4.664   4.419  17.055 -1.5716  0.3917 -1.7377
  375MPD2    H3 5668   0.156   4.365  17.074  0.7088  0.7471 -1.3681
  375MPD2     N 5669   0.110   3.967  16.833 -0.4083  0.0434  0.2176
  375MPD2    H5 5670   0.210   3.957  16.848 -0.0053  0.3974 -2.3383
  375MPD2    N1 5671   4.472   4.255  16.943  0.7518  0.1379 -0.0624
  375MPD2    H7 5672   4.428   4.183  16.887 -1.5602  2.4769 -1.2248
  376TMC3    C1 5673   0.125   3.773  16.693 -0.3491 -0.6111  0.4151
  376TMC3    C2 5674   0.250   3.744  16.741 -0.3883  0.7488  0.3375
  376TMC3    C3 5675   0.322   3.646  16.681 -0.2061 -0.5030  0.3305
  376TMC3    C4 5676   0.076   3.716  16.585 -1.1867  0.1394  0.2343
  376TMC3    C5 5677   0.156   3.622  16.519 -0.7865 -0.0777 -0.5663
  376TMC3    C6 5678   0.276   3.583  16.570 -0.2478 -0.1578 -0.0728
  376TMC3     C 5679   0.041   3.870  16.763 -1.1419 -0.0322 -0.0844
  376TMC3     O 5680   4.658   3.855  16.742  0.1639  0.1120  0.2751
  376TMC3     H 5681   0.279   3.805  16.826 -1.0226  0.2856  0.8847
  376TMC3    H1 5682   4.719   3.753  16.541 -1.5697 -0.9044  0.1601
  376TMC3    H2 5683   0.341   3.513  16.517 -0.1679  0.1757 -0.4112
  376TMC3    C7 5684   0.151   3.616  16.377  0.6097 -0.1488 -0.6027
  376TMC3    C8 5685   0.460   3.623  16.728  0.4717 -0.2449  0.0827
  376TMC3    O1 5686   0.108   3.721  16.326 -0.0434 -0.1146  0.0372
  376TMC3    O2 5687   0.528   3.552  16.655  0.4306 -0.3766  0.3745
  377MPD2     C 5688   3.353   2.621  12.919  0.3297  0.2909  0.1462
  377MPD2    C1 5689   3.309   2.736  12.863 -0.0598 -0.5636  0.3927
  377MPD2    C2 5690   3.173   2.781  12.874  0.9644 -0.6661  0.5452
  377MPD2    C3 5691   3.093   2.696  12.953 -0.5658  0.1521  0.2806
  377MPD2    C4 5692   3.138   2.576  13.007  0.1482 -0.2936 -0.1441
  377MPD2    C5 5693   3.266   2.535  12.987 -0.3545  0.1588 -0.4944
  377MPD2     H 5694   3.140   2.870  12.821  1.7137 -0.2632  0.7478
  377MPD2    H1 5695   3.082   2.507  13.068  2.1137 -0.9714  0.8944
  377MPD2    H2 5696   3.454   2.589  12.899 -0.3782 -1.9912  0.1898
  377MPD2    H3 5697   3.306   2.443  13.029 -3.3717 -0.8122  0.3074
  377MPD2     N 5698   2.951   2.715  12.971 -0.2765 -0.2599  0.0827
  377MPD2    H5 5699   2.900   2.646  13.024 -0.4766  1.3536  2.0253
  377MPD2    N1 5700   3.401   2.819  12.795 -0.6070 -0.6031  0.2818
  377MPD2    H7 5701   3.495   2.782  12.791 -0.0196  0.8549  0.6195
  378TMC3    C1 5702   3.544   3.026  12.425  0.4459 -0.1188 -0.0842
  378TMC3    C2 5703   3.464   3.030  12.534  0.2513  0.0305 -0.1771
  378TMC3    C3 5704   3.500   2.958  12.643 -0.5172  0.0284  0.2970
  378TMC3    C4 5705   3.648   2.936  12.422 -0.5709  0.2273  0.1603
  378TMC3    C5 5706   3.680   2.860  12.531 -0.0874  0.8379 -0.1871
  378TMC3    C6 5707   3.604   2.866  12.641  0.5475 -0.5174  0.3194
  378TMC3     C 5708   3.486   3.079  12.301  0.0411  0.6192  0.0748
  378TMC3     O 5709   3.388   3.153  12.317  0.5731 -0.2228  0.2058
  378TMC3     H 5710   3.377   3.094  12.529  0.1834  0.3290  4.3505
  378TMC3    H1 5711   3.719   2.952  12.341 -0.2418 -1.4931  0.1176
  378TMC3    H2 5712   3.641   2.822  12.733  0.5049 -0.4138  0.3862
  378TMC3    C7 5713   3.784   2.760  12.540  0.3817  0.2419  0.2992
  378TMC3    C8 5714   3.387   2.941  12.732  0.1682 -0.5387 -0.1060
  378TMC3    O1 5715   3.813   2.707  12.647 -0.0595  0.1600 -0.0083
  378TMC3    O2 5716   3.291   3.010  12.713 -0.2866  0.1895  0.5565
  379MPD2     C 5717   3.637   1.349  16.041  0.1572 -0.1541 -0.0574
  379MPD2    C1 5718   3.535   1.330  16.136 -0.0475 -0.1851 -0.2937
  379MPD2    C2 5719   3.569   1.331  16.271  1.1001 -0.0607  0.3908
  379MPD2    C3 5720   3.701   1.345  16.307  0.0096  0.2305 -0.3743
  379MPD2    C4 5721   3.799   1.351  16.212  0.8097 -0.3390  0.1871
  379MPD2    C5 5722   3.763   1.366  16.082  0.3073 -0.2431  0.5797
  379MPD2     H 5723   3.489   1.314  16.341 -1.3650  1.5314 -2.0017
  379MPD2    H1 5724   3.904   1.373  16.231  0.9537 -0.1347 -0.8261
  379MPD2    H2 5725   3.613   1.336  15.936  0.2615  2.1272 -0.3519
  379MPD2    H3 5726   3.840   1.374  16.006  0.9576 -0.8458  1.1718
  379MPD2     N 5727   3.741   1.342  16.444 -0.3718  0.3605  0.7798
  379MPD2    H5 5728   3.840   1.343  16.466 -0.7177 -0.3422  2.3454
  379MPD2    N1 5729   3.406   1.303  16.083 -0.2438  0.2287 -0.0249
  379MPD2    H7 5730   3.378   1.308  15.985  2.4386 -3.3991 -0.9847
  380TMC3    C1 5731   3.191   1.212  16.080 -0.3477  0.2982  0.6762
  380TMC3    C2 5732   3.184   1.081  16.121  0.0666 -0.1896  0.1576
  380TMC3    C3 5733   3.158   0.982  16.028  1.1985  0.2623  0.4602
  380TMC3    C4 5734   3.172   1.249  15.951  0.2020  0.0909 -0.3033
  380TMC3    C5 5735   3.130   1.149  15.867  0.0553  0.0198  0.0502
  380TMC3    C6 5736   3.111   1.014  15.902  0.6995 -0.0503  0.1777
  380TMC3     C 5737   3.290   1.284  16.161 -0.7153 -0.0892  0.2683
  380TMC3     O 5738   3.277   1.286  16.283  0.0548 -0.1753  0.4816
  380TMC3     H 5739   3.203   1.057  16.225  0.7919 -0.1521  0.0365
  380TMC3    H1 5740   3.180   1.353  15.921  1.3194 -0.7654 -3.0199
  380TMC3    H2 5741   3.083   0.935  15.833  1.1368  0.4604 -0.5807
  380TMC3    C7 5742   3.096   1.193  15.731 -0.5331  0.1829  0.4468
  380TMC3    C8 5743   3.282   0.919  16.009 -0.1332  0.4870  1.0213
  380TMC3    O1 5744   3.160   1.289  15.690 -0.3207  0.4053  0.0653
  380TMC3    O2 5745   3.318   0.915  15.890 -0.3749  0.2508 -0.0789
  381TMC3    C1 5746   3.246   2.656  16.032 -0.2872 -0.0940  0.3887
  381TMC3    C2 5747   3.340   2.754  16.051  0.0383 -0.1083 -0.1185
  381TMC3    C3 5748   3.355   2.805  16.180 -0.1798  0.3334 -0.0550
  381TMC3    C4 5749   3.158   2.616  16.136  0.3113  0.4668  0.0265
  381TMC3    C5 5750   3.173   2.679  16.258 -0.3623 -0.9504  0.3834
  381TMC3    C6 5751   3.277   2.763  16.287  0.3298 -0.5224 -0.0129
  381TMC3     C 5752   3.224   2.608  15.898  0.4069 -0.4118 -0.7564
  381TMC3     O 5753   3.270   2.665  15.806  0.0613 -0.2718  0.6198
  381TMC3     H 5754   3.423   2.766  15.982  1.0160 -1.7624  0.7593
  381TMC3    H1 5755   3.082   2.539  16.123 -0.3594  1.6511 -3.0742
  381TMC3    H2 5756   3.295   2.791  16.390 -0.4304  1.3327 -0.3937
  381TMC3    C7 5757   3.117   2.608  16.374 -0.7414 -0.0434  0.2709
  381TMC3    C8 5758   3.493   2.858  16.202 -0.0291 -0.2755 -0.0152
  381TMC3    O1 5759   3.078   2.493  16.367  0.0240  0.1734 -0.1368
  381TMC3    O2 5760   3.587   2.801  16.140 -0.3955  0.3058 -0.0044
  382MPD2     C 5761   2.737   0.462  16.896 -0.3337  0.0154 -0.0633
  382MPD2    C1 5762   2.699   0.512  17.020 -0.1958 -0.1560  0.4460
  382MPD2    C2 5763   2.663   0.419  17.120  0.2416 -0.6436  0.0158
  382MPD2    C3 5764   2.689   0.280  17.111 -0.7741 -0.0197  0.1612
  382MPD2    C4 5765   2.726   0.234  16.987  0.6845  0.0718  0.2425
  382MPD2    C5 5766   2.743   0.328  16.887 -0.1935 -0.3076 -0.3718
  382MPD2     H 5767   2.637   0.456  17.218 -0.0244 -0.1952 -0.2251
  382MPD2    H1 5768   2.744   0.128  16.975  0.1804  0.0066  0.0482
  382MPD2    H2 5769   2.748   0.522  16.807 -1.8285  0.0464 -0.2334
  382MPD2    H3 5770   2.782   0.291  16.792  0.0400 -1.7117  0.2830
  382MPD2     N 5771   2.649   0.179  17.201 -0.1216 -0.2317  0.1276
  382MPD2    H5 5772   2.671   0.083  17.174 -2.6670 -1.4113  2.2594
  382MPD2    N1 5773   2.666   0.654  17.041 -0.1402  0.0618 -0.4390
  382MPD2    H7 5774   2.642   0.677  17.137  0.9331 -1.8977  0.3036
  383TMC3    C1 5775   2.542   0.078  17.387 -0.2627  0.7995  0.1085
  383TMC3    C2 5776   2.496   4.710  17.310  0.2583  0.1032 -0.0646
  383TMC3    C3 5777   2.430   4.605  17.374  0.3023  0.4786 -0.6419
  383TMC3    C4 5778   2.527   0.083  17.522 -0.3734  0.2310  0.1522
  383TMC3    C5 5779   2.460   4.710  17.579  1.0808  0.3625  1.2231
  383TMC3    C6 5780   2.420   4.602  17.510  0.3817  0.5748 -0.2004
  383TMC3     C 5781   2.588   0.201  17.322 -0.4355  0.6608 -0.1269
  383TMC3     O 5782   2.581   0.307  17.384 -0.0583  0.1664  0.1583
  383TMC3     H 5783   2.492   4.721  17.202 -0.0835  0.6379  0.0046
  383TMC3    H1 5784   2.533   0.179  17.574  2.0741 -0.2092  0.6792
  383TMC3    H2 5785   2.374   4.519  17.563 -0.2926  0.2108 -1.3277
  383TMC3    C7 5786   2.445   4.705  17.720 -0.1743 -0.3136 -0.1891
  383TMC3    C8 5787   2.402   4.490  17.284  0.4928 -0.0047  0.0490
  383TMC3    O1 5788   2.378   4.606   0.018 -0.5573  0.0527  0.2208
  383TMC3    O2 5789   2.448   4.496  17.172 -0.1243  0.2863  0.2603
  384MPD2     C 5790   4.202   1.092  12.312  0.6231  0.1350 -0.4850
  384MPD2    C1 5791   4.077   1.043  12.270  0.1913 -0.2071  1.1776
  384MPD2    C2 5792   4.053   0.908  12.264  0.0049 -0.5507  0.2733
  384MPD2    C3 5793   4.159   0.822  12.287 -0.4159  0.0195 -0.0452
  384MPD2    C4 5794   4.284   0.868  12.323 -0.4363 -0.0494 -0.2086
  384MPD2    C5 5795   4.309   1.007  12.320  0.2782  0.0079 -0.1767
  384MPD2     H 5796   3.955   0.880  12.228  0.1112 -0.7038  0.0990
  384MPD2    H1 5797   4.364   0.796  12.331  1.2518  1.8264 -0.4319
  384MPD2    H2 5798   4.210   1.196  12.340  0.5511  0.0473 -0.1450
  384MPD2    H3 5799   4.406   1.050  12.343  0.0629  0.3852  0.0251
  384MPD2     N 5800   4.144   0.685  12.280 -0.1873  0.7023 -0.1928
  384MPD2    H5 5801   4.205   0.622  12.332  1.5584  1.0269 -1.8437
  384MPD2    N1 5802   3.968   1.140  12.267 -0.3028  0.0713 -0.1952
  384MPD2    H7 5803   4.004   1.234  12.272  0.0488  0.0843 -3.1601
  385TMC3    C1 5804   3.975   0.530  12.342  0.6848 -0.4982  0.4078
  385TMC3    C2 5805   3.874   0.456  12.291 -0.6154  0.1892  0.1486
  385TMC3    C3 5806   3.755   0.462  12.347 -0.0958 -0.6697  0.0278
  385TMC3    C4 5807   3.958   0.608  12.454 -0.5077  0.1110  0.0789
  385TMC3    C5 5808   3.839   0.597  12.518  0.8528  0.3474  0.1512
  385TMC3    C6 5809   3.730   0.532  12.462 -0.2520 -0.2539 -0.0688
  385TMC3     C 5810   4.036   0.612  12.235  0.4626 -0.3725 -0.2043
  385TMC3     O 5811   3.964   0.638  12.142  0.6997 -0.8010 -0.6450
  385TMC3     H 5812   3.895   0.400  12.201  2.7209  0.4275  0.7657
  385TMC3    H1 5813   4.042   0.645  12.513 -1.0246 -1.0151  1.5512
  385TMC3    H2 5814   3.627   0.538  12.494 -0.0091  0.4385  0.5744
  385TMC3    C7 5815   3.812   0.703  12.613 -0.3046 -0.0715 -0.1602
  385TMC3    C8 5816   3.667   0.347  12.325  0.0405 -1.0872  0.3111
  385TMC3    O1 5817   3.895   0.795  12.616 -0.8631 -0.4252  0.4614
  385TMC3    O2 5818   3.582   0.337  12.410  0.4048  0.6740 -0.1633
  386TMC3    C1 5819   0.015   2.452  11.586  0.5781  0.9415  0.3836
  386TMC3    C2 5820   4.680   2.433  11.472  0.4153  0.1970  0.2036
  386TMC3    C3 5821   4.641   2.540  11.398  0.0055  0.6816 -0.0195
  386TMC3    C4 5822   0.032   2.574  11.639  0.4163  0.8123 -0.1410
  386TMC3    C5 5823   4.715   2.680  11.570 -0.9948  0.1231 -0.5412
  386TMC3    C6 5824   4.668   2.664  11.443 -0.0568  0.3351 -0.5550
  386TMC3     C 5825   0.077   2.334  11.645  0.1809  0.1053  0.2277
  386TMC3     O 5826   0.034   2.222  11.609 -0.7550  0.1059 -0.1788
  386TMC3     H 5827   4.661   2.331  11.440 -0.1063  0.7772 -1.3327
  386TMC3    H1 5828   0.060   2.594  11.742 -3.5455  3.1036  0.4939
  386TMC3    H2 5829   4.634   2.746  11.381 -1.1293  0.6783  0.4696
  386TMC3    C7 5830   4.612   2.741  11.657 -0.5504  0.3600  0.2541
  386TMC3    C8 5831   4.534   2.521  11.308 -0.2490  0.8056  0.2894
  386TMC3    O1 5832   4.651   2.788  11.764 -0.1084  0.3839  0.9311
  386TMC3    O2 5833   4.441   2.600  11.326  0.3176 -0.4582 -0.4066
  387MPD2     C 5834   0.914   3.245   9.603  0.6349  0.2936 -0.7241
  387MPD2    C1 5835   1.034   3.185   9.632 -0.3946 -0.0183 -0.0955
  387MPD2    C2 5836   1.042   3.050   9.653 -0.3225  0.7280 -0.0137
  387MPD2    C3 5837   0.941   2.961   9.635 -0.2819 -0.0793  0.2316
  387MPD2    C4 5838   0.822   3.015   9.593 -0.3019 -0.2725 -0.8683
  387MPD2    C5 5839   0.809   3.154   9.585  0.4613 -0.2489  0.3428
  387MPD2     H 5840   1.129   3.006   9.699  0.9301  2.9166 -0.3054
  387MPD2    H1 5841   0.738   2.950   9.571  1.9974 -2.3972 -3.4487
  387MPD2    H2 5842   0.894   3.351   9.600 -0.5286  0.0768 -0.7124
  387MPD2    H3 5843   0.720   3.198   9.543  0.5796 -0.1461  0.2014
  387MPD2     N 5844   0.972   2.824   9.657  0.1866  0.1348  0.4953
  387MPD2    H5 5845   1.068   2.795   9.673  0.1493 -0.9761 -1.2651
  387MPD2    N1 5846   1.154   3.252   9.657  0.2991 -0.0958 -0.1911
  387MPD2    H7 5847   1.232   3.189   9.675 -0.8403 -0.7239  2.6133
  388TMC3    C1 5848   1.293   3.403   9.758 -0.3019  0.6891 -0.6458
  388TMC3    C2 5849   1.353   3.524   9.751  0.1077 -0.6713  0.5291
  388TMC3    C3 5850   1.470   3.548   9.818  0.6047  0.1260  0.1392
  388TMC3    C4 5851   1.334   3.298   9.838  0.2903 -0.3212 -0.2525
  388TMC3    C5 5852   1.458   3.328   9.904 -0.8176  0.0282  0.1084
  388TMC3    C6 5853   1.519   3.450   9.898 -0.2186 -0.3617 -0.5782
  388TMC3     C 5854   1.168   3.385   9.692 -0.3069 -0.4005 -0.6640
  388TMC3     O 5855   1.107   3.487   9.659  0.2635 -0.8862 -0.2211
  388TMC3     H 5856   1.296   3.605   9.708 -1.1907 -1.1402  1.3586
  388TMC3    H1 5857   1.285   3.202   9.851  1.6009 -1.2069 -1.8455
  388TMC3    H2 5858   1.617   3.462   9.944 -0.6817  1.9567 -0.2078
  388TMC3    C7 5859   1.528   3.223   9.979 -0.6272  0.1219 -0.3388
  388TMC3    C8 5860   1.539   3.666   9.787  0.1332  0.6424 -0.0003
  388TMC3    O1 5861   1.599   3.258  10.072 -0.5180 -0.1858  0.2874
  388TMC3    O2 5862   1.495   3.724   9.688 -0.0098  0.2870 -0.3076
  389MPD2     C 5863   0.580   1.321  11.068 -0.4011 -0.1523 -0.9262
  389MPD2    C1 5864   0.540   1.194  11.023  0.3283 -0.5476 -0.8485
  389MPD2    C2 5865   0.514   1.098  11.123 -0.5001 -0.2458 -0.1202
  389MPD2    C3 5866   0.535   1.133  11.256 -0.3921 -0.6444  0.3874
  389MPD2    C4 5867   0.587   1.251  11.293 -0.5410 -0.2257  0.2688
  389MPD2    C5 5868   0.608   1.347  11.201  0.0859 -0.4128  0.7344
  389MPD2     H 5869   0.456   1.010  11.096 -0.0117 -1.0854  1.5690
  389MPD2    H1 5870   0.588   1.296  11.392 -0.8076 -0.2160  0.2678
  389MPD2    H2 5871   0.593   1.399  10.994  0.9647  1.2282  0.7766
  389MPD2    H3 5872   0.627   1.450  11.231  1.7354 -0.2775 -0.7376
  389MPD2     N 5873   0.480   1.064  11.369  0.8181  0.3498 -0.3772
  389MPD2    H5 5874   0.489   1.108  11.460 -1.5263 -0.0275  0.0188
  389MPD2    N1 5875   0.502   1.174  10.886  0.0808  0.5806 -0.1309
  389MPD2    H7 5876   0.513   1.259  10.831 -1.4379  0.2987 -0.8959
  390TMC3    C1 5877   0.378   0.919  11.507 -0.0176  0.1589  0.4518
  390TMC3    C2 5878   0.361   0.783  11.535  0.2098 -0.3973 -0.0649
  390TMC3    C3 5879   0.280   0.747  11.640 -0.2974 -0.8037  0.1295
  390TMC3    C4 5880   0.287   1.013  11.547  0.5425 -0.5537 -0.2792
  390TMC3    C5 5881   0.187   0.963  11.623 -0.6501 -0.3030  0.5923
  390TMC3    C6 5882   0.197   0.840  11.686 -0.6700 -0.2653  0.3728
  390TMC3     C 5883   0.429   0.938  11.373 -0.2813  0.5878 -0.1988
  390TMC3     O 5884   0.435   0.855  11.281  0.2845 -0.3181  0.7747
  390TMC3     H 5885   0.435   0.714  11.496  1.1811 -0.2972  1.5986
  390TMC3    H1 5886   0.282   1.114  11.507  1.4332  0.4967  2.2568
  390TMC3    H2 5887   0.119   0.804  11.753  0.6561 -2.0537  0.9561
  390TMC3    C7 5888   0.054   1.032  11.623 -0.1481 -0.4350  0.0392
  390TMC3    C8 5889   0.238   0.613  11.629 -0.2502 -0.1848  0.0348
  390TMC3    O1 5890   0.061   1.152  11.643  0.4090  0.4260  0.1258
  390TMC3    O2 5891   0.240   0.562  11.515 -0.1850 -0.5691  0.2537
  391MPD2     C 5892   0.318   2.624  11.273 -0.3613  0.1062  0.1133
  391MPD2    C1 5893   0.430   2.704  11.251 -0.7985 -0.3339  0.1760
  391MPD2    C2 5894   0.427   2.800  11.154  0.6436 -0.2235 -0.1856
  391MPD2    C3 5895   0.315   2.816  11.078 -0.2981  0.4537 -0.4209
  391MPD2    C4 5896   0.203   2.736  11.102  0.0407  0.1886  0.0058
  391MPD2    C5 5897   0.206   2.638  11.196 -0.4139  0.1562 -0.2382
  391MPD2     H 5898   0.513   2.859  11.125  1.7660 -1.0528  1.4531
  391MPD2    H1 5899   0.111   2.744  11.045  0.0147  0.2216  0.0524
  391MPD2    H2 5900   0.316   2.558  11.359 -1.2243 -1.6772 -1.2721
  391MPD2    H3 5901   0.130   2.566  11.223  1.1838  0.6712  5.4780
  391MPD2     N 5902   0.330   2.919  10.978  0.0178 -0.2451  0.0967
  391MPD2    H5 5903   0.418   2.971  10.975 -0.5265  0.7364  1.1372
  391MPD2    N1 5904   0.539   2.694  11.340  0.0894 -0.1978 -0.6562
  391MPD2    H7 5905   0.541   2.625  11.414  1.4150  0.9093  0.3355
  392TMC3    C1 5906   0.271   3.027  10.769  0.3912 -0.3865  0.1280
  392TMC3    C2 5907   0.202   3.011  10.652  0.0385  0.7470  0.4379
  392TMC3    C3 5908   0.253   3.076  10.540  0.1169  0.0973  0.3089
  392TMC3    C4 5909   0.396   3.089  10.767 -0.9194  0.1024  0.1080
  392TMC3    C5 5910   0.446   3.149  10.658 -0.0054  0.5416  0.2360
  392TMC3    C6 5911   0.372   3.147  10.542 -0.4687  0.0239 -0.4690
  392TMC3     C 5912   0.241   2.930  10.871  0.3127 -0.1559  0.0839
  392TMC3     O 5913   0.136   2.867  10.860  0.7457  0.1483 -0.5275
  392TMC3     H 5914   0.105   2.963  10.642 -0.5502  2.0830 -0.3976
  392TMC3    H1 5915   0.449   3.119  10.857  1.2028 -0.2652 -1.0445
  392TMC3    H2 5916   0.415   3.186  10.450 -0.3648  1.8574  0.3563
  392TMC3    C7 5917   0.585   3.205  10.659 -0.2492  0.3122  0.2334
  392TMC3    C8 5918   0.180   3.046  10.413 -0.2583 -0.1603  0.5978
  392TMC3    O1 5919   0.657   3.172  10.748 -0.0390  0.3649  0.6197
  392TMC3    O2 5920   0.112   2.938  10.407  0.3341 -0.4506 -0.4283
  393TMC3    C1 5921   3.909   0.688  11.156 -0.6185 -0.1018  0.3735
  393TMC3    C2 5922   3.831   0.623  11.250 -0.1136  0.5247 -0.1555
  393TMC3    C3 5923   3.858   0.497  11.286 -0.1359  0.2104  0.2106
  393TMC3    C4 5924   4.006   0.621  11.092  1.1559  0.1337 -0.0229
  393TMC3    C5 5925   4.029   0.485  11.122 -0.2783  0.1830 -0.4292
  393TMC3    C6 5926   3.952   0.422  11.221 -0.0660  0.0987  0.1213
  393TMC3     C 5927   3.870   0.815  11.119  0.3301  0.1739 -1.2086
  393TMC3     O 5928   3.752   0.846  11.129  0.0608  0.3560 -0.5310
  393TMC3     H 5929   3.767   0.689  11.307 -0.9987  1.4213 -2.1897
  393TMC3    H1 5930   4.052   0.666  11.004  1.8170 -0.4259  0.0403
  393TMC3    H2 5931   3.962   0.320  11.257 -0.1715  0.0361 -0.0254
  393TMC3    C7 5932   4.109   0.416  11.020 -1.0393 -0.2587  0.4439
  393TMC3    C8 5933   3.778   0.431  11.393  0.7968  0.2850 -0.4951
  393TMC3    O1 5934   4.184   0.484  10.948  0.3214 -0.1080  0.1978
  393TMC3    O2 5935   3.823   0.348  11.469  0.1641  0.1410 -0.3250
  394TMC3    C1 5936   0.403   1.083  10.693 -0.5051 -0.0732  1.0126
  394TMC3    C2 5937   0.301   1.004  10.644 -0.2799  1.0429  0.1159
  394TMC3    C3 5938   0.289   0.993  10.510 -0.0001 -0.4926  0.5038
  394TMC3    C4 5939   0.485   1.146  10.607 -0.2166 -0.2141  0.0043
  394TMC3    C5 5940   0.452   1.143  10.471 -0.3781  0.2322  0.4126
  394TMC3    C6 5941   0.358   1.066  10.417 -0.8232  0.4624  0.2611
  394TMC3     C 5942   0.437   1.065  10.833 -1.1741 -0.4225  0.1442
  394TMC3     O 5943   0.408   0.955  10.882  0.0127  0.1748  0.0029
  394TMC3     H 5944   0.235   0.948  10.708  0.2333 -0.7787 -0.9546
  394TMC3    H1 5945   0.566   1.214  10.634  0.4917 -1.1645  0.2754
  394TMC3    H2 5946   0.345   1.047  10.311 -1.4185 -0.8262  0.5647
  394TMC3    C7 5947   0.495   1.260  10.401  0.1594  0.1138  0.5292
  394TMC3    C8 5948   0.162   0.941  10.459  0.0152  0.3605 -0.4706
  394TMC3    O1 5949   0.574   1.333  10.460 -0.1770  0.2865  0.2091
  394TMC3    O2 5950   0.059   1.000  10.489 -0.2833 -0.5666  0.0698
  395TMC3    C1 5951   1.403   2.944  14.538  0.2420 -0.1649 -0.3593
  395TMC3    C2 5952   1.311   2.900  14.451 -0.5558  0.2912  0.4476
  395TMC3    C3 5953   1.310   2.958  14.325 -0.9254 -0.2730 -0.1852
  395TMC3    C4 5954   1.495   3.036  14.508  0.7709 -0.0698  0.2745
  395TMC3    C5 5955   1.486   3.098  14.387 -0.0563 -0.0710  0.0808
  395TMC3    C6 5956   1.391   3.059  14.294 -0.5417  0.2258  0.5069
  395TMC3     C 5957   1.389   2.910  14.673 -0.2958  0.1363 -0.5955
  395TMC3     O 5958   1.279   2.909  14.720  0.1729 -0.3928 -0.0480
  395TMC3     H 5959   1.244   2.820  14.481 -1.7184  1.2976  0.5421
  395TMC3    H1 5960   1.583   3.057  14.568  0.9954  1.8504 -0.7383
  395TMC3    H2 5961   1.380   3.107  14.197 -0.8214  0.5959  0.7253
  395TMC3    C7 5962   1.537   3.238  14.385  0.1216  0.0787  0.3006
  395TMC3    C8 5963   1.182   2.951  14.256 -0.1990 -0.0893 -0.8295
  395TMC3    O1 5964   1.587   3.278  14.488 -0.3872 -0.0718  0.1913
  395TMC3    O2 5965   1.154   3.043  14.177 -0.0894  0.4082  0.1022
  396MPD2     C 5966   1.125   0.046  17.378  0.1809 -0.3242  0.2332
  396MPD2    C1 5967   1.231   0.019  17.289  0.0580  0.5594  0.6871
  396MPD2    C2 5968   1.228   0.079  17.160 -0.0200  0.0488  0.2556
  396MPD2    C3 5969   1.119   0.161  17.126  1.4886  0.0398 -1.0740
  396MPD2    C4 5970   1.021   0.184  17.218 -0.5406  0.1932 -0.3787
  396MPD2    C5 5971   1.019   0.120  17.339  0.3262 -0.5070  0.0886
  396MPD2     H 5972   1.307   0.082  17.086  0.3590 -0.0743  0.6510
  396MPD2    H1 5973   0.938   0.248  17.189  1.1474  3.8449  2.7998
  396MPD2    H2 5974   1.127   0.010  17.480 -0.8176  1.3344  0.8273
  396MPD2    H3 5975   0.947   0.144  17.417  3.6281  1.4098  2.5441
  396MPD2     N 5976   1.127   0.219  16.998  0.3919  0.6110  0.0613
  396MPD2    H5 5977   1.214   0.228  16.948 -1.0368 -0.5335 -2.6658
  396MPD2    N1 5978   1.337   4.665  17.309  0.9876 -0.1715  0.4556
  396MPD2    H7 5979   1.396   4.654  17.226 -0.0314 -0.0631 -0.2861
  397TMC3    C1 5980   1.447   4.466  17.375 -0.3152  0.2581 -0.0860
  397TMC3    C2 5981   1.465   4.484  17.238  0.3853  0.7655  0.2917
  397TMC3    C3 5982   1.415   4.401  17.143  0.0513  0.7506 -0.4225
  397TMC3    C4 5983   1.386   4.351  17.401  0.7561  1.2680  0.3223
  397TMC3    C5 5984   1.323   4.281  17.308  0.3590  0.3272 -0.7606
  397TMC3    C6 5985   1.321   4.312  17.179  0.2994  0.6728 -0.4359
  397TMC3     C 5986   1.358   4.574  17.410  0.4047 -0.3679  0.0681
  397TMC3     O 5987   1.290   4.562  17.511  0.6187 -0.0045 -0.1804
  397TMC3     H 5988   1.554   4.536  17.207  0.5909  1.4135  1.9688
  397TMC3    H1 5989   1.368   4.317  17.503  0.8806  1.4088  0.3920
  397TMC3    H2 5990   1.278   4.247  17.104  2.3575 -0.3664 -0.7139
  397TMC3    C7 5991   1.221   4.193  17.359  0.2460  0.0001  0.7181
  397TMC3    C8 5992   1.412   4.450  17.004  0.0153 -0.9601  0.2313
  397TMC3    O1 5993   1.253   4.122  17.455  0.3601  0.1658  0.4967
  397TMC3    O2 5994   1.313   4.423  16.938  0.1427 -0.3797 -0.6728
  398MPD2     C 5995   3.760   1.759   0.336  0.2119  0.5119 -0.7705
  398MPD2    C1 5996   3.850   1.650   0.355  0.6276 -0.7975 -0.3659
  398MPD2    C2 5997   3.983   1.677   0.392 -0.5372  0.3206 -0.0057
  398MPD2    C3 5998   4.033   1.805   0.398  0.6629  0.3064  0.6315
  398MPD2    C4 5999   3.939   1.909   0.388 -0.3516 -0.3562 -0.0731
  398MPD2    C5 6000   3.810   1.883   0.347  0.2652 -0.1148 -0.6719
  398MPD2     H 6001   4.051   1.593   0.397 -2.1016 -0.9686 -0.2040
  398MPD2    H1 6002   3.971   2.012   0.395  1.6218 -0.9401 -0.2417
  398MPD2    H2 6003   3.655   1.759   0.311  0.3264 -1.5705 -1.2743
  398MPD2    H3 6004   3.750   1.969   0.321 -1.3386 -0.6392  1.3004
  398MPD2     N 6005   4.171   1.827   0.408  0.1573  0.1801 -0.0925
  398MPD2    H5 6006   4.241   1.754   0.417  1.6558  1.5817 -0.5254
  398MPD2    N1 6007   3.815   1.514   0.336  0.2011 -0.3859  0.5318
  398MPD2    H7 6008   3.888   1.444   0.348 -0.5735 -1.2488  0.1458
  399TMC3    C1 6009   3.651   1.329   0.318  0.4214  0.1952 -0.0888
  399TMC3    C2 6010   3.728   1.253   0.403  0.2147  0.0145 -0.4072
  399TMC3    C3 6011   3.702   1.117   0.415 -0.5356  0.0184 -0.0937
  399TMC3    C4 6012   3.546   1.275   0.252  0.5725 -0.2059  0.6680
  399TMC3    C5 6013   3.526   1.144   0.267  0.8227  0.0701 -0.2054
  399TMC3    C6 6014   3.601   1.058   0.344 -0.4431 -0.1364  0.9189
  399TMC3     C 6015   3.688   1.468   0.298  0.2395 -0.1950  0.0570
  399TMC3     O 6016   3.603   1.529   0.234  0.5245 -0.0167  0.0231
  399TMC3     H 6017   3.812   1.294   0.459 -0.3139  1.4211 -0.6319
  399TMC3    H1 6018   3.485   1.344   0.194  0.4833  2.7049  4.1764
  399TMC3    H2 6019   3.579   0.952   0.339  1.1010 -0.4666  0.8912
  399TMC3    C7 6020   3.415   1.090   0.191  0.1348 -0.3693  0.0816
  399TMC3    C8 6021   3.791   1.027   0.481  0.3704  0.2029 -0.2713
  399TMC3    O1 6022   3.346   0.997   0.239  0.3127  0.0037  0.3741
  399TMC3    O2 6023   3.908   1.068   0.497 -0.4043  0.1127  0.3025
  400TMC3    C1 6024   2.357   3.940  16.728  0.0688  0.7954 -0.1755
  400TMC3    C2 6025   2.251   3.942  16.639  0.2050 -0.1537  1.1572
  400TMC3    C3 6026   2.184   4.068  16.631 -0.4721 -0.4090  0.3926
  400TMC3    C4 6027   2.406   4.044  16.798 -0.3790 -0.3775  0.0144
  400TMC3    C5 6028   2.346   4.164  16.765 -0.4798 -0.0749 -0.3990
  400TMC3    C6 6029   2.234   4.180  16.687  0.0796 -0.1340 -0.3868
  400TMC3     C 6030   2.400   3.807  16.768  0.0575 -0.2033  0.0652
  400TMC3     O 6031   2.389   3.716  16.688  0.4401  0.4749  0.4143
  400TMC3     H 6032   2.209   3.856  16.588 -1.1826  0.6554  0.9215
  400TMC3    H1 6033   2.510   4.052  16.826 -0.6146 -2.1795  1.3882
  400TMC3    H2 6034   2.192   4.278  16.669  0.4953  0.0537 -0.3495
  400TMC3    C7 6035   2.431   4.285  16.774 -0.4095 -0.4892 -0.3067
  400TMC3    C8 6036   2.072   4.091  16.545  0.2928 -0.5547  0.4534
  400TMC3    O1 6037   2.551   4.265  16.741 -0.5484 -0.0596  0.2037
  400TMC3    O2 6038   2.047   4.205  16.505 -0.1763 -0.5797 -0.4574
  401MPD2     C 6039   0.805   2.796   0.713  0.2630  0.0615  0.6025
  401MPD2    C1 6040   0.855   2.709   0.809  0.6553  0.1932  0.5759
  401MPD2    C2 6041   0.822   2.577   0.817 -0.3001  1.0531  0.0217
  401MPD2    C3 6042   0.737   2.522   0.721  0.1173  0.2581  0.7161
  401MPD2    C4 6043   0.680   2.605   0.633 -0.1196 -0.3533  0.3806
  401MPD2    C5 6044   0.713   2.739   0.625  0.2306  0.0078  0.2991
  401MPD2     H 6045   0.860   2.515   0.898 -1.8934  1.9025  1.4085
  401MPD2    H1 6046   0.605   2.568   0.563  1.0679 -0.2414 -0.9384
  401MPD2    H2 6047   0.838   2.897   0.691  1.3327 -0.8123 -1.8157
  401MPD2    H3 6048   0.663   2.792   0.545 -1.2860  0.6934  1.7112
  401MPD2     N 6049   0.713   2.381   0.732  0.3035 -0.0049 -0.1345
  401MPD2    H5 6050   0.749   2.329   0.811  0.1065 -1.0141 -0.6935
  401MPD2    N1 6051   0.946   2.752   0.910  0.1268  0.0693  0.7306
  401MPD2    H7 6052   0.988   2.675   0.959 -0.0540 -0.2447  0.3950
  402TMC3    C1 6053   0.661   2.168   0.634 -0.0582 -0.1054  0.5303
  402TMC3    C2 6054   0.655   2.094   0.753 -0.5278 -0.2199 -0.3309
  402TMC3    C3 6055   0.641   1.961   0.752 -0.3398  0.6056  0.1671
  402TMC3    C4 6056   0.656   2.100   0.521  0.5241  0.4553  0.7475
  402TMC3    C5 6057   0.642   1.959   0.522 -0.1687  0.0596  0.7746
  402TMC3    C6 6058   0.621   1.895   0.638 -0.2608 -0.1323 -0.3709
  402TMC3     C 6059   0.655   2.314   0.622  0.9280 -0.0428 -1.4676
  402TMC3     O 6060   0.635   2.356   0.509  0.4537  0.5892  0.6359
  402TMC3     H 6061   0.675   2.147   0.846  0.2433 -0.7812 -0.1765
  402TMC3    H1 6062   0.659   2.149   0.424  0.2823 -1.4732 -0.2500
  402TMC3    H2 6063   0.609   1.787   0.638  1.1507 -0.2906  0.9564
  402TMC3    C7 6064   0.700   1.884   0.417 -0.2913 -0.0326 -0.3989
  402TMC3    C8 6065   0.707   1.892   0.858 -0.4655 -0.3538  0.6414
  402TMC3    O1 6066   0.676   1.928   0.308  0.2353 -0.6124 -0.3480
  402TMC3    O2 6067   0.759   1.794   0.815  0.5763  0.3181 -0.0654
  403MPD2     C 6068   3.208   0.740  13.108  0.0735 -0.3660  0.0430
  403MPD2    C1 6069   3.305   0.678  13.177 -0.1766 -0.9090  0.3387
  403MPD2    C2 6070   3.398   0.758  13.232  0.3115  0.2120  0.1828
  403MPD2    C3 6071   3.377   0.894  13.245 -0.7621 -0.4978 -0.2397
  403MPD2    C4 6072   3.262   0.956  13.190  0.1295 -0.4005  0.1985
  403MPD2    C5 6073   3.182   0.876  13.112  0.0490 -0.2528  0.3384
  403MPD2     H 6074   3.490   0.712  13.268  1.5170  3.5062  1.2312
  403MPD2    H1 6075   3.236   1.057  13.220  0.0773  0.1080 -1.5457
  403MPD2    H2 6076   3.141   0.691  13.039 -1.8843  1.2512  0.7656
  403MPD2    H3 6077   3.099   0.927  13.064  0.7184  1.3933  0.9319
  403MPD2     N 6078   3.478   0.960  13.321 -0.2597  0.0170 -0.0420
  403MPD2    H5 6079   3.562   0.915  13.356 -0.9037  1.8563  3.8529
  403MPD2    N1 6080   3.301   0.533  13.193 -0.3542  1.0396  0.0311
  403MPD2    H7 6081   3.247   0.480  13.126  0.2852  0.8450 -0.3304
  404TMC3    C1 6082   3.311   0.337  13.335 -0.2523  0.2894 -0.2307
  404TMC3    C2 6083   3.328   0.300  13.464  0.5465 -0.1499 -0.1827
  404TMC3    C3 6084   3.383   0.177  13.498  0.6990  0.1400  0.0940
  404TMC3    C4 6085   3.333   0.249  13.236 -0.5716  0.0350  0.3293
  404TMC3    C5 6086   3.366   0.128  13.270 -0.8230 -0.5085 -0.0135
  404TMC3    C6 6087   3.407   0.087  13.393  0.1313  0.1167  0.2361
  404TMC3     C 6088   3.354   0.483  13.311  0.0879 -0.4784  0.3672
  404TMC3     O 6089   3.409   0.542  13.408  0.3372  0.4440 -0.5437
  404TMC3     H 6090   3.316   0.376  13.539 -2.8266 -0.4823 -0.3747
  404TMC3    H1 6091   3.336   0.282  13.133 -1.5961  0.5686  0.4658
  404TMC3    H2 6092   3.435   4.720  13.414  0.2903  0.2143  0.4968
  404TMC3    C7 6093   3.326   0.016  13.177 -0.0379  0.3212 -0.5336
  404TMC3    C8 6094   3.481   0.185  13.605  0.5055  0.2265  0.6854
  404TMC3    O1 6095   3.396   4.653  13.188 -0.5888  0.7680 -0.2377
  404TMC3    O2 6096   3.587   0.120  13.589  0.1588 -0.3144  0.2037
  405MPD2     C 6097   4.076   1.629  15.400  1.0699  0.3113  0.0571
  405MPD2    C1 6098   4.091   1.519  15.312  0.2456 -0.3225  0.2494
  405MPD2    C2 6099   3.998   1.508  15.205 -0.6895  0.1661 -0.1020
  405MPD2    C3 6100   3.902   1.604  15.187 -0.1306 -0.1045 -0.5130
  405MPD2    C4 6101   3.897   1.714  15.264  0.7537 -0.4433 -0.2380
  405MPD2    C5 6102   3.985   1.725  15.364 -0.7675  0.0469  0.2913
  405MPD2     H 6103   3.996   1.422  15.139 -0.3483 -1.7458  2.3555
  405MPD2    H1 6104   3.824   1.793  15.246 -0.2650 -1.0774  1.1362
  405MPD2    H2 6105   4.131   1.643  15.493  0.9704  0.5268  0.0835
  405MPD2    H3 6106   3.978   1.816  15.424 -1.6126 -0.7967  1.4781
  405MPD2     N 6107   3.804   1.576  15.083 -0.8592 -0.2960  0.5949
  405MPD2    H5 6108   3.808   1.486  15.036  0.9575  0.6574 -1.0550
  405MPD2    N1 6109   4.166   1.402  15.355 -0.6979 -0.2271 -0.0796
  405MPD2    H7 6110   4.243   1.419  15.420  0.8994 -0.2729 -1.9571
  406TMC3    C1 6111   3.413   1.529  14.831 -0.4454  0.0538  0.3344
  406TMC3    C2 6112   3.411   1.394  14.847 -0.1510 -0.1842  0.1584
  406TMC3    C3 6113   3.500   1.346  14.941  0.0527 -0.4740  0.0537
  406TMC3    C4 6114   3.492   1.616  14.902  0.2263  0.6134  0.4194
  406TMC3    C5 6115   3.585   1.564  14.987  0.2667 -0.5646  0.1474
  406TMC3    C6 6116   3.587   1.427  15.014 -0.2717  0.4335 -0.0409
  406TMC3     C 6117   3.321   1.586  14.737  0.8581  0.0818 -0.5678
  406TMC3     O 6118   3.335   1.707  14.723 -0.5750  0.6475 -0.2481
  406TMC3     H 6119   3.351   1.325  14.789  1.5804 -1.7628  0.2436
  406TMC3    H1 6120   3.485   1.724  14.890 -2.6059  0.4364  0.6184
  406TMC3    H2 6121   3.644   1.395  15.101  1.2792 -0.2862 -1.3225
  406TMC3    C7 6122   3.688   1.645  15.047  0.3853  0.0817  0.6080
  406TMC3    C8 6123   3.518   1.201  14.947  0.6760 -0.1171 -0.4383
  406TMC3    O1 6124   3.668   1.768  15.067  0.2762 -0.1998  0.0055
  406TMC3    O2 6125   3.431   1.134  14.891  0.0503  0.6746 -0.6249
  407MPD2     C 6126   0.574   3.555   9.489  0.2864  0.8959  0.7679
  407MPD2    C1 6127   0.562   3.430   9.530  0.4645  0.4261 -0.0903
  407MPD2    C2 6128   0.616   3.398   9.653  0.0790  0.0819 -0.6102
  407MPD2    C3 6129   0.692   3.487   9.729  0.6001  1.1406  0.2339
  407MPD2    C4 6130   0.698   3.612   9.689 -0.0400  0.3059 -0.2099
  407MPD2    C5 6131   0.639   3.644   9.573 -0.3523 -0.7010 -0.1531
  407MPD2     H 6132   0.593   3.299   9.690  1.8782  0.7467  2.2342
  407MPD2    H1 6133   0.756   3.689   9.740 -2.5085  2.0072  0.0352
  407MPD2    H2 6134   0.523   3.592   9.401 -1.4988 -0.3495  1.2670
  407MPD2    H3 6135   0.629   3.748   9.545  2.4089 -0.3408  0.2405
  407MPD2     N 6136   0.746   3.452   9.853  0.0218  0.7880 -0.0725
  407MPD2    H5 6137   0.792   3.529   9.901 -1.2646  0.7107  1.2833
  407MPD2    N1 6138   0.505   3.337   9.448  0.0289 -0.2200  0.0404
  407MPD2    H7 6139   0.482   3.249   9.494 -2.0475  0.8708  1.1339
  408TMC3    C1 6140   0.452   3.213   9.267  0.1259 -0.3381  0.2080
  408TMC3    C2 6141   0.552   3.125   9.297  0.1108  0.2862  0.5377
  408TMC3    C3 6142   0.577   3.021   9.209 -0.3085 -0.2283  0.1414
  408TMC3    C4 6143   0.388   3.207   9.149 -0.3433  0.4279 -0.4645
  408TMC3    C5 6144   0.428   3.115   9.060  0.0080 -0.2790 -0.2147
  408TMC3    C6 6145   0.521   3.017   9.080 -0.4478 -0.1224  0.5004
  408TMC3     C 6146   0.482   3.346   9.313 -1.4392 -0.1358 -0.0903
  408TMC3     O 6147   0.491   3.439   9.231 -0.5932  0.0211 -0.5766
  408TMC3     H 6148   0.622   3.129   9.379 -1.4196 -1.5399  1.9231
  408TMC3    H1 6149   0.314   3.283   9.125  0.6076  0.5363 -3.1209
  408TMC3    H2 6150   0.562   2.961   8.997 -0.3696  0.2612  0.2782
  408TMC3    C7 6151   0.364   3.139   8.930 -0.2899 -0.1312 -0.3621
  408TMC3    C8 6152   0.710   2.965   9.209 -0.2119 -0.0509  0.5799
  408TMC3    O1 6153   0.339   3.255   8.901 -0.1916  0.1153 -0.5074
  408TMC3    O2 6154   0.713   2.839   9.202  0.1317  0.3413 -0.3140
  409MPD2     C 6155   1.179   3.985  17.019 -0.3712  1.6028  0.8365
  409MPD2    C1 6156   1.309   3.966  17.067  0.8738 -0.1371  0.0759
  409MPD2    C2 6157   1.408   4.027  17.000  0.1602 -0.5070 -0.7501
  409MPD2    C3 6158   1.388   4.101  16.885  0.0841  0.6357  0.0607
  409MPD2    C4 6159   1.253   4.121  16.847 -0.0805  0.4566 -0.2965
  409MPD2    C5 6160   1.155   4.056  16.910  0.6676 -0.8788  0.7189
  409MPD2     H 6161   1.508   4.019  17.041  0.8419  0.7725 -2.1273
  409MPD2    H1 6162   1.216   4.189  16.771 -3.4835 -0.6640  0.3531
  409MPD2    H2 6163   1.100   3.930  17.067 -0.4526  1.0117  0.0109
  409MPD2    H3 6164   1.060   4.062  16.856  0.8388  4.0134  0.9688
  409MPD2     N 6165   1.495   4.173  16.815  0.2623  0.2601 -0.2142
  409MPD2    H5 6166   1.462   4.239  16.746 -0.1843 -2.1171 -2.2615
  409MPD2    N1 6167   1.337   3.895  17.189  0.0532 -0.3361  0.1399
  409MPD2    H7 6168   1.430   3.899  17.229 -0.2106 -2.4263  0.9541
  410TMC3    C1 6169   1.714   4.270  16.812 -0.3199 -0.5654 -0.0228
  410TMC3    C2 6170   1.833   4.271  16.880 -0.5122 -0.9674 -0.9076
  410TMC3    C3 6171   1.930   4.349  16.837  0.3328  0.5761 -0.1885
  410TMC3    C4 6172   1.685   4.342  16.701  0.4200 -0.2874  0.2109
  410TMC3    C5 6173   1.791   4.428  16.660  0.3275 -1.0571 -0.1018
  410TMC3    C6 6174   1.912   4.432  16.725  0.2468  0.7643 -0.2159
  410TMC3     C 6175   1.630   4.161  16.856 -1.2109 -0.1038 -0.3679
  410TMC3     O 6176   1.685   4.078  16.926 -0.2410 -0.0086  0.5199
  410TMC3     H 6177   1.829   4.220  16.976  0.7273 -2.8359 -1.8461
  410TMC3    H1 6178   1.595   4.325  16.643  0.0090 -2.5424  1.5108
  410TMC3    H2 6179   1.989   4.498  16.687  0.1462 -0.4814 -2.6252
  410TMC3    C7 6180   1.778   4.477  16.520  0.7315 -0.1469 -0.1211
  410TMC3    C8 6181   2.045   4.359  16.917  0.1955 -0.6703  0.2321
  410TMC3    O1 6182   1.693   4.419  16.452  0.1141  0.5089  0.6520
  410TMC3    O2 6183   2.115   4.460  16.919 -0.0797 -0.3885  0.1286
  411MPD2     C 6184   1.219   3.564  14.184 -0.7011  0.7152  0.3589
  411MPD2    C1 6185   1.256   3.565  14.318 -0.4875  0.2767  0.3351
  411MPD2    C2 6186   1.227   3.467  14.411  0.0552  0.1074  0.4649
  411MPD2    C3 6187   1.153   3.354  14.366  0.1747  0.9616 -0.4493
  411MPD2    C4 6188   1.125   3.347  14.230  0.1058 -0.4795  0.1676
  411MPD2    C5 6189   1.155   3.455  14.141 -0.4876 -0.1370  0.2640
  411MPD2     H 6190   1.248   3.480  14.517  1.3205  1.9205 -0.0040
  411MPD2    H1 6191   1.063   3.268  14.189  1.1854 -1.5352  0.5739
  411MPD2    H2 6192   1.242   3.643  14.114  2.5560 -0.0150  0.5911
  411MPD2    H3 6193   1.118   3.439  14.040  1.7255 -2.6771 -0.1554
  411MPD2     N 6194   1.103   3.250  14.445  0.2966 -0.1839 -0.2770
  411MPD2    H5 6195   1.035   3.188  14.402 -2.7115  2.9477  0.0231
  411MPD2    N1 6196   1.322   3.683  14.361 -0.9775  0.7537  0.1172
  411MPD2    H7 6197   1.335   3.756  14.293 -0.9357  0.2571 -0.4104
  412TMC3    C1 6198   1.048   3.125  14.633 -0.5494 -0.0656 -0.2090
  412TMC3    C2 6199   1.034   3.171  14.763 -0.4122 -0.5284  0.6929
  412TMC3    C3 6200   0.914   3.220  14.786 -0.4142  0.3262  0.0664
  412TMC3    C4 6201   0.944   3.093  14.553  0.3920  0.1622  0.0631
  412TMC3    C5 6202   0.815   3.134  14.581 -0.5588 -0.1019  0.1049
  412TMC3    C6 6203   0.800   3.199  14.698 -0.3534 -0.4129  0.5627
  412TMC3     C 6204   1.140   3.219  14.572 -0.4201 -0.3623  0.2039
  412TMC3     O 6205   1.228   3.265  14.647 -0.0857 -0.0868 -0.2624
  412TMC3     H 6206   1.115   3.203  14.827  0.1088 -2.0705  0.7979
  412TMC3    H1 6207   0.959   3.056  14.452  0.6471 -0.8041  0.4535
  412TMC3    H2 6208   0.711   3.254  14.727  0.3106  0.5766  0.6989
  412TMC3    C7 6209   0.761   3.200  14.462 -0.3105 -0.1930  0.0664
  412TMC3    C8 6210   0.935   3.365  14.807  0.4120 -0.4652 -0.3392
  412TMC3    O1 6211   0.836   3.211  14.368 -0.1466 -0.6882  0.2963
  412TMC3    O2 6212   1.009   3.400  14.899  0.4039  0.1870  0.1382
  413MPD2     C 6213   3.277   2.858  15.411 -0.0740  0.4255  0.7442
  413MPD2    C1 6214   3.239   2.784  15.303 -0.0502  0.1307 -0.9572
  413MPD2    C2 6215   3.313   2.675  15.263  0.9480  0.1270  0.8535
  413MPD2    C3 6216   3.426   2.639  15.332  0.2755 -0.8710  0.2152
  413MPD2    C4 6217   3.472   2.719  15.434  0.2288  0.6196 -0.2659
  413MPD2    C5 6218   3.401   2.830  15.465  0.0417 -1.3716  0.5179
  413MPD2     H 6219   3.286   2.616  15.176 -1.0220 -0.8472  2.1226
  413MPD2    H1 6220   3.569   2.697  15.478  0.6225  2.0348 -0.4173
  413MPD2    H2 6221   3.227   2.944  15.455 -0.2993 -0.1174  1.5327
  413MPD2    H3 6222   3.450   2.894  15.537 -0.2697 -0.9110  0.3194
  413MPD2     N 6223   3.499   2.525  15.294 -0.2096  0.2807 -0.6189
  413MPD2    H5 6224   3.485   2.500  15.197  1.3695 -0.0178 -0.7778
  413MPD2    N1 6225   3.115   2.819  15.247  0.2608 -0.7344 -0.4138
  413MPD2    H7 6226   3.062   2.892  15.294 -0.3389 -1.6296  0.2989
  414TMC3    C1 6227   3.604   2.310  15.327 -0.8962 -0.1072 -0.0096
  414TMC3    C2 6228   3.613   2.213  15.424 -0.6503  0.0466  0.6476
  414TMC3    C3 6229   3.616   2.083  15.376 -0.6358  0.4291 -0.6145
  414TMC3    C4 6230   3.617   2.286  15.196  0.6589 -0.2433  0.5245
  414TMC3    C5 6231   3.624   2.158  15.154 -0.1286  0.2468 -0.1748
  414TMC3    C6 6232   3.611   2.053  15.245  0.0024 -0.3698  0.0040
  414TMC3     C 6233   3.569   2.442  15.381  0.0185  0.1392 -0.3786
  414TMC3     O 6234   3.585   2.459  15.500  0.1352  0.1354  0.5023
  414TMC3     H 6235   3.594   2.237  15.528  2.0184 -1.6190  1.5184
  414TMC3    H1 6236   3.655   2.367  15.134 -1.3559  0.3863  0.1100
  414TMC3    H2 6237   3.615   1.952  15.205 -0.4371  0.8575 -3.1538
  414TMC3    C7 6238   3.709   2.137  15.039  0.6599 -0.1977  0.1674
  414TMC3    C8 6239   3.648   1.972  15.464 -0.7507 -0.3985  0.4414
  414TMC3    O1 6240   3.719   2.233  14.962  0.3328 -0.9275 -0.0475
  414TMC3    O2 6241   3.634   1.862  15.416 -0.0458  0.7857 -0.7133
  415TMC3    C1 6242   3.169   0.021  10.413 -1.0279 -0.0212 -0.1479
  415TMC3    C2 6243   3.209   0.100  10.311 -0.4871  0.0694  0.3635
  415TMC3    C3 6244   3.209   0.043  10.192 -0.5604  0.3502 -0.6390
  415TMC3    C4 6245   3.131   4.625  10.397  0.3022 -0.5015  0.1156
  415TMC3    C5 6246   3.128   4.568  10.274 -0.1222 -0.9229 -0.5377
  415TMC3    C6 6247   3.165   4.652  10.167 -0.2631  0.6650 -0.0755
  415TMC3     C 6248   3.145   0.083  10.548 -0.2269  0.2566 -0.3601
  415TMC3     O 6249   3.079   0.015  10.622  0.4400 -0.4464 -0.6266
  415TMC3     H 6250   3.220   0.208  10.318 -1.4620  0.0704  1.8669
  415TMC3    H1 6251   3.089   4.573  10.482 -0.2725  0.6960  0.5607
  415TMC3    H2 6252   3.163   4.615  10.066 -2.0193 -0.7864  0.4870
  415TMC3    C7 6253   3.071   4.442  10.247  0.0372 -0.1226 -0.1868
  415TMC3    C8 6254   3.230   0.131  10.083  0.4001 -0.2178  0.4123
  415TMC3    O1 6255   3.030   4.413  10.134  0.3217  0.1992  0.2480
  415TMC3    O2 6256   3.189   0.093   9.972  0.3762  0.2024  0.4771
  416MPD2     C 6257   0.758   3.965  11.636 -1.1667  0.1333  0.2345
  416MPD2    C1 6258   0.656   3.873  11.651 -1.3921 -0.1406  0.0831
  416MPD2    C2 6259   0.668   3.750  11.590 -1.0356 -0.2433 -0.2193
  416MPD2    C3 6260   0.780   3.729  11.510  0.3559 -0.2819 -0.0452
  416MPD2    C4 6261   0.873   3.828  11.487  0.0627  0.3836 -0.2682
  416MPD2    C5 6262   0.870   3.944  11.566  0.1980  0.2090 -0.7465
  416MPD2     H 6263   0.586   3.680  11.594  0.9865 -2.7109 -1.8930
  416MPD2    H1 6264   0.965   3.818  11.430  0.2606  0.3845  0.0476
  416MPD2    H2 6265   0.752   4.056  11.695  0.3366  0.4247 -0.0700
  416MPD2    H3 6266   0.953   4.013  11.566  0.6011 -0.2790 -0.7515
  416MPD2     N 6267   0.778   3.610  11.434  0.4086 -0.5184 -0.1646
  416MPD2    H5 6268   0.708   3.539  11.454  0.2356 -0.3598 -0.2126
  416MPD2    N1 6269   0.539   3.908  11.721 -0.1694 -0.1323 -0.7023
  416MPD2    H7 6270   0.529   3.998  11.767 -5.1146 -0.5441 -0.9146
  417TMC3    C1 6271   0.309   3.917  11.773 -0.3907  0.5473 -0.7213
  417TMC3    C2 6272   0.333   3.919  11.913  0.3404 -0.6373 -0.6737
  417TMC3    C3 6273   0.226   3.895  11.996  0.0399  0.3554  0.0819
  417TMC3    C4 6274   0.180   3.894  11.725  0.1842 -0.1232 -0.6638
  417TMC3    C5 6275   0.078   3.880  11.807 -0.0921  0.3466 -0.1000
  417TMC3    C6 6276   0.092   3.890  11.949 -0.2727  0.1779  0.2403
  417TMC3     C 6277   0.414   3.858  11.695 -0.0427 -0.2097  0.7676
  417TMC3     O 6278   0.377   3.767  11.621 -0.1183  0.5041  0.0954
  417TMC3     H 6279   0.434   3.938  11.948  0.0450  0.8516 -0.6289
  417TMC3    H1 6280   0.165   3.867  11.621  0.7552  1.0476 -1.0575
  417TMC3    H2 6281   0.008   3.883  12.017 -0.0511  0.0048  0.4924
  417TMC3    C7 6282   4.693   3.894  11.735  0.1074  0.2961  0.3547
  417TMC3    C8 6283   0.233   3.934  12.137  0.0667  0.0405 -0.2394
  417TMC3    O1 6284   4.687   3.897  11.614  0.1705  0.2521 -0.1446
  417TMC3    O2 6285   0.142   3.892  12.206 -0.6161  0.0558 -0.4144
  418TMC3    C1 6286   4.553   1.893   0.245  0.2263  0.1587 -0.1642
  418TMC3    C2 6287   4.436   1.961   0.259  0.3269  0.1881  0.2507
  418TMC3    C3 6288   4.374   1.940   0.384  0.6421 -0.6980  0.4441
  418TMC3    C4 6289   4.612   1.811   0.346  1.0144 -0.1455 -0.4196
  418TMC3    C5 6290   4.554   1.814   0.468  0.2511  0.0925 -0.1195
  418TMC3    C6 6291   4.426   1.865   0.486 -0.5900  0.2247  0.2934
  418TMC3     C 6292   4.605   1.876   0.111  0.2442 -0.0237  0.1185
  418TMC3     O 6293   4.592   1.974   0.038 -0.4492 -0.4264 -0.3300
  418TMC3     H 6294   4.378   2.016   0.185  1.7732 -0.1271 -1.1161
  418TMC3    H1 6295   4.706   1.765   0.317  0.9404  0.1432 -1.1276
  418TMC3    H2 6296   4.372   1.854   0.579 -0.5597 -1.2879  0.1324
  418TMC3    C7 6297   4.595   1.717   0.555  0.4276  0.1260  1.2500
  418TMC3    C8 6298   4.233   1.953   0.391 -0.3335  0.6181 -0.1046
  418TMC3    O1 6299   4.645   1.613   0.508  0.2351  0.0163 -0.3726
  418TMC3    O2 6300   4.190   2.058   0.342  0.2263  0.1999 -0.1484
  419MPD2     C 6301   1.863   3.816  12.533 -0.2787 -0.2036  0.0232
  419MPD2    C1 6302   1.937   3.932  12.553 -0.7919 -0.1642  0.2882
  419MPD2    C2 6303   1.952   3.971  12.686  0.4273  0.2267 -0.3466
  419MPD2    C3 6304   1.889   3.909  12.793 -0.3906 -0.4765 -0.0428
  419MPD2    C4 6305   1.821   3.794  12.770 -0.0919 -0.0257 -0.0604
  419MPD2    C5 6306   1.814   3.747  12.639  0.2845 -0.0695 -0.3827
  419MPD2     H 6307   2.002   4.065  12.707  0.0778  0.6853 -1.6034
  419MPD2    H1 6308   1.783   3.734  12.851 -1.1282 -0.5892 -0.9558
  419MPD2    H2 6309   1.855   3.774  12.434 -0.0827 -0.9458  0.3246
  419MPD2    H3 6310   1.764   3.653  12.622  2.1825 -1.5892  2.4524
  419MPD2     N 6311   1.906   3.957  12.930 -0.4972 -0.3727 -0.3510
  419MPD2    H5 6312   1.959   4.043  12.941  1.1861 -1.6346  1.2987
  419MPD2    N1 6313   2.006   3.999  12.454 -0.5070 -0.5985  0.1622
  419MPD2    H7 6314   2.065   4.077  12.483 -2.2825  1.0145 -0.5723
  420TMC3    C1 6315   1.895   3.995  13.158  0.3287 -0.0911  0.0775
  420TMC3    C2 6316   1.806   4.097  13.138  0.4674 -0.3894  0.5877
  420TMC3    C3 6317   1.846   4.217  13.191  0.2117  0.2718 -0.5269
  420TMC3    C4 6318   2.014   4.006  13.218  0.1560  0.2793 -0.1037
  420TMC3    C5 6319   2.044   4.128  13.281  0.2396 -0.0474  0.5560
  420TMC3    C6 6320   1.960   4.232  13.255 -0.2561 -0.7106  0.4582
  420TMC3     C 6321   1.874   3.896  13.049  0.0518 -0.2221  0.5791
  420TMC3     O 6322   1.819   3.792  13.083  0.4737 -0.2316 -0.0616
  420TMC3     H 6323   1.709   4.079  13.093  1.2266  0.6995 -1.4796
  420TMC3    H1 6324   2.087   3.926  13.216  0.7783  0.8938 -1.4237
  420TMC3    H2 6325   1.977   4.330  13.298 -0.3691 -0.5562  0.1448
  420TMC3    C7 6326   2.148   4.120  13.382  0.4873  0.3795 -0.0782
  420TMC3    C8 6327   1.733   4.305  13.218  0.7082  0.7688 -0.3688
  420TMC3    O1 6328   2.185   4.010  13.413  0.3032  0.6868 -0.2323
  420TMC3    O2 6329   1.622   4.254  13.230  0.5120  0.0488 -0.1773
  421TMC3    C1 6330   3.558   1.072  13.508  0.3827  0.7361 -0.4782
  421TMC3    C2 6331   3.516   1.102  13.634  0.5762 -0.5817  0.3136
  421TMC3    C3 6332   3.609   1.071  13.733  0.3139  0.0194  0.4255
  421TMC3    C4 6333   3.679   1.016  13.471  0.3494  1.3686 -0.6403
  421TMC3    C5 6334   3.769   0.993  13.576 -0.1985  0.8027  0.6437
  421TMC3    C6 6335   3.730   1.019  13.704 -0.0421 -0.5860  0.8343
  421TMC3     C 6336   3.451   1.068  13.401 -0.6661 -0.1015 -0.6238
  421TMC3     O 6337   3.343   1.118  13.433 -0.3482  0.4240 -0.5588
  421TMC3     H 6338   3.416   1.143  13.642  0.5898 -0.7280  1.2823
  421TMC3    H1 6339   3.704   1.010  13.366  0.0715  0.2923 -0.6404
  421TMC3    H2 6340   3.803   0.988  13.778 -0.2219 -2.3497  0.2779
  421TMC3    C7 6341   3.912   0.986  13.559 -0.4025 -0.0215 -0.1733
  421TMC3    C8 6342   3.584   1.114  13.872  0.0382  0.7166  0.7906
  421TMC3    O1 6343   3.975   1.049  13.647  0.5071  0.8880  0.1805
  421TMC3    O2 6344   3.679   1.094  13.948 -0.0461  0.1646  0.0556
  422TMC3    C1 6345   1.323   1.955  12.557  0.5244 -0.6569  0.0627
  422TMC3    C2 6346   1.356   2.066  12.624  0.7589 -0.6865 -0.0627
  422TMC3    C3 6347   1.347   2.066  12.759 -0.3876  0.6777 -0.0160
  422TMC3    C4 6348   1.272   1.847  12.618  0.1215 -0.0032 -0.2311
  422TMC3    C5 6349   1.239   1.856  12.748 -1.1189 -0.6950  0.3554
  422TMC3    C6 6350   1.271   1.966  12.826  0.5974  0.0379 -0.1898
  422TMC3     C 6351   1.369   1.942  12.418  0.1601  0.3440  0.0281
  422TMC3     O 6352   1.464   2.012  12.389 -0.3009  0.5971 -0.0303
  422TMC3     H 6353   1.396   2.147  12.564  2.1112  0.5949  2.5229
  422TMC3    H1 6354   1.247   1.756  12.565 -1.6716  0.8685 -0.8742
  422TMC3    H2 6355   1.250   1.965  12.932 -1.3707  3.5587 -0.5497
  422TMC3    C7 6356   1.147   1.759  12.791 -0.7715  0.0211  0.3866
  422TMC3    C8 6357   1.390   2.188  12.825  0.2870 -0.4855  0.6607
  422TMC3    O1 6358   1.146   1.646  12.740  0.5801 -0.4433  0.3773
  422TMC3    O2 6359   1.467   2.258  12.764  0.1834 -0.8389 -0.1764
  423MPD2     C 6360   2.980   3.895   0.386  0.3917 -0.5197  0.7430
  423MPD2    C1 6361   3.028   3.774   0.435  0.2295  0.0155  0.4307
  423MPD2    C2 6362   3.040   3.670   0.348  0.2399 -0.2314  0.1468
  423MPD2    C3 6363   3.002   3.676   0.219  0.3530 -0.2963  0.1584
  423MPD2    C4 6364   2.941   3.788   0.170 -0.0615 -0.4843 -0.3254
  423MPD2    C5 6365   2.925   3.895   0.262  0.8472  0.5069  0.7046
  423MPD2     H 6366   3.085   3.575   0.377 -0.5052 -0.6177  0.0263
  423MPD2    H1 6367   2.918   3.799   0.065 -0.3963 -1.9577 -0.4058
  423MPD2    H2 6368   2.990   3.991   0.436 -1.3827 -0.0244  0.1435
  423MPD2    H3 6369   2.892   3.988   0.216  0.3228 -0.0806 -0.1119
  423MPD2     N 6370   3.013   3.565   0.132 -0.1203 -0.2721  0.2906
  423MPD2    H5 6371   2.991   3.573   0.033  2.4988  0.5185 -0.2157
  423MPD2    N1 6372   3.070   3.754   0.571  0.2539 -0.5232  0.3620
  423MPD2    H7 6373   3.099   3.661   0.599 -2.5706 -1.7751 -0.8453
  424TMC3    C1 6374   3.103   3.792   0.792 -0.0017 -0.2934  1.0166
  424TMC3    C2 6375   3.224   3.729   0.794  0.1701  0.2354 -0.5761
  424TMC3    C3 6376   3.249   3.643   0.899 -0.1943  0.4809 -0.4298
  424TMC3    C4 6377   3.018   3.786   0.896  0.0458  0.0348 -0.7501
  424TMC3    C5 6378   3.051   3.706   1.000  0.2112  0.3426  0.4790
  424TMC3    C6 6379   3.166   3.634   1.004 -0.2228 -0.3072 -0.1871
  424TMC3     C 6380   3.050   3.846   0.665 -1.3869 -0.0053 -0.2618
  424TMC3     O 6381   2.983   3.948   0.660 -0.5729  0.2711  0.5584
  424TMC3     H 6382   3.281   3.738   0.703  4.0709 -2.3328  1.5970
  424TMC3    H1 6383   2.923   3.838   0.886  0.2291  0.2786 -1.2289
  424TMC3    H2 6384   3.175   3.550   1.072  3.6995 -0.2619 -0.6355
  424TMC3    C7 6385   2.968   3.694   1.118  0.0962  0.0516 -0.3955
  424TMC3    C8 6386   3.335   3.531   0.879  0.4469  0.8203  0.4504
  424TMC3    O1 6387   3.024   3.646   1.218 -0.5240 -0.5119  0.1681
  424TMC3    O2 6388   3.297   3.419   0.917  0.1221 -0.1564  0.0585
  425MPD2     C 6389   1.938   2.585  17.138  0.3207  0.7950 -0.0779
  425MPD2    C1 6390   1.831   2.515  17.184 -0.2564 -0.1775  1.0531
  425MPD2    C2 6391   1.729   2.582  17.247 -0.2337 -0.1728 -0.0821
  425MPD2    C3 6392   1.738   2.719  17.275 -0.1073 -0.7329  0.2252
  425MPD2    C4 6393   1.855   2.790  17.232 -0.6284  0.4251  0.1068
  425MPD2    C5 6394   1.950   2.722  17.161 -0.3983  0.0023 -0.4105
  425MPD2     H 6395   1.632   2.538  17.266  0.1433 -1.0704 -0.2582
  425MPD2    H1 6396   1.870   2.897  17.238  0.3897  0.3533 -1.1471
  425MPD2    H2 6397   2.009   2.530  17.078 -0.0812  1.0871 -0.8346
  425MPD2    H3 6398   2.040   2.772  17.126  0.8618 -0.8792  1.6165
  425MPD2     N 6399   1.629   2.781  17.335 -0.8398  0.1595  1.0149
  425MPD2    H5 6400   1.544   2.727  17.336 -0.4220 -0.5142 -1.0792
  425MPD2    N1 6401   1.834   2.377  17.166  0.5595  0.1852 -0.4718
  425MPD2    H7 6402   1.906   2.321  17.122  0.0376 -1.3706  0.6380
  426TMC3    C1 6403   1.770   2.153  17.172  0.1993  0.1307 -0.9558
  426TMC3    C2 6404   1.816   2.139  17.038 -0.0047 -0.1477  0.3039
  426TMC3    C3 6405   1.809   2.006  16.991  0.1890  0.8131 -0.3743
  426TMC3    C4 6406   1.709   2.049  17.242 -0.2489  0.2870 -0.0474
  426TMC3    C5 6407   1.712   1.921  17.183  0.4929  0.1376  0.3900
  426TMC3    C6 6408   1.758   1.900  17.052 -0.1264 -0.3734  0.5626
  426TMC3     C 6409   1.738   2.291  17.221  0.7971 -0.1787 -0.3469
  426TMC3     O 6410   1.635   2.310  17.287  0.0045 -0.3396  0.5641
  426TMC3     H 6411   1.857   2.220  16.978 -0.1627  0.6442  1.2701
  426TMC3    H1 6412   1.663   2.069  17.337  0.4911  0.8872  0.1854
  426TMC3    H2 6413   1.760   1.803  17.003 -0.8736 -0.1593  0.0974
  426TMC3    C7 6414   1.658   1.804  17.258  0.4990 -0.5172 -0.1739
  426TMC3    C8 6415   1.843   1.989  16.853 -0.1436 -0.2007  0.3671
  426TMC3    O1 6416   1.652   1.699  17.199  0.3725 -0.3135  0.3150
  426TMC3    O2 6417   1.881   1.882  16.817 -0.2634 -0.7389 -0.0990
  427MPD2     C 6418   0.669   4.317  14.766  0.3893 -0.2242  0.7826
  427MPD2    C1 6419   0.567   4.254  14.831 -0.2205 -0.6021  0.1532
  427MPD2    C2 6420   0.453   4.328  14.850  0.4772  0.4873  0.6734
  427MPD2    C3 6421   0.437   4.453  14.798  0.0932 -0.4998 -0.3070
  427MPD2    C4 6422   0.536   4.509  14.723  0.1100 -0.7089  0.2261
  427MPD2    C5 6423   0.656   4.440  14.708  0.2300  0.0951  0.0922
  427MPD2     H 6424   0.375   4.286  14.912  1.8537 -0.8273  1.5004
  427MPD2    H1 6425   0.527   4.604  14.671  0.7350  0.3248  2.0126
  427MPD2    H2 6426   0.769   4.275  14.757  0.0195 -0.5876 -1.6349
  427MPD2    H3 6427   0.743   4.487  14.664  3.1398 -2.6186  2.8606
  427MPD2     N 6428   0.315   4.523  14.810 -0.5596 -0.0710  0.6807
  427MPD2    H5 6429   0.307   4.608  14.756  0.4520 -0.9406 -0.8107
  427MPD2    N1 6430   0.575   4.126  14.885 -0.2698 -0.0751 -0.2116
  427MPD2    H7 6431   0.487   4.095  14.925 -0.7473  0.0270 -1.1967
  428TMC3    C1 6432   0.667   3.940  14.989  0.9226 -0.2092  0.7364
  428TMC3    C2 6433   0.753   3.834  14.984 -0.0957 -0.2691  0.0623
  428TMC3    C3 6434   0.723   3.719  15.048  0.2164  0.2094  0.8569
  428TMC3    C4 6435   0.542   3.926  15.055  0.0334 -0.2682  0.5620
  428TMC3    C5 6436   0.519   3.804  15.115 -0.1788  1.0829 -0.3194
  428TMC3    C6 6437   0.603   3.702  15.113  0.5148  0.3970 -0.2863
  428TMC3     C 6438   0.685   4.050  14.898 -0.0755 -0.0232 -0.1961
  428TMC3     O 6439   0.796   4.074  14.851 -0.0583  0.2340  0.0407
  428TMC3     H 6440   0.840   3.835  14.920 -1.0156  0.0004 -1.1976
  428TMC3    H1 6441   0.476   4.010  15.073  0.7464  0.3178  0.4342
  428TMC3    H2 6442   0.592   3.612  15.171  2.3185  0.1593 -0.2856
  428TMC3    C7 6443   0.390   3.800  15.181 -0.3098 -0.0380 -0.5441
  428TMC3    C8 6444   0.827   3.644  15.112  0.6756  0.0293 -0.2854
  428TMC3    O1 6445   0.306   3.869  15.130  0.1420 -0.0333  0.4475
  428TMC3    O2 6446   0.802   3.536  15.157 -0.2234  0.5092  0.3196
  429MPD2     C 6447   2.108   0.129   0.233 -0.3108 -0.1844  0.0975
  429MPD2    C1 6448   2.082   0.041   0.131  0.5814  0.4720 -0.3119
  429MPD2    C2 6449   2.120   0.071  17.740  0.5594  0.1799  0.5968
  429MPD2    C3 6450   2.193   0.185  17.718  0.0002 -0.0334 -0.0805
  429MPD2    C4 6451   2.244   0.259   0.081 -0.2578 -0.1862  0.2545
  429MPD2    C5 6452   2.204   0.218   0.205  0.2223 -0.2108 -0.3075
  429MPD2     H 6453   2.104   0.004  17.657  0.4730 -1.3464  1.8302
  429MPD2    H1 6454   2.297   0.353   0.074  0.2261 -0.4241  0.7514
  429MPD2    H2 6455   2.084   0.121   0.338 -1.4119  0.0616 -0.1334
  429MPD2    H3 6456   2.237   0.271   0.294  2.3239  0.2343 -1.3422
  429MPD2     N 6457   2.212   0.217  17.583  0.2056 -0.0409 -0.0113
  429MPD2    H5 6458   2.154   0.164  17.519 -0.9232 -0.2727  1.2095
  429MPD2    N1 6459   2.006   4.665   0.166 -0.0481 -0.1497 -0.2959
  429MPD2    H7 6460   2.007   4.583   0.106  0.6437 -0.8647  0.6889
  430TMC3    C1 6461   2.263   0.331  17.382  0.5163  0.4631 -0.3295
  430TMC3    C2 6462   2.311   0.448  17.336  0.3454  0.3086  0.5751
  430TMC3    C3 6463   2.317   0.458  17.201  0.4638 -0.1793  0.5639
  430TMC3    C4 6464   2.241   0.221  17.304 -0.7920  0.6187  0.3298
  430TMC3    C5 6465   2.261   0.234  17.167  0.8202 -0.1704 -0.3759
  430TMC3    C6 6466   2.295   0.353  17.111 -0.3075 -0.3298  0.0318
  430TMC3     C 6467   2.282   0.319  17.531  0.3645  0.2207 -1.0608
  430TMC3     O 6468   2.363   0.390  17.583  0.5382  0.2568  0.4944
  430TMC3     H 6469   2.341   0.517  17.414  0.1191 -2.4594  3.0779
  430TMC3    H1 6470   2.202   0.126  17.341 -2.2551  1.4596  0.9450
  430TMC3    H2 6471   2.289   0.360  17.003  1.4516  0.3987 -0.0299
  430TMC3    C7 6472   2.277   0.114  17.090 -0.4430  0.4465 -0.8044
  430TMC3    C8 6473   2.338   0.597  17.154  0.0959  0.5712  0.4263
  430TMC3    O1 6474   2.212   0.019  17.136 -0.3198  0.2910 -0.2846
  430TMC3    O2 6475   2.337   0.686  17.232 -0.0445 -0.0774 -0.4113
  431MPD2     C 6476   2.338   4.714  12.610  0.0900 -0.7272 -0.3878
  431MPD2    C1 6477   2.373   4.721  12.477 -0.0456 -0.7348  0.3133
  431MPD2    C2 6478   2.316   4.636  12.390  0.4597 -0.2557 -0.3944
  431MPD2    C3 6479   2.236   4.532  12.434 -0.2428 -0.0886  0.3959
  431MPD2    C4 6480   2.206   4.526  12.563  0.3006  0.0647 -0.3216
  431MPD2    C5 6481   2.253   4.616  12.658  0.2363  0.3335  0.0486
  431MPD2     H 6482   2.344   4.631  12.286  1.2706  0.5640 -0.2159
  431MPD2    H1 6483   2.153   4.438  12.596 -0.0069  0.4190  0.1318
  431MPD2    H2 6484   2.371   0.048  12.687 -0.2845  0.2208 -1.0844
  431MPD2    H3 6485   2.229   4.601  12.763  0.3717 -1.9335 -0.2321
  431MPD2     N 6486   2.177   4.425  12.358 -0.2310 -0.2697 -0.6250
  431MPD2    H5 6487   2.116   4.359  12.405 -1.8338  1.2384 -0.5783
  431MPD2    N1 6488   2.463   0.066  12.413  0.3494  0.3982 -0.2161
  431MPD2    H7 6489   2.497   0.036  12.323 -1.6812  0.1653 -0.8900
  432TMC3    C1 6490   2.135   4.274  12.182 -0.1147 -0.1362 -0.0635
  432TMC3    C2 6491   2.162   4.237  12.048 -0.3916  0.3465 -0.4767
  432TMC3    C3 6492   2.142   4.106  12.014  0.3156 -0.2879  0.0973
  432TMC3    C4 6493   2.093   4.185  12.271  0.5499 -0.0663 -0.0097
  432TMC3    C5 6494   2.076   4.058  12.233  0.0024  0.4957  0.0501
  432TMC3    C6 6495   2.110   4.018  12.107  0.6521  0.1090 -0.6236
  432TMC3     C 6496   2.194   4.400  12.226 -0.5424 -0.7765 -0.8314
  432TMC3     O 6497   2.283   4.436  12.147  0.3888 -0.1385 -0.2230
  432TMC3     H 6498   2.202   4.300  11.970  2.5157 -1.4100 -0.4041
  432TMC3    H1 6499   2.053   4.220  12.366  0.0467  2.1212 -1.0173
  432TMC3    H2 6500   2.113   3.912  12.083 -1.9459  0.0193 -0.6116
  432TMC3    C7 6501   2.002   3.969  12.318  0.3890  0.2897  0.1486
  432TMC3    C8 6502   2.229   4.057  11.912  0.4025 -0.9768  0.4839
  432TMC3    O1 6503   1.943   3.883  12.259  0.3478 -0.0206 -0.4444
  432TMC3    O2 6504   2.242   4.100  11.796  0.1280  0.1611  0.0937
  433MPD2     C 6505   1.398   3.229  11.073  0.3215 -0.3473  0.4575
  433MPD2    C1 6506   1.274   3.174  11.109 -0.2133 -0.4775  0.4259
  433MPD2    C2 6507   1.266   3.110  11.234 -0.0977  0.8839 -0.4773
  433MPD2    C3 6508   1.375   3.101  11.321 -0.7440 -0.1427 -0.2147
  433MPD2    C4 6509   1.492   3.169  11.292  0.7744 -1.0686 -0.3383
  433MPD2    C5 6510   1.508   3.224  11.161 -1.1629 -0.3418  0.5876
  433MPD2     H 6511   1.177   3.049  11.240 -0.7476  2.0539  2.0358
  433MPD2    H1 6512   1.583   3.162  11.350  0.7929 -0.3151 -0.2768
  433MPD2    H2 6513   1.411   3.275  10.976  1.4960 -2.6805 -0.4734
  433MPD2    H3 6514   1.601   3.276  11.141 -2.2776  1.5362  0.2525
  433MPD2     N 6515   1.363   3.021  11.439 -0.5565 -0.1443  0.1218
  433MPD2    H5 6516   1.266   2.997  11.460 -1.0806  1.3014 -0.5725
  433MPD2    N1 6517   1.174   3.155  11.005  0.2295 -0.4357  0.0352
  433MPD2    H7 6518   1.207   3.176  10.911  0.1770  0.9360  0.3193
  434TMC3    C1 6519   1.013   3.029  10.910  0.8563  0.7494 -0.1413
  434TMC3    C2 6520   0.987   2.900  10.938  0.4719  0.4105 -0.1037
  434TMC3    C3 6521   0.940   2.824  10.838 -0.5718  0.0185 -0.4768
  434TMC3    C4 6522   0.982   3.088  10.791 -0.3083  1.2831  0.4766
  434TMC3    C5 6523   0.937   3.011  10.693 -0.9713 -0.2620  0.1783
  434TMC3    C6 6524   0.916   2.875  10.707 -0.1206 -0.1745 -0.3375
  434TMC3     C 6525   1.042   3.106  11.024 -0.8248 -0.3548 -0.0986
  434TMC3     O 6526   0.980   3.089  11.123 -0.0558 -0.0685 -0.2328
  434TMC3     H 6527   1.005   2.863  11.039 -1.1437  1.3592  0.5377
  434TMC3    H1 6528   1.005   3.191  10.764  0.0281  1.2218  0.5238
  434TMC3    H2 6529   0.903   2.812  10.620  2.0321 -0.3039 -0.5523
  434TMC3    C7 6530   0.891   3.068  10.571 -0.7643  0.1691 -0.2005
  434TMC3    C8 6531   0.956   2.686  10.856 -0.3979  0.0313 -0.3109
  434TMC3    O1 6532   0.964   3.147  10.514  0.0237  0.4880 -0.4591
  434TMC3    O2 6533   1.065   2.655  10.898  0.1891 -0.1331  0.3289
  435MPD2     C 6534   3.987   3.577  15.541  0.3279  0.7610  0.1058
  435MPD2    C1 6535   3.913   3.523  15.648 -0.0163  0.3282  0.4064
  435MPD2    C2 6536   3.962   3.412  15.719  0.2063  0.8903  0.6923
  435MPD2    C3 6537   4.088   3.374  15.708 -0.2801 -0.5432  0.0155
  435MPD2    C4 6538   4.167   3.433  15.609 -0.0587 -0.1419 -0.2495
  435MPD2    C5 6539   4.117   3.539  15.529 -0.2038 -0.2711 -0.2292
  435MPD2     H 6540   3.905   3.355  15.791 -2.1287  0.8994 -1.1723
  435MPD2    H1 6541   4.271   3.406  15.594  0.8307  2.8837  0.4194
  435MPD2    H2 6542   3.956   3.663  15.483  1.9286  0.6474 -0.9233
  435MPD2    H3 6543   4.188   3.592  15.467  0.5088  0.0370  0.8472
  435MPD2     N 6544   4.123   3.269  15.789  0.3389 -0.0295 -0.3046
  435MPD2    H5 6545   4.055   3.252  15.862 -0.0312  1.2747 -0.3416
  435MPD2    N1 6546   3.782   3.573  15.681 -0.0966 -0.6270 -0.8979
  435MPD2    H7 6547   3.721   3.524  15.746  3.4241  0.9009  3.5873
  436TMC3    C1 6548   3.367   3.755  15.691  0.6738 -0.7017 -0.4445
  436TMC3    C2 6549   3.496   3.777  15.657  0.3478  1.0959  1.3595
  436TMC3    C3 6550   3.564   3.664  15.636 -0.4859  1.0457  0.1788
  436TMC3    C4 6551   3.302   3.632  15.688 -0.4602  0.3493  0.3309
  436TMC3    C5 6552   3.373   3.527  15.647  0.3214 -0.1075 -0.4916
  436TMC3    C6 6553   3.504   3.540  15.625 -0.5254 -0.4892  0.1144
  436TMC3     C 6554   3.310   3.868  15.768  0.0825 -0.5426  0.3936
  436TMC3     O 6555   3.351   3.976  15.734  0.0803  0.6022 -0.3006
  436TMC3     H 6556   3.536   3.876  15.672  0.4255  1.3497 -0.5640
  436TMC3    H1 6557   3.195   3.618  15.703 -0.6254  1.1532 -0.0872
  436TMC3    H2 6558   3.557   3.451  15.593 -0.2795 -0.7643  1.3016
  436TMC3    C7 6559   3.328   3.392  15.666  0.4699 -0.2890  0.2570
  436TMC3    C8 6560   3.715   3.673  15.611  0.0129 -0.8260 -0.8472
  436TMC3    O1 6561   3.374   3.311  15.592  0.4461  0.2967 -0.3626
  436TMC3    O2 6562   3.763   3.770  15.559 -0.4506 -0.4409 -0.1652
  437TMC3    C1 6563   2.249   4.610  11.904 -1.1035 -0.9103 -0.1463
  437TMC3    C2 6564   2.199   4.542  11.796 -0.1788 -0.1414 -0.5803
  437TMC3    C3 6565   2.281   4.477  11.703  0.4519 -0.0620 -0.3944
  437TMC3    C4 6566   2.384   4.636  11.911  0.0154 -0.1226 -0.2278
  437TMC3    C5 6567   2.464   4.576  11.817  0.3358 -0.1731  0.0101
  437TMC3    C6 6568   2.417   4.503  11.714  0.2109  0.0402 -0.1255
  437TMC3     C 6569   2.160   4.687  12.003 -0.3117  0.7162 -0.7560
  437TMC3     O 6570   2.043   4.654  12.012  0.0926 -0.7165  0.2654
  437TMC3     H 6571   2.094   4.512  11.793 -0.1143 -0.3150 -1.0276
  437TMC3    H1 6572   2.423   4.680  12.003 -2.4811  2.1636 -0.2828
  437TMC3    H2 6573   2.483   4.466  11.636 -1.4768 -1.2085 -0.9708
  437TMC3    C7 6574   2.609   4.618  11.809  0.5197  0.3236  0.7687
  437TMC3    C8 6575   2.222   4.466  11.575 -0.6034  0.1337 -0.3413
  437TMC3    O1 6576   2.677   4.592  11.710  0.4658 -0.2264  0.0969
  437TMC3    O2 6577   2.116   4.523  11.561 -0.3038 -0.1554  0.0182
  438MPD2     C 6578   4.309   1.417  16.815  0.3151  0.2991  0.2271
  438MPD2    C1 6579   4.383   1.328  16.887 -0.1119 -0.0313 -0.3080
  438MPD2    C2 6580   4.347   1.305  17.020  0.5127  0.2863  0.3498
  438MPD2    C3 6581   4.256   1.388  17.091 -0.2973 -0.7913 -0.0277
  438MPD2    C4 6582   4.186   1.479  17.012 -0.1163  0.2906 -0.6312
  438MPD2    C5 6583   4.213   1.494  16.877  0.0249  0.3817  0.5445
  438MPD2     H 6584   4.399   1.226  17.073 -0.9901 -0.1797  1.1402
  438MPD2    H1 6585   4.109   1.541  17.056 -1.9162 -2.5815  0.2529
  438MPD2    H2 6586   4.326   1.437  16.710 -1.3065  1.5003  0.1968
  438MPD2    H3 6587   4.164   1.558  16.805  2.4228  0.3985 -1.0641
  438MPD2     N 6588   4.248   1.401  17.234  0.0997  0.6286 -0.3514
  438MPD2    H5 6589   4.182   1.461  17.283  0.7132  2.6369 -1.9884
  438MPD2    N1 6590   4.485   1.247  16.827 -0.1382  0.7461 -0.9157
  438MPD2    H7 6591   4.506   1.159  16.873 -0.5231  0.3488 -1.4899
  439TMC3    C1 6592   4.620   1.150  16.662  0.0376 -0.1152  0.5434
  439TMC3    C2 6593   4.618   1.103  16.538  0.3097  0.4388 -0.9241
  439TMC3    C3 6594   4.667   0.977  16.521  0.2757  0.2139 -1.0858
  439TMC3    C4 6595   4.675   1.087  16.770  0.4033 -0.2114  0.1498
  439TMC3    C5 6596   0.007   0.967  16.744 -0.0410 -0.4179 -0.1372
  439TMC3    C6 6597   4.730   0.908  16.622  0.0451 -0.3805  0.2825
  439TMC3     C 6598   4.523   1.252  16.696  0.2787 -0.2994  0.3120
  439TMC3     O 6599   4.482   1.322  16.605 -0.0673 -0.6884  0.4559
  439TMC3     H 6600   4.575   1.160  16.456  2.3124 -0.2840 -2.4594
  439TMC3    H1 6601   4.692   1.138  16.863 -0.3847  0.6431 -0.1796
  439TMC3    H2 6602   0.032   0.809  16.599 -1.1398 -0.6086 -0.6911
  439TMC3    C7 6603   0.138   0.964  16.784 -0.6565 -0.6994  0.4738
  439TMC3    C8 6604   4.727   0.959  16.393  0.2162 -0.4528 -0.0473
  439TMC3    O1 6605   0.171   0.987  16.897 -0.0261 -0.2572 -0.4987
  439TMC3    O2 6606   0.104   0.912  16.390 -0.2415  0.0465 -0.1085
  440MPD2     C 6607   3.222   1.249  15.208 -0.0745 -0.7680  0.0198
  440MPD2    C1 6608   3.302   1.356  15.231 -0.8547 -0.1078 -0.6881
  440MPD2    C2 6609   3.425   1.340  15.291  0.7323  0.6490  0.6484
  440MPD2    C3 6610   3.471   1.216  15.322  0.2588  0.1096  0.8891
  440MPD2    C4 6611   3.389   1.109  15.304  0.0160  0.4605 -0.6258
  440MPD2    C5 6612   3.264   1.125  15.253 -0.0974  0.1481 -0.4836
  440MPD2     H 6613   3.468   1.437  15.312  0.6752  0.4040  1.8516
  440MPD2    H1 6614   3.428   1.009  15.319  0.6060  0.5884 -1.3077
  440MPD2    H2 6615   3.125   1.255  15.159  0.6245 -0.3247 -1.3194
  440MPD2    H3 6616   3.197   1.043  15.229 -0.2166  0.9765 -2.9456
  440MPD2     N 6617   3.591   1.192  15.383  0.2258 -0.5673  0.3678
  440MPD2    H5 6618   3.612   1.096  15.408 -0.3519 -0.7133  0.2723
  440MPD2    N1 6619   3.262   1.488  15.194 -0.1081  0.0743  0.5228
  440MPD2    H7 6620   3.330   1.559  15.223  1.0369 -1.9791  2.8210
  441TMC3    C1 6621   3.803   1.235  15.494 -0.4167  0.1491  0.5732
  441TMC3    C2 6622   3.877   1.345  15.542  0.2293  0.0180  0.1024
  441TMC3    C3 6623   3.921   1.334  15.671 -0.2057  0.2456  0.4045
  441TMC3    C4 6624   3.788   1.114  15.566  0.3421 -0.0750  0.4697
  441TMC3    C5 6625   3.825   1.118  15.699  0.2584  0.3218 -0.0860
  441TMC3    C6 6626   3.885   1.231  15.759  0.3294  0.4177  0.8109
  441TMC3     C 6627   3.694   1.283  15.410 -0.0991  0.1924  0.4846
  441TMC3     O 6628   3.688   1.403  15.382  0.1625  0.3618 -0.0014
  441TMC3     H 6629   3.905   1.427  15.476  0.8470 -0.9270 -0.8137
  441TMC3    H1 6630   3.728   1.033  15.526 -1.3826  1.2328  0.4237
  441TMC3    H2 6631   3.916   1.235  15.863  0.8635 -3.1485  0.7866
  441TMC3    C7 6632   3.754   1.019  15.782 -0.5714 -0.4201  0.0161
  441TMC3    C8 6633   3.947   1.458  15.739 -0.2065  0.1963 -0.2406
  441TMC3    O1 6634   3.675   0.943  15.731 -0.0782  0.4335  0.1034
  441TMC3    O2 6635   4.016   1.450  15.845  0.0155 -0.9313  0.7952
  442MPD2     C 6636   1.436   2.177  16.174  0.5262  1.0104  0.1899
  442MPD2    C1 6637   1.331   2.106  16.234  0.3699  0.2553  0.2516
  442MPD2    C2 6638   1.284   1.994  16.163  0.0632 -0.4375 -0.3980
  442MPD2    C3 6639   1.331   1.967  16.031 -0.2729  0.2468 -0.3522
  442MPD2    C4 6640   1.419   2.054  15.971  0.2077 -0.1709 -0.7312
  442MPD2    C5 6641   1.474   2.151  16.041  0.2342 -0.5415  0.5712
  442MPD2     H 6642   1.212   1.931  16.214 -2.2098  2.2903 -0.1884
  442MPD2    H1 6643   1.450   2.030  15.870  1.0086  1.5417 -0.8830
  442MPD2    H2 6644   1.488   2.248  16.237 -0.2392  1.0144  0.8217
  442MPD2    H3 6645   1.553   2.208  15.996 -0.9858  1.4087  0.8905
  442MPD2     N 6646   1.295   1.843  15.970  0.2266 -0.3305 -0.4489
  442MPD2    H5 6647   1.330   1.823  15.877  2.1243 -1.2604  0.4584
  442MPD2    N1 6648   1.275   2.144  16.356  0.2767  0.3515 -0.0118
  442MPD2    H7 6649   1.186   2.101  16.374  0.7470 -0.1963  0.9950
  443TMC3    C1 6650   1.245   2.239  16.562 -0.4646 -0.3682 -0.3247
  443TMC3    C2 6651   1.169   2.350  16.571 -0.4799  0.1452 -0.7158
  443TMC3    C3 6652   1.044   2.340  16.627  0.5795  0.3060  0.7215
  443TMC3    C4 6653   1.228   2.123  16.633  0.3161 -0.7396  0.3271
  443TMC3    C5 6654   1.108   2.125  16.708 -0.2679 -0.2174  0.4219
  443TMC3    C6 6655   1.028   2.234  16.716  0.8798  0.1792 -0.5352
  443TMC3     C 6656   1.322   2.243  16.439 -0.5722 -0.1587  0.7338
  443TMC3     O 6657   1.406   2.334  16.428 -0.0212 -0.2484  0.2958
  443TMC3     H 6658   1.181   2.436  16.506  0.1078 -0.2654 -1.1534
  443TMC3    H1 6659   1.290   2.037  16.614  0.1789 -0.5249 -1.0480
  443TMC3    H2 6660   0.928   2.221  16.754  0.7172  0.3210 -0.9096
  443TMC3    C7 6661   1.076   2.016  16.799  0.6172 -0.1364 -0.2389
  443TMC3    C8 6662   0.937   2.324  16.523  0.7537 -0.5027 -0.1713
  443TMC3    O1 6663   1.095   1.905  16.752 -0.2146  0.6924  0.2803
  443TMC3    O2 6664   0.858   2.231  16.531 -0.8019 -0.0692  0.1992
  444MPD2     C 6665   1.504   1.899  16.727  0.1341 -0.3308  0.2244
  444MPD2    C1 6666   1.491   1.790  16.810  0.2733 -0.2719 -0.0136
  444MPD2    C2 6667   1.538   1.662  16.770 -0.1920 -0.3942 -0.1475
  444MPD2    C3 6668   1.600   1.648  16.653 -0.0585 -0.3571 -0.2127
  444MPD2    C4 6669   1.616   1.753  16.569 -0.0696  0.2154  0.5267
  444MPD2    C5 6670   1.553   1.877  16.603 -0.1779 -0.0158  0.2637
  444MPD2     H 6671   1.519   1.575  16.832  1.1441 -0.0387  0.7500
  444MPD2    H1 6672   1.664   1.755  16.472  1.3723 -0.7822  1.2302
  444MPD2    H2 6673   1.485   2.002  16.756  2.3732 -0.2014  1.2429
  444MPD2    H3 6674   1.567   1.963  16.538  0.5175  1.2586  2.1038
  444MPD2     N 6675   1.637   1.517  16.618  0.2587 -0.0666  0.2560
  444MPD2    H5 6676   1.600   1.444  16.679 -3.1067  0.8213 -0.7583
  444MPD2    N1 6677   1.424   1.794  16.935 -0.7812  0.1478  0.5567
  444MPD2    H7 6678   1.421   1.704  16.982  2.3034 -0.7700 -1.0200
  445TMC3    C1 6679   1.743   1.346  16.507 -0.3136  0.4942 -0.0683
  445TMC3    C2 6680   1.632   1.268  16.495  0.0029 -0.2629  0.0483
  445TMC3    C3 6681   1.649   1.144  16.449 -0.1249 -0.4294  0.2153
  445TMC3    C4 6682   1.865   1.297  16.483  0.4738  0.4085  0.0189
  445TMC3    C5 6683   1.878   1.174  16.432 -0.1764 -0.0066  0.1232
  445TMC3    C6 6684   1.773   1.097  16.413 -0.3794 -0.1414  0.4981
  445TMC3     C 6685   1.730   1.489  16.527 -0.1868  0.4342 -0.0205
  445TMC3     O 6686   1.829   1.554  16.499  0.1563 -0.8227 -0.1397
  445TMC3     H 6687   1.537   1.307  16.530 -0.4270 -1.2903  0.0379
  445TMC3    H1 6688   1.944   1.362  16.519 -0.4617  0.6401  1.6834
  445TMC3    H2 6689   1.788   1.002  16.363  3.7184  1.5512 -1.4732
  445TMC3    C7 6690   2.010   1.117  16.406  0.4064 -0.9330  0.1854
  445TMC3    C8 6691   1.538   1.057  16.422 -0.5840  0.3000  0.6133
  445TMC3    O1 6692   2.028   1.062  16.299 -0.4398  0.6727  0.1471
  445TMC3    O2 6693   1.560   0.937  16.428  0.0999  0.1620  0.3735
  446MPD2     C 6694   0.990   2.443  11.402 -0.2053  0.1491 -1.2678
  446MPD2    C1 6695   0.938   2.485  11.277  0.5144  0.5029  0.6784
  446MPD2    C2 6696   1.010   2.586  11.209  0.2841 -0.0907 -0.3732
  446MPD2    C3 6697   1.132   2.634  11.257 -0.1667  0.0778  0.2214
  446MPD2    C4 6698   1.183   2.587  11.377  0.2878 -0.1490  0.2957
  446MPD2    C5 6699   1.113   2.490  11.443  1.1487 -0.9108 -0.5220
  446MPD2     H 6700   0.967   2.628  11.118 -0.3323  1.3018  0.5594
  446MPD2    H1 6701   1.279   2.619  11.416  0.7620  2.3964 -3.0180
  446MPD2    H2 6702   0.945   2.365  11.463 -0.2139 -0.2560 -1.7939
  446MPD2    H3 6703   1.136   2.457  11.543 -2.1520 -0.6658  0.3287
  446MPD2     N 6704   1.217   2.699  11.160  1.3417  0.2945  0.3567
  446MPD2    H5 6705   1.185   2.698  11.064  1.8263 -2.5493  0.2276
  446MPD2    N1 6706   0.818   2.438  11.218  0.1382  0.3883 -0.0461
  446MPD2    H7 6707   0.768   2.490  11.146  1.3853  0.5028 -0.8175
  447TMC3    C1 6708   1.405   2.822  11.084  0.7677  0.5818 -0.2919
  447TMC3    C2 6709   1.343   2.832  10.962 -0.1255 -0.3929 -0.0143
  447TMC3    C3 6710   1.410   2.907  10.867  0.5632  0.0561  0.4231
  447TMC3    C4 6711   1.527   2.872  11.106 -0.3982 -0.2510 -0.0566
  447TMC3    C5 6712   1.595   2.925  11.001 -0.8705 -0.3484  0.1092
  447TMC3    C6 6713   1.539   2.941  10.882  0.3169 -0.1289 -0.3881
  447TMC3     C 6714   1.346   2.742  11.189  0.5779  0.3505  0.2424
  447TMC3     O 6715   1.421   2.720  11.289 -0.1739 -0.2194  0.0041
  447TMC3     H 6716   1.239   2.805  10.945  0.3521 -1.1795 -1.7822
  447TMC3    H1 6717   1.575   2.854  11.202 -1.1496  0.3491  0.4321
  447TMC3    H2 6718   1.593   3.002  10.810  0.7897 -0.0912  0.0028
  447TMC3    C7 6719   1.733   2.968  11.022  0.0799 -0.3371  0.5738
  447TMC3    C8 6720   1.337   2.938  10.744 -0.3324  0.7725  0.0738
  447TMC3    O1 6721   1.801   2.970  10.922 -0.2640  0.4714  0.0219
  447TMC3    O2 6722   1.355   3.047  10.688 -0.3341  0.3897  0.3499
  448TMC3    C1 6723   4.339   2.963  16.757 -0.0730 -0.1702 -0.1124
  448TMC3    C2 6724   4.331   2.837  16.694  0.4198 -0.2885 -0.3404
  448TMC3    C3 6725   4.415   2.743  16.744 -0.2897  0.3458 -0.1386
  448TMC3    C4 6726   4.421   2.981  16.859  0.0280 -0.0389 -0.6404
  448TMC3    C5 6727   4.510   2.883  16.893  0.1117  0.2811  0.2939
  448TMC3    C6 6728   4.509   2.758  16.840  0.2614  0.4506  0.0861
  448TMC3     C 6729   4.223   3.055  16.752  0.2350 -0.2058 -0.2428
  448TMC3     O 6730   4.239   3.165  16.804  0.5591  0.0141  0.3065
  448TMC3     H 6731   4.266   2.810  16.611  1.0197  2.4068 -1.6965
  448TMC3    H1 6732   4.413   3.070  16.919  0.7794 -1.2012  1.1699
  448TMC3    H2 6733   4.576   2.677  16.869 -0.0694  0.7488  1.6764
  448TMC3    C7 6734   4.587   2.911  17.010 -0.3198 -0.1065 -0.9094
  448TMC3    C8 6735   4.404   2.611  16.699 -0.1612 -0.3877 -0.1240
  448TMC3    O1 6736   4.616   3.026  17.049 -0.4256  0.1183 -0.9126
  448TMC3    O2 6737   4.414   2.525  16.781  0.4978 -0.1217  0.1352
  449MPD2     C 6738   0.955   0.436  14.058  0.3841 -0.8451 -1.0740
  449MPD2    C1 6739   0.898   0.559  14.061  0.2901 -1.0457  0.5893
  449MPD2    C2 6740   0.857   0.614  14.180 -0.0792  0.2510  0.2269
  449MPD2    C3 6741   0.880   0.548  14.297  0.2760  0.3709  0.0011
  449MPD2    C4 6742   0.932   0.419  14.297  0.0300  0.0753 -0.5463
  449MPD2    C5 6743   0.971   0.369  14.178  0.0577  0.3027 -0.1581
  449MPD2     H 6744   0.823   0.717  14.182  1.9022  0.8518  2.8402
  449MPD2    H1 6745   0.956   0.357  14.383  2.9213 -0.1277 -1.4822
  449MPD2    H2 6746   0.993   0.385  13.970  0.0702  0.0472 -1.7223
  449MPD2    H3 6747   1.011   0.268  14.172 -0.4501  0.0817  0.2375
  449MPD2     N 6748   0.817   0.605  14.408  0.6478 -0.1418  0.8717
  449MPD2    H5 6749   0.765   0.691  14.390 -1.8457 -1.7897  0.3001
  449MPD2    N1 6750   0.875   0.636  13.945  0.1557  0.2633  0.3150
  449MPD2    H7 6751   0.830   0.725  13.964 -0.0191  0.8228 -2.7093
  450TMC3    C1 6752   0.857   0.722  13.739 -0.1352 -0.5089  0.2523
  450TMC3    C2 6753   0.944   0.786  13.658 -0.0641  0.0534  0.0981
  450TMC3    C3 6754   0.924   0.918  13.638 -0.3506 -0.6981  1.0972
  450TMC3    C4 6755   0.743   0.785  13.788 -1.3428 -0.3777 -0.2105
  450TMC3    C5 6756   0.729   0.922  13.775 -0.2335 -0.3409 -0.3509
  450TMC3    C6 6757   0.824   0.988  13.702  0.4652  0.1064  0.5462
  450TMC3     C 6758   0.921   0.616  13.819 -0.1271  0.6136 -0.4146
  450TMC3     O 6759   0.993   0.528  13.774 -0.4192  0.0582 -0.1724
  450TMC3     H 6760   1.021   0.722  13.616  0.1031  0.3785 -0.0886
  450TMC3    H1 6761   0.666   0.729  13.839 -1.4274 -1.4324 -1.4949
  450TMC3    H2 6762   0.819   1.095  13.684  1.9199  0.2860  1.2206
  450TMC3    C7 6763   0.733   0.974  13.912 -0.5727  0.3440  0.4671
  450TMC3    C8 6764   0.964   0.987  13.517 -0.3605 -0.1081 -0.6532
  450TMC3    O1 6765   0.778   0.889  13.987  0.7558  0.2311  0.3573
  450TMC3    O2 6766   0.883   1.063  13.469  0.2159  0.4221 -0.1381
  451MPD2     C 6767   2.854   4.614   1.187  0.7784 -0.1928  0.4207
  451MPD2    C1 6768   2.804   4.690   1.077  0.6756  0.2501  0.0897
  451MPD2    C2 6769   2.871   4.677   0.954  0.0608  0.5865  0.2954
  451MPD2    C3 6770   2.970   4.579   0.935 -0.2188  0.0380 -0.7380
  451MPD2    C4 6771   3.017   4.511   1.045  0.0881 -0.2710  0.1381
  451MPD2    C5 6772   2.960   4.529   1.169  0.2717 -0.4776 -0.1110
  451MPD2     H 6773   2.835   0.007   0.875  0.4160  0.3751 -0.0384
  451MPD2    H1 6774   3.086   4.428   1.047  1.7561  1.1410  0.3129
  451MPD2    H2 6775   2.803   4.608   1.282 -1.9817  0.6755 -0.9933
  451MPD2    H3 6776   2.987   4.467   1.253 -0.1775  0.2786  0.5904
  451MPD2     N 6777   3.019   4.555   0.804  0.3917 -0.2944  0.3792
  451MPD2    H5 6778   3.074   4.470   0.797  0.0903 -0.3587 -1.0840
  451MPD2    N1 6779   2.712   0.066   1.106 -0.1643  0.0308  0.8272
  451MPD2    H7 6780   2.673   0.076   1.199  0.2951 -0.1940  1.0398
  452TMC3    C1 6781   3.069   4.587   0.580 -0.5657 -0.1367  0.7799
  452TMC3    C2 6782   3.038   4.457   0.554  0.4916 -0.2960  0.9245
  452TMC3    C3 6783   3.029   4.419   0.423  0.1032 -0.2301 -0.4729
  452TMC3    C4 6784   3.083   4.681   0.479 -0.0018 -0.2819  0.0145
  452TMC3    C5 6785   3.064   4.643   0.353  0.3965  0.1036 -0.4422
  452TMC3    C6 6786   3.040   4.509   0.317  0.4400  0.1240 -0.6283
  452TMC3     C 6787   3.014   4.638   0.699 -0.0300  0.2934 -0.1996
  452TMC3     O 6788   2.973   0.019   0.696  0.1990 -0.1726  0.1442
  452TMC3     H 6789   3.027   4.385   0.635 -0.0639 -2.0323 -0.6711
  452TMC3    H1 6790   3.097   0.050   0.505 -2.3404 -0.4894  2.1906
  452TMC3    H2 6791   3.016   4.468   0.219  1.5210 -1.6987 -0.1285
  452TMC3    C7 6792   3.034   0.007   0.260  0.2549  0.1063 -0.4426
  452TMC3    C8 6793   2.930   4.304   0.402  0.5681  0.2310 -0.0249
  452TMC3    O1 6794   3.039   0.125   0.303 -0.1344  0.0251  0.2967
  452TMC3    O2 6795   2.943   4.235   0.303  0.2977 -0.0886  0.0290
  453TMC3    C1 6796   3.340   1.778  11.717  0.3127 -0.1336 -0.1168
  453TMC3    C2 6797   3.225   1.727  11.776 -0.1315 -0.2003  0.7761
  453TMC3    C3 6798   3.109   1.743  11.706  0.7729 -0.6891 -0.2227
  453TMC3    C4 6799   3.334   1.834  11.594 -0.1529  0.1718  0.1864
  453TMC3    C5 6800   3.221   1.845  11.525  0.2754  1.0527 -0.9572
  453TMC3    C6 6801   3.104   1.798  11.581 -0.2818  0.5948 -0.5967
  453TMC3     C 6802   3.458   1.801  11.794 -0.4717 -0.5336 -0.1275
  453TMC3     O 6803   3.551   1.870  11.750  0.5443  0.2907 -0.0884
  453TMC3     H 6804   3.216   1.685  11.876  1.4607 -1.7879  0.2726
  453TMC3    H1 6805   3.426   1.880  11.560  0.1865  2.1498  3.7863
  453TMC3    H2 6806   3.007   1.806  11.533  0.7861  0.8294 -2.7327
  453TMC3    C7 6807   3.207   1.903  11.395  0.8258  0.0264 -0.0047
  453TMC3    C8 6808   3.010   1.640  11.727  0.0855  0.2319  1.0280
  453TMC3    O1 6809   3.095   1.917  11.349 -0.2531  0.0152 -0.0573
  453TMC3    O2 6810   2.898   1.656  11.689  0.8540 -0.5477  0.4117
  454MPD2     C 6811   2.442   1.497  15.674  0.2743  0.5834  0.0545
  454MPD2    C1 6812   2.381   1.390  15.740  0.3807 -0.2876  0.9421
  454MPD2    C2 6813   2.325   1.412  15.860 -0.6250 -0.1866 -0.1040
  454MPD2    C3 6814   2.343   1.537  15.919 -0.1109 -0.0789  0.4686
  454MPD2    C4 6815   2.415   1.634  15.864  0.1723  0.0920 -0.2129
  454MPD2    C5 6816   2.455   1.616  15.735 -0.5162 -0.4048 -0.0339
  454MPD2     H 6817   2.262   1.346  15.918 -0.6570 -0.0968 -0.0368
  454MPD2    H1 6818   2.432   1.732  15.908 -1.3189  0.4972 -0.5420
  454MPD2    H2 6819   2.475   1.486  15.571  0.6765  2.2121  0.0123
  454MPD2    H3 6820   2.507   1.697  15.686  1.4799 -1.9036 -0.4078
  454MPD2     N 6821   2.280   1.556  16.042  0.0708  0.4638  0.4122
  454MPD2    H5 6822   2.233   1.471  16.069  1.3797 -0.8048 -1.3101
  454MPD2    N1 6823   2.362   1.267  15.677  0.9505  0.0269  0.0264
  454MPD2    H7 6824   2.293   1.212  15.727  1.2243 -0.2334  0.1181
  455TMC3    C1 6825   2.201   1.656  16.232 -0.0301  0.5564 -0.3894
  455TMC3    C2 6826   2.139   1.778  16.233 -0.6002 -0.7583 -0.0987
  455TMC3    C3 6827   2.016   1.788  16.179  1.0101 -0.1860  0.1344
  455TMC3    C4 6828   2.119   1.542  16.212  0.5192 -0.1015 -0.5193
  455TMC3    C5 6829   1.990   1.558  16.175  0.1016  0.1473 -0.3203
  455TMC3    C6 6830   1.940   1.680  16.148  0.6345 -0.0470 -1.1005
  455TMC3     C 6831   2.302   1.660  16.131 -0.5467  0.1385 -0.0038
  455TMC3     O 6832   2.373   1.760  16.127  0.0239  0.0509  0.3780
  455TMC3     H 6833   2.197   1.869  16.242 -3.0840  0.8245 -0.1484
  455TMC3    H1 6834   2.161   1.443  16.228 -0.0788 -0.5742 -1.9380
  455TMC3    H2 6835   1.844   1.680  16.096 -0.3306  0.4953  0.6873
  455TMC3    C7 6836   1.941   1.444  16.100  0.5613  0.0284  0.4149
  455TMC3    C8 6837   1.942   1.908  16.214  0.1212  1.2588 -0.7754
  455TMC3    O1 6838   2.020   1.374  16.039  0.0140 -0.0606  0.1651
  455TMC3    O2 6839   1.851   1.946  16.137 -0.4610 -0.0867 -0.5367
  456MPD2     C 6840   4.409   1.445  16.044  0.2949 -0.0782 -0.3024
  456MPD2    C1 6841   4.504   1.400  16.128  0.0426 -0.2065  0.1010
  456MPD2    C2 6842   4.494   1.425  16.267 -0.0151  0.4181  0.1971
  456MPD2    C3 6843   4.396   1.508  16.318 -0.2898  0.3657 -0.7744
  456MPD2    C4 6844   4.304   1.564  16.232  0.5156 -0.7076 -0.4250
  456MPD2    C5 6845   4.313   1.532  16.100  0.9096  0.4653 -0.6574
  456MPD2     H 6846   4.568   1.389  16.338  0.5323 -1.2788 -1.2318
  456MPD2    H1 6847   4.226   1.632  16.265  0.9574 -0.4154  0.0137
  456MPD2    H2 6848   4.408   1.414  15.941 -1.1911 -1.1471  0.0283
  456MPD2    H3 6849   4.245   1.575  16.027  0.7128 -1.3318 -1.5153
  456MPD2     N 6850   4.408   1.547  16.457 -0.2870  0.2410  0.4342
  456MPD2    H5 6851   4.486   1.499  16.499  0.6676  1.7798  0.4162
  456MPD2    N1 6852   4.620   1.352  16.064 -0.3640 -0.2089 -0.1606
  456MPD2    H7 6853   4.617   1.343  15.963  0.6173  3.0930 -0.4805
  457TMC3    C1 6854   4.420   1.739  16.606  0.7610 -0.2547 -0.2854
  457TMC3    C2 6855   4.418   1.861  16.555 -0.7618 -0.0268 -0.0593
  457TMC3    C3 6856   4.502   1.953  16.613  0.2140 -0.1694  0.3146
  457TMC3    C4 6857   4.513   1.692  16.690  0.1381  0.0533  0.3852
  457TMC3    C5 6858   4.601   1.784  16.746  0.2258  0.8246 -0.0284
  457TMC3    C6 6859   4.592   1.917  16.708 -0.0928 -0.2597  0.1816
  457TMC3     C 6860   4.341   1.650  16.523  0.3001  0.1782  0.6117
  457TMC3     O 6861   4.229   1.687  16.502  0.4089  0.0501 -0.2001
  457TMC3     H 6862   4.342   1.892  16.485 -0.6128  1.0632  0.2678
  457TMC3    H1 6863   4.522   1.586  16.710  0.2712  0.5265  2.8497
  457TMC3    H2 6864   4.659   1.989  16.754  0.3946  0.5301 -1.7601
  457TMC3    C7 6865   4.682   1.742  16.857 -0.0772  0.6806 -0.2375
  457TMC3    C8 6866   4.516   2.089  16.571  0.3994 -0.3972  0.2089
  457TMC3    O1 6867   4.689   1.626  16.881 -0.3504  0.2618 -0.0710
  457TMC3    O2 6868   4.571   2.165  16.648  0.6911  0.0928 -0.1260
  458MPD2     C 6869   2.903   0.303  11.857 -0.2852  0.3502 -0.1284
  458MPD2    C1 6870   2.802   0.305  11.949  0.2041  0.0244 -1.2005
  458MPD2    C2 6871   2.716   0.194  11.961  0.2121  0.1690  0.3542
  458MPD2    C3 6872   2.737   0.088  11.874 -0.4613 -0.0862 -0.0024
  458MPD2    C4 6873   2.831   0.094  11.774 -0.7039  0.4007 -0.0447
  458MPD2    C5 6874   2.925   0.194  11.773  0.3667 -0.3467  0.8482
  458MPD2     H 6875   2.640   0.190  12.038 -0.9472 -0.4918 -0.8293
  458MPD2    H1 6876   2.845   0.021  11.695  0.0599  0.8180 -0.2989
  458MPD2    H2 6877   2.975   0.383  11.842  0.2941  0.2472  2.1667
  458MPD2    H3 6878   3.004   0.200  11.700 -0.3865 -1.6311 -0.0681
  458MPD2     N 6879   2.637   4.722  11.898 -0.6784 -0.0034 -0.4729
  458MPD2    H5 6880   2.580   0.006  11.980  0.6092 -0.6344  0.5924
  458MPD2    N1 6881   2.785   0.425  12.030 -0.6039  0.1747  0.0298
  458MPD2    H7 6882   2.866   0.486  12.032 -1.1887  0.9227  0.9267
  459TMC3    C1 6883   2.722   0.553  12.216  0.4852 -0.2426  0.0510
  459TMC3    C2 6884   2.799   0.660  12.179 -0.2558  0.1381  0.0063
  459TMC3    C3 6885   2.851   0.730  12.286 -0.0728 -0.7529 -0.1031
  459TMC3    C4 6886   2.682   0.535  12.348 -0.1673  0.6441 -0.0260
  459TMC3    C5 6887   2.738   0.619  12.446  0.0815  0.6532 -0.1016
  459TMC3    C6 6888   2.829   0.715  12.415 -0.0110  0.2373  0.0146
  459TMC3     C 6889   2.689   0.447  12.126 -0.0553  0.3120 -0.0042
  459TMC3     O 6890   2.598   0.378  12.164 -0.2191  0.9077  0.0142
  459TMC3     H 6891   2.827   0.689  12.078  0.4625 -0.9874 -0.1091
  459TMC3    H1 6892   2.641   0.442  12.384  1.0722 -0.5717 -1.7559
  459TMC3    H2 6893   2.877   0.781  12.487 -3.4737  1.2684  1.4009
  459TMC3    C7 6894   2.741   0.559  12.573 -0.8829 -0.4126 -0.2635
  459TMC3    C8 6895   2.973   0.802  12.265 -0.3662 -0.6022 -0.7438
  459TMC3    O1 6896   2.696   0.445  12.585  0.0724  0.3806  0.3265
  459TMC3    O2 6897   2.980   0.898  12.188 -0.0754  0.0401 -0.8260
  460MPD2     C 6898   1.161   2.686  10.529 -0.1523 -0.2761 -0.2884
  460MPD2    C1 6899   1.207   2.812  10.564 -0.2538 -0.8266  0.2497
  460MPD2    C2 6900   1.186   2.921  10.481  0.2192  0.1610 -0.3333
  460MPD2    C3 6901   1.127   2.894  10.355 -0.1271 -0.0629  0.1784
  460MPD2    C4 6902   1.094   2.771  10.320 -1.0790  0.0430 -0.1698
  460MPD2    C5 6903   1.100   2.667  10.407 -0.1052 -0.1188 -0.6289
  460MPD2     H 6904   1.217   3.020  10.511 -1.6410  0.0693  1.9215
  460MPD2    H1 6905   1.050   2.754  10.222  0.5437 -1.9722 -0.5576
  460MPD2    H2 6906   1.160   2.599  10.594 -1.1665 -0.7881 -0.9859
  460MPD2    H3 6907   1.067   2.567  10.380  1.4671 -1.4919  2.5647
  460MPD2     N 6908   1.099   3.011  10.271  0.0996 -0.9442  0.3784
  460MPD2    H5 6909   1.128   3.101  10.307  1.0605 -0.7375 -0.9352
  460MPD2    N1 6910   1.273   2.827  10.690  0.4211 -0.0568 -0.3588
  460MPD2    H7 6911   1.278   2.740  10.743  0.3200 -0.4892 -1.0602
  461TMC3    C1 6912   1.021   3.149  10.103  0.1221  0.0743  1.4597
  461TMC3    C2 6913   0.918   3.174  10.012 -0.0866  0.1888  0.3105
  461TMC3    C3 6914   0.888   3.298   9.966 -0.4341 -0.7541 -0.4333
  461TMC3    C4 6915   1.104   3.250  10.130  0.6611  0.3112 -1.0292
  461TMC3    C5 6916   1.078   3.376  10.080 -0.0971  0.0909  0.2170
  461TMC3    C6 6917   0.966   3.400  10.002 -0.1888 -0.2539  0.9445
  461TMC3     C 6918   1.034   3.016  10.149  0.3799 -0.5240 -0.2324
  461TMC3     O 6919   0.968   2.925  10.097  0.0590 -0.3912 -0.2637
  461TMC3     H 6920   0.848   3.096   9.986 -0.0394 -0.2292  1.4458
  461TMC3    H1 6921   1.197   3.218  10.176  1.4614  0.1417 -2.7830
  461TMC3    H2 6922   0.952   3.497   9.955 -1.1718 -0.4913  0.7356
  461TMC3    C7 6923   1.171   3.487  10.102 -0.0752  0.0687 -0.3338
  461TMC3    C8 6924   0.769   3.324   9.889 -0.0465 -0.0906  0.1112
  461TMC3    O1 6925   1.162   3.585  10.029 -0.4477  0.1238 -0.3567
  461TMC3    O2 6926   0.702   3.227   9.860 -0.0403  0.5246 -0.2432
  462TMC3    C1 6927   1.818   4.187  17.455  0.3241 -0.8344  0.4779
  462TMC3    C2 6928   1.773   4.115  17.345 -0.1708  0.3621  1.0671
  462TMC3    C3 6929   1.814   3.982  17.349  0.2420  0.2834  0.0687
  462TMC3    C4 6930   1.903   4.138  17.556 -0.4970 -0.2018  0.0192
  462TMC3    C5 6931   1.942   4.007  17.539  0.9541  0.2013 -0.0157
  462TMC3    C6 6932   1.902   3.926  17.440 -0.4104  0.4724  0.4807
  462TMC3     C 6933   1.761   4.321  17.460  0.0773  0.7110 -0.5919
  462TMC3     O 6934   1.753   4.387  17.360  0.1812  0.1745  0.1718
  462TMC3     H 6935   1.688   4.147  17.286 -0.3406 -1.1768  0.4565
  462TMC3    H1 6936   1.941   4.193  17.641  0.6837  0.1098 -0.7191
  462TMC3    H2 6937   1.930   3.821  17.437  0.5892  0.6991  1.8267
  462TMC3    C7 6938   2.020   3.952  17.647  1.0726 -0.3335  0.2546
  462TMC3    C8 6939   1.729   3.897  17.273 -0.0400  0.2004  0.3652
  462TMC3    O1 6940   2.008   3.829  17.639  0.0666 -0.3016  0.2345
  462TMC3    O2 6941   1.618   3.930  17.241 -0.5070 -0.5082  0.1808
  463MPD2     C 6942   3.775   2.591   1.065  0.3803 -0.2127 -0.9795
  463MPD2    C1 6943   3.647   2.649   1.068  0.3525 -0.0626 -0.3684
  463MPD2    C2 6944   3.638   2.789   1.080  0.6225  0.0801  0.2338
  463MPD2    C3 6945   3.749   2.868   1.078  0.3036 -0.3862  0.1388
  463MPD2    C4 6946   3.874   2.811   1.065  0.1642  0.2167 -0.9301
  463MPD2    C5 6947   3.883   2.671   1.073 -1.1345 -0.3065  0.2217
  463MPD2     H 6948   3.538   2.831   1.073  1.1653  1.2999 -0.0747
  463MPD2    H1 6949   3.958   2.879   1.069  1.3633 -1.4844  2.4794
  463MPD2    H2 6950   3.796   2.484   1.067 -0.4610 -0.3222  1.5437
  463MPD2    H3 6951   3.979   2.620   1.083 -0.3594  1.3500  1.1612
  463MPD2     N 6952   3.758   3.009   1.080 -0.0892  0.1749  0.6761
  463MPD2    H5 6953   3.850   3.046   1.102 -0.4949  2.1489 -0.9879
  463MPD2    N1 6954   3.524   2.582   1.065  0.0875  0.2569 -0.2308
  463MPD2    H7 6955   3.447   2.644   1.090  0.7016  0.8977  0.0668
  464TMC3    C1 6956   3.369   2.403   1.038 -0.0737  0.0218  0.3549
  464TMC3    C2 6957   3.285   2.452   1.129  0.3319  0.1200  0.1897
  464TMC3    C3 6958   3.158   2.401   1.143 -0.2388 -0.1314  0.6826
  464TMC3    C4 6959   3.329   2.289   0.967 -0.0998 -0.9917 -0.2040
  464TMC3    C5 6960   3.210   2.230   0.999 -0.8619 -0.5202  0.0194
  464TMC3    C6 6961   3.118   2.284   1.089 -0.1365 -0.0838 -0.2144
  464TMC3     C 6962   3.509   2.456   1.018  0.2680 -0.0686  0.3228
  464TMC3     O 6963   3.583   2.394   0.939  0.1121  0.1624 -0.6362
  464TMC3     H 6964   3.318   2.533   1.194  0.8633 -1.6567  2.1559
  464TMC3    H1 6965   3.394   2.249   0.889  2.3648 -0.2582  1.4567
  464TMC3    H2 6966   3.034   2.233   1.134 -0.9814  0.6411 -0.9774
  464TMC3    C7 6967   3.179   2.107   0.923  0.3593 -0.1859 -0.6474
  464TMC3    C8 6968   3.070   2.488   1.225 -0.3414 -0.3624  0.4232
  464TMC3    O1 6969   3.267   2.066   0.844  0.5535  0.4745  0.2514
  464TMC3    O2 6970   3.091   2.609   1.231  0.6067 -0.1368  0.4751
  465MPD2     C 6971   4.153   2.122  16.844 -0.4621 -0.2276 -0.5747
  465MPD2    C1 6972   4.080   2.004  16.868  0.1230  0.2457 -0.2729
  465MPD2    C2 6973   4.033   1.939  16.765  0.4737  0.0131  0.5749
  465MPD2    C3 6974   4.057   1.988  16.633  0.5775 -0.0872 -0.3304
  465MPD2    C4 6975   4.122   2.107  16.612  0.5786  0.5334 -0.8573
  465MPD2    C5 6976   4.178   2.175  16.722  0.6349 -0.7026 -0.5450
  465MPD2     H 6977   3.979   1.847  16.786  1.7090 -1.1050 -1.1187
  465MPD2    H1 6978   4.140   2.155  16.516  0.7308  0.6975 -0.7473
  465MPD2    H2 6979   4.191   2.172  16.932 -0.9071  0.0697 -0.5524
  465MPD2    H3 6980   4.223   2.271  16.701 -1.4344  0.4485  0.2323
  465MPD2     N 6981   4.015   1.911  16.522 -0.4278  0.4438 -0.1873
  465MPD2    H5 6982   3.979   1.823  16.557 -0.7768  0.6023 -0.1494
  465MPD2    N1 6983   4.047   1.961  17.006  0.5572 -0.4011  0.0189
  465MPD2    H7 6984   3.993   1.877  17.018 -1.3132  0.6492 -1.0872
  466TMC3    C1 6985   3.722   1.744  16.362  0.5321  0.7490  0.1128
  466TMC3    C2 6986   3.657   1.819  16.265 -0.3953  0.4223  0.4590
  466TMC3    C3 6987   3.722   1.920  16.192 -0.7013  0.3809 -0.0063
  466TMC3    C4 6988   3.860   1.762  16.381  0.8003  0.0193 -0.4904
  466TMC3    C5 6989   3.918   1.865  16.311 -0.4133  0.4502 -0.0908
  466TMC3    C6 6990   3.859   1.938  16.208  1.2373  0.2475  0.1411
  466TMC3     C 6991   3.650   1.675  16.465  0.8175  0.2113  0.4597
  466TMC3     O 6992   3.709   1.651  16.569  0.2725 -0.1777 -0.0571
  466TMC3     H 6993   3.551   1.818  16.242 -0.6470 -0.1185  1.6210
  466TMC3    H1 6994   3.916   1.701  16.451  3.1638  0.3569 -2.0606
  466TMC3    H2 6995   3.901   2.031  16.170 -0.0043  0.6231 -0.3238
  466TMC3    C7 6996   4.014   1.949  16.388  0.6261  0.3863  0.4846
  466TMC3    C8 6997   3.641   2.035  16.152  0.3175 -0.3295 -0.3929
  466TMC3    O1 6998   4.045   2.057  16.341 -0.3186  0.1536  0.4448
  466TMC3    O2 6999   3.660   2.070  16.036  0.0441 -0.7703  0.0891
  467TMC3    C1 7000   0.030   0.261  13.925 -0.5344  0.1656 -0.2323
  467TMC3    C2 7001   0.070   0.375  13.870 -0.1512  0.0549  0.3431
  467TMC3    C3 7002   4.715   0.447  13.806  0.2994 -0.7054  0.3035
  467TMC3    C4 7003   4.636   0.222  13.933  0.3073  0.5167 -0.4136
  467TMC3    C5 7004   4.548   0.298  13.865  0.5500 -0.0180  0.0047
  467TMC3    C6 7005   4.582   0.420  13.806  0.4557 -0.1563  0.0117
  467TMC3     C 7006   0.146   0.169  13.968 -0.0884 -0.4214 -0.0322
  467TMC3     O 7007   0.261   0.185  13.928  0.6393  0.1361 -0.2375
  467TMC3     H 7008   0.177   0.392  13.867  0.1693 -1.8201  0.8387
  467TMC3    H1 7009   4.609   0.125  13.973 -0.8677  0.9186 -0.2234
  467TMC3    H2 7010   4.514   0.492  13.762  1.9770  0.3685 -1.4724
  467TMC3    C7 7011   4.416   0.231  13.847 -0.3565 -0.2629  0.4836
  467TMC3    C8 7012   0.020   0.566  13.740  0.5805  0.1950 -0.0536
  467TMC3    O1 7013   4.390   0.127  13.903  0.4928  0.4621 -0.0510
  467TMC3    O2 7014   4.688   0.611  13.648  0.0018 -0.3194 -0.2338
  468MPD2     C 7015   3.410   2.516  10.501 -0.6988  0.1990  0.4266
  468MPD2    C1 7016   3.496   2.432  10.554  0.4746  0.4597  0.3133
  468MPD2    C2 7017   3.507   2.298  10.523  0.9627  0.5058  0.4862
  468MPD2    C3 7018   3.410   2.243  10.433  0.2221 -0.3410 -0.2492
  468MPD2    C4 7019   3.325   2.333  10.374 -0.2629  0.0631  0.2490
  468MPD2    C5 7020   3.326   2.470  10.400  0.2455  0.3504  0.4025
  468MPD2     H 7021   3.579   2.244  10.583 -1.2870 -1.0638  1.8017
  468MPD2    H1 7022   3.258   2.290  10.300  1.7595 -4.9269  1.3298
  468MPD2    H2 7023   3.415   2.624  10.509  1.9587  0.1295 -0.4567
  468MPD2    H3 7024   3.267   2.541  10.343 -0.9933 -1.3777 -0.4562
  468MPD2     N 7025   3.400   2.107  10.395 -0.7877 -0.5313  0.2947
  468MPD2    H5 7026   3.314   2.076  10.352 -1.0198 -2.6660  2.2690
  468MPD2    N1 7027   3.581   2.476  10.661  0.3912 -0.1984 -0.0889
  468MPD2    H7 7028   3.636   2.410  10.715 -1.4198 -0.7101  1.1371
  469TMC3    C1 7029   3.712   2.618  10.809  0.0453  0.4715  0.1077
  469TMC3    C2 7030   3.823   2.537  10.806  0.0963 -0.1061 -0.1423
  469TMC3    C3 7031   3.907   2.543  10.917  0.8391 -0.4943 -0.4104
  469TMC3    C4 7032   3.691   2.710  10.912 -0.4426 -0.5842  0.2548
  469TMC3    C5 7033   3.772   2.702  11.017  0.3440 -0.0867  0.7156
  469TMC3    C6 7034   3.879   2.619  11.027  0.5852  0.5802 -0.6501
  469TMC3     C 7035   3.605   2.606  10.707  0.4365 -0.0687  0.3994
  469TMC3     O 7036   3.539   2.705  10.684 -0.2064  0.3612 -0.2675
  469TMC3     H 7037   3.844   2.477  10.719 -1.4852 -0.9122  0.0382
  469TMC3    H1 7038   3.607   2.778  10.915  0.0304  0.0468 -0.9045
  469TMC3    H2 7039   3.929   2.607  11.123 -0.4075  0.5665 -0.1411
  469TMC3    C7 7040   3.717   2.759  11.140 -0.3244 -0.1672 -0.0917
  469TMC3    C8 7041   4.010   2.439  10.927  0.3943  0.3408 -0.1444
  469TMC3    O1 7042   3.597   2.759  11.147 -0.4570  0.4627  0.2916
  469TMC3    O2 7043   3.989   2.351  10.848  0.4005  0.7015 -0.0633
  470TMC3    C1 7044   1.332   3.833   0.304  0.4958 -0.8818  0.5173
  470TMC3    C2 7045   1.339   3.970   0.302 -0.3650  0.0821 -0.5205
  470TMC3    C3 7046   1.416   4.033   0.396  0.6722 -0.6603  0.4910
  470TMC3    C4 7047   1.394   3.769   0.404  0.0382  0.5090  0.2501
  470TMC3    C5 7048   1.441   3.842   0.510  0.0298 -0.4734  0.4707
  470TMC3    C6 7049   1.466   3.974   0.506 -0.1308 -0.8124  0.7357
  470TMC3     C 7050   1.218   3.769   0.232 -0.5482 -0.2525  0.2307
  470TMC3     O 7051   1.182   3.827   0.132  0.1382  0.3446 -0.5981
  470TMC3     H 7052   1.299   4.018   0.214  1.2531  1.9653 -0.2474
  470TMC3    H1 7053   1.378   3.662   0.417  1.7967 -0.0239 -2.0348
  470TMC3    H2 7054   1.512   4.014   0.595  0.9358  0.7348 -0.5087
  470TMC3    C7 7055   1.481   3.764   0.620 -0.0497 -0.3845 -0.3002
  470TMC3    C8 7056   1.421   4.182   0.409 -0.0825 -0.3041  0.0012
  470TMC3    O1 7057   1.530   3.654   0.590  0.4430 -0.7763 -0.0802
  470TMC3    O2 7058   1.468   4.215   0.514  0.1239 -0.5256  0.3389
  471MPD2     C 7059   2.086   0.860  16.800 -0.5607  0.0850 -0.1918
  471MPD2    C1 7060   2.128   0.740  16.755 -0.3137 -0.0114  1.2365
  471MPD2    C2 7061   2.221   0.668  16.819 -0.3244  0.4338  0.9323
  471MPD2    C3 7062   2.259   0.700  16.943  0.2919  0.0966 -0.6077
  471MPD2    C4 7063   2.216   0.820  17.001  0.3843 -0.1344  0.2321
  471MPD2    C5 7064   2.138   0.904  16.921  0.2036  0.6031  0.3129
  471MPD2     H 7065   2.250   0.572  16.778  0.3619  1.3064 -0.6030
  471MPD2    H1 7066   2.242   0.840  17.105 -2.4424  0.9337  0.7179
  471MPD2    H2 7067   2.016   0.921  16.744 -0.6824  0.3204  0.2167
  471MPD2    H3 7068   2.103   0.997  16.964  0.0104 -0.1437  1.7808
  471MPD2     N 7069   2.326   0.602  17.018  0.4663 -0.4189 -0.0098
  471MPD2    H5 7070   2.341   0.512  16.972 -0.6732 -0.2063 -0.7869
  471MPD2    N1 7071   2.076   0.679  16.647  0.0626  0.3037  0.5998
  471MPD2    H7 7072   2.130   0.601  16.610 -1.8434  0.1757 -1.9372
  472TMC3    C1 7073   1.964   0.649  16.446 -0.4829  0.0106 -0.0063
  472TMC3    C2 7074   1.855   0.670  16.363 -0.0104  0.4649  0.3943
  472TMC3    C3 7075   1.832   0.597  16.248 -0.0562 -0.3437 -0.0750
  472TMC3    C4 7076   2.047   0.539  16.422  0.2855 -0.2556 -0.4535
  472TMC3    C5 7077   2.022   0.467  16.307 -0.0476  0.3805  0.4395
  472TMC3    C6 7078   1.924   0.503  16.218 -0.0143 -0.5605 -0.3986
  472TMC3     C 7079   1.973   0.729  16.569  0.3022 -0.4143 -0.4995
  472TMC3     O 7080   1.888   0.809  16.595  0.1733  0.2776  0.5247
  472TMC3     H 7081   1.788   0.751  16.389  1.9972  2.2429  0.0249
  472TMC3    H1 7082   2.112   0.507  16.503  1.1756 -0.7802 -1.3783
  472TMC3    H2 7083   1.923   0.447  16.125 -4.7892  0.4692 -0.9597
  472TMC3    C7 7084   2.043   0.323  16.329  0.0392  0.5137  0.8965
  472TMC3    C8 7085   1.699   0.565  16.213 -0.5120 -1.3622  0.3049
  472TMC3    O1 7086   2.087   0.293  16.438  0.3395 -0.1825 -0.0029
  472TMC3    O2 7087   1.680   0.463  16.150 -0.6937 -0.5103  0.8147
  473MPD2     C 7088   1.973   2.061  14.416 -0.6363 -0.0827 -1.3682
  473MPD2    C1 7089   1.970   2.135  14.296  0.0139  0.3419  0.0280
  473MPD2    C2 7090   1.980   2.273  14.309  0.7865  0.2276  0.8605
  473MPD2    C3 7091   1.989   2.335  14.430 -0.2885  0.3139  0.1777
  473MPD2    C4 7092   1.981   2.267  14.546 -0.6930 -0.2037 -0.2856
  473MPD2    C5 7093   1.977   2.130  14.538 -0.7974 -0.3095 -0.4208
  473MPD2     H 7094   1.976   2.330  14.217 -1.1453 -1.1091  0.1015
  473MPD2    H1 7095   1.972   2.320  14.641  1.9616 -0.5490  0.1641
  473MPD2    H2 7096   1.939   1.958  14.411 -3.0292  0.6965 -1.2397
  473MPD2    H3 7097   1.970   2.080  14.634 -2.1722  0.9113  0.1123
  473MPD2     N 7098   1.994   2.475  14.420  0.6721 -0.3513  0.2494
  473MPD2    H5 7099   1.980   2.517  14.329 -1.3061 -2.2655 -0.3321
  473MPD2    N1 7100   1.938   2.085  14.174 -0.0026  0.0298 -0.0492
  473MPD2    H7 7101   1.931   2.146  14.093  1.4877  1.4240  0.8878
  474TMC3    C1 7102   1.956   2.701  14.472 -0.0589 -0.2232  0.7724
  474TMC3    C2 7103   1.962   2.726  14.340  0.5247  0.0979  0.2508
  474TMC3    C3 7104   1.990   2.852  14.303 -0.5660 -0.1855 -0.4186
  474TMC3    C4 7105   1.971   2.803  14.568  0.1834 -0.3973 -0.5617
  474TMC3    C5 7106   2.009   2.926  14.514 -0.1677  0.2888  0.0539
  474TMC3    C6 7107   2.023   2.956  14.384  0.0017 -0.0740 -0.2041
  474TMC3     C 7108   1.983   2.568  14.520  0.7087 -0.1561 -0.5192
  474TMC3     O 7109   1.994   2.550  14.639 -0.2282  0.1466 -0.1276
  474TMC3     H 7110   1.919   2.659  14.266 -0.8031  1.6479 -0.3898
  474TMC3    H1 7111   1.955   2.781  14.673  2.7426  1.6298  0.2754
  474TMC3    H2 7112   2.073   3.044  14.345  1.7546 -0.1857  1.8034
  474TMC3    C7 7113   2.076   3.019  14.605  0.8994  0.4764  0.0880
  474TMC3    C8 7114   1.983   2.882  14.163  0.4424 -0.4496  0.4627
  474TMC3    O1 7115   2.152   3.099  14.550  0.1166  0.2045  0.2001
  474TMC3    O2 7116   1.999   2.792  14.083  0.1472 -0.5487 -0.3678
  475MPD2     C 7117   4.196   0.014  10.699 -0.0112  0.7008 -0.7351
  475MPD2    C1 7118   4.244   0.143  10.706  0.3793  0.0259 -0.6018
  475MPD2    C2 7119   4.205   0.232  10.808  0.6745 -1.2674 -0.5644
  475MPD2    C3 7120   4.128   0.188  10.913 -0.1974  0.7044  0.0931
  475MPD2    C4 7121   4.082   0.064  10.904 -0.4796 -0.0302 -0.4469
  475MPD2    C5 7122   4.113   4.713  10.802  0.5410 -0.5251  0.3510
  475MPD2     H 7123   4.257   0.327  10.812 -2.2019  0.4109 -2.2954
  475MPD2    H1 7124   4.029   0.020  10.988 -1.6112 -2.3408 -2.3815
  475MPD2    H2 7125   4.232   4.672  10.631  1.2327 -0.8062  1.6272
  475MPD2    H3 7126   4.075   4.612  10.811 -0.6480 -0.1163 -0.0234
  475MPD2     N 7127   4.076   0.280  11.012  0.5850 -0.0745  0.1663
  475MPD2    H5 7128   4.018   0.250  11.090  0.5016 -1.1197 -0.2926
  475MPD2    N1 7129   4.329   0.197  10.607  0.2636 -0.1501  0.0512
  475MPD2    H7 7130   4.347   0.297  10.618  1.0084 -0.4249  1.3868
  476TMC3    C1 7131   4.416   0.229  10.396  0.2619  0.5181 -0.1756
  476TMC3    C2 7132   4.318   0.256  10.298  0.2191 -0.6648 -0.3844
  476TMC3    C3 7133   4.303   0.385  10.256  0.5811  0.3561 -0.2419
  476TMC3    C4 7134   4.483   0.333  10.457  0.6697  0.2209  0.9446
  476TMC3    C5 7135   4.460   0.463  10.423 -0.6880 -0.7543 -0.0578
  476TMC3    C6 7136   4.365   0.490  10.323 -0.0885 -0.2102 -0.2759
  476TMC3     C 7137   4.362   0.131  10.489  0.1235 -1.2874 -0.0218
  476TMC3     O 7138   4.328   0.024  10.438 -0.0469  0.3600  0.4339
  476TMC3     H 7139   4.255   0.174  10.265  2.9104 -2.2109 -1.7981
  476TMC3    H1 7140   4.538   0.316  10.549  2.0872  0.1832  0.0721
  476TMC3    H2 7141   4.352   0.594  10.294  0.0293  0.0777  0.7051
  476TMC3    C7 7142   4.438   0.529  10.546  0.4043 -0.6137 -0.5214
  476TMC3    C8 7143   4.216   0.413  10.144 -0.2981 -0.2572 -0.0078
  476TMC3    O1 7144   4.376   0.469  10.633  0.1547 -0.2554  1.0452
  476TMC3    O2 7145   4.191   0.531  10.110  0.2778  0.0352 -0.1736
  477MPD2     C 7146   1.559   1.831  11.143 -0.5862 -0.2904 -0.2270
  477MPD2    C1 7147   1.473   1.763  11.221  0.5314 -0.2682  0.3107
  477MPD2    C2 7148   1.520   1.689  11.327  0.0857  0.3245 -0.2202
  477MPD2    C3 7149   1.650   1.705  11.372 -0.4692  0.4496  1.1160
  477MPD2    C4 7150   1.736   1.787  11.298 -0.6643  1.3763 -0.0851
  477MPD2    C5 7151   1.689   1.849  11.187  0.4047  0.0159 -0.4141
  477MPD2     H 7152   1.443   1.631  11.376  0.1665  1.1521  0.8783
  477MPD2    H1 7153   1.836   1.805  11.335 -1.0225  0.3945  1.3861
  477MPD2    H2 7154   1.532   1.889  11.056  0.3188  0.9340  0.2928
  477MPD2    H3 7155   1.759   1.906  11.127 -0.5557  0.5073 -1.0569
  477MPD2     N 7156   1.682   1.647  11.488 -0.4633 -0.5924  0.3957
  477MPD2    H5 7157   1.606   1.593  11.528 -1.8709  1.5345  0.6047
  477MPD2    N1 7158   1.338   1.778  11.184 -0.1693 -0.3759 -0.6298
  477MPD2    H7 7159   1.310   1.851  11.120 -3.3122 -1.8125 -0.8638
  478TMC3    C1 7160   1.138   1.819  11.247  0.1738 -0.5375 -0.2480
  478TMC3    C2 7161   1.121   1.876  11.367  0.0411  0.2589 -0.3193
  478TMC3    C3 7162   1.096   2.006  11.371  0.1465 -0.8871  0.8841
  478TMC3    C4 7163   1.109   1.881  11.133  0.1657 -0.2757 -0.2702
  478TMC3    C5 7164   1.085   2.011  11.137 -0.1703 -0.1303  0.4748
  478TMC3    C6 7165   1.081   2.077  11.259  0.2879 -0.1448 -0.2997
  478TMC3     C 7166   1.235   1.716  11.247 -0.5713  0.7855  0.3423
  478TMC3     O 7167   1.240   1.642  11.342 -0.1871 -0.6047  0.0900
  478TMC3     H 7168   1.157   1.833  11.460 -0.1486  0.2451 -0.2521
  478TMC3    H1 7169   1.112   1.831  11.037 -1.4608  2.2479 -1.6647
  478TMC3    H2 7170   1.059   2.183  11.262 -0.0432 -0.1801 -1.5844
  478TMC3    C7 7171   0.991   2.055  11.035 -0.0017  0.4167  0.0205
  478TMC3    C8 7172   1.099   2.057  11.509  0.7967 -0.2577  0.3357
  478TMC3    O1 7173   0.925   1.962  10.997 -0.5535  0.6449 -0.0448
  478TMC3    O2 7174   1.029   2.002  11.592 -0.4398  0.1125  0.2013
  479MPD2     C 7175   0.422   3.579  15.477 -0.2923 -0.6368 -0.0386
  479MPD2    C1 7176   0.452   3.688  15.396 -0.2135 -0.3298  0.1398
  479MPD2    C2 7177   0.572   3.753  15.415 -0.8986 -0.8324 -0.8188
  479MPD2    C3 7178   0.669   3.702  15.497  0.1864 -1.1475 -0.1690
  479MPD2    C4 7179   0.634   3.593  15.576  0.4872  0.5109  0.1106
  479MPD2    C5 7180   0.509   3.534  15.568  0.0971 -0.2279 -0.0252
  479MPD2     H 7181   0.591   3.846  15.363  0.0345 -0.5203  0.0953
  479MPD2    H1 7182   0.698   3.564  15.659 -0.6202 -0.3015  0.6763
  479MPD2    H2 7183   0.323   3.535  15.477  0.3257 -2.0145  0.0848
  479MPD2    H3 7184   0.496   3.459  15.645 -0.5236  0.4915  0.5694
  479MPD2     N 7185   0.804   3.755  15.504 -0.4209  0.1336  0.0986
  479MPD2    H5 7186   0.866   3.700  15.562 -0.9126 -1.2231 -0.6387
  479MPD2    N1 7187   0.367   3.727  15.292  0.3935 -0.4327 -0.3490
  479MPD2    H7 7188   0.280   3.676  15.284 -1.2530  2.1888  0.8253
  480TMC3    C1 7189   1.153   3.935  15.635  0.3961  0.0652  0.3146
  480TMC3    C2 7190   1.216   4.031  15.561 -0.2113 -0.3023 -0.2803
  480TMC3    C3 7191   1.169   4.057  15.437  0.8259 -0.2284 -0.1799
  480TMC3    C4 7192   1.045   3.860  15.585 -0.5063  0.0130  0.4519
  480TMC3    C5 7193   0.991   3.893  15.459  0.1713 -0.8379  0.6758
  480TMC3    C6 7194   1.056   3.996  15.383 -0.0851  0.0986  0.4679
  480TMC3     C 7195   1.186   3.915  15.773  0.7894  0.1508  0.0648
  480TMC3     O 7196   1.136   3.818  15.825 -0.1490  0.3584  0.8097
  480TMC3     H 7197   1.308   4.073  15.600 -1.0482  2.1763 -0.9641
  480TMC3    H1 7198   1.007   3.778  15.644 -1.5504  0.3548  0.2505
  480TMC3    H2 7199   1.006   4.027  15.292  0.2364  1.4836  0.7647
  480TMC3    C7 7200   0.856   3.851  15.417  0.0889 -0.7476 -0.3747
  480TMC3    C8 7201   1.201   4.184  15.380  0.4203  0.3863 -0.7859
  480TMC3    O1 7202   0.801   3.909  15.324 -0.1023  0.3733  0.4758
  480TMC3    O2 7203   1.183   4.287  15.441  0.8241 -0.5620  0.9408
  481MPD2     C 7204   2.852   4.135  14.496 -0.1885 -0.4512  0.4008
  481MPD2    C1 7205   2.801   4.004  14.485  0.5197  0.4473 -0.1274
  481MPD2    C2 7206   2.801   3.926  14.597 -0.3465  0.5158 -0.3475
  481MPD2    C3 7207   2.885   3.960  14.703 -0.2585  0.0080  0.4378
  481MPD2    C4 7208   2.940   4.084  14.701 -0.0954 -0.1241  0.5050
  481MPD2    C5 7209   2.913   4.179  14.605  0.0295  0.5272 -0.0147
  481MPD2     H 7210   2.755   3.828  14.604  0.0510  0.5531  3.2595
  481MPD2    H1 7211   2.997   4.112  14.789  2.4238  0.3856 -1.2765
  481MPD2    H2 7212   2.846   4.204  14.412 -1.7339 -1.0971 -0.0357
  481MPD2    H3 7213   2.956   4.278  14.602 -1.4630  1.2019  1.2940
  481MPD2     N 7214   2.924   3.868  14.804  0.4431  0.2407  0.8853
  481MPD2    H5 7215   2.987   3.907  14.873 -0.1067 -0.0597  1.5569
  481MPD2    N1 7216   2.727   3.975  14.370 -0.6106 -0.4772 -0.1996
  481MPD2    H7 7217   2.723   4.042  14.295 -1.9020  0.3935  0.6397
  482TMC3    C1 7218   2.568   3.859  14.226  0.2650  0.0356 -0.0456
  482TMC3    C2 7219   2.519   3.741  14.181  0.5950 -0.0702  0.4781
  482TMC3    C3 7220   2.435   3.743  14.078  0.5140  0.3912 -0.5310
  482TMC3    C4 7221   2.551   3.979  14.160  0.2757  0.6402  0.9978
  482TMC3    C5 7222   2.467   3.974  14.048  0.1828  0.0193  0.2286
  482TMC3    C6 7223   2.403   3.857  14.009  0.2497 -0.3787  0.5542
  482TMC3     C 7224   2.652   3.858  14.352 -0.1572 -0.2926  0.2892
  482TMC3     O 7225   2.633   3.771  14.432 -0.4331 -0.3618 -0.3668
  482TMC3     H 7226   2.566   3.652  14.220  0.8759 -0.0239  0.2487
  482TMC3    H1 7227   2.586   4.074  14.198  0.1614  1.3040 -0.5402
  482TMC3    H2 7228   2.325   3.859  13.934  0.9504 -0.9753 -0.1867
  482TMC3    C7 7229   2.440   4.095  13.980 -0.4047  0.1901 -0.4695
  482TMC3    C8 7230   2.382   3.613  14.031 -0.5052 -0.2843 -0.3153
  482TMC3    O1 7231   2.485   4.194  14.030 -0.0482 -0.4119 -0.2166
  482TMC3    O2 7232   2.380   3.521  14.112 -0.7277  0.2650 -0.8078
  483TMC3    C1 7233   1.120   2.881   1.008  0.6474 -0.1409 -0.5178
  483TMC3    C2 7234   1.189   2.996   1.027 -0.3343 -0.7249  0.6359
  483TMC3    C3 7235   1.301   3.002   1.109  0.1476  0.1040  0.5748
  483TMC3    C4 7236   1.148   2.773   1.083 -0.2495 -0.0441  0.4824
  483TMC3    C5 7237   1.262   2.781   1.160  0.1450 -0.1041 -0.0869
  483TMC3    C6 7238   1.334   2.894   1.181  0.5045 -0.4446  0.4592
  483TMC3     C 7239   1.008   2.878   0.915  0.8380 -0.2646  0.2570
  483TMC3     O 7240   0.966   2.984   0.867 -0.7242  0.1427  0.0246
  483TMC3     H 7241   1.171   3.089   0.974  0.8738 -1.2246 -0.6487
  483TMC3    H1 7242   1.096   2.678   1.073  1.3589 -0.9374  0.6119
  483TMC3    H2 7243   1.429   2.893   1.234  0.0733  2.2457  1.2507
  483TMC3    C7 7244   1.303   2.660   1.221 -0.1292  0.6014 -0.9113
  483TMC3    C8 7245   1.411   3.077   1.057 -0.5392  0.7534  0.4477
  483TMC3    O1 7246   1.287   2.554   1.158 -0.1640 -0.4827 -0.7532
  483TMC3    O2 7247   1.402   3.107   0.938 -0.2581 -0.4604  0.1587
  484MPD2     C 7248   3.294   0.710  12.424  0.2922  0.0462  0.0789
  484MPD2    C1 7249   3.212   0.780  12.340 -0.2711  0.0450 -0.1000
  484MPD2    C2 7250   3.270   0.884  12.264 -0.2284 -0.2003  0.1823
  484MPD2    C3 7251   3.406   0.902  12.278  1.2065 -0.2089 -0.4455
  484MPD2    C4 7252   3.485   0.813  12.347 -0.6205  0.6462 -0.1354
  484MPD2    C5 7253   3.425   0.711  12.422  1.0446  0.4443 -0.4114
  484MPD2     H 7254   3.210   0.959  12.215  0.0864  0.3716  0.6822
  484MPD2    H1 7255   3.591   0.834  12.361 -0.3908 -1.2148  0.8530
  484MPD2    H2 7256   3.252   0.636  12.492  0.0744  0.9051  0.8847
  484MPD2    H3 7257   3.474   0.658  12.502 -0.9358  0.4460  0.8048
  484MPD2     N 7258   3.474   1.011  12.227 -0.7477  0.5035  0.3152
  484MPD2    H5 7259   3.576   1.011  12.229 -0.7263 -0.1493 -1.0633
  484MPD2    N1 7260   3.073   0.746  12.341  0.0067 -0.6293  0.5053
  484MPD2    H7 7261   3.047   0.671  12.404 -1.4839  0.5439  1.2880
  485TMC3    C1 7262   3.514   1.233  12.234 -0.0658  0.4114  0.6345
  485TMC3    C2 7263   3.518   1.277  12.366 -0.8654 -0.0987 -0.4024
  485TMC3    C3 7264   3.642   1.293  12.434 -0.0614  0.2192  0.4270
  485TMC3    C4 7265   3.631   1.207  12.175 -0.3314  0.2000  0.8346
  485TMC3    C5 7266   3.749   1.237  12.235 -0.7598  0.5415  0.6213
  485TMC3    C6 7267   3.760   1.291  12.359 -0.4743  0.6651  0.6229
  485TMC3     C 7268   3.413   1.132  12.209  0.0897 -0.8021  0.3933
  485TMC3     O 7269   3.294   1.160  12.217 -0.2622  0.6509 -1.0101
  485TMC3     H 7270   3.430   1.273  12.428  0.1827  0.9964  1.1460
  485TMC3    H1 7271   3.628   1.166  12.074  2.5146  0.9107  0.4757
  485TMC3    H2 7272   3.856   1.305  12.408  1.0655  0.8396 -2.5000
  485TMC3    C7 7273   3.835   1.117  12.224 -0.5460  0.1435 -0.2004
  485TMC3    C8 7274   3.661   1.204  12.548  0.1420  0.7419 -0.3217
  485TMC3    O1 7275   3.775   1.015  12.188  0.9378  0.2297 -0.4696
  485TMC3    O2 7276   3.776   1.175  12.581 -0.1416 -0.0516 -0.3076
  486MPD2     C 7277   0.602   4.455  12.973  0.3805 -0.4551 -0.8552
  486MPD2    C1 7278   0.472   4.423  12.930  0.5457 -0.5522  0.1994
  486MPD2    C2 7279   0.408   4.515  12.852 -0.3424  0.2172  0.1151
  486MPD2    C3 7280   0.473   4.629  12.814 -0.4194  0.5041  0.2864
  486MPD2    C4 7281   0.605   4.654  12.840 -0.5450 -0.0663  0.2321
  486MPD2    C5 7282   0.668   4.569  12.927  0.6396 -0.0422 -0.8391
  486MPD2     H 7283   0.310   4.500  12.809 -0.8166  2.7612  0.2947
  486MPD2    H1 7284   0.665   4.730  12.791  0.0338  0.2594  1.4368
  486MPD2    H2 7285   0.664   4.394  13.039  1.3387  1.5985  0.1476
  486MPD2    H3 7286   0.773   4.566  12.957  0.1663  0.8090  0.9555
  486MPD2     N 7287   0.393   4.715  12.734 -0.0627  0.3157 -0.0233
  486MPD2    H5 7288   0.306   4.671  12.707  1.1577 -1.0386 -1.7217
  486MPD2    N1 7289   0.411   4.313  12.987  0.5111  0.2982 -0.4926
  486MPD2    H7 7290   0.461   4.269  13.063  3.0251 -0.2730 -2.4694
  487TMC3    C1 7291   0.231   4.170  13.047 -0.4402  0.7390  0.0889
  487TMC3    C2 7292   0.097   4.168  13.064  0.0442  0.4897 -0.0582
  487TMC3    C3 7293   0.042   4.110  13.176  0.0616  0.1062  0.1422
  487TMC3    C4 7294   0.310   4.105  13.138 -0.4722  0.2172  1.0097
  487TMC3    C5 7295   0.258   4.055  13.250 -0.1816  0.5170  0.0992
  487TMC3    C6 7296   0.121   4.059  13.270  0.7203  0.4529 -0.5440
  487TMC3     C 7297   0.286   4.262  12.950 -0.0791  0.4640  0.8230
  487TMC3     O 7298   0.205   4.287  12.865  0.1181 -0.1593  0.3399
  487TMC3     H 7299   0.028   4.210  12.991  0.5920 -0.3617 -1.0698
  487TMC3    H1 7300   0.419   4.100  13.138 -0.4438  0.8265 -0.5885
  487TMC3    H2 7301   0.062   3.999  13.339 -0.5272 -1.1520 -2.9862
  487TMC3    C7 7302   0.328   4.076  13.380 -0.3338  0.1222  0.7630
  487TMC3    C8 7303   4.651   4.146  13.231  0.2372 -0.0086  0.2876
  487TMC3    O1 7304   0.455   4.074  13.388  0.1639 -0.0067 -0.1126
  487TMC3    O2 7305   4.632   4.141  13.350 -0.3839  0.5506  0.2600
  488MPD2     C 7306   0.464   1.449  16.238 -0.1705 -0.6600 -0.4807
  488MPD2    C1 7307   0.591   1.492  16.267  0.1302  0.0134  0.1717
  488MPD2    C2 7308   0.644   1.483  16.397  1.2186 -0.1870  0.9476
  488MPD2    C3 7309   0.573   1.405  16.496 -0.0168  0.4166  0.8208
  488MPD2    C4 7310   0.441   1.373  16.466 -0.7521 -0.0851  0.0599
  488MPD2    C5 7311   0.395   1.385  16.336 -0.6487 -0.0023  0.1247
  488MPD2     H 7312   0.744   1.518  16.418  1.4973 -0.3688 -0.0774
  488MPD2    H1 7313   0.371   1.324  16.532  0.7594 -0.7320  1.1650
  488MPD2    H2 7314   0.419   1.455  16.140  1.1039  0.6915 -0.9889
  488MPD2    H3 7315   0.297   1.350  16.307 -0.8316 -0.6770  1.6034
  488MPD2     N 7316   0.624   1.380  16.618 -0.4067  0.0994  0.0729
  488MPD2    H5 7317   0.722   1.404  16.627  0.1085 -1.6090 -1.0472
  488MPD2    N1 7318   0.662   1.561  16.173  0.2567 -0.0791  0.3326
  488MPD2    H7 7319   0.743   1.612  16.207  0.6954  0.7941 -1.9786
  489TMC3    C1 7320   0.654   1.319  16.843 -0.4954  0.0110 -0.0282
  489TMC3    C2 7321   0.757   1.404  16.855  0.0798  0.6235 -0.0586
  489TMC3    C3 7322   0.832   1.417  16.968 -0.7798 -0.4755  0.1884
  489TMC3    C4 7323   0.613   1.250  16.954  0.2899  0.2189 -0.0801
  489TMC3    C5 7324   0.682   1.275  17.069  0.2607  0.1764 -0.4981
  489TMC3    C6 7325   0.787   1.358  17.080  0.9361 -0.0397  0.0124
  489TMC3     C 7326   0.563   1.322  16.729  0.7198  0.3431  0.3799
  489TMC3     O 7327   0.445   1.298  16.752  0.0427 -0.0815 -0.7158
  489TMC3     H 7328   0.792   1.466  16.772  2.3202  0.9874  1.1562
  489TMC3    H1 7329   0.533   1.180  16.934 -0.4329  1.1996 -0.6204
  489TMC3    H2 7330   0.849   1.356  17.169 -0.9886  0.0275  1.3665
  489TMC3    C7 7331   0.654   1.187  17.183 -0.2972  0.1072 -0.1575
  489TMC3    C8 7332   0.896   1.548  16.976 -0.1251  0.1180 -0.1612
  489TMC3    O1 7333   0.690   1.218  17.296  0.3679  0.3911  0.2156
  489TMC3    O2 7334   0.961   1.575  16.877  0.6731 -0.2223 -0.0562
  490MPD2     C 7335   1.500   1.071  17.275 -0.0121  0.8646 -0.5674
  490MPD2    C1 7336   1.611   1.050  17.199 -0.1238 -0.9202 -0.4081
  490MPD2    C2 7337   1.676   1.164  17.156  0.2147  0.7421 -0.5682
  490MPD2    C3 7338   1.632   1.294  17.186 -0.3303  0.1587 -0.0883
  490MPD2    C4 7339   1.518   1.308  17.262  0.9191 -0.0329 -0.4489
  490MPD2    C5 7340   1.449   1.199  17.302  0.8802  0.7272  1.0125
  490MPD2     H 7341   1.764   1.156  17.093 -0.6689  3.1309 -2.0862
  490MPD2    H1 7342   1.468   1.403  17.276  1.0010 -0.1942  0.9410
  490MPD2    H2 7343   1.445   0.985  17.311  1.4366  0.4675  0.7344
  490MPD2    H3 7344   1.358   1.210  17.360 -0.0307 -1.0778 -0.0706
  490MPD2     N 7345   1.704   1.408  17.144 -0.2773 -0.0637 -0.0273
  490MPD2    H5 7346   1.664   1.496  17.175 -1.3492 -0.4257 -0.3717
  490MPD2    N1 7347   1.673   0.921  17.199  0.1636 -0.5428  0.0598
  490MPD2    H7 7348   1.635   0.850  17.261  0.2069 -0.9572 -0.3884
  491TMC3    C1 7349   1.832   0.753  17.134 -0.7182 -0.0906 -0.4620
  491TMC3    C2 7350   1.832   0.701  17.262  0.2853  0.3004 -0.2762
  491TMC3    C3 7351   1.884   0.574  17.263  0.5489 -1.1353  0.0405
  491TMC3    C4 7352   1.885   0.694  17.027  0.3510  0.1199 -0.0746
  491TMC3    C5 7353   1.935   0.567  17.031  0.1515  0.1810  0.3786
  491TMC3    C6 7354   1.948   0.512  17.156  0.6930  0.5224 -0.0189
  491TMC3     C 7355   1.778   0.885  17.113 -0.3631 -0.3100 -0.2081
  491TMC3     O 7356   1.821   0.947  17.019 -0.4054  0.2798  0.4673
  491TMC3     H 7357   1.801   0.750  17.353 -0.2993  1.8745 -1.3317
  491TMC3    H1 7358   1.893   0.750  16.934 -2.4308 -2.5645 -1.9439
  491TMC3    H2 7359   1.989   0.412  17.164  2.3148  1.3877  2.3820
  491TMC3    C7 7360   1.919   0.478  16.915 -0.3630  0.1383 -0.2321
  491TMC3    C8 7361   1.909   0.513  17.387 -0.4814  0.0559  0.7210
  491TMC3    O1 7362   2.002   0.391  16.896  0.6654  0.1535  0.4511
  491TMC3    O2 7363   1.979   0.415  17.387  0.2323 -0.2185  0.0418
  492MPD2     C 7364   0.901   0.053  10.971 -0.6180  0.1935 -0.2439
  492MPD2    C1 7365   0.881   0.182  11.002  0.7889  0.7093  0.7499
  492MPD2    C2 7366   0.830   0.218  11.128 -0.1453 -0.0931 -0.3453
  492MPD2    C3 7367   0.817   0.125  11.227  0.7713  0.2287  0.5052
  492MPD2    C4 7368   0.849   4.729  11.198 -0.0396  0.0321 -0.1819
  492MPD2    C5 7369   0.890   4.691  11.069  0.1349 -0.0604  0.0679
  492MPD2     H 7370   0.809   0.321  11.156 -2.9436 -0.6164 -0.5546
  492MPD2    H1 7371   0.840   4.650  11.272  0.9326 -0.1417 -0.2469
  492MPD2    H2 7372   0.914   0.023  10.868  0.3352  2.1254 -0.6756
  492MPD2    H3 7373   0.907   4.587  11.045 -0.8178 -0.4607  1.1312
  492MPD2     N 7374   0.779   0.169  11.356  0.5652  0.7141  0.5848
  492MPD2    H5 7375   0.746   0.264  11.364  1.6913  1.2563 -1.0895
  492MPD2    N1 7376   0.896   0.277  10.900 -0.7536  0.5619 -0.7095
  492MPD2    H7 7377   0.906   0.237  10.807 -1.2192  0.3774 -0.6778
  493TMC3    C1 7378   0.937   0.481  10.780 -0.6872  0.0180  0.5394
  493TMC3    C2 7379   1.020   0.593  10.782  0.4189 -0.2228 -0.5734
  493TMC3    C3 7380   1.042   0.661  10.667  0.5337  0.3283 -0.0892
  493TMC3    C4 7381   0.868   0.447  10.666  0.1031  0.0154 -0.1617
  493TMC3    C5 7382   0.885   0.523  10.558  0.2038  0.4146  0.0719
  493TMC3    C6 7383   0.975   0.633  10.554 -0.6231  0.7567  0.4126
  493TMC3     C 7384   0.918   0.413  10.912  0.4557  0.4047 -0.1486
  493TMC3     O 7385   0.932   0.481  11.014  0.0223 -0.2094  0.2564
  493TMC3     H 7386   1.066   0.623  10.875 -0.1471 -2.0447  0.2977
  493TMC3    H1 7387   0.801   0.362  10.667 -1.1846  1.0292 -0.3891
  493TMC3    H2 7388   1.007   0.677  10.460  0.9329 -2.1260 -0.3996
  493TMC3    C7 7389   0.807   0.499  10.441  0.2970  0.4309 -0.3449
  493TMC3    C8 7390   1.156   0.753  10.669  0.6223 -0.0997 -0.5893
  493TMC3    O1 7391   0.732   0.406  10.451  0.3960 -0.2200  0.0499
  493TMC3    O2 7392   1.188   0.791  10.781 -0.3273  0.0955  0.0491
  494TMC3    C1 7393   2.509   3.088   0.449 -0.1578  0.5494 -0.4893
  494TMC3    C2 7394   2.432   2.970   0.443  0.3153 -0.1357  0.3735
  494TMC3    C3 7395   2.412   2.913   0.323 -0.4209  0.7695  0.3110
  494TMC3    C4 7396   2.542   3.160   0.336  0.3056 -0.2092  0.2973
  494TMC3    C5 7397   2.519   3.100   0.217 -0.5348  0.4296 -0.0238
  494TMC3    C6 7398   2.447   2.981   0.211 -0.1813 -0.3563  0.5012
  494TMC3     C 7399   2.532   3.135   0.588  0.0771 -0.8294 -0.1397
  494TMC3     O 7400   2.497   3.061   0.679  0.4586 -0.9236 -0.4425
  494TMC3     H 7401   2.397   2.916   0.530 -0.0641  0.6258  0.6927
  494TMC3    H1 7402   2.590   3.257   0.343 -0.7984  0.5101 -1.9163
  494TMC3    H2 7403   2.442   2.926   0.117  1.4182  2.1537 -1.0571
  494TMC3    C7 7404   2.566   3.161   0.096 -0.2674 -0.0691  0.0070
  494TMC3    C8 7405   2.402   2.769   0.327 -0.2206 -0.0142 -0.1816
  494TMC3    O1 7406   2.536   3.095  17.738 -0.2089  0.4630 -0.1745
  494TMC3    O2 7407   2.439   2.719   0.430 -0.2098  0.6437 -0.2011
  495TMC3    C1 7408   1.382   3.878  14.480 -0.0662 -0.0474 -0.4703
  495TMC3    C2 7409   1.317   3.962  14.395  0.0770 -0.2659  0.2551
  495TMC3    C3 7410   1.327   4.098  14.416 -0.7466 -0.2546 -0.7181
  495TMC3    C4 7411   1.425   3.922  14.603  0.2602  0.6276  0.4356
  495TMC3    C5 7412   1.412   4.058  14.635 -0.0986 -0.6303 -0.6680
  495TMC3    C6 7413   1.372   4.151  14.535 -0.7613  0.5011 -0.3283
  495TMC3     C 7414   1.347   3.731  14.488 -1.2201 -1.1317  0.3894
  495TMC3     O 7415   1.340   3.681  14.600 -0.4727 -0.7916  0.4699
  495TMC3     H 7416   1.258   3.917  14.316  1.1456  0.5919 -1.0228
  495TMC3    H1 7417   1.463   3.849  14.672 -1.2397 -0.1433  0.4365
  495TMC3    H2 7418   1.375   4.258  14.555  1.2065  0.6434 -1.4570
  495TMC3    C7 7419   1.432   4.099  14.774  0.1032 -0.0155 -0.4038
  495TMC3    C8 7420   1.242   4.185  14.337 -0.3107 -0.0903 -0.5444
  495TMC3    O1 7421   1.480   4.014  14.854 -0.0870  0.1391  0.4831
  495TMC3    O2 7422   1.199   4.289  14.385  0.0816  0.0419 -0.4893
  496MPD2     C 7423   3.489   0.368  15.493 -0.8149  0.4999 -0.1424
  496MPD2    C1 7424   3.436   0.285  15.392  0.2198  0.2768  0.4572
  496MPD2    C2 7425   3.307   0.236  15.409  0.3561  1.0215  0.6071
  496MPD2    C3 7426   3.228   0.273  15.519 -0.2382  0.5397 -0.1944
  496MPD2    C4 7427   3.285   0.369  15.609 -0.5189  1.0291 -0.6306
  496MPD2    C5 7428   3.413   0.414  15.599 -0.4212  0.6145 -0.6030
  496MPD2     H 7429   3.265   0.167  15.337 -1.0531  1.4435  1.0211
  496MPD2    H1 7430   3.228   0.393  15.698  2.1037  0.9077  1.0555
  496MPD2    H2 7431   3.596   0.388  15.484 -0.4038 -0.3743  2.8035
  496MPD2    H3 7432   3.462   0.472  15.676 -2.3639  0.4961  0.7193
  496MPD2     N 7433   3.103   0.222  15.545  0.4389  0.5095 -0.0125
  496MPD2    H5 7434   3.050   0.242  15.629  0.5210  0.4490  0.0531
  496MPD2    N1 7435   3.513   0.249  15.286  0.3268  0.2386  0.1233
  496MPD2    H7 7436   3.609   0.281  15.281  0.8648 -1.6154 -1.6119
  497TMC3    C1 7437   2.936   0.067  15.542 -0.5346 -0.6720 -0.2812
  497TMC3    C2 7438   2.835   4.726  15.481  0.5569 -0.3326  0.0140
  497TMC3    C3 7439   2.752   4.658  15.568 -0.7477 -0.6745 -0.1294
  497TMC3    C4 7440   2.948   0.066  15.683 -0.0270  0.1477 -0.0469
  497TMC3    C5 7441   2.864   4.727  15.764 -0.7628  0.0336  0.1333
  497TMC3    C6 7442   2.769   4.654  15.706 -0.5056 -0.4784  0.4400
  497TMC3     C 7443   3.036   0.138  15.466 -0.4747  0.1621  0.7655
  497TMC3     O 7444   3.054   0.106  15.349  0.6970 -0.7286 -0.8618
  497TMC3     H 7445   2.809   4.723  15.376  0.3890 -0.4189  0.0589
  497TMC3    H1 7446   3.047   0.082  15.725 -0.6811  0.2969  1.4085
  497TMC3    H2 7447   2.704   4.583  15.756 -1.2086 -0.1171  0.0410
  497TMC3    C7 7448   2.894   4.700  15.900 -0.2098 -0.0759  0.2609
  497TMC3    C8 7449   2.617   4.655  15.527  0.2483 -0.5820  0.3733
  497TMC3    O1 7450   2.856   4.597  15.947  0.0460  0.0945 -0.1760
  497TMC3    O2 7451   2.598   4.641  15.405 -0.3830  0.2229  0.7336
  498MPD2     C 7452   3.563   0.463   9.850 -0.5570  0.5784 -0.5193
  498MPD2    C1 7453   3.586   0.449   9.987 -0.7233  0.1865 -0.1438
  498MPD2    C2 7454   3.509   0.371  10.071 -0.1281 -0.2907  0.8653
  498MPD2    C3 7455   3.404   0.294  10.020  0.2580  0.9151  1.0566
  498MPD2    C4 7456   3.393   0.291   9.876  0.2793 -0.6456 -0.2227
  498MPD2    C5 7457   3.469   0.378   9.798  0.1079  0.1913  0.4852
  498MPD2     H 7458   3.531   0.367  10.177 -0.1966 -1.0562  0.8482
  498MPD2    H1 7459   3.317   0.232   9.826  0.5251 -1.0289 -0.1499
  498MPD2    H2 7460   3.625   0.528   9.790  1.1450 -0.9588 -0.4051
  498MPD2    H3 7461   3.459   0.381   9.690  0.8338  3.0300  0.5009
  498MPD2     N 7462   3.325   0.223  10.111  0.3428 -0.0424  0.1701
  498MPD2    H5 7463   3.340   0.240  10.210 -1.2098  2.4930 -0.0236
  498MPD2    N1 7464   3.690   0.515  10.055  0.3306  0.0641  0.0733
  498MPD2    H7 7465   3.708   0.505  10.154 -3.0339 -1.1521  0.5636
  499TMC3    C1 7466   3.861   0.681  10.084  0.1732 -0.0014  0.9444
  499TMC3    C2 7467   3.976   0.727  10.026 -0.1050  0.3287  0.9659
  499TMC3    C3 7468   4.024   0.847  10.075 -0.1776 -0.6396 -0.4276
  499TMC3    C4 7469   3.784   0.759  10.163 -0.2986  0.2433  0.6129
  499TMC3    C5 7470   3.829   0.885  10.192 -0.6286 -0.1158  0.2151
  499TMC3    C6 7471   3.948   0.929  10.155 -0.0591 -0.8639  0.6824
  499TMC3     C 7472   3.786   0.600   9.997 -0.1786  0.4734  0.4998
  499TMC3     O 7473   3.818   0.605   9.880  0.6993  0.3976  1.0477
  499TMC3     H 7474   4.026   0.659   9.958 -0.9391  2.5975 -1.8917
  499TMC3    H1 7475   3.685   0.721  10.186 -0.0673 -0.4168  0.5233
  499TMC3    H2 7476   3.990   1.025  10.185  1.3351 -1.4333  0.5512
  499TMC3    C7 7477   3.736   0.996  10.205  0.5264 -0.4360  0.1553
  499TMC3    C8 7478   4.150   0.895  10.022 -0.6877 -0.5994  0.2033
  499TMC3    O1 7479   3.771   1.096  10.141  0.3305 -0.4612 -0.5798
  499TMC3    O2 7480   4.169   1.016  10.013 -0.2089 -0.1803 -0.2322
  500MPD2     C 7481   0.006   2.397   9.768 -0.8199 -0.7410 -0.7040
  500MPD2    C1 7482   0.035   2.306   9.873  0.6384 -0.5244 -0.2716
  500MPD2    C2 7483   4.725   2.176   9.860 -0.1463 -0.3880  0.6666
  500MPD2    C3 7484   4.646   2.138   9.755  0.4677  0.0819  0.1794
  500MPD2    C4 7485   4.619   2.231   9.658 -0.1516 -0.1017 -0.5883
  500MPD2    C5 7486   4.663   2.359   9.666 -0.0506 -0.4302  0.1384
  500MPD2     H 7487   0.004   2.105   9.941  0.9822 -1.2578 -0.2953
  500MPD2    H1 7488   4.558   2.206   9.572  0.3397 -0.7689 -0.7401
  500MPD2    H2 7489   0.018   2.505   9.777  1.4356 -0.7860 -3.0452
  500MPD2    H3 7490   4.632   2.426   9.587  0.2637 -0.8325 -0.3287
  500MPD2     N 7491   4.575   2.016   9.745  0.2866 -0.0088  0.0393
  500MPD2    H5 7492   4.509   2.008   9.668  0.1818  2.4944 -0.1172
  500MPD2    N1 7493   0.124   2.332   9.983  0.7908  0.3774  0.1360
  500MPD2    H7 7494   0.140   2.255  10.049  0.9371  0.8981  0.7095
  501TMC3    C1 7495   0.271   2.443  10.126 -0.1385  0.1467 -0.2370
  501TMC3    C2 7496   0.287   2.567  10.187 -0.9034 -0.0694  0.3078
  501TMC3    C3 7497   0.357   2.574  10.305  0.0863 -1.0057  0.2528
  501TMC3    C4 7498   0.317   2.328  10.183  0.4289 -0.3046  0.5390
  501TMC3    C5 7499   0.378   2.341  10.305  0.5975  0.5536  0.7919
  501TMC3    C6 7500   0.400   2.457  10.368  0.2072  0.8386 -0.5512
  501TMC3     C 7501   0.196   2.446  10.000 -0.2532  0.6769 -0.1651
  501TMC3     O 7502   0.204   2.548   9.931 -0.0361  0.2320  0.7035
  501TMC3     H 7503   0.238   2.655  10.147 -1.2887 -0.9879 -1.2581
  501TMC3    H1 7504   0.331   2.235  10.129 -0.4790 -0.8822  1.3093
  501TMC3    H2 7505   0.450   2.464  10.464 -0.3670 -1.7263 -0.0485
  501TMC3    C7 7506   0.431   2.228  10.377 -0.2833 -0.1304  0.7170
  501TMC3    C8 7507   0.437   2.686  10.343  0.5946 -0.2491 -0.2605
  501TMC3    O1 7508   0.511   2.250  10.468 -0.3621 -0.4474 -0.1015
  501TMC3    O2 7509   0.466   2.693  10.464  0.1486 -0.2291 -0.0689
  502TMC3    C1 7510   0.841   1.302  15.101  0.0069  0.8410 -0.1517
  502TMC3    C2 7511   0.781   1.421  15.089  0.1043 -0.0147 -0.5508
  502TMC3    C3 7512   0.667   1.443  15.021  0.3538  1.0079  0.5083
  502TMC3    C4 7513   0.777   1.191  15.050  0.2023  0.3862 -0.0567
  502TMC3    C5 7514   0.664   1.214  14.969  0.0355 -0.2914 -0.4141
  502TMC3    C6 7515   0.608   1.335  14.957  0.8593 -0.3925 -0.2262
  502TMC3     C 7516   0.930   1.273  15.210  0.3066 -0.0343  0.2176
  502TMC3     O 7517   1.039   1.334  15.218 -0.4233 -0.4776 -0.3237
  502TMC3     H 7518   0.836   1.505  15.131  1.3196 -2.0358  1.9604
  502TMC3    H1 7519   0.809   1.089  15.065  3.0683  1.2802 -0.1091
  502TMC3    H2 7520   0.531   1.353  14.883  0.7855 -0.1823 -0.0956
  502TMC3    C7 7521   0.576   1.088  14.975  0.0921 -0.2813 -0.4004
  502TMC3    C8 7522   0.646   1.568  14.954 -0.4888  0.2019  0.2896
  502TMC3    O1 7523   0.626   0.978  14.990 -0.2729  0.7725  0.0807
  502TMC3    O2 7524   0.744   1.637  14.932  0.1928 -0.2523  0.1353
  503MPD2     C 7525   2.514   1.966  16.815  0.3933  0.6016  0.0948
  503MPD2    C1 7526   2.635   1.998  16.874  0.8287  0.3671 -0.3837
  503MPD2    C2 7527   2.697   1.902  16.962  0.7336 -0.3462 -0.4852
  503MPD2    C3 7528   2.641   1.776  16.972  0.1418  0.0387 -0.7791
  503MPD2    C4 7529   2.531   1.742  16.896 -0.6969 -0.1751  0.3905
  503MPD2    C5 7530   2.475   1.834  16.814 -0.0852 -0.2619  0.0852
  503MPD2     H 7531   2.793   1.920  17.010  0.1138  2.4307 -0.2777
  503MPD2    H1 7532   2.483   1.645  16.892  2.6210 -1.8052  0.6125
  503MPD2    H2 7533   2.456   2.032  16.750 -1.8778 -1.0891  0.3927
  503MPD2    H3 7534   2.392   1.808  16.749  0.8398  0.3863 -1.3514
  503MPD2     N 7535   2.717   1.691  17.055 -0.3426  0.5398  0.1092
  503MPD2    H5 7536   2.803   1.725  17.096  0.3615  0.9218 -1.6520
  503MPD2    N1 7537   2.698   2.128  16.876 -0.1901 -0.1745  0.0579
  503MPD2    H7 7538   2.774   2.149  16.940  1.2794  1.2355 -2.1431
  504TMC3    C1 7539   2.775   1.487  17.150  0.0620 -0.2325 -0.5404
  504TMC3    C2 7540   2.722   1.407  17.243 -0.1222 -0.0720  0.1840
  504TMC3    C3 7541   2.815   1.351  17.328 -0.3510  0.0430  0.1891
  504TMC3    C4 7542   2.907   1.510  17.129  0.0118 -0.0869  0.3529
  504TMC3    C5 7543   2.989   1.432  17.206  0.1375  0.3504  0.0190
  504TMC3    C6 7544   2.951   1.353  17.310 -1.0596  0.5982  0.2782
  504TMC3     C 7545   2.678   1.559  17.077 -0.5816  1.4752  0.5522
  504TMC3     O 7546   2.575   1.501  17.045 -0.2107 -0.1479  0.2060
  504TMC3     H 7547   2.616   1.395  17.265 -0.3199 -0.2896 -0.9005
  504TMC3    H1 7548   2.942   1.561  17.040 -1.7259  0.8512  0.2071
  504TMC3    H2 7549   3.011   1.275  17.356 -0.5876  0.6290 -0.2859
  504TMC3    C7 7550   3.128   1.434  17.175 -0.5192 -0.0258  0.1534
  504TMC3    C8 7551   2.756   1.269  17.431  0.1410 -0.0802  0.3028
  504TMC3    O1 7552   3.158   1.471  17.059  0.2663  0.2929  0.1399
  504TMC3    O2 7553   2.660   1.200  17.393  0.3022  0.1190  0.0283
  505MPD2     C 7554   2.504   4.280  10.876  0.2112  0.3418 -0.6904
  505MPD2    C1 7555   2.603   4.261  10.966  0.6135 -0.1344  0.4018
  505MPD2    C2 7556   2.656   4.377  11.026 -0.0485 -0.2417  0.2438
  505MPD2    C3 7557   2.610   4.505  11.006  0.8165 -0.3269  0.4802
  505MPD2    C4 7558   2.518   4.514  10.910  0.0984  0.5075 -0.8751
  505MPD2    C5 7559   2.457   4.405  10.852 -0.3485 -0.0571  0.1090
  505MPD2     H 7560   2.745   4.369  11.088 -0.8543  0.4875  1.4936
  505MPD2    H1 7561   2.467   4.607  10.887 -1.4883 -0.5948 -1.7882
  505MPD2    H2 7562   2.473   4.196  10.815 -0.2196  2.2972 -3.1762
  505MPD2    H3 7563   2.372   4.428  10.789 -0.6459 -0.5254  0.3307
  505MPD2     N 7564   2.665   4.618  11.077 -0.2275  0.2492 -0.4233
  505MPD2    H5 7565   2.627   4.710  11.055  1.0756  1.0054  0.5383
  505MPD2    N1 7566   2.653   4.129  10.984  0.0809  0.7664  0.5832
  505MPD2    H7 7567   2.613   4.061  10.920  0.6828 -0.4233  1.4838
  506TMC3    C1 7568   2.830   3.984  11.009  0.0292  0.3311 -0.4347
  506TMC3    C2 7569   2.862   3.975  10.874 -0.0677 -0.3519  0.4231
  506TMC3    C3 7570   2.994   3.946  10.844  0.3697  0.2177 -0.0344
  506TMC3    C4 7571   2.929   3.961  11.097  0.3967  0.4369  0.4817
  506TMC3    C5 7572   3.053   3.926  11.066 -0.1581 -0.5265 -0.2388
  506TMC3    C6 7573   3.089   3.913  10.937  0.0711 -0.6298 -0.5049
  506TMC3     C 7574   2.762   4.098  11.057  0.2453  0.1401 -0.0012
  506TMC3     O 7575   2.820   4.164  11.144  0.1612 -0.3537  0.1926
  506TMC3     H 7576   2.792   4.000  10.794 -0.8973 -2.6081  0.4560
  506TMC3    H1 7577   2.903   3.963  11.202 -2.0014 -0.5519 -0.0945
  506TMC3    H2 7578   3.193   3.894  10.911  0.1069 -0.7012 -0.3111
  506TMC3    C7 7579   3.156   4.001  11.143  0.4813  0.3260  0.2374
  506TMC3    C8 7580   3.053   3.984  10.714  0.3108 -0.4667  0.4076
  506TMC3    O1 7581   3.274   3.966  11.147 -0.3105  0.7583  0.2014
  506TMC3    O2 7582   3.162   4.039  10.706 -0.4187 -0.2639 -0.0801
  507TMC3    C1 7583   4.201   1.100  15.606  0.0204  0.2864  0.8616
  507TMC3    C2 7584   4.133   0.988  15.570  0.8479  0.5707  1.3671
  507TMC3    C3 7585   4.118   0.965  15.438  0.2370 -0.2712  0.3870
  507TMC3    C4 7586   4.248   1.195  15.514  0.4550  0.4499 -0.0482
  507TMC3    C5 7587   4.220   1.172  15.377 -0.6370 -0.4373 -0.4443
  507TMC3    C6 7588   4.176   1.047  15.342  0.0383  0.3553 -0.2749
  507TMC3     C 7589   4.231   1.129  15.746 -0.2271  0.4120 -0.7619
  507TMC3     O 7590   4.283   1.235  15.772 -0.0766 -1.0607  0.3695
  507TMC3     H 7591   4.094   0.918  15.643 -2.2075  1.2568  0.3857
  507TMC3    H1 7592   4.282   1.290  15.554  2.2211  0.7103 -2.1670
  507TMC3    H2 7593   4.174   1.015  15.239 -1.5055 -1.2222  0.2270
  507TMC3    C7 7594   4.144   1.273  15.314 -0.7880  0.0130 -0.6368
  507TMC3    C8 7595   4.002   0.891  15.391  0.7031  0.4914 -0.0947
  507TMC3    O1 7596   4.050   1.227  15.246  0.3403  0.5083  0.1577
  507TMC3    O2 7597   3.949   0.806  15.465 -0.4522  0.5497  0.0833
  508MPD2     C 7598   0.265   3.348  16.153 -0.0526 -0.5707  0.5272
  508MPD2    C1 7599   0.227   3.473  16.196  0.1373  0.8854  0.1873
  508MPD2    C2 7600   0.224   3.569  16.101 -0.1658 -0.0373  0.0670
  508MPD2    C3 7601   0.219   3.554  15.968 -0.4655 -0.4341  0.1505
  508MPD2    C4 7602   0.246   3.427  15.924  0.7851  0.2270 -0.1669
  508MPD2    C5 7603   0.271   3.330  16.019  0.0345  0.5949  0.0687
  508MPD2     H 7604   0.203   3.669  16.138 -1.6967 -0.2491 -0.2316
  508MPD2    H1 7605   0.242   3.401  15.819  0.8635 -1.0989  0.1660
  508MPD2    H2 7606   0.274   3.261  16.217  0.1043 -2.1939 -1.6824
  508MPD2    H3 7607   0.297   3.227  15.995 -1.3768  0.2827 -0.0964
  508MPD2     N 7608   0.212   3.670  15.886  0.3169  0.5650  0.0555
  508MPD2    H5 7609   0.211   3.762  15.930 -2.8000  1.1399 -1.2228
  508MPD2    N1 7610   0.203   3.503  16.327 -0.0616  0.5405 -0.1104
  508MPD2    H7 7611   0.206   3.424  16.391  1.0213  0.3376 -0.4226
  509TMC3    C1 7612   0.112   4.010  15.637  0.7918  0.1078  0.6650
  509TMC3    C2 7613   0.235   4.067  15.613  0.9268  0.1573  1.3424
  509TMC3    C3 7614   0.334   3.970  15.629 -0.2943  0.2183 -0.4570
  509TMC3    C4 7615   0.082   3.888  15.682 -0.2133  0.0505  0.5747
  509TMC3    C5 7616   0.180   3.804  15.699  0.0965  0.4153  0.0421
  509TMC3    C6 7617   0.305   3.837  15.662 -0.1443 -0.4070 -0.4289
  509TMC3     C 7618   0.002   4.099  15.621 -0.2732 -0.4530  0.0453
  509TMC3     O 7619   4.648   4.076  15.700 -0.1027 -0.2953 -0.0698
  509TMC3     H 7620   0.237   4.176  15.608 -2.2927  0.1892  0.8911
  509TMC3    H1 7621   4.715   3.860  15.705 -0.1387 -0.6652  0.0448
  509TMC3    H2 7622   0.386   3.764  15.663  0.5545  0.3477 -1.4161
  509TMC3    C7 7623   0.157   3.670  15.761 -0.4913  0.2568  1.1700
  509TMC3    C8 7624   0.473   4.016  15.643 -0.1040  0.5161 -0.0214
  509TMC3    O1 7625   0.090   3.581  15.714 -0.1340  0.0197  0.2035
  509TMC3    O2 7626   0.552   3.947  15.708 -0.7762 -0.1531  0.3086
  510MPD2     C 7627   2.680   0.550  14.577 -0.0962 -0.5184  0.7261
  510MPD2    C1 7628   2.722   0.446  14.661 -0.2977 -0.3505 -0.4311
  510MPD2    C2 7629   2.848   0.405  14.651  0.4115  0.5633 -0.2083
  510MPD2    C3 7630   2.936   0.453  14.550  1.1672 -0.1074  0.0431
  510MPD2    C4 7631   2.884   0.544  14.461  0.2479  0.0704  1.0744
  510MPD2    C5 7632   2.760   0.597  14.473  0.0243  0.6676 -0.6803
  510MPD2     H 7633   2.895   0.324  14.705 -1.4543  0.2545  0.9427
  510MPD2    H1 7634   2.948   0.576  14.379 -0.2211  0.9160  1.0467
  510MPD2    H2 7635   2.577   0.582  14.580  0.3660  1.0011  0.5487
  510MPD2    H3 7636   2.713   0.672  14.411 -0.4290  1.8829  1.1487
  510MPD2     N 7637   3.072   0.411  14.547 -0.2304 -0.4236 -0.3488
  510MPD2    H5 7638   3.108   0.374  14.634 -1.1018 -2.1069 -0.6986
  510MPD2    N1 7639   2.627   0.370  14.735  0.0564  0.0682  1.2035
  510MPD2    H7 7640   2.654   0.283  14.779  0.5981  0.2407  1.2215
  511TMC3    C1 7641   2.427   0.311  14.836 -0.0678 -0.5000 -0.4041
  511TMC3    C2 7642   2.313   0.341  14.905  0.6662 -0.2451  0.8830
  511TMC3    C3 7643   2.258   0.249  14.991  0.0152 -0.5234 -0.3478
  511TMC3    C4 7644   2.476   0.180  14.839  0.0454  0.1445  0.5695
  511TMC3    C5 7645   2.411   0.086  14.913 -0.4942  0.0917 -1.0150
  511TMC3    C6 7646   2.301   0.118  14.994  0.7496  0.5667  0.4915
  511TMC3     C 7647   2.499   0.407  14.755 -0.3192 -0.1264 -0.3756
  511TMC3     O 7648   2.436   0.510  14.733 -0.1998 -0.9179 -0.3891
  511TMC3     H 7649   2.276   0.441  14.884  3.0649  0.6992  1.1831
  511TMC3    H1 7650   2.537   0.130  14.764  0.0081 -1.3182  1.5035
  511TMC3    H2 7651   2.251   0.039  15.048 -0.0297  0.9930  0.3913
  511TMC3    C7 7652   2.376   4.706  14.835 -0.1825  0.6340 -0.1275
  511TMC3    C8 7653   2.139   0.300  15.066 -0.4179 -0.3495 -0.1308
  511TMC3    O1 7654   2.339   4.725  14.720 -0.2090 -0.1136 -0.1593
  511TMC3    O2 7655   2.116   0.418  15.069  0.3189  0.2364  0.4060
  512TMC3    C1 7656   1.443   3.957  12.835  0.5777  0.3499  0.1132
  512TMC3    C2 7657   1.378   3.931  12.950 -0.6037  0.3329  0.5559
  512TMC3    C3 7658   1.345   3.800  12.975  0.6821 -0.4275  0.0969
  512TMC3    C4 7659   1.478   3.866  12.737 -0.1257  0.4232 -0.3056
  512TMC3    C5 7660   1.445   3.739  12.765  0.3900 -0.5514  0.1256
  512TMC3    C6 7661   1.372   3.703  12.883  0.2364 -0.1876  0.0359
  512TMC3     C 7662   1.533   4.076  12.835  0.7895 -0.5827  0.7589
  512TMC3     O 7663   1.532   4.122  12.946  0.2063  0.6041  0.0447
  512TMC3     H 7664   1.355   4.014  13.016 -1.1598  0.1790  0.5571
  512TMC3    H1 7665   1.543   3.887  12.652  0.1996  1.8832  0.3170
  512TMC3    H2 7666   1.338   3.602  12.899 -1.0818  0.4443  1.1828
  512TMC3    C7 7667   1.496   3.641  12.672 -0.1162  0.4555 -0.1298
  512TMC3    C8 7668   1.380   3.760  13.110  0.4368 -0.1117  0.0469
  512TMC3    O1 7669   1.494   3.672  12.550  0.1687  0.0213 -0.1264
  512TMC3    O2 7670   1.377   3.642  13.145  0.1200 -0.6543  0.7045
  513MPD2     C 7671   2.562   4.665  13.360  0.3858 -0.8064  0.1975
  513MPD2    C1 7672   2.546   4.539  13.405  0.1395 -0.4009  0.7684
  513MPD2    C2 7673   2.568   4.520  13.542  0.0099  0.1883  0.0799
  513MPD2    C3 7674   2.613   4.621  13.628  0.7341  0.2016 -0.6407
  513MPD2    C4 7675   2.618   0.015  13.575 -0.1168  0.3225 -0.3811
  513MPD2    C5 7676   2.596   0.034  13.444 -0.7270 -0.1728 -0.9906
  513MPD2     H 7677   2.553   4.422  13.585  0.4134  0.4295  0.7857
  513MPD2    H1 7678   2.641   0.107  13.626 -1.8580  0.6107 -0.1014
  513MPD2    H2 7679   2.552   4.691  13.255 -1.8550 -2.0042  0.1116
  513MPD2    H3 7680   2.612   0.133  13.403 -1.1439 -0.6390 -2.2887
  513MPD2     N 7681   2.646   4.590  13.760  0.3215  0.1051  0.0943
  513MPD2    H5 7682   2.636   4.492  13.785  0.8708  0.3856  1.4098
  513MPD2    N1 7683   2.529   4.435  13.309  0.4098 -0.3876  0.1407
  513MPD2    H7 7684   2.505   4.459  13.214  0.0880 -1.7666 -0.1325
  514TMC3    C1 7685   2.518   4.214  13.231  0.1973 -0.0933 -0.5121
  514TMC3    C2 7686   2.619   4.223  13.135  0.0528 -0.0370 -0.1435
  514TMC3    C3 7687   2.688   4.112  13.097 -0.2186 -0.3082  0.3794
  514TMC3    C4 7688   2.495   4.095  13.284  0.4723  0.0823  0.4773
  514TMC3    C5 7689   2.564   3.982  13.249 -0.2611  0.0331  0.0115
  514TMC3    C6 7690   2.665   3.989  13.154 -0.6602 -0.3407  0.2679
  514TMC3     C 7691   2.531   4.301  13.338  0.0509  0.3697 -0.2590
  514TMC3     O 7692   2.570   4.247  13.442 -0.2218 -0.4464 -0.0416
  514TMC3     H 7693   2.642   4.324  13.104  0.3825 -0.5893 -1.6953
  514TMC3    H1 7694   2.418   4.092  13.360 -1.5288  1.5353 -1.4974
  514TMC3    H2 7695   2.720   3.900  13.125 -2.8667 -1.4289 -0.5404
  514TMC3    C7 7696   2.604   3.893  13.355  0.3079 -0.3086  0.0357
  514TMC3    C8 7697   2.787   4.134  12.994  0.3801 -0.2061  0.1464
  514TMC3    O1 7698   2.654   3.787  13.323 -0.2275  0.1537 -0.6047
  514TMC3    O2 7699   2.794   4.249  12.955 -0.1234  0.1849 -0.1552
  515MPD2     C 7700   1.017   1.417  14.777  0.0726 -0.3395 -0.1986
  515MPD2    C1 7701   1.118   1.340  14.736  0.1032  0.5248 -0.3435
  515MPD2    C2 7702   1.250   1.354  14.785  0.4335 -0.7261  0.0801
  515MPD2    C3 7703   1.267   1.442  14.893  0.2483  0.5078 -0.5019
  515MPD2    C4 7704   1.158   1.523  14.931  0.0008 -0.5161  0.1099
  515MPD2    C5 7705   1.036   1.509  14.869 -0.0546  0.0840 -0.5134
  515MPD2     H 7706   1.326   1.292  14.740 -0.1780 -1.0076 -0.5704
  515MPD2    H1 7707   1.167   1.584  15.020 -0.0599 -1.0950  0.5126
  515MPD2    H2 7708   0.914   1.398  14.748  1.0587 -2.2018 -2.5321
  515MPD2    H3 7709   0.946   1.562  14.900 -0.5802 -0.8352 -0.4358
  515MPD2     N 7710   1.384   1.456  14.972 -0.1706 -0.1189 -0.7922
  515MPD2    H5 7711   1.371   1.491  15.066  0.5843  0.0783 -0.7610
  515MPD2    N1 7712   1.108   1.248  14.631 -0.8024 -1.0119 -0.3325
  515MPD2    H7 7713   1.193   1.201  14.601  0.6464  0.7982  0.9078
  516TMC3    C1 7714   1.010   1.108  14.473 -0.8532  0.3313  0.7023
  516TMC3    C2 7715   0.997   1.134  14.337  0.1965 -0.4102 -0.4096
  516TMC3    C3 7716   1.042   1.035  14.247 -0.3691 -0.4070  0.5966
  516TMC3    C4 7717   1.067   0.994  14.515 -0.1468 -0.2043 -0.0291
  516TMC3    C5 7718   1.108   0.897  14.425  0.2202  0.2735 -0.0724
  516TMC3    C6 7719   1.103   0.919  14.290  0.4295 -0.6876  0.3529
  516TMC3     C 7720   0.996   1.232  14.553  0.1691 -0.4983 -0.7795
  516TMC3     O 7721   0.915   1.317  14.511 -0.1407  0.5432  0.5863
  516TMC3     H 7722   0.959   1.231  14.305 -1.3674 -0.5164  1.1099
  516TMC3    H1 7723   1.078   0.981  14.622  2.8079 -2.0252 -0.5333
  516TMC3    H2 7724   1.112   0.837  14.219  1.2340 -0.2895  0.0033
  516TMC3    C7 7725   1.194   0.800  14.494  0.1522  0.5179  0.1513
  516TMC3    C8 7726   1.040   1.083  14.107  0.4434 -0.4429  0.2456
  516TMC3    O1 7727   1.171   0.768  14.608 -0.1975  0.5021 -0.3466
  516TMC3    O2 7728   0.975   1.186  14.092 -0.0690  0.4872 -0.4402
  517MPD2     C 7729   1.308   3.207   0.228 -0.7609  0.0251  0.6532
  517MPD2    C1 7730   1.422   3.186   0.165  0.0843 -0.5673  0.1700
  517MPD2    C2 7731   1.534   3.228   0.227  1.0502  0.3059  0.0613
  517MPD2    C3 7732   1.534   3.301   0.346  0.3024  0.7803  0.1160
  517MPD2    C4 7733   1.410   3.334   0.402 -0.6676  0.2726 -0.0541
  517MPD2    C5 7734   1.297   3.284   0.339  0.6944 -1.0657 -0.3313
  517MPD2     H 7735   1.627   3.209   0.176  0.4747 -2.0144 -0.1092
  517MPD2    H1 7736   1.390   3.399   0.487  2.4304  0.4144  0.5453
  517MPD2    H2 7737   1.208   3.182   0.192 -0.5360  2.6517 -1.7720
  517MPD2    H3 7738   1.204   3.293   0.394  2.4669 -0.5170  2.5804
  517MPD2     N 7739   1.651   3.347   0.409 -0.0072 -0.6865  0.6827
  517MPD2    H5 7740   1.631   3.385   0.501 -0.9349  0.4387  0.0102
  517MPD2    N1 7741   1.433   3.115   0.041 -1.1103 -0.3471  0.1576
  517MPD2    H7 7742   1.525   3.091   0.005 -1.6578 -3.2477  0.6821
  518TMC3    C1 7743   1.361   2.990  17.589 -0.0968  0.5233 -0.0274
  518TMC3    C2 7744   1.271   2.896  17.551  0.1882 -0.1428  0.0683
  518TMC3    C3 7745   1.283   2.826  17.435  0.1072 -0.3809 -0.1319
  518TMC3    C4 7746   1.475   3.009  17.517  0.2844  0.7176 -0.4679
  518TMC3    C5 7747   1.489   2.938  17.403  0.0666 -0.6683  0.4514
  518TMC3    C6 7748   1.393   2.851  17.360 -0.7074  0.1955 -0.0102
  518TMC3     C 7749   1.324   3.075  17.703 -0.7087 -0.1865 -0.4596
  518TMC3     O 7750   1.204   3.098  17.719 -0.7552  0.3652  0.1200
  518TMC3     H 7751   1.181   2.892  17.611  0.8881  0.0286  1.1510
  518TMC3    H1 7752   1.541   3.096  17.513  0.8610  0.3607  1.6828
  518TMC3    H2 7753   1.403   2.798  17.266  1.2100  1.4475 -0.5156
  518TMC3    C7 7754   1.625   2.914  17.365 -0.5496  0.6096 -0.7480
  518TMC3    C8 7755   1.272   2.686  17.440  0.3922  0.2744  0.2356
  518TMC3    O1 7756   1.716   2.980  17.410 -0.1578  0.0787 -0.1123
  518TMC3    O2 7757   1.364   2.619  17.391  0.2636 -0.5429 -0.8085
  519MPD2     C 7758   3.017   1.101  14.432 -0.1728  0.3040 -0.2892
  519MPD2    C1 7759   2.940   1.134  14.321  0.7141 -0.3505 -0.0893
  519MPD2    C2 7760   2.973   1.076  14.195 -0.5580  0.0206 -0.3772
  519MPD2    C3 7761   3.076   0.983  14.187  0.4244 -0.6913 -0.4356
  519MPD2    C4 7762   3.150   0.954  14.294  0.2682  0.1643 -0.7086
  519MPD2    C5 7763   3.122   1.016  14.417 -0.2275 -0.2809  0.2293
  519MPD2     H 7764   2.924   1.108  14.103 -1.3156  0.2968  0.1266
  519MPD2    H1 7765   3.234   0.887  14.289 -0.7610 -1.3116  1.7981
  519MPD2    H2 7766   3.003   1.150  14.528 -1.8836 -0.3326 -0.2264
  519MPD2    H3 7767   3.190   0.997  14.500  0.7913 -0.3811 -0.6244
  519MPD2     N 7768   3.115   0.918  14.061  0.8282  0.2036 -0.4528
  519MPD2    H5 7769   3.197   0.859  14.069 -0.4640 -1.6402 -0.7345
  519MPD2    N1 7770   2.840   1.229  14.345  0.7039  0.6631  1.3189
  519MPD2    H7 7771   2.820   1.259  14.440  0.3043 -1.3043  1.8673
  520TMC3    C1 7772   3.107   0.849  13.839 -0.0706 -0.5710  0.3934
  520TMC3    C2 7773   3.024   0.782  13.756  0.0935  0.8734  0.0677
  520TMC3    C3 7774   3.081   0.715  13.658 -0.2059 -0.0771 -0.0396
  520TMC3    C4 7775   3.243   0.858  13.821 -0.0882 -0.1851 -0.6878
  520TMC3    C5 7776   3.299   0.791  13.720  0.9309 -0.0538  0.4787
  520TMC3    C6 7777   3.219   0.718  13.633  0.8418 -0.0406 -0.1492
  520TMC3     C 7778   3.047   0.928  13.940  0.1717  0.7456 -0.1629
  520TMC3     O 7779   2.949   0.990  13.903  0.2490  0.9725  0.1411
  520TMC3     H 7780   2.918   0.803  13.762 -0.0011 -0.5925  3.0386
  520TMC3    H1 7781   3.311   0.896  13.898  1.6838 -2.0683 -1.3298
  520TMC3    H2 7782   3.260   0.662  13.549 -0.5886 -2.3724  0.7067
  520TMC3    C7 7783   3.437   0.746  13.749  0.3825 -0.3967  0.1842
  520TMC3    C8 7784   2.997   0.632  13.568  0.3181  0.1806  0.4946
  520TMC3    O1 7785   3.488   0.796  13.850  0.4913  0.0909 -0.4616
  520TMC3    O2 7786   3.053   0.557  13.490 -0.1884 -0.1140  0.7580
  521MPD2     C 7787   3.472   4.560  17.249 -0.1122  0.6632  0.7698
  521MPD2    C1 7788   3.460   4.468  17.147  0.1805 -0.0698 -2.2591
  521MPD2    C2 7789   3.572   4.434  17.071 -0.0901 -0.2937 -0.2934
  521MPD2    C3 7790   3.698   4.493  17.097  0.3373 -0.1138 -0.8654
  521MPD2    C4 7791   3.701   4.571  17.210  0.3596 -0.0821 -0.3024
  521MPD2    C5 7792   3.591   4.616  17.280  0.2720 -0.1601 -0.3026
  521MPD2     H 7793   3.555   4.364  16.990  1.5508 -2.1486  0.9466
  521MPD2    H1 7794   3.795   4.615  17.242  0.9031 -1.5710  0.1375
  521MPD2    H2 7795   3.389   4.588  17.314 -0.9671  0.3942 -0.2077
  521MPD2    H3 7796   3.591   4.674  17.371 -0.2476 -0.5948 -0.0279
  521MPD2     N 7797   3.815   4.457  17.024 -0.9980 -0.7212 -0.7737
  521MPD2    H5 7798   3.806   4.393  16.945  0.4199 -1.1373 -0.6034
  521MPD2    N1 7799   3.330   4.415  17.139  0.6138  0.4266  0.1019
  521MPD2    H7 7800   3.270   4.452  17.211 -1.9264 -0.4610 -1.5612
  522TMC3    C1 7801   4.052   4.463  16.954 -0.2723  1.1671 -0.0024
  522TMC3    C2 7802   4.181   4.452  17.002  0.0489 -0.7807 -0.8114
  522TMC3    C3 7803   4.281   4.397  16.923 -0.2854  0.2337 -0.0210
  522TMC3    C4 7804   4.028   4.411  16.831  0.8327 -0.2254 -0.3471
  522TMC3    C5 7805   4.128   4.366  16.751 -0.0409  0.3105 -0.1973
  522TMC3    C6 7806   4.259   4.354  16.797  0.1498  0.2750  0.2585
  522TMC3     C 7807   3.948   4.498  17.048 -0.2993 -0.0949  0.5513
  522TMC3     O 7808   3.991   4.570  17.138 -0.7159  0.0641  0.3277
  522TMC3     H 7809   4.204   4.491  17.101 -1.0677 -1.4769 -0.2733
  522TMC3    H1 7810   3.924   4.419  16.802  0.2020  1.4461  2.3945
  522TMC3    H2 7811   4.337   4.312  16.735 -0.3234  0.0496 -0.1872
  522TMC3    C7 7812   4.115   4.346  16.606  0.1843  1.0020  0.0050
  522TMC3    C8 7813   4.411   4.372  16.984 -0.0444 -0.4640 -0.1238
  522TMC3    O1 7814   4.216   4.298  16.545 -0.0396  0.3706 -0.0050
  522TMC3    O2 7815   4.448   4.445  17.074  0.0815  0.1316 -0.5612
  523MPD2     C 7816   1.478   3.508  10.295  0.1074  0.0887  0.0719
  523MPD2    C1 7817   1.372   3.559  10.227 -0.3800  0.2694  0.7126
  523MPD2    C2 7818   1.366   3.695  10.200 -0.2296  0.2124 -0.5002
  523MPD2    C3 7819   1.468   3.780  10.251 -0.2852 -0.0464 -0.2975
  523MPD2    C4 7820   1.572   3.725  10.322  0.1301 -0.4522  0.2310
  523MPD2    C5 7821   1.575   3.590  10.341  0.3191 -0.4768  0.2399
  523MPD2     H 7822   1.269   3.730  10.167 -0.7415 -0.7089  0.0522
  523MPD2    H1 7823   1.645   3.798  10.355  2.3497 -2.9229  0.7158
  523MPD2    H2 7824   1.477   3.401  10.316 -0.9081  0.1048  0.1031
  523MPD2    H3 7825   1.654   3.540  10.396  0.6313 -2.0307 -1.5961
  523MPD2     N 7826   1.466   3.921  10.234  0.4459  0.2504 -0.3276
  523MPD2    H5 7827   1.534   3.979  10.282 -0.5846  1.3108 -0.1371
  523MPD2    N1 7828   1.273   3.467  10.196 -0.0150  0.2213  0.6971
  523MPD2    H7 7829   1.287   3.375  10.235  1.0742 -1.6562 -4.1664
  524TMC3    C1 7830   1.410   4.137  10.156 -0.4290 -0.2839 -0.1400
  524TMC3    C2 7831   1.486   4.184  10.261  0.1805 -0.4719  0.2674
  524TMC3    C3 7832   1.529   4.310  10.248  0.1804  1.0059 -0.8638
  524TMC3    C4 7833   1.389   4.204  10.039 -0.3585  0.1882 -0.0286
  524TMC3    C5 7834   1.440   4.328  10.033  0.5667 -0.2110  0.1741
  524TMC3    C6 7835   1.513   4.377  10.136  0.0332  0.4807 -0.1400
  524TMC3     C 7836   1.373   3.995  10.166 -0.0139 -0.6369  0.0702
  524TMC3     O 7837   1.291   3.951  10.081  0.0210 -0.4284  0.2070
  524TMC3     H 7838   1.461   4.144  10.359 -2.2277  2.0338  0.7027
  524TMC3    H1 7839   1.337   4.157   9.956  0.0889  0.2006 -0.3125
  524TMC3    H2 7840   1.526   4.484  10.133  2.6933  0.1460 -0.4607
  524TMC3    C7 7841   1.411   4.412   9.917 -0.0550  0.0091  0.2829
  524TMC3    C8 7842   1.605   4.369  10.355 -1.1902  0.3540  0.0736
  524TMC3    O1 7843   1.492   4.503   9.899 -0.1450 -0.1119  0.2092
  524TMC3    O2 7844   1.601   4.304  10.458  0.0864  0.5542  0.2995
  525MPD2     C 7845   4.280   0.864  14.229  0.0540 -0.0084  0.3825
  525MPD2    C1 7846   4.409   0.908  14.261 -1.0008  0.7945 -0.1821
  525MPD2    C2 7847   4.455   1.029  14.219  0.2297  0.2921  0.3631
  525MPD2    C3 7848   4.365   1.118  14.156 -0.1014  0.7960 -0.7800
  525MPD2    C4 7849   4.241   1.078  14.128  0.0304 -0.5370  0.1734
  525MPD2    C5 7850   4.203   0.949  14.161  0.4965  0.4620 -1.0802
  525MPD2     H 7851   4.557   1.052  14.250  0.1431 -0.8768  1.4873
  525MPD2    H1 7852   4.167   1.146  14.087  0.5715 -0.2995 -0.4045
  525MPD2    H2 7853   4.235   0.767  14.243  0.0310  0.0192  0.5001
  525MPD2    H3 7854   4.100   0.918  14.146  0.5077  0.2998 -0.8257
  525MPD2     N 7855   4.397   1.253  14.132 -0.3333  0.6926  0.4611
  525MPD2    H5 7856   4.322   1.317  14.111 -0.5948  0.6466  1.2313
  525MPD2    N1 7857   4.493   0.819  14.334  0.0797  0.0561 -0.0797
  525MPD2    H7 7858   4.591   0.844  14.335 -0.3477  1.8545 -2.0219
  526TMC3    C1 7859   4.556   0.626  14.454 -0.0375  0.0439  0.1390
  526TMC3    C2 7860   4.517   0.557  14.564 -0.0501  0.7096 -0.2122
  526TMC3    C3 7861   4.609   0.503  14.649  0.5938  0.0281  0.1248
  526TMC3    C4 7862   4.686   0.653  14.419 -0.0815 -0.2282  0.3052
  526TMC3    C5 7863   0.045   0.595  14.505  0.1617  0.1417  0.5876
  526TMC3    C6 7864   0.009   0.521  14.620  0.3036  1.4220  0.4652
  526TMC3     C 7865   4.453   0.705  14.386 -0.4740  0.3391 -0.0728
  526TMC3     O 7866   4.337   0.674  14.409 -0.2642  0.0811  0.6850
  526TMC3     H 7867   4.410   0.540  14.572 -0.4639  4.3135  1.9334
  526TMC3    H1 7868   4.711   0.692  14.321  1.0519 -0.4281  0.5198
  526TMC3    H2 7869   0.083   0.483  14.688 -0.5476  1.5090  1.4415
  526TMC3    C7 7870   0.177   0.580  14.440  0.4044  0.5593 -0.0778
  526TMC3    C8 7871   4.578   0.507  14.790  0.5533 -0.5935  0.5851
  526TMC3    O1 7872   0.202   0.660  14.352  0.3068  0.4926 -0.4188
  526TMC3    O2 7873   4.672   0.495  14.869 -0.1415  0.2110  0.8429
  527MPD2     C 7874   2.516   3.587   1.337  0.4454 -0.8362 -0.7639
  527MPD2    C1 7875   2.516   3.561   1.201 -0.5749  0.2971 -0.4143
  527MPD2    C2 7876   2.616   3.607   1.124  0.2862 -0.2862 -0.1015
  527MPD2    C3 7877   2.728   3.673   1.176 -0.0842 -0.1258  0.3909
  527MPD2    C4 7878   2.722   3.709   1.304 -0.0544 -0.4357 -0.7625
  527MPD2    C5 7879   2.612   3.678   1.381 -0.2529  0.5671 -1.1259
  527MPD2     H 7880   2.634   3.587   1.020  2.9312  2.6743 -0.2357
  527MPD2    H1 7881   2.784   3.786   1.349  1.2934 -0.6429 -2.2393
  527MPD2    H2 7882   2.429   3.566   1.399 -0.5644 -0.1212 -1.9388
  527MPD2    H3 7883   2.599   3.713   1.482  0.9760 -0.5732 -0.5714
  527MPD2     N 7884   2.834   3.712   1.091  0.3163 -0.0238 -0.8428
  527MPD2    H5 7885   2.811   3.727   0.993  0.3697 -1.2296 -1.0439
  527MPD2    N1 7886   2.422   3.475   1.145 -0.0555 -0.0919  0.0835
  527MPD2    H7 7887   2.436   3.454   1.047  2.4280  3.1756 -0.2557
  528TMC3    C1 7888   2.270   3.315   1.096  0.1446  0.6353  0.0338
  528TMC3    C2 7889   2.290   3.370   0.971  0.6761 -0.0841 -0.7889
  528TMC3    C3 7890   2.292   3.280   0.862 -0.2293  0.0193 -0.3635
  528TMC3    C4 7891   2.250   3.183   1.128  0.2545 -0.1502  0.4522
  528TMC3    C5 7892   2.266   3.103   1.016 -0.0582  0.7726  0.1408
  528TMC3    C6 7893   2.283   3.144   0.886 -0.6629 -0.2684  0.3725
  528TMC3     C 7894   2.325   3.395   1.206  0.1674 -0.0648  0.4025
  528TMC3     O 7895   2.305   3.364   1.321  0.7768 -0.2967  0.6945
  528TMC3     H 7896   2.299   3.475   0.949  1.2211 -0.0087 -0.2077
  528TMC3    H1 7897   2.250   3.153   1.232  1.9100  0.5112  0.6311
  528TMC3    H2 7898   2.287   3.068   0.808  1.3076 -0.1393  0.3265
  528TMC3    C7 7899   2.307   2.968   1.047  0.0175  0.2071  0.8777
  528TMC3    C8 7900   2.271   3.332   0.727  0.0073  0.7860 -0.1726
  528TMC3    O1 7901   2.296   2.933   1.163  0.4453 -0.2142  0.1956
  528TMC3    O2 7902   2.307   3.450   0.712  0.3120 -0.1927  0.5155
  529MPD2     C 7903   4.621   2.077   0.756 -0.3731 -0.0631 -0.6328
  529MPD2    C1 7904   4.713   2.051   0.654 -0.5177 -0.0307 -0.1156
  529MPD2    C2 7905   4.684   2.105   0.529  0.2290  0.2237 -0.4506
  529MPD2    C3 7906   4.585   2.202   0.511  0.8702 -0.1172  0.4770
  529MPD2    C4 7907   4.492   2.225   0.612  0.5235 -0.0300 -0.3472
  529MPD2    C5 7908   4.500   2.150   0.732 -0.0938 -0.3924  0.1028
  529MPD2     H 7909   0.019   2.081   0.450 -0.6741 -2.1347 -0.5584
  529MPD2    H1 7910   4.394   2.268   0.595 -0.5423 -1.4705  2.0706
  529MPD2    H2 7911   4.630   2.054   0.862  2.0859  1.3561 -0.5387
  529MPD2    H3 7912   4.432   2.169   0.813  0.8298 -0.2691  0.8558
  529MPD2     N 7913   4.550   2.263   0.385 -0.6470  0.1216  0.1425
  529MPD2    H5 7914   4.471   2.326   0.388 -2.1372 -1.8151  1.5542
  529MPD2    N1 7915   0.098   1.973   0.675 -0.2333 -0.2008 -0.0070
  529MPD2    H7 7916   0.161   1.956   0.598 -1.4949 -1.3899 -0.7819
  530TMC3    C1 7917   0.263   1.852   0.799 -0.2875  0.5771  0.0055
  530TMC3    C2 7918   0.336   1.858   0.916  0.4113 -0.2244  0.0518
  530TMC3    C3 7919   0.386   1.742   0.971  0.2449 -0.7875 -0.2076
  530TMC3    C4 7920   0.246   1.727   0.737 -0.2298  0.8192 -0.0015
  530TMC3    C5 7921   0.285   1.613   0.797  0.1824  0.2330 -0.0993
  530TMC3    C6 7922   0.351   1.620   0.920  0.3742 -0.6175  0.1656
  530TMC3     C 7923   0.147   1.940   0.800 -0.2057 -0.6109  0.2834
  530TMC3     O 7924   0.115   1.972   0.913  0.0426 -0.0866  0.0833
  530TMC3     H 7925   0.345   1.947   0.977 -0.7601 -0.1707  0.1457
  530TMC3    H1 7926   0.180   1.720   0.652 -0.1191 -0.1198 -0.0046
  530TMC3    H2 7927   0.383   1.531   0.974  0.9562  0.0523  0.9223
  530TMC3    C7 7928   0.237   1.489   0.747 -0.2555 -0.2895 -0.1928
  530TMC3    C8 7929   0.399   1.745   1.116 -0.4338 -0.1557 -0.5657
  530TMC3    O1 7930   0.228   1.485   0.628 -0.2562 -0.1817  0.5293
  530TMC3    O2 7931   0.326   1.820   1.183 -0.0434 -0.0793  0.4372
  531MPD2     C 7932   2.830   3.906  13.813  0.1715  0.2416 -0.5222
  531MPD2    C1 7933   2.765   4.030  13.793  0.0865  0.3627 -0.3641
  531MPD2    C2 7934   2.699   4.042  13.669  0.1428  0.2955  0.8447
  531MPD2    C3 7935   2.702   3.942  13.575  0.8130 -0.8742  0.8007
  531MPD2    C4 7936   2.765   3.820  13.594 -0.0181  0.4552 -0.3702
  531MPD2    C5 7937   2.831   3.808  13.716 -1.1678 -0.4802  0.3000
  531MPD2     H 7938   2.650   4.136  13.643 -0.2920 -0.2542 -0.3467
  531MPD2    H1 7939   2.748   3.743  13.520 -1.6417 -1.2928  1.8186
  531MPD2    H2 7940   2.895   3.888  13.899 -0.8997 -1.1307 -0.0052
  531MPD2    H3 7941   2.884   3.718  13.745  2.0857  0.7105 -1.9632
  531MPD2     N 7942   2.616   3.967  13.466  0.2425 -0.6771 -0.4199
  531MPD2    H5 7943   2.574   4.060  13.466 -0.2864 -0.9240 -1.6968
  531MPD2    N1 7944   2.789   4.130  13.890 -0.3800 -0.3494 -0.3372
  531MPD2    H7 7945   2.834   4.112  13.980  1.7040  1.4690 -1.0170
  532TMC3    C1 7946   2.786   4.349  13.972 -0.2208 -0.4362  0.7327
  532TMC3    C2 7947   2.711   4.457  13.967 -0.0232  1.0426  0.2781
  532TMC3    C3 7948   2.769   4.582  13.958 -0.3330  0.5957  0.0824
  532TMC3    C4 7949   2.919   4.366  13.982  0.6022  0.0094  0.5766
  532TMC3    C5 7950   2.974   4.492  13.991 -0.5398 -0.0372 -0.0019
  532TMC3    C6 7951   2.902   4.604  13.985  0.0249 -0.1312  0.1799
  532TMC3     C 7952   2.750   4.258  13.864  0.2267 -0.1151 -0.2567
  532TMC3     O 7953   2.689   4.313  13.775  0.4889 -0.2970  0.0017
  532TMC3     H 7954   2.603   4.457  13.965  0.0124  1.5269 -1.4378
  532TMC3    H1 7955   2.979   4.276  13.988  0.4126 -0.0298  1.9000
  532TMC3    H2 7956   2.950   4.700  13.998  1.9235 -1.0479  0.0270
  532TMC3    C7 7957   3.106   4.505  14.044 -0.2608 -0.6809  0.0847
  532TMC3    C8 7958   2.712   4.670  13.854  0.6975  0.6596  0.1746
  532TMC3    O1 7959   3.136   4.608  14.100 -0.0638  0.0676  0.0228
  532TMC3    O2 7960   2.763   0.046  13.839 -0.2386  0.1425  0.0637
  533TMC3    C1 7961   4.512   1.443  14.120 -1.0306 -0.4163  0.8430
  533TMC3    C2 7962   4.634   1.489  14.066 -0.0925  0.1936  0.7734
  533TMC3    C3 7963   4.677   1.606  14.114  0.2617  0.1253  0.0883
  533TMC3    C4 7964   4.430   1.519  14.202  0.4161 -0.6493  0.6061
  533TMC3    C5 7965   4.471   1.642  14.233 -0.5895  0.6360 -0.4073
  533TMC3    C6 7966   4.595   1.688  14.189  0.4191 -0.2147  0.6337
  533TMC3     C 7967   4.518   1.299  14.149 -0.5619 -0.1027  0.2953
  533TMC3     O 7968   4.621   1.254  14.195  0.2071 -0.0662  0.2639
  533TMC3     H 7969   4.711   1.425  14.024 -0.5902 -0.4661  0.8727
  533TMC3    H1 7970   4.332   1.480  14.225  0.2558  0.5233  1.8657
  533TMC3    H2 7971   4.637   1.781  14.225 -1.4613  0.1057  2.0375
  533TMC3    C7 7972   4.422   1.712  14.353 -0.1144  0.6170 -0.0937
  533TMC3    C8 7973   0.083   1.635  14.120  0.0451 -0.3550  0.5747
  533TMC3    O1 7974   4.456   1.825  14.362  0.1690  0.1610  0.1128
  533TMC3    O2 7975   0.108   1.713  14.207 -0.8087  0.4938  1.0424
  534MPD2     C 7976   3.069   1.855   0.808  0.3775 -0.9344  0.3786
  534MPD2    C1 7977   2.998   1.953   0.884 -0.0429  0.1905 -0.3066
  534MPD2    C2 7978   2.862   1.947   0.888  0.2843 -0.4881  0.8552
  534MPD2    C3 7979   2.804   1.856   0.811 -0.1408  0.0897 -0.1130
  534MPD2    C4 7980   2.872   1.764   0.735  0.0488  0.2075  0.6858
  534MPD2    C5 7981   3.005   1.756   0.750 -0.2331 -1.1035 -0.4733
  534MPD2     H 7982   2.811   2.025   0.943 -1.2095 -0.5418 -0.4537
  534MPD2    H1 7983   2.812   1.700   0.672 -1.0946  0.0593  1.9203
  534MPD2    H2 7984   3.177   1.855   0.805  0.3741  2.8926  0.2507
  534MPD2    H3 7985   3.054   1.679   0.691 -2.1157 -2.0050 -0.8594
  534MPD2     N 7986   2.665   1.846   0.792 -0.1779  0.0885  0.2327
  534MPD2    H5 7987   2.630   1.796   0.710  5.2213 -2.6010 -0.4113
  534MPD2    N1 7988   3.049   2.065   0.938  0.6111 -0.0159  0.0026
  534MPD2    H7 7989   2.989   2.119   1.000  0.4068 -1.8500  1.3908
  535TMC3    C1 7990   2.437   1.858   0.830 -0.2887 -0.4549 -0.5269
  535TMC3    C2 7991   2.348   1.802   0.918  0.2436  0.2845 -0.7528
  535TMC3    C3 7992   2.228   1.766   0.863 -0.0610  0.0199 -0.1503
  535TMC3    C4 7993   2.411   1.886   0.697  0.1900  0.1581 -0.2138
  535TMC3    C5 7994   2.276   1.878   0.660 -0.2357  0.1602 -0.2106
  535TMC3    C6 7995   2.189   1.805   0.735 -0.9866 -1.1064 -0.0103
  535TMC3     C 7996   2.567   1.889   0.883  0.0086 -0.0025  0.6144
  535TMC3     O 7997   2.593   1.918   0.997 -0.3635 -0.4340 -0.1156
  535TMC3     H 7998   2.371   1.792   1.023  0.9813 -0.9981 -1.0325
  535TMC3    H1 7999   2.478   1.952   0.643  1.1040  0.4417  1.2484
  535TMC3    H2 8000   2.094   1.783   0.688 -0.6188 -1.3726 -0.6358
  535TMC3    C7 8001   2.220   1.977   0.570  0.6163 -0.4840 -0.3236
  535TMC3    C8 8002   2.116   1.716   0.937 -1.0633  0.0185 -0.4698
  535TMC3    O1 8003   2.120   1.949   0.508  0.6577  0.0512  0.2647
  535TMC3    O2 8004   2.007   1.720   0.881 -0.4243  0.2915  0.3298
  536MPD2     C 8005   0.609   0.629  16.573 -0.1427  0.0670  0.5268
  536MPD2    C1 8006   0.721   0.601  16.492 -0.2092 -0.3719  0.3135
  536MPD2    C2 8007   0.714   0.632  16.354 -0.1707 -0.4527 -0.0288
  536MPD2    C3 8008   0.609   0.703  16.304  0.2601  0.1301  0.4849
  536MPD2    C4 8009   0.497   0.721  16.390  0.9500  0.6851  0.6991
  536MPD2    C5 8010   0.500   0.686  16.519 -0.1132 -0.8280  0.0774
  536MPD2     H 8011   0.796   0.590  16.297 -0.3270 -1.9025  0.7971
  536MPD2    H1 8012   0.406   0.766  16.351  0.8374  1.1869  1.5492
  536MPD2    H2 8013   0.586   0.582  16.668  1.7872  0.1939  1.0535
  536MPD2    H3 8014   0.410   0.710  16.573  0.2553 -0.8627  0.7024
  536MPD2     N 8015   0.584   0.719  16.165 -0.2464 -0.3382 -0.1148
  536MPD2    H5 8016   0.493   0.749  16.131 -1.7558 -3.2231  1.3847
  536MPD2    N1 8017   0.820   0.515  16.550  0.1306 -0.1506 -0.5663
  536MPD2    H7 8018   0.818   0.500  16.650  1.3817 -1.6801 -0.7598
  537TMC3    C1 8019   1.019   0.403  16.577  0.6122  0.2408  0.0062
  537TMC3    C2 8020   1.150   0.429  16.548  0.1739  0.0285  0.0603
  537TMC3    C3 8021   1.232   0.418  16.654  0.0528 -0.2425 -0.1725
  537TMC3    C4 8022   0.980   0.351  16.692 -0.0972  0.5981  0.1719
  537TMC3    C5 8023   1.069   0.318  16.794  1.0833 -0.5669  0.5657
  537TMC3    C6 8024   1.196   0.369  16.771  0.3643  0.2914  0.2950
  537TMC3     C 8025   0.926   0.464  16.486 -0.1134  0.5516 -0.0303
  537TMC3     O 8026   0.963   0.472  16.369  0.7081  0.2360  0.0240
  537TMC3     H 8027   1.183   0.469  16.453  1.8371  2.5761  1.6990
  537TMC3    H1 8028   0.875   0.335  16.711 -0.9124  2.9013 -2.4843
  537TMC3    H2 8029   1.270   0.359  16.849 -0.4570  1.5083  1.2314
  537TMC3    C7 8030   1.021   0.274  16.926 -0.1133  0.0280 -0.0595
  537TMC3    C8 8031   1.349   0.505  16.662 -0.3302 -0.7416  0.1977
  537TMC3    O1 8032   0.898   0.283  16.952 -0.0999 -0.2423 -0.3850
  537TMC3    O2 8033   1.365   0.555  16.773  0.2964  0.0198  0.3087
  538TMC3    C1 8034   2.152   3.329  11.290 -0.0744 -0.2165  0.2762
  538TMC3    C2 8035   2.258   3.285  11.211 -0.0041  0.1808  0.2940
  538TMC3    C3 8036   2.235   3.263  11.077 -0.6652  0.8514 -0.2420
  538TMC3    C4 8037   2.020   3.337  11.234  0.4531  0.8770 -0.3921
  538TMC3    C5 8038   2.001   3.299  11.100 -0.2926 -0.0411  0.4874
  538TMC3    C6 8039   2.112   3.268  11.023  0.0193 -0.1365  0.0503
  538TMC3     C 8040   2.174   3.339  11.432 -1.0705 -0.2209 -0.4466
  538TMC3     O 8041   2.073   3.319  11.502  0.9128 -0.0604 -0.1205
  538TMC3     H 8042   2.354   3.258  11.253  0.9236  1.8547 -0.7101
  538TMC3    H1 8043   1.934   3.367  11.292  1.2328  2.9002 -0.2817
  538TMC3    H2 8044   2.097   3.249  10.917 -0.9655  1.4361 -0.0928
  538TMC3    C7 8045   1.877   3.350  11.039  0.1123 -0.0840 -0.0659
  538TMC3    C8 8046   2.351   3.241  10.996 -0.7956  0.3867 -0.7140
  538TMC3    O1 8047   1.801   3.409  11.119  0.1463 -0.1165 -0.0510
  538TMC3    O2 8048   2.454   3.190  11.039  0.1304  0.2119  0.2117
  539MPD2     C 8049   1.212   2.097  11.780  0.3340  0.2937 -0.7264
  539MPD2    C1 8050   1.248   2.169  11.663 -0.6383 -0.5986  0.1919
  539MPD2    C2 8051   1.318   2.287  11.675 -0.8516 -0.4572 -0.3355
  539MPD2    C3 8052   1.360   2.331  11.798 -0.0283 -0.1421  0.5458
  539MPD2    C4 8053   1.342   2.250  11.911  0.5823 -0.2691 -0.4445
  539MPD2    C5 8054   1.263   2.138  11.898  0.2474  0.2716  0.1485
  539MPD2     H 8055   1.330   2.342  11.582 -1.4290  2.0170  1.0815
  539MPD2    H1 8056   1.362   2.288  12.010 -1.6326  1.8797 -0.7981
  539MPD2    H2 8057   1.165   2.000  11.782 -1.4881  1.2090  0.7072
  539MPD2    H3 8058   1.234   2.078  11.983  1.6246  0.2486  0.5991
  539MPD2     N 8059   1.409   2.462  11.807  0.3351  0.3027 -0.3417
  539MPD2    H5 8060   1.413   2.507  11.898  0.2253 -0.4658  0.0442
  539MPD2    N1 8061   1.204   2.133  11.534  0.0492 -0.6436  0.0786
  539MPD2    H7 8062   1.263   2.172  11.460  0.7079 -2.5199 -0.3959
  540TMC3    C1 8063   1.425   2.684  11.731 -0.5114  0.4344  0.2953
  540TMC3    C2 8064   1.458   2.763  11.629 -0.4248  0.4727  0.2828
  540TMC3    C3 8065   1.408   2.887  11.625 -0.0834  0.1355 -0.2708
  540TMC3    C4 8066   1.321   2.720  11.815  0.4573  0.2153 -0.3903
  540TMC3    C5 8067   1.259   2.842  11.793 -0.1416 -0.3543 -0.3681
  540TMC3    C6 8068   1.301   2.933  11.699 -0.0585 -0.5622 -0.3338
  540TMC3     C 8069   1.441   2.543  11.702  0.1543  0.0245  0.8184
  540TMC3     O 8070   1.492   2.522  11.595  0.2279 -0.0019 -0.6672
  540TMC3     H 8071   1.528   2.728  11.554 -0.2524 -1.5436  1.3848
  540TMC3    H1 8072   1.265   2.650  11.876 -1.8758  0.6578 -2.0460
  540TMC3    H2 8073   1.257   3.029  11.674  2.4914  0.9450  0.9696
  540TMC3    C7 8074   1.137   2.880  11.859  0.6938  0.0145  0.1528
  540TMC3    C8 8075   1.462   2.961  11.514 -0.4551 -0.2906 -0.2789
  540TMC3    O1 8076   1.056   2.794  11.886 -0.7548 -0.0457 -0.1643
  540TMC3    O2 8077   1.581   2.949  11.476  0.6177  0.1448  0.3397
  541MPD2     C 8078   0.041   4.633  13.281  0.3809  0.2075  0.1532
  541MPD2    C1 8079   4.639   4.616  13.263  0.2616 -0.1560 -0.4986
  541MPD2    C2 8080   4.585   4.548  13.155  0.1366 -0.0588  0.1701
  541MPD2    C3 8081   4.672   4.501  13.061 -0.0428 -0.3900 -0.6542
  541MPD2    C4 8082   0.074   4.518  13.075  0.0116 -0.5670 -0.1492
  541MPD2    C5 8083   0.124   4.570  13.188  0.4164 -0.0492  0.1925
  541MPD2     H 8084   4.479   4.534  13.137 -0.1420  1.1242  0.8574
  541MPD2    H1 8085   0.137   4.481  12.995 -0.3306  3.2270 -2.1766
  541MPD2    H2 8086   0.080   4.679  13.371  0.8756  1.3113 -0.6298
  541MPD2    H3 8087   0.232   4.574  13.195  0.5983 -0.0611 -2.6391
  541MPD2     N 8088   4.640   4.437  12.937 -0.3711 -0.0719 -0.0968
  541MPD2    H5 8089   4.712   4.395  12.879  0.5857  1.1840  0.1776
  541MPD2    N1 8090   4.546   4.649  13.364 -0.0878  0.8572 -0.2321
  541MPD2    H7 8091   4.449   4.640  13.336  0.2649 -2.2730 -0.4633
  542TMC3    C1 8092   4.528   4.401  12.745 -0.4639  0.2284  0.1518
  542TMC3    C2 8093   4.624   4.316  12.703  0.3609 -0.2862 -0.0043
  542TMC3    C3 8094   4.604   4.259  12.579  0.0289  0.0620  0.4918
  542TMC3    C4 8095   4.413   4.431  12.665 -0.6021 -0.2939 -1.3355
  542TMC3    C5 8096   4.409   4.385  12.536 -0.3850  0.6767 -0.5459
  542TMC3    C6 8097   4.505   4.297  12.492  0.0429  0.5997  0.0784
  542TMC3     C 8098   4.515   4.429  12.888 -0.1817 -0.3466  0.0322
  542TMC3     O 8099   4.410   4.486  12.923 -0.1899 -0.1558 -0.0027
  542TMC3     H 8100   4.716   4.304  12.758 -1.6249  0.9227  3.5409
  542TMC3    H1 8101   4.342   4.505  12.701  1.1836  1.9238 -2.3386
  542TMC3    H2 8102   4.510   4.276  12.386 -0.7988 -4.0077  0.9585
  542TMC3    C7 8103   4.290   4.425  12.459 -0.0150 -0.2535  0.5212
  542TMC3    C8 8104   4.708   4.182  12.509  0.0015 -0.0570  0.0049
  542TMC3    O1 8105   4.241   4.539  12.480 -0.1499  0.0720 -0.1216
  542TMC3    O2 8106   4.665   4.097  12.430 -0.2054 -0.2550  0.1948
  543TMC3    C1 8107   4.304   1.351  17.462  0.2676 -0.4655 -0.7538
  543TMC3    C2 8108   4.344   1.248  17.538 -0.0813  0.1149  0.3677
  543TMC3    C3 8109   4.340   1.264  17.673  0.3372  0.0674 -0.8063
  543TMC3    C4 8110   4.267   1.473  17.514 -0.2652  0.2857  0.0790
  543TMC3    C5 8111   4.279   1.487  17.653  0.0840 -0.0597 -0.6060
  543TMC3    C6 8112   4.323   1.383  17.734  0.1877 -0.3063 -0.9736
  543TMC3     C 8113   4.327   1.329  17.316 -0.6969  0.0328 -0.7573
  543TMC3     O 8114   4.411   1.249  17.293 -0.4316 -0.7077 -0.2882
  543TMC3     H 8115   4.366   1.154  17.488  2.1912  0.2801  1.0554
  543TMC3    H1 8116   4.252   1.556  17.446 -1.1203 -0.6372 -0.8510
  543TMC3    H2 8117   4.316   1.388   0.102 -1.5330 -0.7632 -1.0693
  543TMC3    C7 8118   4.253   1.614  17.715  0.0152 -0.1708 -0.1610
  543TMC3    C8 8119   4.325   1.140   0.002  0.2966 -0.3914  0.0101
  543TMC3    O1 8120   4.227   1.620   0.091 -0.2291  0.0281 -0.1562
  543TMC3    O2 8121   4.355   1.146   0.120  0.5193  0.6730  0.2286
  544MPD2     C 8122   4.107   0.688   0.049  0.2000 -0.3280  0.3537
  544MPD2    C1 8123   4.055   0.745  17.672  0.3465 -0.0449  0.6311
  544MPD2    C2 8124   4.106   0.866  17.635 -0.6578 -0.9275  0.7390
  544MPD2    C3 8125   4.199   0.931  17.720 -0.0945 -0.6304 -0.5751
  544MPD2    C4 8126   4.240   0.879   0.102 -0.1571 -0.1194  0.2790
  544MPD2    C5 8127   4.189   0.756   0.136  0.6679  0.6098  0.4507
  544MPD2     H 8128   4.089   0.905  17.536 -0.1011 -0.2826  0.9001
  544MPD2    H1 8129   4.303   0.927   0.176  1.6753  0.1054 -1.4137
  544MPD2    H2 8130   4.081   0.588   0.082 -0.3894  0.1706  1.4256
  544MPD2    H3 8131   4.228   0.707   0.224  0.0175 -0.3839  0.1932
  544MPD2     N 8132   4.253   1.054  17.671 -0.5345 -0.1509 -0.1682
  544MPD2    H5 8133   4.219   1.088  17.582  1.5319 -0.5133 -1.0967
  544MPD2    N1 8134   3.956   0.679  17.602  0.0564 -0.5243 -0.9169
  544MPD2    H7 8135   3.936   0.585  17.635 -1.2202 -0.4876 -1.6064
  545TMC3    C1 8136   3.801   0.635  17.436 -0.3476 -0.0591 -0.0867
  545TMC3    C2 8137   3.724   0.688  17.335 -0.2896  0.4796 -0.5899
  545TMC3    C3 8138   3.630   0.608  17.280 -0.1098  0.2434  0.1669
  545TMC3    C4 8139   3.778   0.509  17.486  0.6043 -0.1566 -0.8766
  545TMC3    C5 8140   3.683   0.431  17.429  0.3646  0.4003  0.1912
  545TMC3    C6 8141   3.600   0.486  17.331 -0.6318 -0.1151  0.1056
  545TMC3     C 8142   3.888   0.730  17.495  0.6796 -0.1308 -0.5439
  545TMC3     O 8143   3.900   0.838  17.433  0.0462  0.1053 -0.2511
  545TMC3     H 8144   3.746   0.790  17.303 -1.6996  0.2910 -2.1746
  545TMC3    H1 8145   3.831   0.465  17.569  0.1364 -0.2938 -0.6489
  545TMC3    H2 8146   3.540   0.430  17.260  1.0569 -0.4020 -1.1023
  545TMC3    C7 8147   3.647   0.301  17.469  0.0247 -0.2171  0.2274
  545TMC3    C8 8148   3.587   0.633  17.145 -0.3625  0.7536  0.5730
  545TMC3    O1 8149   3.545   0.250  17.414 -0.4343  0.4022 -0.0057
  545TMC3    O2 8150   3.496   0.570  17.095 -0.1892  0.1938 -0.0447
  546MPD2     C 8151   0.972   1.203  17.571  0.5146 -0.5673  0.1768
  546MPD2    C1 8152   1.009   1.212  17.442 -0.4013  0.3311 -0.4653
  546MPD2    C2 8153   1.063   1.331  17.393  0.1605  0.3216 -0.3797
  546MPD2    C3 8154   1.080   1.442  17.479  0.4307  0.6504  0.4271
  546MPD2    C4 8155   1.039   1.433  17.608 -0.2222  0.2754  0.5784
  546MPD2    C5 8156   0.982   1.312  17.650  0.2156  0.2020 -0.1819
  546MPD2     H 8157   1.097   1.342  17.291 -0.2478  0.5680 -0.4908
  546MPD2    H1 8158   1.050   1.518  17.674 -0.7510  0.1023  0.8918
  546MPD2    H2 8159   0.928   1.111  17.610  1.2719 -1.6439 -1.5088
  546MPD2    H3 8160   0.953   1.294   0.013 -2.2103  1.5455 -0.6370
  546MPD2     N 8161   1.130   1.566  17.431  0.2209 -0.1126 -0.0782
  546MPD2    H5 8162   1.124   1.647  17.492  0.2917  0.1401 -0.4143
  546MPD2    N1 8163   0.991   1.097  17.359 -0.0405 -0.2863  0.0172
  546MPD2    H7 8164   0.943   1.015  17.394  2.0478 -1.2698  0.5813
  547TMC3    C1 8165   0.955   0.978  17.160  0.4278  0.2198 -0.4544
  547TMC3    C2 8166   0.903   1.002  17.038 -0.3105 -0.0397  0.5854
  547TMC3    C3 8167   0.834   0.905  16.979 -0.0844  0.6443 -0.3264
  547TMC3    C4 8168   0.949   0.854  17.222 -1.1424  0.3263 -0.1101
  547TMC3    C5 8169   0.873   0.760  17.159 -0.7414  1.1011  0.0233
  547TMC3    C6 8170   0.815   0.778  17.032 -0.2156 -0.5552 -0.1239
  547TMC3     C 8171   1.017   1.091  17.225 -0.0817 -0.1462 -0.6411
  547TMC3     O 8172   1.056   1.175  17.143 -0.2937  0.5554  0.1648
  547TMC3     H 8173   0.904   1.099  16.987  0.1079 -0.3074  0.0870
  547TMC3    H1 8174   0.999   0.837  17.316 -2.0279 -0.8632  0.1414
  547TMC3    H2 8175   0.761   0.703  16.975  2.2493 -4.1901  2.3140
  547TMC3    C7 8176   0.859   0.632  17.228  0.3787  0.1360  0.3946
  547TMC3    C8 8177   0.785   0.950  16.850  0.4023 -0.0602  0.5458
  547TMC3    O1 8178   0.914   0.619  17.337  0.1012 -0.3889  0.2345
  547TMC3    O2 8179   0.848   1.037  16.788  0.3393 -0.0668  0.7235
  548MPD2     C 8180   0.688   1.255  12.695  0.9647  0.5601 -0.2485
  548MPD2    C1 8181   0.588   1.190  12.621 -0.0339  0.4153 -0.0057
  548MPD2    C2 8182   0.623   1.105  12.520 -0.2922 -0.1446  0.5413
  548MPD2    C3 8183   0.756   1.083  12.492 -0.0835 -0.6215 -0.4082
  548MPD2    C4 8184   0.855   1.148  12.557 -0.2403  0.6046 -0.4746
  548MPD2    C5 8185   0.821   1.235  12.656  0.1020 -0.0984  0.5656
  548MPD2     H 8186   0.549   1.046  12.466 -1.1147 -0.3771  1.9232
  548MPD2    H1 8187   0.961   1.141  12.535 -0.2343 -0.3854 -0.1216
  548MPD2    H2 8188   0.665   1.333  12.767 -2.1032  1.8459 -2.6172
  548MPD2    H3 8189   0.896   1.293  12.709 -0.3109  0.3094  0.7076
  548MPD2     N 8190   0.785   1.002  12.379 -0.5506 -0.6971 -0.0760
  548MPD2    H5 8191   0.704   0.972  12.326 -0.3512  2.1492 -2.0217
  548MPD2    N1 8192   0.457   1.219  12.654 -0.4242 -0.2818 -0.3895
  548MPD2    H7 8193   0.450   1.277  12.737  3.1499  0.2136 -0.4325
  549TMC3    C1 8194   0.220   1.215  12.640  0.0709 -0.4142  0.4579
  549TMC3    C2 8195   0.195   1.354  12.631 -0.6774  0.3835  0.2964
  549TMC3    C3 8196   0.059   1.389  12.664 -0.6248 -0.1313 -0.5180
  549TMC3    C4 8197   0.126   1.126  12.677  0.3659 -0.0920 -0.0547
  549TMC3    C5 8198   4.731   1.165  12.698  0.0240 -0.1671  0.3048
  549TMC3    C6 8199   4.699   1.299  12.700 -0.1513 -0.0145  0.3113
  549TMC3     C 8200   0.342   1.159  12.599  0.5399 -0.0248  0.1732
  549TMC3     O 8201   0.334   1.071  12.516  0.1665  0.4525 -0.4592
  549TMC3     H 8202   0.268   1.423  12.590  0.8223 -1.5393 -0.2923
  549TMC3    H1 8203   0.159   1.023  12.669  0.9369  0.0342  0.6890
  549TMC3    H2 8204   4.600   1.335  12.727 -0.0230 -1.2865  2.5182
  549TMC3    C7 8205   4.623   1.073  12.721 -0.5664  0.0162  0.1572
  549TMC3    C8 8206   0.008   1.514  12.602 -0.5046 -0.3619 -0.2179
  549TMC3    O1 8207   4.513   1.119  12.747 -0.2429  0.4773  0.3792
  549TMC3    O2 8208   4.627   1.498  12.564 -0.3023 -0.1324 -0.2856
  550TMC3    C1 8209   4.089   3.890  12.389 -0.3761  0.7061 -0.6006
  550TMC3    C2 8210   4.061   4.014  12.438  0.2668  0.1839  0.2517
  550TMC3    C3 8211   3.937   4.066  12.427  0.4015 -0.2200  0.4099
  550TMC3    C4 8212   3.989   3.814  12.327 -0.7861  0.7231 -0.2793
  550TMC3    C5 8213   3.863   3.871  12.327  0.3040  0.8489 -0.2907
  550TMC3    C6 8214   3.838   3.998  12.368 -0.2632 -0.6994 -0.3336
  550TMC3     C 8215   4.227   3.854  12.361  0.1815 -0.1031  0.2909
  550TMC3     O 8216   4.317   3.880  12.441 -0.0060 -0.2862 -0.7324
  550TMC3     H 8217   4.146   4.068  12.479  0.7178 -1.0037  0.8795
  550TMC3    H1 8218   4.013   3.714  12.292 -1.0788  0.9437 -1.0967
  550TMC3    H2 8219   3.736   4.030  12.387  0.7585  1.9555  0.6042
  550TMC3    C7 8220   3.756   3.803  12.259  0.3593 -0.0181  0.0815
  550TMC3    C8 8221   3.897   4.176  12.517  0.2674  0.3786  0.3024
  550TMC3    O1 8222   3.655   3.870  12.238  0.1087  0.7286 -0.0011
  550TMC3    O2 8223   3.791   4.222  12.486 -0.2294 -0.2130 -0.4091
  551TMC3    C1 8224   1.975   1.772  13.291 -0.4891  1.0896  0.0669
  551TMC3    C2 8225   2.003   1.842  13.172 -0.3096  0.2407  0.6524
  551TMC3    C3 8226   2.049   1.969  13.169 -0.2175 -0.7774 -0.2348
  551TMC3    C4 8227   1.979   1.843  13.408  0.3966  0.3051  0.6072
  551TMC3    C5 8228   2.022   1.973  13.405  0.0831 -0.4731  0.5446
  551TMC3    C6 8229   2.049   2.039  13.289 -0.1965  0.2013 -0.2923
  551TMC3     C 8230   1.879   1.670  13.264 -0.1575 -0.5408  0.5962
  551TMC3     O 8231   1.900   1.591  13.171  0.0147 -0.2820 -0.2016
  551TMC3     H 8232   1.983   1.794  13.077  2.8052 -2.0850  1.1632
  551TMC3    H1 8233   1.972   1.793  13.504 -3.4848  0.5388  0.4509
  551TMC3    H2 8234   2.085   2.141  13.296  0.0445  0.1706 -1.1221
  551TMC3    C7 8235   2.041   2.039  13.530 -0.0818  0.1760 -0.0387
  551TMC3    C8 8236   2.077   2.032  13.037 -0.4805 -0.0318  0.5844
  551TMC3    O1 8237   2.076   1.970  13.626  0.7116 -0.0798  0.2544
  551TMC3    O2 8238   2.020   1.976  12.944  0.7716  0.2267  0.1074
  552MPD2     C 8239   3.741   4.281  14.730  0.4618 -0.3280 -0.5020
  552MPD2    C1 8240   3.817   4.177  14.696  0.4801 -0.1380 -0.6676
  552MPD2    C2 8241   3.951   4.196  14.718  0.0776  0.6546  0.5791
  552MPD2    C3 8242   3.998   4.302  14.800 -0.1252 -0.7607  0.2191
  552MPD2    C4 8243   3.916   4.397  14.846 -0.1581  0.4699  0.1358
  552MPD2    C5 8244   3.787   4.389  14.805  0.1746 -0.0772  0.3441
  552MPD2     H 8245   4.019   4.138  14.658 -0.0549  3.4078 -2.2225
  552MPD2    H1 8246   3.946   4.473  14.916 -0.7618  0.7400  0.1005
  552MPD2    H2 8247   3.638   4.281  14.697  0.2952  0.1956  0.0261
  552MPD2    H3 8248   3.728   4.478  14.824 -0.3309 -0.3822  0.2025
  552MPD2     N 8249   4.124   4.308  14.862 -1.3339  0.1629  0.3283
  552MPD2    H5 8250   4.141   4.379  14.932  2.7117 -0.4092 -0.1009
  552MPD2    N1 8251   3.775   4.058  14.621  0.2880  0.2558  0.3596
  552MPD2    H7 8252   3.845   3.987  14.600  0.0260  0.2660 -0.5581
  553TMC3    C1 8253   3.628   3.907  14.510 -0.0912  0.1008 -0.6021
  553TMC3    C2 8254   3.542   3.906  14.404  1.3635 -0.1371 -0.3904
  553TMC3    C3 8255   3.523   3.791  14.335 -0.3291 -0.9383  0.2952
  553TMC3    C4 8256   3.709   3.802  14.542  0.2730  0.2478  0.2565
  553TMC3    C5 8257   3.693   3.692  14.471 -0.5083  0.5573 -0.0176
  553TMC3    C6 8258   3.602   3.682  14.368 -0.8421 -0.2325  0.0129
  553TMC3     C 8259   3.645   4.038  14.573  0.1643 -0.0576  0.1764
  553TMC3     O 8260   3.554   4.119  14.569  0.6092  0.3196 -0.1000
  553TMC3     H 8261   3.519   4.000  14.355  0.8015  0.3945  0.8804
  553TMC3    H1 8262   3.770   3.810  14.632  1.1948  1.3809 -0.4769
  553TMC3    H2 8263   3.588   3.586  14.318  0.4781 -0.3524 -0.1193
  553TMC3    C7 8264   3.808   3.608  14.457 -0.4258  0.0300  0.8845
  553TMC3    C8 8265   3.505   3.803  14.192 -0.2239 -0.2318  0.6235
  553TMC3    O1 8266   3.790   3.492  14.421  0.4101 -0.3873 -0.0863
  553TMC3    O2 8267   3.559   3.904  14.150 -0.2749  0.1924  0.1005
  554TMC3    C1 8268   0.709   2.818  11.705  0.4045 -0.6773  0.3986
  554TMC3    C2 8269   0.647   2.768  11.591 -0.6039  0.4942 -0.2451
  554TMC3    C3 8270   0.722   2.769  11.468 -1.1312  0.0091 -0.1682
  554TMC3    C4 8271   0.830   2.873  11.699  0.2051 -0.1743 -0.1972
  554TMC3    C5 8272   0.898   2.881  11.576 -0.5533 -0.3586  0.2285
  554TMC3    C6 8273   0.847   2.830  11.463 -0.1579  0.3473  0.4743
  554TMC3     C 8274   0.651   2.785  11.830  0.3833  0.2949  0.3785
  554TMC3     O 8275   0.532   2.767  11.841  0.2032  0.5069 -0.3703
  554TMC3     H 8276   0.544   2.736  11.597 -0.6371  0.1078 -2.8457
  554TMC3    H1 8277   0.867   2.927  11.785 -1.5641 -0.7403  0.9071
  554TMC3    H2 8278   0.892   2.832  11.364 -2.2459 -1.5814 -0.5029
  554TMC3    C7 8279   0.990   2.982  11.560 -0.6629  0.7902 -0.1727
  554TMC3    C8 8280   0.645   2.779  11.339  0.6068 -0.7860  0.0339
  554TMC3    O1 8281   1.091   2.960  11.496 -0.7891 -0.6844  0.1787
  554TMC3    O2 8282   0.685   2.870  11.263  0.0575 -0.3034  0.4436
  555TMC3    C1 8283   4.642   2.991  15.587  1.1924  0.3238  0.3206
  555TMC3    C2 8284   4.709   3.005  15.705  0.3832  0.2847 -0.4586
  555TMC3    C3 8285   0.015   2.899  15.783  0.2431 -0.5765  0.0204
  555TMC3    C4 8286   4.616   2.864  15.542 -0.8034 -0.4124 -0.3774
  555TMC3    C5 8287   4.658   2.759  15.616 -0.3252  0.3808 -0.0367
  555TMC3    C6 8288   4.724   2.772  15.739  0.1605 -0.3252 -0.0913
  555TMC3     C 8289   4.596   3.117  15.516  0.0763  0.1694  0.2676
  555TMC3     O 8290   4.645   3.221  15.556 -0.2712 -0.3998  0.3908
  555TMC3     H 8291   0.002   3.107  15.729 -1.8533  0.4559  1.5150
  555TMC3    H1 8292   4.554   2.842  15.457  0.5109 -3.1064 -0.6508
  555TMC3    H2 8293   0.000   2.686  15.804 -2.5275  0.7840  1.8653
  555TMC3    C7 8294   4.684   2.635  15.540  0.1142 -0.5047  0.1188
  555TMC3    C8 8295   0.062   2.937  15.916 -0.2514 -0.5149  0.0523
  555TMC3    O1 8296   4.638   2.634  15.428  0.3017  0.1440 -0.1227
  555TMC3    O2 8297   0.034   3.049  15.953  0.1553 -0.5422  0.4943
  556MPD2     C 8298   1.802   3.819  10.845  0.3024 -0.3672 -0.0777
  556MPD2    C1 8299   1.932   3.860  10.858  0.2892 -0.2285  0.1274
  556MPD2    C2 8300   2.014   3.857  10.750 -0.0854 -1.0370 -0.2454
  556MPD2    C3 8301   1.961   3.821  10.625  0.0227 -0.1986 -0.2594
  556MPD2    C4 8302   1.831   3.779  10.615 -0.9331 -0.2526  0.3871
  556MPD2    C5 8303   1.750   3.785  10.722 -0.5005  0.1348  0.2909
  556MPD2     H 8304   2.118   3.885  10.750  0.0233 -1.3481 -3.2036
  556MPD2    H1 8305   1.778   3.751  10.525 -0.1161  1.3208 -0.5847
  556MPD2    H2 8306   1.726   3.841  10.919  1.9578 -2.7161  2.2840
  556MPD2    H3 8307   1.644   3.760  10.721  0.0132 -2.1123  2.2601
  556MPD2     N 8308   2.040   3.811  10.513 -0.5132 -0.9047 -0.1044
  556MPD2    H5 8309   2.138   3.825  10.535 -0.7171 -1.3371  1.0587
  556MPD2    N1 8310   1.983   3.926  10.972  0.0552  0.0251 -0.0398
  556MPD2    H7 8311   2.083   3.940  10.974  0.0779 -0.1079 -0.2894
  557TMC3    C1 8312   2.099   3.720  10.301  0.0988  0.0020 -0.0771
  557TMC3    C2 8313   2.097   3.740  10.164 -1.0103 -0.1556 -0.1917
  557TMC3    C3 8314   2.199   3.686  10.089 -0.3664 -0.0535 -0.0345
  557TMC3    C4 8315   2.198   3.639  10.363  0.5979 -0.6729  0.5220
  557TMC3    C5 8316   2.300   3.592  10.280  0.3625 -0.2935 -0.1465
  557TMC3    C6 8317   2.301   3.612  10.147 -0.0061 -0.3694 -0.2862
  557TMC3     C 8318   2.004   3.799  10.381  0.4773  0.6352  0.1748
  557TMC3     O 8319   1.907   3.850  10.322 -0.7629  0.3341 -0.0825
  557TMC3     H 8320   2.034   3.819  10.124 -1.0088  0.0178  0.1551
  557TMC3    H1 8321   2.208   3.642  10.470 -0.3935  3.2634  0.5164
  557TMC3    H2 8322   2.367   3.565  10.074 -0.0786  1.0611 -1.2799
  557TMC3    C7 8323   2.407   3.519  10.335 -0.0722 -0.8678  0.0342
  557TMC3    C8 8324   2.202   3.709   9.945 -0.4930  0.1651 -0.4658
  557TMC3    O1 8325   2.523   3.526  10.290 -0.2140 -0.1608  0.0882
  557TMC3    O2 8326   2.315   3.719   9.894 -0.4110 -0.5159  0.5026
  558TMC3    C1 8327   4.502   1.800   9.813  0.1682 -0.4792  0.2326
  558TMC3    C2 8328   4.548   1.676   9.854 -0.6813  0.4651 -0.2315
  558TMC3    C3 8329   4.450   1.578   9.852 -0.1827  0.4567  0.1607
  558TMC3    C4 8330   4.376   1.824   9.757  0.0418  0.5656  0.3625
  558TMC3    C5 8331   4.288   1.723   9.757 -0.3024  0.3266 -0.1246
  558TMC3    C6 8332   4.320   1.600   9.797  0.1478  0.2019 -0.2882
  558TMC3     C 8333   4.607   1.903   9.819  0.3858  0.2629 -0.0906
  558TMC3     O 8334   4.713   1.876   9.869  0.0319 -0.5058 -0.2394
  558TMC3     H 8335   4.649   1.660   9.889 -1.4906 -1.9796  0.9869
  558TMC3    H1 8336   4.344   1.926   9.739 -1.7160  0.1942  1.2597
  558TMC3    H2 8337   4.252   1.517   9.776  0.4837  0.1348 -1.1106
  558TMC3    C7 8338   4.175   1.739   9.664  0.2053  0.3096 -0.0919
  558TMC3    C8 8339   4.487   1.446   9.892  0.5298 -0.1838  0.2008
  558TMC3    O1 8340   4.192   1.832   9.582 -0.1611 -0.2292  0.2343
  558TMC3    O2 8341   4.430   1.350   9.846 -0.3558 -0.7732 -0.0844
  559MPD2     C 8342   0.037   2.583  10.629 -0.3835  0.7258 -0.4844
  559MPD2    C1 8343   0.008   2.466  10.688 -0.5456  0.1459 -0.3332
  559MPD2    C2 8344   0.105   2.403  10.762  0.7782  0.0579 -0.3735
  559MPD2    C3 8345   0.232   2.462  10.776  0.5011  0.6585 -0.2540
  559MPD2    C4 8346   0.267   2.575  10.709  0.1874  0.1049  0.0116
  559MPD2    C5 8347   0.168   2.635  10.628  0.3000 -0.6682 -0.3372
  559MPD2     H 8348   0.093   2.314  10.822  2.1538  1.4342  1.9518
  559MPD2    H1 8349   0.355   2.636  10.728  2.0913 -3.2294  1.8253
  559MPD2    H2 8350   4.692   2.635  10.578 -0.8027  2.2894  1.8048
  559MPD2    H3 8351   0.200   2.733  10.597  1.1632 -0.1680  2.1003
  559MPD2     N 8352   0.315   2.406  10.865 -0.6071 -0.4268 -0.3401
  559MPD2    H5 8353   0.282   2.319  10.906  0.8648 -0.5732  0.5290
  559MPD2    N1 8354   4.617   2.402  10.672 -0.5830  0.0832 -0.0901
  559MPD2    H7 8355   4.553   2.461  10.620 -0.1546 -0.6206 -1.4012
  560TMC3    C1 8356   0.502   2.340  10.993  0.3821 -0.5493 -0.2508
  560TMC3    C2 8357   0.465   2.207  10.979 -0.4698  0.0407  0.0813
  560TMC3    C3 8358   0.530   2.112  11.059 -0.5356  0.9401  0.1500
  560TMC3    C4 8359   0.596   2.374  11.089  0.1630  0.4307 -0.3740
  560TMC3    C5 8360   0.648   2.278  11.179  0.0788 -0.0620 -0.3150
  560TMC3    C6 8361   0.614   2.146  11.168 -0.2213 -0.7518 -0.5080
  560TMC3     C 8362   0.439   2.450  10.909  0.4963 -0.2806  0.5246
  560TMC3     O 8363   0.503   2.550  10.883  0.4589  0.0151  0.0290
  560TMC3     H 8364   0.405   2.185  10.891  1.4757 -1.4949 -0.8754
  560TMC3    H1 8365   0.617   2.480  11.097 -0.1672  0.3764  1.2317
  560TMC3    H2 8366   0.633   2.079  11.251 -2.7050 -0.2432  0.4889
  560TMC3    C7 8367   0.753   2.322  11.264  0.3406  0.2120  0.0364
  560TMC3    C8 8368   0.473   1.977  11.034  0.4562  0.1737  0.3188
  560TMC3    O1 8369   0.791   2.236  11.347  0.4782 -0.1549  0.6695
  560TMC3    O2 8370   0.421   1.956  10.926  0.7180  0.4119 -0.0691
  561TMC3    C1 8371   3.046   1.475  11.354 -0.1558 -0.2982  0.1724
  561TMC3    C2 8372   2.957   1.395  11.411 -0.1085  0.0910  0.7331
  561TMC3    C3 8373   2.822   1.443  11.422 -0.1054 -0.5819 -0.1988
  561TMC3    C4 8374   3.008   1.598  11.307  0.1766 -0.1351  0.3679
  561TMC3    C5 8375   2.881   1.640  11.307  0.3175  0.0912  0.2471
  561TMC3    C6 8376   2.783   1.569  11.371  0.2004 -0.8139  0.8287
  561TMC3     C 8377   3.176   1.458  11.417 -0.1689  0.2511  0.6454
  561TMC3     O 8378   3.184   1.383  11.514 -0.2001  0.1962 -0.5269
  561TMC3     H 8379   2.988   1.296  11.441 -0.5343 -1.0981 -2.7668
  561TMC3    H1 8380   3.087   1.657  11.261  0.2658  1.7448  3.0233
  561TMC3    H2 8381   2.678   1.596  11.369  0.3919 -0.1512 -0.9094
  561TMC3    C7 8382   2.837   1.728  11.206  0.1648  0.0186 -0.6788
  561TMC3    C8 8383   2.727   1.355  11.482 -0.5864  0.5636  0.4749
  561TMC3    O1 8384   2.726   1.779  11.212  0.3278 -0.4817  0.3475
  561TMC3    O2 8385   2.759   1.234  11.493  0.1176 -0.7413  0.1707
  562TMC3    C1 8386   4.681   2.773  16.403  0.2010 -0.3383  0.1243
  562TMC3    C2 8387   4.629   2.902  16.381  0.3374 -0.1291 -0.2027
  562TMC3    C3 8388   4.542   2.915  16.277  0.1033 -0.7176 -0.2258
  562TMC3    C4 8389   4.666   2.671  16.313  0.0536 -0.8992  0.0729
  562TMC3    C5 8390   4.598   2.703  16.200  0.3387 -0.2225 -0.3900
  562TMC3    C6 8391   4.527   2.816  16.181  0.3129  0.0485 -0.5190
  562TMC3     C 8392   4.728   2.747  16.535  0.1005  0.0073 -0.2172
  562TMC3     O 8393   0.023   2.850  16.599 -0.4878 -0.5807  0.3678
  562TMC3     H 8394   4.633   2.974  16.462 -1.9013 -1.3328  1.0111
  562TMC3    H1 8395   4.732   2.584  16.316 -0.0452 -0.9224  1.4553
  562TMC3    H2 8396   4.470   2.836  16.091 -1.1158  2.6685  0.9854
  562TMC3    C7 8397   4.608   2.613  16.090  0.3268 -1.0049 -0.6765
  562TMC3    C8 8398   4.434   2.992  16.326  0.2548 -0.3090  0.5305
  562TMC3    O1 8399   4.583   2.659  15.978 -0.5516  0.1883  0.3778
  562TMC3    O2 8400   4.389   2.944  16.430 -0.4914 -1.0018  0.1896
  563MPD2     C 8401   1.978   4.443  15.369 -0.5688 -0.9424  0.0397
  563MPD2    C1 8402   2.023   4.421  15.496  1.5350 -0.2944 -0.4307
  563MPD2    C2 8403   2.154   4.387  15.514 -0.4328 -0.1067 -0.2275
  563MPD2    C3 8404   2.238   4.359  15.414  0.3775  0.8987  0.5430
  563MPD2    C4 8405   2.194   4.393  15.287 -0.2949  0.8843 -0.3717
  563MPD2    C5 8406   2.060   4.424  15.266  0.3755  0.1817 -0.1228
  563MPD2     H 8407   2.200   4.378  15.612 -1.2535 -1.3560  0.0436
  563MPD2    H1 8408   2.260   4.370  15.204 -0.4561 -1.6372  0.1894
  563MPD2    H2 8409   1.882   4.483  15.339 -0.2998  0.5494  1.1835
  563MPD2    H3 8410   2.026   4.451  15.167 -0.1461  0.3836  0.1138
  563MPD2     N 8411   2.366   4.320  15.456 -0.8097  0.3077  0.4517
  563MPD2    H5 8412   2.382   4.317  15.556 -2.6858  1.0785  0.7550
  563MPD2    N1 8413   1.931   4.442  15.602 -0.3409 -0.2139  0.4405
  563MPD2    H7 8414   1.843   4.489  15.579  0.0354  0.1196 -0.3309
  564TMC3    C1 8415   1.855   4.440  15.820 -0.6163 -0.0333 -0.2069
  564TMC3    C2 8416   1.740   4.369  15.797  0.3823 -0.7315 -0.0913
  564TMC3    C3 8417   1.683   4.298  15.902 -0.0108 -0.2144  0.5317
  564TMC3    C4 8418   1.905   4.450  15.947 -0.4110  1.0020 -1.2962
  564TMC3    C5 8419   1.859   4.364  16.045 -0.3916  0.0776 -0.0352
  564TMC3    C6 8420   1.742   4.300  16.026 -0.3211  0.5856  0.6732
  564TMC3     C 8421   1.962   4.415  15.731  0.4544 -0.6061  0.6146
  564TMC3     O 8422   2.045   4.342  15.777 -0.1057  0.3212  0.7283
  564TMC3     H 8423   1.722   4.358  15.691 -1.6895 -1.0056  0.2855
  564TMC3    H1 8424   2.002   4.497  15.957 -0.2497  0.1745  1.2026
  564TMC3    H2 8425   1.708   4.235  16.106 -0.6115  0.8682  0.7772
  564TMC3    C7 8426   1.969   4.288  16.103 -0.1979 -0.1268 -0.9362
  564TMC3    C8 8427   1.659   4.168  15.864 -0.5336  0.0486  0.3107
  564TMC3    O1 8428   2.063   4.355  16.139 -0.7649  0.2373  0.1268
  564TMC3    O2 8429   1.705   4.084  15.940  0.2489  0.6219  0.0090
  565TMC3    C1 8430   1.864   1.055  10.401 -0.3700  0.0612  0.1597
  565TMC3    C2 8431   1.824   0.945  10.470  0.8448 -0.2649 -0.2607
  565TMC3    C3 8432   1.724   0.869  10.425  0.1887 -0.2591  0.0608
  565TMC3    C4 8433   1.808   1.088  10.280  0.3580  0.0130 -0.4411
  565TMC3    C5 8434   1.693   1.010  10.245  0.1892  0.8998  0.7096
  565TMC3    C6 8435   1.649   0.906  10.317  0.6281 -0.3088  0.7147
  565TMC3     C 8436   1.973   1.133  10.446  0.1280 -0.4275 -0.8601
  565TMC3     O 8437   1.987   1.129  10.566  0.3115 -0.0825  0.3533
  565TMC3     H 8438   1.883   0.918  10.557 -1.5974  0.4301  1.6132
  565TMC3    H1 8439   1.837   1.182  10.234  1.4139  0.0296  0.2497
  565TMC3    H2 8440   1.567   0.853  10.270  1.8406 -0.6240 -1.0277
  565TMC3    C7 8441   1.637   1.037  10.114  0.4172  0.4027 -0.5372
  565TMC3    C8 8442   1.694   0.736  10.475  0.0189  0.9309 -0.1311
  565TMC3    O1 8443   1.539   0.972  10.082  0.3368  0.8307 -0.1966
  565TMC3    O2 8444   1.634   0.660  10.401  0.3821 -0.3133 -0.5624
  566MPD2     C 8445   4.504   2.474  14.162 -0.0890  0.3286 -0.2869
  566MPD2    C1 8446   4.487   2.557  14.054  0.2659 -0.1751 -0.3369
  566MPD2    C2 8447   4.408   2.515  13.949  0.1096 -0.5147  0.3834
  566MPD2    C3 8448   4.332   2.393  13.953  0.1212 -0.2629  0.1447
  566MPD2    C4 8449   4.361   2.307  14.058  0.0801  0.6437 -0.0109
  566MPD2    C5 8450   4.449   2.349  14.154  0.3989 -0.1126  0.3335
  566MPD2     H 8451   4.398   2.580  13.863  0.2835 -0.4075  0.4438
  566MPD2    H1 8452   4.303   2.216  14.074  0.9240  0.2756  0.9541
  566MPD2    H2 8453   4.549   2.504  14.256  2.2027 -0.0261 -1.2922
  566MPD2    H3 8454   4.471   2.282  14.236  0.4818 -0.4318  0.0530
  566MPD2     N 8455   4.242   2.348  13.850 -0.1297 -0.0915 -0.5733
  566MPD2    H5 8456   4.213   2.251  13.851  1.0151 -0.4264 -0.7640
  566MPD2    N1 8457   4.530   2.690  14.061 -0.4298  0.3700  0.0358
  566MPD2    H7 8458   4.548   2.725  14.155 -0.4146  0.2110  0.0934
  567TMC3    C1 8459   4.523   2.922  13.992  0.3545  0.5666 -0.3820
  567TMC3    C2 8460   4.485   3.005  13.892 -0.6978  0.3637 -0.2966
  567TMC3    C3 8461   4.421   3.124  13.932 -0.4281 -0.3160 -0.4609
  567TMC3    C4 8462   4.521   2.976  14.120  0.6016  0.1498 -0.1542
  567TMC3    C5 8463   4.472   3.097  14.159 -0.0291 -0.7234  0.3931
  567TMC3    C6 8464   4.412   3.178  14.059  0.2816  0.1361 -0.5982
  567TMC3     C 8465   4.536   2.780  13.957  0.4555 -0.2559 -0.6675
  567TMC3     O 8466   4.520   2.766  13.836 -0.1733  0.2676  0.2860
  567TMC3     H 8467   4.477   2.979  13.787 -1.8847  0.7550 -0.2944
  567TMC3    H1 8468   4.565   2.910  14.194 -2.7261  0.2794  1.9263
  567TMC3    H2 8469   4.368   3.273  14.088 -4.6496 -2.2215 -0.3619
  567TMC3    C7 8470   4.490   3.155  14.287 -0.6900 -0.9271 -0.2167
  567TMC3    C8 8471   4.355   3.191  13.824  0.3831  0.1738 -0.6696
  567TMC3    O1 8472   4.494   3.277  14.293 -0.1035 -0.5444 -0.3432
  567TMC3    O2 8473   4.316   3.122  13.731  0.1040 -0.4245  0.7508
  568MPD2     C 8474   2.095   3.042  16.405 -0.6442  0.3926 -0.9811
  568MPD2    C1 8475   1.968   3.078  16.442 -0.0352 -0.7867  0.2528
  568MPD2    C2 8476   1.894   3.154  16.356  0.1661  0.3531  0.1602
  568MPD2    C3 8477   1.949   3.207  16.239  0.1632  0.2869 -0.5537
  568MPD2    C4 8478   2.072   3.161  16.199 -0.1990 -0.4401  0.2562
  568MPD2    C5 8479   2.148   3.081  16.286  0.3724  0.2342  0.7140
  568MPD2     H 8480   1.796   3.193  16.381  0.6810  1.0911  0.9911
  568MPD2    H1 8481   2.122   3.187  16.106  0.1658  0.5431  0.7248
  568MPD2    H2 8482   2.149   2.966  16.460  0.3892  1.2826 -0.7641
  568MPD2    H3 8483   2.243   3.044  16.250  0.1514  0.2257  0.1297
  568MPD2     N 8484   1.866   3.291  16.161  0.1238 -0.5757  0.2028
  568MPD2    H5 8485   1.778   3.320  16.202  0.3198 -1.1362  1.0241
  568MPD2    N1 8486   1.914   3.017  16.555 -0.2642 -0.7878 -0.2321
  568MPD2    H7 8487   1.966   2.933  16.581 -0.5928 -1.0646 -0.4725
  569TMC3    C1 8488   1.804   3.450  16.012 -0.4789 -0.2438 -0.4531
  569TMC3    C2 8489   1.751   3.514  16.118 -0.4179 -0.4527 -0.1933
  569TMC3    C3 8490   1.628   3.565  16.102 -0.0683  0.1153  0.1289
  569TMC3    C4 8491   1.746   3.446  15.893  0.2390  0.2503 -0.3185
  569TMC3    C5 8492   1.618   3.495  15.873 -0.3198 -0.6678  0.4834
  569TMC3    C6 8493   1.553   3.544  15.989  0.1493  0.4064  0.2611
  569TMC3     C 8494   1.894   3.345  16.038  0.2622 -0.2006  0.2487
  569TMC3     O 8495   1.973   3.313  15.953  0.0461 -0.0430  0.5225
  569TMC3     H 8496   1.808   3.529  16.209 -0.2182 -2.8752  0.0870
  569TMC3    H1 8497   1.793   3.392  15.812 -0.8619  0.9121 -1.4045
  569TMC3    H2 8498   1.458   3.596  15.987 -0.2894 -0.3274  2.2642
  569TMC3    C7 8499   1.587   3.568  15.748 -0.1031 -0.8427  1.0875
  569TMC3    C8 8500   1.621   3.708  16.134 -0.2408  0.1657  0.2475
  569TMC3    O1 8501   1.639   3.523  15.649  0.0122 -0.0719 -0.3225
  569TMC3    O2 8502   1.540   3.776  16.075 -0.1817  0.6329 -0.6791
  570TMC3    C1 8503   0.702   1.690  15.987 -0.0054  0.4862  0.5562
  570TMC3    C2 8504   0.790   1.675  15.880  0.0737  0.7659  0.0557
  570TMC3    C3 8505   0.873   1.777  15.846  0.3793 -0.0779 -1.3538
  570TMC3    C4 8506   0.710   1.805  16.068  0.4439  0.6696 -0.4622
  570TMC3    C5 8507   0.792   1.903  16.033 -0.6416  0.2288  0.1513
  570TMC3    C6 8508   0.881   1.891  15.923  0.0958 -0.0529 -0.3123
  570TMC3     C 8509   0.630   1.579  16.040  0.0580 -0.3467 -0.0499
  570TMC3     O 8510   0.555   1.517  15.964 -0.6095 -0.2201 -0.5330
  570TMC3     H 8511   0.785   1.587  15.818  3.8140 -0.5413  1.6317
  570TMC3    H1 8512   0.628   1.824  16.137  0.2600 -1.0435 -0.2141
  570TMC3    H2 8513   0.951   1.971  15.903 -0.4824  0.4981 -0.1259
  570TMC3    C7 8514   0.797   2.013  16.113  1.3208  0.4538 -0.9342
  570TMC3    C8 8515   0.990   1.761  15.757  0.5943  0.1084  0.2487
  570TMC3    O1 8516   0.824   1.997  16.233  0.3143 -0.1903  0.0406
  570TMC3    O2 8517   1.064   1.855  15.753  0.7351  0.1596  0.2091
  571MPD2     C 8518   0.311   4.524   0.570 -0.7704  0.6513  0.0261
  571MPD2    C1 8519   0.215   4.463   0.491 -1.4252  0.6159 -0.0102
  571MPD2    C2 8520   0.082   4.475   0.532 -0.3294 -0.1968 -0.4455
  571MPD2    C3 8521   0.050   4.547   0.650 -0.0354  0.0113 -0.4065
  571MPD2    C4 8522   0.152   4.601   0.728  0.6669  0.1040  0.0696
  571MPD2    C5 8523   0.280   4.599   0.678  0.9478  0.3215  0.2654
  571MPD2     H 8524   0.003   4.428   0.474 -2.2934  0.3713  1.7306
  571MPD2    H1 8525   0.130   4.669   0.810  1.6927  1.3253 -0.6599
  571MPD2    H2 8526   0.414   4.507   0.541 -1.4007 -0.4320 -1.5509
  571MPD2    H3 8527   0.362   4.646   0.731  1.5544 -0.0764 -0.3230
  571MPD2     N 8528   4.654   4.546   0.694  0.4378  1.0365 -0.7366
  571MPD2    H5 8529   4.644   4.591   0.784 -0.5283  1.3130 -0.9859
  571MPD2    N1 8530   0.256   4.388   0.378 -0.6791 -0.2793 -0.2023
  571MPD2    H7 8531   0.355   4.381   0.358 -0.3532  0.3869  1.1274
  572TMC3    C1 8532   4.422   4.594   0.672 -0.4643  0.7011  1.3290
  572TMC3    C2 8533   4.403   4.589   0.810  0.1031  0.1915  0.3275
  572TMC3    C3 8534   4.288   4.623   0.862 -0.0467  0.4525 -0.7416
  572TMC3    C4 8535   4.326   4.640   0.586 -0.0375  0.1900 -1.1502
  572TMC3    C5 8536   4.212   4.688   0.646 -0.7767  0.2459 -0.4651
  572TMC3    C6 8537   4.193   4.685   0.782 -0.6500  0.1777  0.6551
  572TMC3     C 8538   4.541   4.528   0.619  0.0534 -0.5866  0.0118
  572TMC3     O 8539   4.528   4.472   0.512 -0.4945  0.5196 -0.3988
  572TMC3     H 8540   4.461   4.524   0.875 -3.1561  1.0141  4.0566
  572TMC3    H1 8541   4.340   4.632   0.479 -1.1443  1.1946 -1.3698
  572TMC3    H2 8542   4.097   4.720   0.819  0.1695  2.2740  0.8050
  572TMC3    C7 8543   4.122   0.037   0.567  0.1942 -0.5085  0.2502
  572TMC3    C8 8544   4.284   4.653   1.004  0.5432  0.6594 -0.1626
  572TMC3    O1 8545   4.038   0.101   0.626 -0.3957 -0.2566 -0.9263
  572TMC3    O2 8546   4.387   4.693   1.052 -0.0332  0.2131 -0.4694
  573MPD2     C 8547   0.201   4.446  17.495 -0.7529 -0.4876 -0.5103
  573MPD2    C1 8548   0.090   4.487  17.578  0.0558  0.0774 -0.5474
  573MPD2    C2 8549   4.690   4.455  17.537  0.5674  0.2662  0.1063
  573MPD2    C3 8550   4.661   4.395  17.419  0.4608 -0.1905  0.5234
  573MPD2    C4 8551   0.043   4.347  17.351  0.3210  0.5827 -0.3175
  573MPD2    C5 8552   0.174   4.369  17.391  0.2112 -0.0314  0.0973
  573MPD2     H 8553   4.615   4.504  17.599  0.0265  0.3019 -0.5831
  573MPD2    H1 8554   0.025   4.293  17.259 -0.6870 -0.1746  0.3199
  573MPD2    H2 8555   0.301   4.474  17.525 -1.5180  0.5001  1.1012
  573MPD2    H3 8556   0.248   4.318  17.330 -1.1334 -0.3072 -1.2843
  573MPD2     N 8557   4.530   4.371  17.365 -0.1415  1.0778 -0.4079
  573MPD2    H5 8558   4.516   4.316  17.281 -1.4976 -3.0762  2.5227
  573MPD2    N1 8559   0.121   4.551  17.701 -0.4185 -0.0524  0.4862
  573MPD2    H7 8560   0.220   4.575  17.709 -0.1632 -0.3887 -1.7447
  574TMC3    C1 8561   4.291   4.370  17.386  0.2077  0.6789  0.2766
  574TMC3    C2 8562   4.182   4.406  17.466  0.3789  0.1640 -0.4857
  574TMC3    C3 8563   4.064   4.342  17.451 -0.6773  0.0587 -0.3675
  574TMC3    C4 8564   4.274   4.264  17.291 -0.4174 -0.4640  0.0389
  574TMC3    C5 8565   4.154   4.201  17.276  0.2587 -0.5297 -0.3291
  574TMC3    C6 8566   4.050   4.233  17.365 -0.5243 -0.1519 -0.8340
  574TMC3     C 8567   4.420   4.419  17.433 -0.3260 -0.0881 -0.8471
  574TMC3     O 8568   4.407   4.499  17.525 -0.0268 -0.4328 -0.5226
  574TMC3     H 8569   4.195   4.461  17.558 -2.3707 -0.2581  0.1781
  574TMC3    H1 8570   4.356   4.233  17.227 -1.3848 -1.6733 -0.6193
  574TMC3    H2 8571   3.962   4.172  17.381 -0.1226 -0.0687  1.6953
  574TMC3    C7 8572   4.110   4.142  17.149 -0.0053 -1.5238  0.0179
  574TMC3    C8 8573   3.944   4.390  17.517  0.3594 -0.2642 -0.0867
  574TMC3    O1 8574   4.202   4.120  17.071  0.3207  0.2975  0.0932
  574TMC3    O2 8575   3.854   4.316  17.547 -0.6367 -0.4889 -0.3148
  575TMC3    C1 8576   1.524   4.609  10.632 -0.1176  0.0026  0.8988
  575TMC3    C2 8577   1.435   4.574  10.534 -0.7334 -0.2885 -0.1048
  575TMC3    C3 8578   1.413   4.662  10.433  0.1632 -0.4712 -0.4154
  575TMC3    C4 8579   1.568   4.734  10.637  0.2909 -0.6519 -0.2103
  575TMC3    C5 8580   1.538   0.084  10.528  0.2874  0.9242 -0.1853
  575TMC3    C6 8581   1.464   0.048  10.423  0.0130 -0.5216  0.0308
  575TMC3     C 8582   1.518   4.537  10.759 -0.0554  0.3043  0.5545
  575TMC3     O 8583   1.530   4.595  10.868 -0.2776  0.2718  0.4455
  575TMC3     H 8584   1.392   4.475  10.531  3.7106 -2.1777 -1.6636
  575TMC3    H1 8585   1.631   0.027  10.720 -0.0152  1.1252 -0.5709
  575TMC3    H2 8586   1.447   0.125  10.349 -0.7974  1.1341  1.9481
  575TMC3    C7 8587   1.594   0.218  10.525  0.9488 -0.5918 -0.2812
  575TMC3    C8 8588   1.300   4.625  10.352 -1.2042  0.3430 -0.2035
  575TMC3    O1 8589   1.581   0.288  10.425 -0.6369 -0.5794  0.4399
  575TMC3    O2 8590   1.219   4.551  10.402  0.3549  0.3776  0.0850
  576MPD2     C 8591   1.481   1.539  12.226  0.3836  0.2177 -0.0555
  576MPD2    C1 8592   1.616   1.572  12.227 -0.0403 -0.1280 -0.6568
  576MPD2    C2 8593   1.670   1.615  12.349 -0.1627  0.2037  0.4319
  576MPD2    C3 8594   1.590   1.639  12.464  0.0653  0.0995  0.2009
  576MPD2    C4 8595   1.469   1.583  12.463 -0.1571  0.3591 -0.1001
  576MPD2    C5 8596   1.412   1.541  12.348  0.6060  0.3580 -0.2216
  576MPD2     H 8597   1.771   1.655  12.344  0.6863 -2.2296 -1.6559
  576MPD2    H1 8598   1.418   1.568  12.558 -1.1557 -2.0854 -1.0389
  576MPD2    H2 8599   1.424   1.500  12.143 -0.7956  0.2585  0.7403
  576MPD2    H3 8600   1.309   1.506  12.348  0.8373 -0.3158  0.2822
  576MPD2     N 8601   1.644   1.723  12.562  0.0512  0.5986 -0.4301
  576MPD2    H5 8602   1.736   1.762  12.542 -0.0327  0.3753 -1.2428
  576MPD2    N1 8603   1.691   1.567  12.113  0.2694  0.1686  0.1229
  576MPD2    H7 8604   1.789   1.593  12.116  1.5800 -5.1071  2.8911
  577TMC3    C1 8605   1.752   1.530  11.890 -0.1197  0.5040  0.4488
  577TMC3    C2 8606   1.880   1.487  11.924  0.5167  0.2777 -0.3904
  577TMC3    C3 8607   1.977   1.493  11.825 -0.3858 -0.4661  0.1503
  577TMC3    C4 8608   1.722   1.567  11.763  0.3117  0.0713  0.0747
  577TMC3    C5 8609   1.819   1.559  11.663 -0.2524  0.2544 -0.2151
  577TMC3    C6 8610   1.946   1.520  11.696  0.1029  0.2130 -0.3348
  577TMC3     C 8611   1.644   1.543  11.991 -0.4425 -0.1421 -0.5471
  577TMC3     O 8612   1.538   1.502  11.942 -0.3406  0.0376 -0.1340
  577TMC3     H 8613   1.905   1.451  12.023  0.6703  1.5918  0.0481
  577TMC3    H1 8614   1.624   1.607  11.739  0.2738  0.1093  0.2947
  577TMC3    H2 8615   2.008   1.493  11.611 -0.2837 -0.0359 -0.5373
  577TMC3    C7 8616   1.807   1.634  11.543  0.9312 -0.2884 -0.0417
  577TMC3    C8 8617   2.110   1.448  11.862 -0.3749 -0.8014 -0.1113
  577TMC3    O1 8618   1.920   1.664  11.497 -0.2934  0.4926 -0.6972
  577TMC3    O2 8619   2.139   1.414  11.976 -0.6569  0.3557 -0.7133
  578MPD2     C 8620   0.749   1.996   1.201 -0.2679 -0.4774  0.1782
  578MPD2    C1 8621   0.763   1.917   1.095 -0.2437  0.4869 -0.6316
  578MPD2    C2 8622   0.846   1.809   1.108  0.2229 -0.1927 -0.4926
  578MPD2    C3 8623   0.916   1.782   1.226 -0.1865 -0.0199  0.0798
  578MPD2    C4 8624   0.893   1.858   1.342  0.2321  0.0304 -0.3432
  578MPD2    C5 8625   0.804   1.960   1.323 -0.1683 -0.1001  0.7748
  578MPD2     H 8626   0.864   1.738   1.028  3.6406 -1.6725  1.6132
  578MPD2    H1 8627   0.939   1.842   1.439 -1.1624  0.7633  0.4355
  578MPD2    H2 8628   0.681   2.080   1.196 -0.4579 -0.5441  1.6135
  578MPD2    H3 8629   0.787   2.021   1.411 -0.5405  0.4938  0.2918
  578MPD2     N 8630   1.010   1.677   1.211 -0.5885  0.1325 -0.2023
  578MPD2    H5 8631   1.028   1.651   1.114 -2.1285 -0.6939 -0.2714
  578MPD2    N1 8632   0.703   1.958   0.981 -0.2817 -0.7555 -0.0586
  578MPD2    H7 8633   0.648   2.042   0.998  1.2947  0.0089  1.1572
  579TMC3    C1 8634   1.205   1.560   1.250  0.3949  0.0504 -0.4576
  579TMC3    C2 8635   1.326   1.571   1.307 -0.0171 -0.2164 -0.1798
  579TMC3    C3 8636   1.437   1.544   1.228 -0.2075 -0.7602  0.1091
  579TMC3    C4 8637   1.189   1.495   1.128 -0.6548  0.0073 -0.8888
  579TMC3    C5 8638   1.300   1.434   1.071  0.6605  0.1953  0.0699
  579TMC3    C6 8639   1.424   1.471   1.114  0.5830 -0.2671 -0.3564
  579TMC3     C 8640   1.092   1.625   1.306 -0.7700 -0.4070 -0.5478
  579TMC3     O 8641   1.102   1.655   1.428 -0.4711 -0.3854  0.2077
  579TMC3     H 8642   1.330   1.609   1.409 -0.9742  1.3444 -0.7225
  579TMC3    H1 8643   1.089   1.473   1.093 -0.6937  0.0066 -0.7748
  579TMC3    H2 8644   1.507   1.413   1.077  1.2257  0.9282 -0.8113
  579TMC3    C7 8645   1.289   1.341   0.957 -0.3744  0.4187 -0.0509
  579TMC3    C8 8646   1.571   1.566   1.285 -0.5208 -0.4111  0.9108
  579TMC3    O1 8647   1.384   1.270   0.927  0.8613 -0.3264 -0.5615
  579TMC3    O2 8648   1.558   1.601   1.400 -0.6715 -0.4119  0.6560
  580TMC3    C1 8649   4.131   0.526  11.843  0.7441 -0.7516  0.4311
  580TMC3    C2 8650   4.141   0.487  11.709 -0.5558  0.4827  0.3035
  580TMC3    C3 8651   4.240   0.394  11.673  0.7543 -0.4116  0.0911
  580TMC3    C4 8652   4.190   0.451  11.939  0.1785  0.3502 -0.2186
  580TMC3    C5 8653   4.256   0.339  11.901  0.3535 -0.4288  0.1411
  580TMC3    C6 8654   4.290   0.318  11.774  0.3930  0.4310 -0.5874
  580TMC3     C 8655   4.155   0.671  11.858 -0.3560 -0.3310  0.1984
  580TMC3     O 8656   4.267   0.714  11.846  0.3695  0.4876 -0.0305
  580TMC3     H 8657   4.109   0.562  11.638  2.2036  0.3455 -1.1116
  580TMC3    H1 8658   4.177   0.475  12.044 -0.9102  0.5091 -0.3882
  580TMC3    H2 8659   4.357   0.236  11.749 -1.0332 -1.1377  0.7129
  580TMC3    C7 8660   4.350   0.284  11.997 -0.7094 -0.3724 -0.5471
  580TMC3    C8 8661   4.344   0.444  11.586  0.7567  0.6029  0.2620
  580TMC3    O1 8662   4.396   0.365  12.077 -0.3070 -0.0002 -0.5683
  580TMC3    O2 8663   4.357   0.393  11.479 -0.0765 -0.4174 -0.1692
  581MPD2     C 8664   2.880   0.856  14.638  0.6034 -0.2373  0.3695
  581MPD2    C1 8665   2.831   0.809  14.758  0.5452  0.0404 -0.1231
  581MPD2    C2 8666   2.700   0.827  14.796 -0.8956 -0.0561 -0.5539
  581MPD2    C3 8667   2.609   0.893  14.708 -0.3691  0.0613 -0.6311
  581MPD2    C4 8668   2.657   0.924  14.587  0.1994 -0.1850  0.0237
  581MPD2    C5 8669   2.788   0.908  14.548  0.1141 -0.4847 -0.1832
  581MPD2     H 8670   2.672   0.802  14.897 -1.4742 -1.1940 -0.9908
  581MPD2    H1 8671   2.590   0.951  14.507  0.9827 -0.5770 -0.7695
  581MPD2    H2 8672   2.982   0.836  14.609  0.7587  1.8505 -0.5682
  581MPD2    H3 8673   2.823   0.935  14.449 -0.0676 -1.7253 -0.5873
  581MPD2     N 8674   2.476   0.918  14.755  0.0793 -0.1690 -0.6925
  581MPD2    H5 8675   2.446   0.886  14.846  1.1835  2.0772  0.4436
  581MPD2    N1 8676   2.934   0.751  14.833 -0.0511 -0.0167 -0.2585
  581MPD2    H7 8677   3.029   0.756  14.798  0.4613 -0.2240  1.0745
  582TMC3    C1 8678   3.042   0.652  15.012 -0.4262 -0.3825 -0.5727
  582TMC3    C2 8679   3.040   0.653  15.150  0.1428 -0.4754 -0.3867
  582TMC3    C3 8680   3.050   0.535  15.221  0.7045  1.0294 -0.1227
  582TMC3    C4 8681   3.066   0.531  14.954 -0.2101  0.4999  0.3335
  582TMC3    C5 8682   3.046   0.416  15.022 -0.1392 -0.4056 -0.0894
  582TMC3    C6 8683   3.043   0.414  15.160  0.4699 -0.5245  0.3084
  582TMC3     C 8684   2.921   0.710  14.964  0.6798 -0.2699  0.6127
  582TMC3     O 8685   2.826   0.697  15.035  0.6370  1.0149  0.0560
  582TMC3     H 8686   3.017   0.744  15.204 -0.8405  0.8997 -3.1049
  582TMC3    H1 8687   3.068   0.525  14.846  2.9154  3.1515  0.2475
  582TMC3    H2 8688   3.038   0.328  15.227  1.4775 -1.6371 -1.0494
  582TMC3    C7 8689   3.067   0.298  14.942 -0.1326  0.3015  0.1580
  582TMC3    C8 8690   2.999   0.549  15.353 -0.2025 -0.5762  0.2635
  582TMC3    O1 8691   3.120   0.321  14.835 -0.1593 -0.3187 -0.7777
  582TMC3    O2 8692   3.065   0.619  15.430  0.4348  0.1097 -0.1099
  583MPD2     C 8693   2.999   2.549  16.645  0.0916  0.5902 -0.4177
  583MPD2    C1 8694   3.013   2.669  16.587  0.1039 -0.3427 -0.0568
  583MPD2    C2 8695   2.983   2.774  16.663  0.1387 -0.0474 -0.7220
  583MPD2    C3 8696   2.937   2.769  16.792 -1.0021 -0.2360 -0.1150
  583MPD2    C4 8697   2.926   2.643  16.851 -0.8635 -0.0688  0.3938
  583MPD2    C5 8698   2.957   2.527  16.775  0.9405 -0.6187 -0.1514
  583MPD2     H 8699   2.989   2.873  16.620 -1.4184 -2.0396 -5.4746
  583MPD2    H1 8700   2.898   2.632  16.955 -1.6140 -1.5487  0.0366
  583MPD2    H2 8701   3.033   2.462  16.591  0.4949  1.8775 -2.2505
  583MPD2    H3 8702   2.956   2.426  16.813  1.4044 -0.6576 -0.2458
  583MPD2     N 8703   2.885   2.887  16.854  0.1300  0.2126  0.2792
  583MPD2    H5 8704   2.869   2.966  16.793 -0.2872 -0.3499 -0.3373
  583MPD2    N1 8705   3.080   2.699  16.468 -0.2947  0.5024 -0.0314
  583MPD2    H7 8706   3.098   2.798  16.453  0.6683  0.3709  0.2218
  584TMC3    C1 8707   2.784   3.032  17.020 -0.4205 -0.4154 -0.1404
  584TMC3    C2 8708   2.781   3.135  16.925 -0.1610 -0.3104  0.5247
  584TMC3    C3 8709   2.756   3.261  16.968 -0.0581  0.4242 -0.3303
  584TMC3    C4 8710   2.772   3.058  17.154 -0.3394 -0.3300  0.0061
  584TMC3    C5 8711   2.746   3.189  17.186  0.2533  0.1478 -0.0333
  584TMC3    C6 8712   2.755   3.293  17.101  0.5118  0.7226  0.3716
  584TMC3     C 8713   2.836   2.899  16.985  0.4382 -0.3793  0.1970
  584TMC3     O 8714   2.837   2.815  17.072  0.6591 -0.1566  0.2608
  584TMC3     H 8715   2.815   3.118  16.824 -0.0814  1.3076  0.2886
  584TMC3    H1 8716   2.762   2.977  17.226  0.8909 -1.8383 -1.5154
  584TMC3    H2 8717   2.727   3.392  17.136 -1.0275  0.4956 -0.2161
  584TMC3    C7 8718   2.719   3.209  17.332  0.5159  0.2799 -0.0577
  584TMC3    C8 8719   2.785   3.364  16.869  0.2627 -0.0239  1.0522
  584TMC3    O1 8720   2.707   3.111  17.406 -0.5668 -0.0322 -0.4072
  584TMC3    O2 8721   2.743   3.349  16.753 -0.9543  0.2093  0.3893
  585MPD2     C 8722   1.822   1.867   0.060  0.1500 -0.2936  0.2322
  585MPD2    C1 8723   1.830   1.954  17.688  0.3536  0.1446  0.3205
  585MPD2    C2 8724   1.894   1.901  17.574 -0.0173  0.0835 -0.1233
  585MPD2    C3 8725   1.941   1.772  17.563 -0.1401 -0.5795  0.1071
  585MPD2    C4 8726   1.934   1.693  17.672 -0.3958  0.1100 -0.1615
  585MPD2    C5 8727   1.880   1.743   0.047  0.0620  0.2425 -0.2889
  585MPD2     H 8728   1.896   1.962  17.485  0.8126  0.0407 -0.1298
  585MPD2    H1 8729   1.969   1.590  17.677 -0.8087  0.1531  4.1032
  585MPD2    H2 8730   1.790   1.889   0.162  0.7296  0.4882  0.2428
  585MPD2    H3 8731   1.886   1.675   0.131 -0.5902 -0.4017 -0.7617
  585MPD2     N 8732   1.989   1.709  17.442  0.0568 -0.4891 -0.0510
  585MPD2    H5 8733   1.995   1.609  17.455 -3.0411 -0.5103  1.4103
  585MPD2    N1 8734   1.790   2.084  17.704  0.2091 -0.1691  0.0212
  585MPD2    H7 8735   1.722   2.101   0.037 -0.7199  1.3054 -1.1831
  586TMC3    C1 8736   2.020   1.680  17.213 -0.1094  0.0388 -0.4911
  586TMC3    C2 8737   2.066   1.729  17.094  0.3013 -0.1087  0.7955
  586TMC3    C3 8738   2.043   1.673  16.974 -0.1413 -0.4688 -0.3165
  586TMC3    C4 8739   1.920   1.584  17.207  0.5069  0.2908 -0.7790
  586TMC3    C5 8740   1.894   1.528  17.086  0.3485 -0.7716 -0.2934
  586TMC3    C6 8741   1.956   1.568  16.975 -0.3834  0.7003  1.0683
  586TMC3     C 8742   2.016   1.770  17.323 -0.5179  0.1850  0.4962
  586TMC3     O 8743   2.020   1.889  17.294 -0.6117  0.4636 -0.1197
  586TMC3     H 8744   2.135   1.813  17.088 -1.3243  1.0515 -1.6454
  586TMC3    H1 8745   1.863   1.551  17.294  1.1519  0.5597 -0.2559
  586TMC3    H2 8746   1.936   1.529  16.876  0.4347  0.9391  0.8087
  586TMC3    C7 8747   1.825   1.402  17.075  0.1404  0.1578  0.9139
  586TMC3    C8 8748   2.174   1.612  16.932 -0.0548 -0.1573  0.2629
  586TMC3    O1 8749   1.893   1.318  17.022  0.5031  0.4095  0.4443
  586TMC3    O2 8750   2.259   1.588  17.016  0.0501  0.2147 -0.0564
  587TMC3    C1 8751   4.396   0.574  16.214 -0.0389  0.6033  0.4125
  587TMC3    C2 8752   4.390   0.631  16.337  0.5681  0.0288  0.0287
  587TMC3    C3 8753   4.490   0.617  16.423 -1.0494  0.0117  0.2080
  587TMC3    C4 8754   4.496   0.492  16.175  0.1314 -0.0248  0.1351
  587TMC3    C5 8755   4.607   0.490  16.253 -0.6094  0.0204  0.4097
  587TMC3    C6 8756   4.602   0.552  16.375 -0.5871 -0.2572  0.4733
  587TMC3     C 8757   4.297   0.588  16.111  0.6234  0.1834 -0.1793
  587TMC3     O 8758   4.333   0.564  15.996  0.0581 -0.2406  0.3610
  587TMC3     H 8759   4.305   0.684  16.379  1.0038 -1.0708  2.3014
  587TMC3    H1 8760   4.499   0.441  16.080  1.4755  0.0253  0.1425
  587TMC3    H2 8761   4.686   0.549  16.444  0.2591  0.5538 -0.5157
  587TMC3    C7 8762   4.698   0.380  16.225 -0.4162 -0.2574 -0.2692
  587TMC3    C8 8763   4.490   0.663  16.560 -0.5197 -1.0902 -0.2170
  587TMC3    O1 8764   4.659   0.286  16.157  0.4112 -0.3638  0.3593
  587TMC3    O2 8765   4.584   0.630  16.627  0.5540  0.1334 -0.3666
  588TMC3    C1 8766   0.948   2.614   9.737  0.0108 -0.5306 -0.3551
  588TMC3    C2 8767   0.907   2.484   9.722 -0.4081 -0.6577 -0.6241
  588TMC3    C3 8768   0.945   2.385   9.803 -0.0917  0.7575  0.1843
  588TMC3    C4 8769   1.043   2.636   9.835  1.5464 -0.8288  0.3341
  588TMC3    C5 8770   1.091   2.530   9.915 -0.2584 -0.2685  0.7281
  588TMC3    C6 8771   1.036   2.404   9.906  0.2467  0.0913  0.3580
  588TMC3     C 8772   0.888   2.723   9.661 -0.0739 -0.3645 -0.1619
  588TMC3     O 8773   0.768   2.720   9.642 -0.4452  0.4205  0.0200
  588TMC3     H 8774   0.842   2.462   9.638 -1.5498 -0.8492  0.3105
  588TMC3    H1 8775   1.061   2.737   9.870 -0.0917 -1.6533  3.4831
  588TMC3    H2 8776   1.066   2.324   9.972 -2.0987 -1.0879 -0.0384
  588TMC3    C7 8777   1.207   2.562   9.999  0.0351  0.2124  0.3084
  588TMC3    C8 8778   0.869   2.258   9.787 -0.1662 -0.6412 -0.2881
  588TMC3    O1 8779   1.231   2.504  10.101  0.1258  0.3891  0.9134
  588TMC3    O2 8780   0.761   2.272   9.737  0.5614  0.2110 -0.5427
  589TMC3    C1 8781   1.240   0.121   0.892 -0.2528 -0.6693  1.0718
  589TMC3    C2 8782   1.309   0.090   1.015  0.0155 -0.3516 -0.3965
  589TMC3    C3 8783   1.425   0.017   1.002 -0.0616  0.6173 -0.1626
  589TMC3    C4 8784   1.275   0.067   0.774 -0.0246 -0.0999  0.3936
  589TMC3    C5 8785   1.388   4.726   0.770 -0.2410  0.6777 -0.4601
  589TMC3    C6 8786   1.464   4.702   0.881  0.3304 -0.1290 -0.1449
  589TMC3     C 8787   1.112   0.190   0.885  0.6529 -0.0136  0.5075
  589TMC3     O 8788   1.065   0.195   0.772 -0.1634 -0.0220  0.1716
  589TMC3     H 8789   1.268   0.121   1.111 -2.0035  3.3085 -2.4304
  589TMC3    H1 8790   1.239   0.106   0.680  3.2651  1.0065 -0.4129
  589TMC3    H2 8791   1.551   4.639   0.869  0.7626  0.3549  0.4313
  589TMC3    C7 8792   1.424   4.657   0.642  0.6468 -0.1853 -0.2547
  589TMC3    C8 8793   1.518   0.029   1.111 -0.6021  0.4484  0.4220
  589TMC3    O1 8794   1.472   4.547   0.665  0.6279 -0.0464  0.0834
  589TMC3    O2 8795   1.476   0.062   1.220  0.5620  0.0687  0.1963
  590MPD2     C 8796   0.645   3.754  17.022 -0.0233 -0.6089 -0.3673
  590MPD2    C1 8797   0.630   3.699  16.895 -0.1338 -0.0931 -0.1992
  590MPD2    C2 8798   0.735   3.669  16.818 -0.9886  0.7344  0.0760
  590MPD2    C3 8799   0.871   3.686  16.871  0.1255  0.3107  0.0473
  590MPD2    C4 8800   0.881   3.740  17.001 -0.0850  0.2994 -0.1530
  590MPD2    C5 8801   0.772   3.776  17.071  0.5736  0.4916 -0.7943
  590MPD2     H 8802   0.718   3.644  16.714 -1.9529 -0.5774  0.5421
  590MPD2    H1 8803   0.976   3.753  17.050 -0.0390 -0.1407 -0.1269
  590MPD2    H2 8804   0.554   3.764  17.079  0.2564  1.2424 -0.2651
  590MPD2    H3 8805   0.791   3.824  17.166  0.1300 -3.2684  1.1961
  590MPD2     N 8806   0.985   3.677  16.789 -0.6233 -0.5514  0.7531
  590MPD2    H5 8807   1.078   3.709  16.816 -0.0342 -2.0114  0.4596
  590MPD2    N1 8808   0.499   3.687  16.843  0.2832 -0.4412 -0.1479
  590MPD2    H7 8809   0.426   3.732  16.899 -1.8485 -0.8936 -2.5683
  591TMC3    C1 8810   1.102   3.622  16.588  0.1658  0.4136  0.2792
  591TMC3    C2 8811   1.137   3.510  16.515  0.1006  0.3393 -0.2182
  591TMC3    C3 8812   1.238   3.531  16.424  0.2660  0.4368  0.1021
  591TMC3    C4 8813   1.154   3.750  16.583 -0.2105 -0.5728  0.1875
  591TMC3    C5 8814   1.231   3.764  16.468 -0.1154  0.1465  0.3412
  591TMC3    C6 8815   1.279   3.657  16.397 -0.5394 -0.0725 -0.1034
  591TMC3     C 8816   0.982   3.613  16.667 -0.5628  0.4012 -0.2994
  591TMC3     O 8817   0.894   3.541  16.614  0.5519 -1.0935  0.1927
  591TMC3     H 8818   1.079   3.420  16.524 -0.1667  0.5789  0.4822
  591TMC3    H1 8819   1.125   3.831  16.649 -1.6277 -0.3425 -0.7020
  591TMC3    H2 8820   1.351   3.675  16.319 -1.4010 -2.4383 -1.4376
  591TMC3    C7 8821   1.285   3.888  16.428  0.1221  0.4462  0.1348
  591TMC3    C8 8822   1.257   3.428  16.322 -0.1234 -0.4763 -0.0356
  591TMC3    O1 8823   1.299   3.985  16.503 -0.5212 -0.2123 -0.3834
  591TMC3    O2 8824   1.323   3.328  16.348 -0.7556  0.1742  0.7260
  592MPD2     C 8825   0.603   0.512  11.197  0.3234 -0.8080 -0.0874
  592MPD2    C1 8826   0.627   0.555  11.323 -0.1185 -0.7928 -0.5735
  592MPD2    C2 8827   0.577   0.476  11.429 -0.3737  0.1441 -0.2334
  592MPD2    C3 8828   0.490   0.371  11.407 -0.6366  0.2543 -0.0017
  592MPD2    C4 8829   0.479   0.326  11.278  0.1176 -0.5338  0.3784
  592MPD2    C5 8830   0.532   0.398  11.174 -0.1556 -0.0413 -0.6733
  592MPD2     H 8831   0.603   0.496  11.532 -1.9664 -0.1725  0.2217
  592MPD2    H1 8832   0.421   0.237  11.254  1.3634 -0.7212 -1.8947
  592MPD2    H2 8833   0.629   0.564  11.106 -0.5194 -1.7689 -0.8840
  592MPD2    H3 8834   0.517   0.366  11.071 -1.3241  0.5907 -0.7039
  592MPD2     N 8835   0.438   0.305  11.518  0.5358 -0.1268  0.1925
  592MPD2    H5 8836   0.474   0.344  11.605 -1.7725  0.4647  0.8715
  592MPD2    N1 8837   0.711   0.669  11.347  0.0015  0.1073 -0.0841
  592MPD2    H7 8838   0.746   0.720  11.267 -2.1742  0.2648 -0.9144
  593TMC3    C1 8839   0.797   0.857  11.455  0.1183  0.4807  0.4513
  593TMC3    C2 8840   0.847   0.904  11.569 -0.7461  0.2917 -0.3241
  593TMC3    C3 8841   0.928   1.013  11.562  0.0134  0.4600  0.3797
  593TMC3    C4 8842   0.815   0.916  11.336 -0.4479 -0.0845  0.4788
  593TMC3    C5 8843   0.904   1.024  11.334  0.7825  0.0806  0.3699
  593TMC3    C6 8844   0.951   1.078  11.450  0.0274  0.0809  0.4752
  593TMC3     C 8845   0.727   0.730  11.467  0.6923  0.5849 -0.7638
  593TMC3     O 8846   0.684   0.701  11.576  0.0474  0.1531  0.0467
  593TMC3     H 8847   0.825   0.859  11.665  0.2369  0.9305  0.2043
  593TMC3    H1 8848   0.758   0.889  11.247  2.3216  1.2535 -1.7002
  593TMC3    H2 8849   0.999   1.175  11.447 -2.4038  1.2405 -0.4227
  593TMC3    C7 8850   0.909   1.102  11.212  0.0410 -0.3672  0.8461
  593TMC3    C8 8851   0.946   1.086  11.692  0.1849  0.2478  0.2723
  593TMC3    O1 8852   0.945   1.220  11.227  0.0809 -0.3566  0.0805
  593TMC3    O2 8853   0.854   1.078  11.768 -0.3925 -0.4476 -0.3023
  594MPD2     C 8854   0.240   3.997  14.793 -0.4992  0.4321 -0.3986
  594MPD2    C1 8855   0.167   4.112  14.772 -0.0997  0.2143  0.3269
  594MPD2    C2 8856   0.214   4.195  14.666 -0.2911  0.6701 -0.0423
  594MPD2    C3 8857   0.322   4.166  14.580  0.0364 -0.0742  0.2728
  594MPD2    C4 8858   0.392   4.050  14.602  0.2187  0.5502  0.3769
  594MPD2    C5 8859   0.350   3.968  14.707 -0.5620 -0.8503  1.1513
  594MPD2     H 8860   0.162   4.289  14.651 -3.3252 -0.5402  3.1254
  594MPD2    H1 8861   0.472   4.013  14.538 -1.4413  1.9100 -2.5041
  594MPD2    H2 8862   0.225   3.946  14.888  0.0003 -1.5316 -1.3651
  594MPD2    H3 8863   0.406   3.876  14.719  0.2456 -0.4337  0.6022
  594MPD2     N 8864   0.366   4.264  14.489  0.5905  0.4908  0.0002
  594MPD2    H5 8865   0.319   4.353  14.498  1.1594  0.8818 -0.9037
  594MPD2    N1 8866   0.060   4.146  14.856  0.1194  0.1646  0.3587
  594MPD2    H7 8867   0.041   4.077  14.928  2.8363 -1.8673 -0.8620
  595TMC3    C1 8868   0.660   4.474  14.192 -0.1444 -0.3354  0.4717
  595TMC3    C2 8869   0.601   4.361  14.249 -0.2108 -0.6855 -0.3183
  595TMC3    C3 8870   0.502   4.381  14.342 -0.6864 -0.0659  1.3267
  595TMC3    C4 8871   0.628   4.593  14.240  0.3149  0.2408  0.4871
  595TMC3    C5 8872   0.545   4.607  14.350 -0.1542  0.1380  0.7686
  595TMC3    C6 8873   0.472   4.496  14.404 -0.2712 -0.1287 -0.1430
  595TMC3     C 8874   0.799   4.450  14.169 -0.2995 -0.3133  0.1133
  595TMC3     O 8875   0.878   4.487  14.251  0.3051 -0.8144 -0.5034
  595TMC3     H 8876   0.610   4.262  14.206  0.9662 -0.7227  0.0047
  595TMC3    H1 8877   0.694   4.672  14.208 -1.1997  1.2088 -0.2038
  595TMC3    H2 8878   0.399   4.511  14.483  0.3101  0.7199  0.2355
  595TMC3    C7 8879   0.494   0.000  14.385 -0.6985  0.0234  0.1330
  595TMC3    C8 8880   0.473   4.254  14.406 -0.0310  0.2936  0.5355
  595TMC3    O1 8881   0.411   4.730  14.476  0.3517 -0.4998 -0.4356
  595TMC3    O2 8882   0.540   4.154  14.382  0.1379  0.5285  0.1843
  596MPD2     C 8883   3.731   2.324  16.772 -0.1126 -0.4083  0.2967
  596MPD2    C1 8884   3.761   2.450  16.731  0.8309 -0.2548 -0.6450
  596MPD2    C2 8885   3.820   2.464  16.605 -0.3772  0.0377 -0.5318
  596MPD2    C3 8886   3.826   2.351  16.524  0.5780 -0.2494 -0.1755
  596MPD2    C4 8887   3.797   2.222  16.566 -1.2352  0.8319  0.1434
  596MPD2    C5 8888   3.742   2.213  16.697  0.3373  0.0779 -0.1347
  596MPD2     H 8889   3.846   2.566  16.581 -0.7196  0.3707  0.5288
  596MPD2    H1 8890   3.792   2.136  16.501 -0.5101 -0.8652  2.3704
  596MPD2    H2 8891   3.701   2.317  16.876 -0.2560  0.8562  0.3425
  596MPD2    H3 8892   3.706   2.122  16.743  0.4457  0.5679  0.9107
  596MPD2     N 8893   3.862   2.356  16.387 -0.3975  0.7216 -0.5326
  596MPD2    H5 8894   3.890   2.263  16.358  0.8135  0.9921 -0.2105
  596MPD2    N1 8895   3.748   2.564  16.809 -0.5838  0.5430 -0.4428
  596MPD2    H7 8896   3.791   2.651  16.778 -0.6207  0.1801 -1.5209
  597TMC3    C1 8897   3.708   2.693  16.985 -0.3148  1.0664  0.2950
  597TMC3    C2 8898   3.834   2.743  16.978  0.9393  0.6019 -0.4563
  597TMC3    C3 8899   3.857   2.869  17.036  0.5481 -0.2915 -0.4387
  597TMC3    C4 8900   3.605   2.757  17.048 -0.3374 -0.3996 -1.2593
  597TMC3    C5 8901   3.627   2.880  17.093 -0.2818  0.1647  0.4678
  597TMC3    C6 8902   3.755   2.936  17.099  0.4123 -0.2642  0.5845
  597TMC3     C 8903   3.681   2.574  16.927  0.0046 -0.0501  0.3248
  597TMC3     O 8904   3.592   2.498  16.968  0.1517 -0.5228  0.1952
  597TMC3     H 8905   3.919   2.680  16.956  0.6969  0.7154 -1.7302
  597TMC3    H1 8906   3.506   2.714  17.057 -0.0722 -0.7419  0.0697
  597TMC3    H2 8907   3.772   3.023  17.163  0.9447  0.4657 -0.5513
  597TMC3    C7 8908   3.509   2.951  17.120  0.4632  0.9374  0.2796
  597TMC3    C8 8909   3.999   2.907  17.060 -0.5263  0.0190 -0.2771
  597TMC3    O1 8910   3.419   2.875  17.153 -0.3153  0.2120  0.0208
  597TMC3    O2 8911   4.085   2.820  17.080 -0.3342  0.8883 -0.2230
  598TMC3    C1 8912   2.250   3.903  15.355 -0.4223 -0.1181 -0.6764
  598TMC3    C2 8913   2.233   3.765  15.344 -0.3770  0.4544  0.2822
  598TMC3    C3 8914   2.200   3.716  15.222 -0.5791  0.3698  0.0484
  598TMC3    C4 8915   2.227   3.994  15.249 -0.5860  0.3780  0.1057
  598TMC3    C5 8916   2.202   3.936  15.126  0.2325  1.0401  0.2451
  598TMC3    C6 8917   2.185   3.803  15.116 -0.3823  0.3846  0.0142
  598TMC3     C 8918   2.258   3.960  15.488 -0.3930 -0.2605 -0.0027
  598TMC3     O 8919   2.198   4.068  15.502 -0.0397  1.1109  0.2323
  598TMC3     H 8920   2.266   3.693  15.417 -0.7649 -1.7932 -1.7388
  598TMC3    H1 8921   2.238   4.100  15.269  1.9823  0.1237  0.0613
  598TMC3    H2 8922   2.142   3.763  15.025  0.1291 -0.7947  0.2951
  598TMC3    C7 8923   2.209   4.010  15.002  0.1964  0.1477 -0.2499
  598TMC3    C8 8924   2.140   3.582  15.212 -0.4368  0.1037  0.9804
  598TMC3    O1 8925   2.176   3.949  14.901  0.2338  0.2513  0.5806
  598TMC3    O2 8926   2.135   3.534  15.097 -0.1320 -0.7103  0.0304
  599MPD2     C 8927   2.032   1.604  15.705 -0.3373 -0.0400  0.3949
  599MPD2    C1 8928   1.965   1.484  15.672  1.0524 -0.2684 -0.2213
  599MPD2    C2 8929   1.835   1.472  15.718 -0.0206  0.3099  0.2672
  599MPD2    C3 8930   1.769   1.569  15.792 -0.5504  0.5422 -0.3185
  599MPD2    C4 8931   1.833   1.691  15.816  0.9294  0.0615  0.4508
  599MPD2    C5 8932   1.966   1.701  15.781  0.4979 -0.2666 -0.0394
  599MPD2     H 8933   1.799   1.370  15.708 -0.4731  0.5223 -0.2681
  599MPD2    H1 8934   1.791   1.779  15.862 -0.9732 -1.2094  1.1492
  599MPD2    H2 8935   2.137   1.620  15.683 -0.4225  1.0130  0.7826
  599MPD2    H3 8936   2.029   1.785  15.808 -2.4049  1.1740  2.2914
  599MPD2     N 8937   1.642   1.551  15.846  0.5086 -0.3337  0.2509
  599MPD2    H5 8938   1.613   1.634  15.898 -0.5626  0.3809 -1.4654
  599MPD2    N1 8939   2.038   1.381  15.602 -0.0110  0.4270  0.2756
  599MPD2    H7 8940   2.133   1.408  15.576 -0.6689  3.1236  0.6651
  600TMC3    C1 8941   1.425   1.465  15.873 -0.1014 -0.2940  0.4819
  600TMC3    C2 8942   1.350   1.353  15.879  1.0194 -0.2739  0.1794
  600TMC3    C3 8943   1.225   1.373  15.941 -0.3780  0.2654 -0.2852
  600TMC3    C4 8944   1.391   1.586  15.919 -0.0560 -0.0123 -0.4877
  600TMC3    C5 8945   1.269   1.604  15.967 -0.4082  0.7402  0.6942
  600TMC3    C6 8946   1.187   1.496  15.993  0.4400  0.3183 -0.0059
  600TMC3     C 8947   1.549   1.455  15.806 -0.0374 -0.1153 -0.1943
  600TMC3     O 8948   1.564   1.350  15.744  0.1724  0.1432 -0.4669
  600TMC3     H 8949   1.384   1.254  15.850 -0.9383 -0.2170 -2.2879
  600TMC3    H1 8950   1.445   1.677  15.896  0.2388  0.0943  0.6117
  600TMC3    H2 8951   1.100   1.509  16.057  0.4028 -3.3645  0.6823
  600TMC3    C7 8952   1.232   1.733  16.027 -0.0870 -0.5999 -0.3933
  600TMC3    C8 8953   1.142   1.264  15.976 -0.4757 -0.3534 -0.7869
  600TMC3    O1 8954   1.188   1.725  16.142  0.8436 -0.0123  0.1948
  600TMC3    O2 8955   1.183   1.148  15.971 -0.0269  0.8562 -0.1598
  601MPD2     C 8956   3.967   0.224   0.114 -0.2533 -0.7452  0.6282
  601MPD2    C1 8957   3.941   0.267   0.239  0.3538  0.0012 -0.1561
  601MPD2    C2 8958   3.987   0.192   0.348 -0.0078 -0.0858 -0.1656
  601MPD2    C3 8959   4.070   0.088   0.330  0.3049 -0.1965  0.0283
  601MPD2    C4 8960   4.096   0.051   0.203 -0.1714  0.1347 -0.0714
  601MPD2    C5 8961   4.043   0.112   0.098  0.1447  0.2417  0.1698
  601MPD2     H 8962   3.962   0.229   0.447 -0.3557 -0.9649  0.0697
  601MPD2    H1 8963   4.160   4.701   0.185  0.4658  0.4314  0.7615
  601MPD2    H2 8964   3.931   0.280   0.029 -1.0356 -0.8727  0.8815
  601MPD2    H3 8965   4.062   0.076  17.738 -0.3560 -2.9636  1.2463
  601MPD2     N 8966   4.142   0.019   0.429 -0.2479 -0.2331 -0.1494
  601MPD2    H5 8967   4.203   4.682   0.392  0.4756  1.0390 -1.4324
  601MPD2    N1 8968   3.856   0.376   0.261  0.3541 -0.4429  0.4520
  601MPD2    H7 8969   3.823   0.390   0.357 -2.4498 -1.3347 -0.3716
  602TMC3    C1 8970   3.706   0.551   0.204 -0.3819 -0.3749  0.4203
  602TMC3    C2 8971   3.703   0.667   0.142 -0.1204 -0.4259 -0.2201
  602TMC3    C3 8972   3.583   0.725   0.100  0.3519  0.5447  0.1740
  602TMC3    C4 8973   3.592   0.491   0.248 -0.1762 -0.2592 -0.4066
  602TMC3    C5 8974   3.471   0.538   0.188  0.2629 -0.5726  0.6879
  602TMC3    C6 8975   3.470   0.649   0.112  0.4093 -0.4463 -0.1253
  602TMC3     C 8976   3.815   0.466   0.166  0.0697  0.2245  0.1125
  602TMC3     O 8977   3.860   0.485   0.053 -0.0760 -0.2265  0.4992
  602TMC3     H 8978   3.797   0.719   0.133  0.2948 -1.1552 -0.1049
  602TMC3    H1 8979   3.594   0.392   0.292  0.3113  0.1221  0.4264
  602TMC3    H2 8980   3.380   0.705   0.089  1.0261 -0.0975 -1.6376
  602TMC3    C7 8981   3.410   0.423   0.127 -0.5272 -0.2097 -0.5979
  602TMC3    C8 8982   3.592   0.819  17.724 -0.1351 -0.1061 -0.1477
  602TMC3    O1 8983   3.440   0.313   0.171 -0.4242 -0.5706  0.3809
  602TMC3    O2 8984   3.697   0.877  17.725 -0.0417  0.0565  0.2743
  603TMC3    C1 8985   1.232   4.584  11.088 -0.3254 -0.0588 -0.7285
  603TMC3    C2 8986   1.285   4.599  11.212 -0.2084 -0.0846  0.0422
  603TMC3    C3 8987   1.344   4.719  11.243  0.5835 -0.1719 -0.0845
  603TMC3    C4 8988   1.225   4.676  10.992 -0.1156 -0.8861  0.5106
  603TMC3    C5 8989   1.285   0.069  11.029 -0.4219  0.0084 -0.4040
  603TMC3    C6 8990   1.341   0.088  11.151 -0.7937 -0.4346  0.1247
  603TMC3     C 8991   1.190   4.449  11.055 -0.0931  0.6267  0.7013
  603TMC3     O 8992   1.170   4.376  11.153 -0.5754 -0.0992 -1.2659
  603TMC3     H 8993   1.300   4.513  11.276  0.9806 -0.9890 -1.4695
  603TMC3    H1 8994   1.152   4.663  10.913  0.1749 -0.1821  0.1213
  603TMC3    H2 8995   1.408   0.172  11.167 -0.9314 -0.3515  0.2643
  603TMC3    C7 8996   1.303   0.180  10.924  0.6585 -0.4886  0.3139
  603TMC3    C8 8997   1.383   0.004  11.381  0.3521 -0.0776 -0.1811
  603TMC3    O1 8998   1.365   0.284  10.954 -0.3130 -0.1331  0.2202
  603TMC3    O2 8999   1.407   4.641  11.446  0.6816  0.3797 -0.0287
  604MPD2     C 9000   3.085   4.103  16.176 -0.1089 -0.4747  0.5659
  604MPD2    C1 9001   3.032   3.977  16.157  0.2786  0.3234  0.0643
  604MPD2    C2 9002   3.074   3.888  16.064  0.0790 -0.9441 -0.4784
  604MPD2    C3 9003   3.177   3.925  15.974  0.0115  0.7814  0.0936
  604MPD2    C4 9004   3.233   4.050  15.991  0.5272  0.2498 -0.2471
  604MPD2    C5 9005   3.173   4.140  16.079 -0.2941  0.2474 -0.3676
  604MPD2     H 9006   3.034   3.788  16.059 -0.7919 -0.6912  1.4040
  604MPD2    H1 9007   3.303   4.088  15.918  0.2669  0.6591 -0.2836
  604MPD2    H2 9008   3.043   4.177  16.243  1.3679  1.5184 -0.7054
  604MPD2    H3 9009   3.220   4.237  16.089  1.5296 -0.4244 -2.4294
  604MPD2     N 9010   3.227   3.835  15.876 -0.5736  0.6022  0.0949
  604MPD2    H5 9011   3.207   3.736  15.890 -0.2909  0.5211 -0.0613
  604MPD2    N1 9012   2.931   3.943  16.257  0.0713 -0.7638 -0.1581
  604MPD2    H7 9013   2.928   4.013  16.331  1.7284 -0.1191 -0.6893
  605TMC3    C1 9014   2.746   3.896  16.362 -0.3140  0.3092  0.3855
  605TMC3    C2 9015   2.804   3.967  16.462  0.2134  0.5088 -0.7185
  605TMC3    C3 9016   2.744   4.083  16.505 -0.2447 -0.2282  0.5028
  605TMC3    C4 9017   2.617   3.926  16.322 -0.2588  0.5410 -0.3361
  605TMC3    C5 9018   2.552   4.027  16.385  0.5319  0.0001 -0.3107
  605TMC3    C6 9019   2.617   4.115  16.464  0.2694  0.1543  0.8000
  605TMC3     C 9020   2.826   3.859  16.248 -0.0917  0.1217 -0.1519
  605TMC3     O 9021   2.784   3.798  16.147 -0.3444 -0.1075 -0.0613
  605TMC3     H 9022   2.901   3.937  16.501  0.2444 -0.3207 -1.4174
  605TMC3    H1 9023   2.584   3.881  16.230 -1.2218  0.0116  0.2585
  605TMC3    H2 9024   2.561   4.195  16.510 -0.7695  0.0256 -0.2362
  605TMC3    C7 9025   2.420   4.064  16.329 -0.1798  1.0096 -0.4959
  605TMC3    C8 9026   2.842   4.181  16.538  0.1340 -0.0865 -0.2092
  605TMC3    O1 9027   2.371   4.171  16.363 -0.2956  0.3646  0.8426
  605TMC3    O2 9028   2.949   4.153  16.487 -0.0400 -0.2660  0.1590
  606TMC3    C1 9029   3.570   2.882  17.588 -0.3800  0.9860  0.0975
  606TMC3    C2 9030   3.558   2.828  17.716 -0.1789  0.8620 -0.1841
  606TMC3    C3 9031   3.567   2.694  17.730  0.3747 -0.0267 -0.2578
  606TMC3    C4 9032   3.593   2.806  17.479  0.1456 -1.1289 -0.3892
  606TMC3    C5 9033   3.607   2.674  17.502 -0.1510 -0.4222 -0.2084
  606TMC3    C6 9034   3.596   2.617  17.620  0.6889  0.0866 -0.5315
  606TMC3     C 9035   3.530   3.018  17.551  0.5125 -0.0428  0.4786
  606TMC3     O 9036   3.552   3.051  17.437 -0.5620 -0.0932 -0.0157
  606TMC3     H 9037   3.543   2.892   0.062  0.5183  1.7682 -0.7365
  606TMC3    H1 9038   3.597   2.840  17.376 -1.3698 -0.2334 -0.1411
  606TMC3    H2 9039   3.605   2.509  17.631  0.8910  0.1172 -0.3898
  606TMC3    C7 9040   3.669   2.601  17.389  0.9437 -0.8506  0.2699
  606TMC3    C8 9041   3.623   2.645   0.112  0.0633 -0.0473  0.0999
  606TMC3    O1 9042   3.750   2.663  17.324  0.0142  0.3762  0.5009
  606TMC3    O2 9043   3.584   2.689   0.220  0.4505 -0.2816 -0.5857
  607MPD2     C 9044   0.657   4.686  12.229 -0.0833  0.1410  0.6236
  607MPD2    C1 9045   0.719   0.062  12.183 -0.8033 -0.2667 -0.7821
  607MPD2    C2 9046   0.771   0.152  12.281 -0.5778  1.1954 -0.9633
  607MPD2    C3 9047   0.770   0.122  12.415 -0.5736  0.0087 -0.6286
  607MPD2    C4 9048   0.721   0.006  12.460  0.3321  0.1850 -0.4950
  607MPD2    C5 9049   0.662   4.652  12.365  0.0564 -0.1872 -1.1999
  607MPD2     H 9050   0.831   0.235  12.245  0.3992  0.6984 -0.4772
  607MPD2    H1 9051   0.708   4.718  12.565 -0.6333 -2.8762 -1.3023
  607MPD2    H2 9052   0.600   4.624  12.160  0.1520  0.1691  0.4061
  607MPD2    H3 9053   0.610   4.561  12.394  0.0457  0.5057  0.9957
  607MPD2     N 9054   0.821   0.224  12.503 -0.3043 -0.9292 -0.3432
  607MPD2    H5 9055   0.858   0.299  12.446 -0.8300 -0.3520  0.0768
  607MPD2    N1 9056   0.731   0.105  12.049  0.1207  0.1831  0.6398
  607MPD2    H7 9057   0.784   0.190  12.034  1.6510 -0.7451  0.7127
  608TMC3    C1 9058   0.699   0.133  11.822 -0.1777  0.2447 -0.2945
  608TMC3    C2 9059   0.750   0.259  11.843  0.8922  0.1605  0.1749
  608TMC3    C3 9060   0.794   0.336  11.731 -0.4926  0.2657 -0.1654
  608TMC3    C4 9061   0.693   0.081  11.699 -0.3027 -0.1484  0.1210
  608TMC3    C5 9062   0.740   0.155  11.591 -0.7020  0.1437 -0.4534
  608TMC3    C6 9063   0.793   0.284  11.605 -0.1363 -0.3246 -0.1739
  608TMC3     C 9064   0.671   0.057  11.937 -1.2180 -0.9237 -0.7064
  608TMC3     O 9065   0.605   4.690  11.924 -0.5491  0.2342  0.1649
  608TMC3     H 9066   0.724   0.314  11.933  0.6367  0.4171 -0.0544
  608TMC3    H1 9067   0.644   4.721  11.685  0.8097 -0.8905  1.3379
  608TMC3    H2 9068   0.815   0.346  11.520  0.3604  0.9302  0.8805
  608TMC3    C7 9069   0.766   0.082  11.470  0.5065  0.6315  0.6306
  608TMC3    C8 9070   0.919   0.403  11.767 -0.1270 -1.1160  0.3338
  608TMC3    O1 9071   0.787   4.697  11.482 -0.3586 -0.1226 -0.0199
  608TMC3    O2 9072   1.007   0.416  11.680 -0.2251 -0.0543  0.1805
  609TMC3    C1 9073   3.861   4.087   9.211 -0.3617  0.0291  0.3362
  609TMC3    C2 9074   3.733   4.090   9.162  0.7124 -0.6895  0.2044
  609TMC3    C3 9075   3.692   3.988   9.081  0.1532  0.4679 -0.1547
  609TMC3    C4 9076   3.938   3.974   9.197 -0.7193 -0.5061  0.1301
  609TMC3    C5 9077   3.904   3.893   9.094 -0.8814  0.0961 -0.8368
  609TMC3    C6 9078   3.777   3.889   9.039 -0.4207  0.4748 -0.0719
  609TMC3     C 9079   3.894   4.187   9.312 -0.1980 -0.4299  0.2909
  609TMC3     O 9080   3.803   4.237   9.373  0.7074  0.2299  0.4778
  609TMC3     H 9081   3.671   4.175   9.189  0.4821 -0.7870 -0.0131
  609TMC3    H1 9082   4.041   3.975   9.232 -0.5257  2.6479 -0.6030
  609TMC3    H2 9083   3.742   3.818   8.966 -0.1681  0.8492 -0.5529
  609TMC3    C7 9084   4.015   3.837   9.017 -0.4878 -0.0436 -0.3836
  609TMC3    C8 9085   3.551   3.970   9.046  0.0172 -0.3143  0.2059
  609TMC3    O1 9086   4.104   3.804   9.090 -1.0455  0.2821  0.2247
  609TMC3    O2 9087   3.530   3.918   8.937 -0.1114 -0.4753 -0.5074
  610TMC3    C1 9088   1.570   0.472  12.907 -0.2362  0.2877  0.3372
  610TMC3    C2 9089   1.608   0.463  12.779 -0.2252  0.5010 -0.1659
  610TMC3    C3 9090   1.715   0.391  12.743  0.0856 -0.6658 -0.0720
  610TMC3    C4 9091   1.630   0.388  12.997 -0.0694 -0.3097  0.3442
  610TMC3    C5 9092   1.721   0.299  12.951  0.4778 -0.9506 -0.1938
  610TMC3    C6 9093   1.770   0.299  12.821 -0.1221  0.9252 -0.6901
  610TMC3     C 9094   1.455   0.548  12.948 -0.1782  0.1708 -0.0720
  610TMC3     O 9095   1.417   0.525  13.058 -0.5203 -0.1122  0.2189
  610TMC3     H 9096   1.576   0.537  12.706  1.9171  1.5931 -0.0232
  610TMC3    H1 9097   1.609   0.389  13.104 -1.2680  0.3691  0.1022
  610TMC3    H2 9098   1.837   0.224  12.782  0.7176  0.6308  1.3112
  610TMC3    C7 9099   1.749   0.180  13.031  0.1606  0.0346  0.6498
  610TMC3    C8 9100   1.771   0.401  12.607  0.1853  1.3008 -0.0057
  610TMC3    O1 9101   1.860   0.133  13.015 -0.3617  0.4230  0.2897
  610TMC3    O2 9102   1.876   0.339  12.588  0.2333 -0.1588 -0.0616
  611MPD2     C 9103   0.299   4.729  10.576  0.3354 -0.1619 -0.7071
  611MPD2    C1 9104   0.326   4.647  10.470 -0.3930  0.5125 -0.2348
  611MPD2    C2 9105   0.425   4.687  10.383  0.9471  0.5392 -0.6436
  611MPD2    C3 9106   0.497   0.070  10.399 -0.0046  0.2640  0.0183
  611MPD2    C4 9107   0.458   0.153  10.505  0.6053  0.7280  0.6267
  611MPD2    C5 9108   0.360   0.112  10.591  0.4977 -0.1517  0.2382
  611MPD2     H 9109   0.445   4.624  10.298 -1.4100 -0.9479 -0.1008
  611MPD2    H1 9110   0.514   0.243  10.527  3.6782 -1.1269  0.3782
  611MPD2    H2 9111   0.212   4.711  10.637  1.1741  2.9421  1.3973
  611MPD2    H3 9112   0.342   0.180  10.673  0.7373  0.9703 -0.6317
  611MPD2     N 9113   0.611   0.100  10.320  0.1161 -0.7852  0.8109
  611MPD2    H5 9114   0.658   0.188  10.339 -0.0542 -0.5782  0.2752
  611MPD2    N1 9115   0.256   4.532  10.459 -0.0297  1.0194  0.4745
  611MPD2    H7 9116   0.190   4.524  10.536 -0.1865 -0.9825  0.1366
  612TMC3    C1 9117   0.745   0.122  10.140  0.7227  0.1920 -0.3696
  612TMC3    C2 9118   0.841   0.164  10.224 -0.4482 -0.5159 -0.3681
  612TMC3    C3 9119   0.944   0.236  10.166 -0.1565  0.3086  0.2930
  612TMC3    C4 9120   0.749   0.137  10.003  0.1121  0.3531 -0.1316
  612TMC3    C5 9121   0.854   0.210   9.948  0.1673 -0.6876 -0.2765
  612TMC3    C6 9122   0.951   0.258  10.032 -0.0387  0.4330  0.0274
  612TMC3     C 9123   0.624   0.059  10.195 -0.5820 -0.2776 -0.2593
  612TMC3     O 9124   0.542   0.014  10.118  0.1151  0.0372  0.1561
  612TMC3     H 9125   0.832   0.141  10.329  0.2939  0.1637 -0.1560
  612TMC3    H1 9126   0.665   0.107   9.942  1.6742 -1.7003 -1.2472
  612TMC3    H2 9127   1.037   0.310   9.991  1.9352 -1.0826  2.1904
  612TMC3    C7 9128   0.867   0.212   9.807  0.1200  0.2166 -0.3179
  612TMC3    C8 9129   1.049   0.288  10.248 -0.0819  0.0400  0.5018
  612TMC3    O1 9130   0.777   0.153   9.751 -0.1901  0.2826  0.3986
  612TMC3    O2 9131   1.122   0.369  10.196 -0.3839 -0.5196  0.1087
  613MPD2     C 9132   0.354   1.831  16.827  0.4884  0.4793  0.0572
  613MPD2    C1 9133   0.297   1.928  16.744  0.8300 -0.4573 -0.2198
  613MPD2    C2 9134   0.211   1.880  16.647 -0.3492 -0.3105 -0.3372
  613MPD2    C3 9135   0.192   1.741  16.627  0.1804 -0.0616  0.0890
  613MPD2    C4 9136   0.238   1.647  16.717 -0.4434 -0.1613 -0.2358
  613MPD2    C5 9137   0.313   1.694  16.818 -0.5872 -0.6948  0.0104
  613MPD2     H 9138   0.167   1.954  16.581 -0.1807  0.3287  0.2651
  613MPD2    H1 9139   0.207   1.543  16.726  1.8571 -0.7820  0.5861
  613MPD2    H2 9140   0.406   1.865  16.916  1.1265  2.8083 -1.2119
  613MPD2    H3 9141   0.365   1.634  16.892 -0.6126 -1.7049 -0.7938
  613MPD2     N 9142   0.119   1.699  16.512 -0.5360  0.5118  0.7325
  613MPD2    H5 9143   0.103   1.600  16.499 -1.1755  0.8288 -0.9453
  613MPD2    N1 9144   0.341   2.063  16.755 -0.5162 -0.3161 -1.3368
  613MPD2    H7 9145   0.426   2.071  16.809 -0.1821  0.7023 -1.9896
  614TMC3    C1 9146   0.415   2.258  16.641 -0.1898 -0.0868 -0.5910
  614TMC3    C2 9147   0.498   2.190  16.552  0.2358  0.0724 -0.7388
  614TMC3    C3 9148   0.520   2.242  16.420  0.4664 -0.9806 -0.1643
  614TMC3    C4 9149   0.365   2.383  16.611 -0.6364  0.5701 -0.1665
  614TMC3    C5 9150   0.399   2.435  16.489  0.7082  0.4085  0.1499
  614TMC3    C6 9151   0.467   2.369  16.388 -0.1537  0.4100 -0.7215
  614TMC3     C 9152   0.307   2.166  16.673  0.0785  0.2927  0.3865
  614TMC3     O 9153   0.205   2.190  16.611  0.4335  0.3405 -0.2681
  614TMC3     H 9154   0.513   2.086  16.581 -2.5808 -0.5115 -1.3681
  614TMC3    H1 9155   0.301   2.436  16.680  2.6647  1.3363  2.3169
  614TMC3    H2 9156   0.499   2.420  16.298  1.5713 -2.4088 -1.7180
  614TMC3    C7 9157   0.349   2.568  16.468 -0.0837  0.2032 -0.1035
  614TMC3    C8 9158   0.504   2.141  16.319  0.3478  0.4624  0.1587
  614TMC3    O1 9159   0.334   2.639  16.565 -0.5768  0.3361  0.4994
  614TMC3    O2 9160   0.515   2.023  16.357 -0.1340 -0.3375 -0.2014
  615MPD2     C 9161   4.659   4.544  16.009  0.1385 -0.3710  0.3263
  615MPD2    C1 9162   4.649   4.674  16.054  0.2475 -0.3682 -0.3260
  615MPD2    C2 9163   4.603   0.032  15.959 -0.1345 -0.2158 -0.2292
  615MPD2    C3 9164   4.588   0.003  15.829 -0.6436  0.3623 -0.4507
  615MPD2    C4 9165   4.617   4.605  15.785 -0.2606 -0.3347 -0.0598
  615MPD2    C5 9166   4.650   4.513  15.878 -0.4507 -0.9406 -0.1935
  615MPD2     H 9167   4.602   0.135  15.993 -0.3738  0.1261 -1.2661
  615MPD2    H1 9168   4.603   4.587  15.679  1.3172 -0.8815 -0.1669
  615MPD2    H2 9169   4.695   4.463  16.070  1.5251  1.1395  1.4833
  615MPD2    H3 9170   4.664   4.411  15.842 -1.4991 -0.7492 -1.1448
  615MPD2     N 9171   4.566   0.103  15.735  0.2662 -0.2795 -0.0576
  615MPD2    H5 9172   4.568   0.083  15.636  0.4275 -3.2999  0.5422
  615MPD2    N1 9173   4.665   4.703  16.192  0.2177  0.6258 -0.4147
  615MPD2    H7 9174   4.636   0.061  16.218 -1.3618  0.0437 -0.0780
  616TMC3    C1 9175   0.022   4.731  16.392 -0.8797 -0.0598 -0.4648
  616TMC3    C2 9176   0.136   4.733  16.462 -0.1978  0.3081  0.2975
  616TMC3    C3 9177   0.143   0.085  16.570 -0.4785  0.2452  0.1591
  616TMC3    C4 9178   4.661   0.090  16.417  0.5153 -0.9593  0.6288
  616TMC3    C5 9179   4.672   0.172  16.527 -0.1660  0.1490  0.1744
  616TMC3    C6 9180   0.044   0.165  16.610  0.1748  0.5258  0.5418
  616TMC3     C 9181   0.005   4.636  16.287  0.7784  0.7399 -0.8421
  616TMC3     O 9182   0.093   4.552  16.283 -0.1108  0.3862  0.8711
  616TMC3     H 9183   0.215   4.663  16.438 -1.7995 -1.0923 -0.9310
  616TMC3    H1 9184   4.561   0.078  16.377 -0.4465  0.1118  2.7376
  616TMC3    H2 9185   0.051   0.207  16.710  0.6544  0.9382  0.3388
  616TMC3    C7 9186   4.563   0.254  16.574 -0.0700  0.4081 -0.1345
  616TMC3    C8 9187   0.258   0.075  16.659 -0.1517  0.5628  0.0129
  616TMC3    O1 9188   4.571   0.289  16.694 -0.4043  0.1437  0.2457
  616TMC3    O2 9189   0.250   0.127  16.772  0.3781  0.2485  0.3720
  617MPD2     C 9190   2.918   1.878  13.785  0.3839 -0.1801 -0.4536
  617MPD2    C1 9191   2.861   1.929  13.910  0.2112 -0.6857 -0.1715
  617MPD2    C2 9192   2.730   1.910  13.937 -0.0666 -0.6280 -0.9636
  617MPD2    C3 9193   2.648   1.852  13.835 -0.8100 -0.4782  0.4436
  617MPD2    C4 9194   2.703   1.807  13.715 -0.2318 -0.2919 -0.9720
  617MPD2    C5 9195   2.832   1.816  13.689  0.0935  0.9214 -0.8024
  617MPD2     H 9196   2.685   1.951  14.027 -0.0877  1.8881 -2.1192
  617MPD2    H1 9197   2.639   1.760  13.642 -1.7852 -0.3558  0.4217
  617MPD2    H2 9198   3.021   1.893  13.756 -0.0032 -0.0934 -1.7714
  617MPD2    H3 9199   2.876   1.799  13.591 -1.6936  1.8693 -1.7656
  617MPD2     N 9200   2.508   1.825  13.849 -0.2424 -0.7117 -0.2233
  617MPD2    H5 9201   2.461   1.792  13.766 -0.5112 -1.5535  0.2714
  617MPD2    N1 9202   2.953   2.002  13.988  0.1548  0.2661  0.2068
  617MPD2    H7 9203   3.039   2.015  13.936  2.2021 -1.0908  3.3001
  618TMC3    C1 9204   3.056   2.115  14.169  0.9157 -0.2453  0.3731
  618TMC3    C2 9205   3.098   2.047  14.281  0.0316 -0.3444  0.2261
  618TMC3    C3 9206   3.230   2.029  14.295  0.1083  0.2885 -0.1938
  618TMC3    C4 9207   3.146   2.156  14.071  0.3870  0.0631  0.2232
  618TMC3    C5 9208   3.273   2.128  14.084 -0.0412  0.3655 -0.0901
  618TMC3    C6 9209   3.324   2.064  14.198  0.0533  0.6262  0.3401
  618TMC3     C 9210   2.936   2.056  14.113  0.1700  0.5568  0.8498
  618TMC3     O 9211   2.834   2.037  14.176 -0.7033  0.3310  0.7594
  618TMC3     H 9212   3.022   2.005  14.346 -1.6385 -0.4330 -1.7794
  618TMC3    H1 9213   3.107   2.207  13.983 -1.4137  0.7022  1.3873
  618TMC3    H2 9214   3.429   2.039  14.206  0.6937  3.6118  1.5127
  618TMC3    C7 9215   3.304   2.043  13.974  0.2663  0.6424  0.0154
  618TMC3    C8 9216   3.279   1.943  14.399  0.7283  0.2511 -0.6464
  618TMC3    O1 9217   3.205   2.012  13.904  0.5443  0.3624  0.0592
  618TMC3    O2 9218   3.266   1.991  14.509  0.3170 -0.1295  0.0289
  619MPD2     C 9219   3.902   3.715  14.004  0.5751 -0.0226 -0.2631
  619MPD2    C1 9220   3.857   3.670  13.882  0.0792  0.5004 -0.3139
  619MPD2    C2 9221   3.814   3.542  13.867  0.2035 -0.1340  0.2740
  619MPD2    C3 9222   3.800   3.462  13.980  0.9712 -0.5386  0.0275
  619MPD2    C4 9223   3.836   3.506  14.105  0.4299 -0.2572  0.3755
  619MPD2    C5 9224   3.892   3.630  14.110 -0.5775 -0.0036  0.2266
  619MPD2     H 9225   3.780   3.508  13.770  2.3272  1.0582 -0.8782
  619MPD2    H1 9226   3.834   3.440  14.191  0.8081 -0.8457 -0.0627
  619MPD2    H2 9227   3.946   3.813  14.020 -1.3011  1.0711 -1.8678
  619MPD2    H3 9228   3.921   3.661  14.210 -0.1175 -0.4945  0.2466
  619MPD2     N 9229   3.740   3.336  13.977  0.4741  0.4123 -0.0280
  619MPD2    H5 9230   3.715   3.302  14.070 -1.6652 -0.7296 -1.0181
  619MPD2    N1 9231   3.850   3.764  13.771 -0.4246  0.2690  0.1962
  619MPD2    H7 9232   3.790   3.745  13.692 -1.1576  1.7219  0.4018
  620TMC3    C1 9233   3.851   3.973  13.661 -0.0648  0.0847 -0.3097
  620TMC3    C2 9234   3.792   3.906  13.560 -0.0588  0.0178  0.3308
  620TMC3    C3 9235   3.669   3.939  13.519 -0.1703  0.2864 -0.6602
  620TMC3    C4 9236   3.793   4.081  13.711 -0.8598  0.1822 -0.2740
  620TMC3    C5 9237   3.677   4.119  13.667 -0.1211  0.0546 -0.3955
  620TMC3    C6 9238   3.610   4.047  13.571 -0.3136  0.6477 -0.2990
  620TMC3     C 9239   3.921   3.885  13.764 -0.6786 -0.4312 -0.4467
  620TMC3     O 9240   3.985   3.946  13.847  0.7608  0.2140  0.7845
  620TMC3     H 9241   3.849   3.822  13.523  0.4584  0.6080 -0.2279
  620TMC3    H1 9242   3.843   4.127  13.796 -2.5483 -1.9872  1.9065
  620TMC3    H2 9243   3.510   4.074  13.539 -0.5220  0.6453  0.3449
  620TMC3    C7 9244   3.581   4.158  13.769  0.2785  1.1189 -0.5189
  620TMC3    C8 9245   3.592   3.818  13.563  0.1688 -0.0854 -0.1724
  620TMC3    O1 9246   3.466   4.118  13.751  0.1168 -0.4723 -0.3133
  620TMC3    O2 9247   3.630   3.716  13.509 -0.0018 -0.8051  0.2752
  621MPD2     C 9248   3.692   3.341  10.003 -1.0160  0.1334  0.0532
  621MPD2    C1 9249   3.762   3.436  10.066  0.1478 -0.3272  0.0484
  621MPD2    C2 9250   3.819   3.528   9.984 -0.5809  0.0089 -0.4313
  621MPD2    C3 9251   3.799   3.538   9.852 -0.4035 -0.4747  0.3662
  621MPD2    C4 9252   3.709   3.453   9.791  0.2469  0.2170  0.4481
  621MPD2    C5 9253   3.669   3.343   9.868  0.5996 -0.2530  0.3132
  621MPD2     H 9254   3.885   3.600  10.031  0.3265 -2.2233  1.6815
  621MPD2    H1 9255   3.676   3.457   9.688  1.3977  1.4900  0.1266
  621MPD2    H2 9256   3.650   3.258  10.059 -0.2012  0.7057  1.4857
  621MPD2    H3 9257   3.599   3.271   9.827 -0.6290  0.9513  0.2672
  621MPD2     N 9258   3.873   3.628   9.773 -0.1156 -0.3516  0.5402
  621MPD2    H5 9259   3.929   3.699   9.819 -1.8585  1.0937  0.3982
  621MPD2    N1 9260   3.798   3.432  10.202  0.1058 -0.1144  0.2526
  621MPD2    H7 9261   3.861   3.504  10.235  0.6370  0.5203 -2.1492
  622TMC3    C1 9262   3.810   3.354  10.418  0.4820 -0.1069 -0.4231
  622TMC3    C2 9263   3.825   3.481  10.470 -1.0741  0.6360 -0.2220
  622TMC3    C3 9264   3.905   3.485  10.586  1.1504 -0.2106 -0.2688
  622TMC3    C4 9265   3.837   3.237  10.480  0.0261  0.3677  0.6056
  622TMC3    C5 9266   3.899   3.246  10.602 -0.1615 -0.5318 -0.7087
  622TMC3    C6 9267   3.933   3.368  10.644 -0.3536  0.2474  0.1508
  622TMC3     C 9268   3.750   3.340  10.288  0.3152  0.1770  0.0577
  622TMC3     O 9269   3.689   3.233  10.269  0.7363 -0.5861 -0.0105
  622TMC3     H 9270   3.804   3.574  10.418  1.5311 -0.0035 -2.4644
  622TMC3    H1 9271   3.828   3.148  10.420  1.0772  0.4936  0.2554
  622TMC3    H2 9272   4.003   3.374  10.727 -0.8281  1.1072  0.4881
  622TMC3    C7 9273   3.961   3.133  10.660 -0.6224 -0.3531  0.1802
  622TMC3    C8 9274   3.868   3.585  10.684 -0.5503 -1.1659  0.8274
  622TMC3    O1 9275   4.046   3.152  10.745 -0.1585  0.1908 -0.0455
  622TMC3    O2 9276   3.900   3.565  10.800 -0.3135  0.0450  0.2878
  623MPD2     C 9277   3.167   4.514  15.451  0.3780  0.0007 -0.5666
  623MPD2    C1 9278   3.085   4.476  15.554 -0.3804  0.4260 -0.2569
  623MPD2    C2 9279   3.118   4.511  15.683  0.0304 -0.0605 -0.0622
  623MPD2    C3 9280   3.230   4.591  15.710  0.3069 -0.1080  0.1435
  623MPD2    C4 9281   3.300   4.644  15.605  0.5834  0.0781  0.9385
  623MPD2    C5 9282   3.274   4.600  15.477  0.0744  0.4335  0.1175
  623MPD2     H 9283   3.051   4.476  15.760 -1.1602  0.3101 -0.9402
  623MPD2    H1 9284   3.385   4.708  15.622  0.4102  1.1232 -2.1079
  623MPD2    H2 9285   3.145   4.494  15.347  0.4533 -1.3277 -0.3304
  623MPD2    H3 9286   3.338   4.633  15.396  2.1909 -1.8829  0.8475
  623MPD2     N 9287   3.266   4.604  15.849  0.9022 -0.5681 -0.5469
  623MPD2    H5 9288   3.199   4.551  15.904  0.4890  1.1320  0.5705
  623MPD2    N1 9289   2.977   4.387  15.538  0.6674 -0.2452 -0.1924
  623MPD2    H7 9290   2.938   4.342  15.621 -0.6026  3.2135  1.0714
  624TMC3    C1 9291   3.501   4.671  16.240  0.2051  0.3324 -0.0282
  624TMC3    C2 9292   3.386   4.650  16.315  0.0198 -0.3455 -0.1327
  624TMC3    C3 9293   3.278   4.611  16.241 -0.2304 -0.1144  0.2732
  624TMC3    C4 9294   3.499   4.670  16.108  0.9230  0.4813  0.2890
  624TMC3    C5 9295   3.381   4.661  16.042  0.3427  0.6395 -0.1882
  624TMC3    C6 9296   3.269   4.623  16.108 -0.4078  0.2377  0.5185
  624TMC3     C 9297   3.626   4.632  16.301  0.1955 -0.4971  0.2096
  624TMC3     O 9298   3.627   4.646  16.421  0.5523 -0.4070  0.0772
  624TMC3     H 9299   3.396   4.622  16.419 -0.5694 -0.4800 -0.1159
  624TMC3    H1 9300   3.583   4.699  16.046  0.2793 -2.8573 -2.1290
  624TMC3    H2 9301   3.168   4.619  16.069 -0.7727 -0.7481  1.6081
  624TMC3    C7 9302   3.374   4.670  15.898  0.2513 -1.0926  0.1397
  624TMC3    C8 9303   3.173   4.540  16.312  0.3814  0.1989  0.2724
  624TMC3    O1 9304   3.459   0.010  15.850 -0.7457 -0.5511 -0.3199
  624TMC3    O2 9305   3.115   4.455  16.250  0.0337  0.3138 -0.6371
  625MPD2     C 9306   3.475   1.033   0.878 -0.2324  0.2775  0.4880
  625MPD2    C1 9307   3.535   1.134   0.811  0.3218  0.0390  0.5539
  625MPD2    C2 9308   3.673   1.151   0.817  0.6597  0.7138  0.0038
  625MPD2    C3 9309   3.753   1.042   0.862  0.4025 -0.3478  0.8852
  625MPD2    C4 9310   3.690   0.943   0.938  0.4715  0.2200 -0.2657
  625MPD2    C5 9311   3.556   0.938   0.937  0.1762  0.4378 -0.3976
  625MPD2     H 9312   3.713   1.229   0.753  0.7349  0.3311 -0.4080
  625MPD2    H1 9313   3.740   0.864   0.992  0.0213 -0.8059 -1.3393
  625MPD2    H2 9314   3.368   1.015   0.877 -0.1278 -0.3687  1.0790
  625MPD2    H3 9315   3.510   0.850   0.982  0.4356 -0.0732 -1.1225
  625MPD2     N 9316   3.889   1.045   0.846  0.6114 -0.1818  0.8556
  625MPD2    H5 9317   3.923   1.129   0.800 -0.5065 -1.5244 -2.4326
  625MPD2    N1 9318   3.456   1.224   0.730  0.5023  0.3389 -0.0326
  625MPD2    H7 9319   3.495   1.311   0.695 -1.3752 -0.9883 -5.4880
  626TMC3    C1 9320   3.260   1.298   0.607  0.2085  0.2054 -0.3216
  626TMC3    C2 9321   3.214   1.262   0.484  0.1806  1.0896 -0.3723
  626TMC3    C3 9322   3.087   1.284   0.446 -0.5600  0.7156 -0.2854
  626TMC3    C4 9323   3.171   1.366   0.683  0.0539 -0.0837  0.1658
  626TMC3    C5 9324   3.043   1.394   0.645 -0.4148  0.5060 -0.0962
  626TMC3    C6 9325   2.996   1.349   0.525  0.0163 -0.1287  0.5992
  626TMC3     C 9326   3.329   1.189   0.681 -0.5599 -0.1093 -0.4449
  626TMC3     O 9327   3.279   1.077   0.674  0.3476  0.8148 -0.3771
  626TMC3     H 9328   3.275   1.207   0.414 -2.2485 -0.2153 -1.4622
  626TMC3    H1 9329   3.207   1.406   0.777  3.5402 -3.7554  0.3622
  626TMC3    H2 9330   2.895   1.377   0.495  0.0154 -0.7866 -0.0086
  626TMC3    C7 9331   2.948   1.426   0.748  0.3505 -0.1387 -0.6739
  626TMC3    C8 9332   3.046   1.264   0.304  0.7380 -0.2458 -0.5530
  626TMC3    O1 9333   2.993   1.450   0.860  0.6665 -0.0482 -0.2686
  626TMC3    O2 9334   3.138   1.274   0.225  0.3571 -0.1657 -0.2841
  627MPD2     C 9335   1.938   0.789  14.196  0.3188 -0.0884  0.4121
  627MPD2    C1 9336   1.996   0.744  14.314 -0.4446 -0.1724 -0.0388
  627MPD2    C2 9337   1.995   0.610  14.339 -0.3324 -0.0446  0.2164
  627MPD2    C3 9338   1.955   0.516  14.247  0.6381 -0.5603 -0.4788
  627MPD2    C4 9339   1.900   0.561  14.130 -0.0325  0.0154  0.1760
  627MPD2    C5 9340   1.901   0.696  14.102 -0.3102 -0.4096  0.2803
  627MPD2     H 9341   2.050   0.567  14.422  0.6188 -0.8051 -0.7963
  627MPD2    H1 9342   1.858   0.496  14.055  0.3062 -0.8695  0.7629
  627MPD2    H2 9343   1.943   0.891  14.161 -0.0415  0.0440  0.7490
  627MPD2    H3 9344   1.865   0.731  14.006  0.4849  0.5729  0.3371
  627MPD2     N 9345   1.958   0.378  14.287  0.2933 -0.0288 -0.2500
  627MPD2    H5 9346   1.976   0.352  14.383 -2.9132 -1.4257 -0.0361
  627MPD2    N1 9347   2.062   0.829  14.405  0.0768 -0.3077  0.2165
  627MPD2    H7 9348   2.108   0.782  14.483 -1.2077 -1.4022  0.3082
  628TMC3    C1 9349   2.077   1.003  14.555  0.1589 -0.1956  0.1673
  628TMC3    C2 9350   2.191   0.948  14.598  0.6260  0.0453  0.2695
  628TMC3    C3 9351   2.254   0.979  14.718 -0.6262  0.4915  0.2377
  628TMC3    C4 9352   2.015   1.096  14.628 -0.9408  0.3759 -0.4438
  628TMC3    C5 9353   2.077   1.142  14.739  0.4995 -0.4196  0.3883
  628TMC3    C6 9354   2.193   1.080  14.791 -0.0483 -0.6559 -0.3247
  628TMC3     C 9355   2.035   0.963  14.421  0.1434  0.5663  0.5042
  628TMC3     O 9356   1.979   1.044  14.353  0.2648 -0.1623  0.3670
  628TMC3     H 9357   2.256   0.896  14.528  0.8849 -0.5924  0.9823
  628TMC3    H1 9358   1.935   1.151  14.580 -2.5780 -0.7454  1.0245
  628TMC3    H2 9359   2.250   1.139  14.862 -0.1301 -0.9384 -0.0250
  628TMC3    C7 9360   2.089   1.278  14.755  0.3040  0.7808 -0.6881
  628TMC3    C8 9361   2.393   1.001  14.683 -0.0446 -0.5285 -0.1541
  628TMC3    O1 9362   2.128   1.321  14.861  0.1666 -0.6538 -0.3685
  628TMC3    O2 9363   2.406   1.066  14.584  0.4404 -0.7849 -0.1509
  629MPD2     C 9364   0.754   0.069  16.769 -0.3112 -0.1648 -0.2231
  629MPD2    C1 9365   0.744   0.065  16.629  0.6698 -0.7087 -0.3087
  629MPD2    C2 9366   0.616   0.052  16.573  0.3957 -0.6365 -0.6544
  629MPD2    C3 9367   0.506   0.038  16.654  0.9328  0.0672 -0.4706
  629MPD2    C4 9368   0.520   0.039  16.787 -0.4946  0.7657 -0.0101
  629MPD2    C5 9369   0.648   0.044  16.845  0.2861  0.5492  0.3526
  629MPD2     H 9370   0.608   0.066  16.465  0.7525  1.0391 -0.4681
  629MPD2    H1 9371   0.439   0.046  16.859 -0.6747 -1.4756  0.0070
  629MPD2    H2 9372   0.851   0.061  16.817  0.0627 -0.2182 -0.9881
  629MPD2    H3 9373   0.652   0.061  16.952 -0.7349 -0.1174  0.4936
  629MPD2     N 9374   0.377   0.052  16.590 -0.3039  0.0052 -0.3414
  629MPD2    H5 9375   0.370   0.050  16.488 -0.7666 -0.1312 -0.3058
  629MPD2    N1 9376   0.865   0.076  16.550 -0.2357  0.5553  0.1446
  629MPD2    H7 9377   0.953   0.080  16.601  0.2568  2.5217 -0.8505
  630TMC3    C1 9378   0.997   0.088  16.361  0.7817 -0.1976  0.1535
  630TMC3    C2 9379   1.059   0.186  16.286 -0.1722 -0.7242  0.1207
  630TMC3    C3 9380   1.190   0.167  16.257  0.3778 -1.1323 -0.0191
  630TMC3    C4 9381   1.062   4.714  16.405 -0.1410  0.9763  0.7321
  630TMC3    C5 9382   1.198   4.718  16.404 -0.4573 -0.2553 -0.0938
  630TMC3    C6 9383   1.260   0.062  16.309 -0.6258  0.2287  0.5005
  630TMC3     C 9384   0.866   0.107  16.415  0.3665  0.1722 -0.3568
  630TMC3     O 9385   0.787   0.165  16.343  0.4844 -0.5488  0.3092
  630TMC3     H 9386   1.008   0.277  16.256  2.5688  0.6106 -0.5266
  630TMC3    H1 9387   1.017   4.649  16.480 -1.1307 -0.6029 -1.2541
  630TMC3    H2 9388   1.366   0.043  16.293 -0.8470 -0.2306 -0.4178
  630TMC3    C7 9389   1.270   4.668  16.521 -0.2364  0.5576  1.2120
  630TMC3    C8 9390   1.264   0.286  16.281 -0.2214 -0.4602  0.2262
  630TMC3    O1 9391   1.219   4.579  16.587  0.0523  0.1783  0.3476
  630TMC3    O2 9392   1.366   0.276  16.350  0.0243 -0.4347  0.0559
  631MPD2     C 9393   4.079   4.678  15.402  0.3647 -0.7606 -0.3915
  631MPD2    C1 9394   4.078   4.722  15.272 -0.1297 -0.5507  0.5471
  631MPD2    C2 9395   4.192   0.034  15.209 -0.0699 -0.8193  0.6982
  631MPD2    C3 9396   4.302   0.056  15.283  1.0061 -1.0124  0.1845
  631MPD2    C4 9397   4.311   0.014  15.416 -0.0764 -0.0238  0.2253
  631MPD2    C5 9398   4.199   4.690  15.470 -0.2279 -0.6811 -0.8928
  631MPD2     H 9399   4.188   0.074  15.108 -0.2647  2.4984  2.0123
  631MPD2    H1 9400   4.401   0.009  15.475  1.0554  0.7671 -1.4360
  631MPD2    H2 9401   3.989   4.636  15.445  0.6292  1.0964  1.9893
  631MPD2    H3 9402   4.203   4.658  15.573 -0.6241 -0.3276 -0.7681
  631MPD2     N 9403   4.400   0.136  15.226  0.4412  0.7268 -0.3898
  631MPD2    H5 9404   4.425   0.134  15.128  2.1943 -3.0756  0.1307
  631MPD2    N1 9405   3.948   4.720  15.206 -0.0676 -0.2855  0.0505
  631MPD2    H7 9406   3.864   4.691  15.256  0.9236 -0.2296  1.7575
  632TMC3    C1 9407   3.781   0.017  15.043  0.0260 -0.0311 -0.3397
  632TMC3    C2 9408   3.693   0.074  15.130 -0.4750 -0.4984  0.5413
  632TMC3    C3 9409   3.577   0.121  15.085  0.5886  0.4895  0.1849
  632TMC3    C4 9410   3.752   0.022  14.908 -0.1545 -0.1108 -0.0452
  632TMC3    C5 9411   3.626   0.065  14.866  0.5066 -0.1158 -0.0385
  632TMC3    C6 9412   3.536   0.119  14.951 -0.3469 -0.3366 -0.0218
  632TMC3     C 9413   3.924   0.030  15.078  0.0309  0.6087  0.1137
  632TMC3     O 9414   4.003   0.049  14.988  0.6305  0.0503  0.3962
  632TMC3     H 9415   3.715   0.078  15.236 -3.4473 -0.1125  1.1316
  632TMC3    H1 9416   3.820   4.716  14.835  0.9863  1.2203  0.2681
  632TMC3    H2 9417   3.442   0.161  14.918 -0.4427 -1.4441 -1.1504
  632TMC3    C7 9418   3.594   0.041  14.726  0.0906 -0.4285  0.6728
  632TMC3    C8 9419   3.470   0.170  15.179 -0.5981  0.1804 -0.3967
  632TMC3    O1 9420   3.689   0.027  14.654 -0.0665  0.5537 -0.1985
  632TMC3    O2 9421   3.351   0.154  15.143  0.0306  1.0535 -0.0042
  633MPD2     C 9422   3.111   2.408  17.300 -0.6030 -0.7344 -0.0396
  633MPD2    C1 9423   3.181   2.355  17.197  0.1145  0.3366 -0.6668
  633MPD2    C2 9424   3.206   2.215  17.199 -0.3559 -0.9876 -0.5866
  633MPD2    C3 9425   3.163   2.136  17.304  0.5164 -0.0726 -0.0026
  633MPD2    C4 9426   3.103   2.195  17.410  0.1735 -0.5796 -0.0258
  633MPD2    C5 9427   3.086   2.331  17.407  0.6617  0.0024 -0.0895
  633MPD2     H 9428   3.264   2.176  17.117 -0.8473  2.4486 -2.5804
  633MPD2    H1 9429   3.080   2.143  17.502 -2.3201  1.2637  0.4079
  633MPD2    H2 9430   3.081   2.510  17.316  2.0682 -0.3738  2.6424
  633MPD2    H3 9431   3.048   2.380  17.496  0.4360 -1.5122  0.6586
  633MPD2     N 9432   3.189   1.999  17.299 -0.4150  0.2588 -0.5587
  633MPD2    H5 9433   3.179   1.944  17.384 -2.2128  0.5619 -0.5840
  633MPD2    N1 9434   3.210   2.425  17.078  0.4294 -0.2840 -0.3026
  633MPD2    H7 9435   3.253   2.367  17.007 -2.8682 -0.2993 -2.2806
  634TMC3    C1 9436   3.265   2.592  16.921 -0.0962  0.4135  0.1569
  634TMC3    C2 9437   3.309   2.489  16.836  0.1074 -0.3324 -0.4881
  634TMC3    C3 9438   3.373   2.523  16.724  0.0216  0.1757  0.0003
  634TMC3    C4 9439   3.262   2.726  16.882  0.0006 -0.6471 -0.3730
  634TMC3    C5 9440   3.328   2.754  16.772 -0.0446 -0.1462  0.0413
  634TMC3    C6 9441   3.388   2.658  16.695  0.5593  0.0369 -0.0598
  634TMC3     C 9442   3.208   2.558  17.057 -0.0699 -0.6446 -0.5618
  634TMC3     O 9443   3.170   2.646  17.138  0.6039  0.3532  0.2740
  634TMC3     H 9444   3.303   2.383  16.860  0.9783 -0.4238 -0.6666
  634TMC3    H1 9445   3.216   2.800  16.946  1.2470 -0.2497  0.0577
  634TMC3    H2 9446   3.439   2.695  16.607  1.1985 -2.7871 -0.8830
  634TMC3    C7 9447   3.308   2.883  16.708 -0.1441  0.0593 -0.7951
  634TMC3    C8 9448   3.399   2.423  16.624 -0.3929 -0.4103 -0.2163
  634TMC3    O1 9449   3.358   2.896  16.596  0.7057  1.0899 -0.2444
  634TMC3    O2 9450   3.382   2.302  16.649 -0.3940  0.1157  0.8742
  635TMC3    C1 9451   0.260   4.233   0.189  0.0636  0.6811  0.4072
  635TMC3    C2 9452   0.387   4.273   0.171  0.5187  0.7842  0.0089
  635TMC3    C3 9453   0.439   4.258   0.042 -0.0747  1.0221  0.2171
  635TMC3    C4 9454   0.179   4.177   0.094  0.3499  0.3142 -0.1427
  635TMC3    C5 9455   0.234   4.151  17.714 -0.2431  0.8854 -0.3507
  635TMC3    C6 9456   0.366   4.192  17.686 -0.2544 -0.5148 -0.6023
  635TMC3     C 9457   0.183   4.300   0.299 -0.2961  0.4392 -0.3168
  635TMC3     O 9458   0.069   4.262   0.321 -0.2900  0.4821  0.1944
  635TMC3     H 9459   0.459   4.306   0.245  1.0030 -1.1358  0.3923
  635TMC3    H1 9460   0.077   4.159   0.124  0.0292 -1.5503 -2.3556
  635TMC3    H2 9461   0.417   4.153  17.599 -1.5717 -1.5977 -0.8838
  635TMC3    C7 9462   0.168   4.082  17.602 -0.6156 -0.1076 -1.1646
  635TMC3    C8 9463   0.583   4.298   0.021  0.0575 -0.3865 -0.3442
  635TMC3    O1 9464   0.232   4.036  17.511  0.5350 -0.2303  0.0361
  635TMC3    O2 9465   0.649   4.327   0.119 -0.2780  0.3022  0.1409
  636MPD2     C 9466   4.626   2.376  15.900  0.4603 -0.1836 -0.4204
  636MPD2    C1 9467   4.641   2.365  16.037  0.0251 -0.4019 -0.1129
  636MPD2    C2 9468   4.643   2.238  16.092  0.1541  0.6432 -0.1266
  636MPD2    C3 9469   4.652   2.124  16.010 -0.0732 -0.1682  0.7299
  636MPD2    C4 9470   4.648   2.143  15.864 -0.3346  0.2703 -0.2569
  636MPD2    C5 9471   4.628   2.271  15.818  0.5819  0.5701 -0.8586
  636MPD2     H 9472   4.637   2.235  16.200  0.9819  1.2457 -0.0609
  636MPD2    H1 9473   4.656   2.068  15.786 -0.5524  0.2168 -0.2278
  636MPD2    H2 9474   4.620   2.474  15.853  0.7358  0.0144 -0.0387
  636MPD2    H3 9475   4.613   2.300  15.715 -0.9908  3.1307  0.1015
  636MPD2     N 9476   4.675   1.996  16.070 -0.0781 -0.8564  0.2247
  636MPD2    H5 9477   4.667   1.988  16.171 -1.1592  1.0896  0.3138
  636MPD2    N1 9478   4.628   2.480  16.124 -0.4919 -0.4790 -0.4579
  636MPD2    H7 9479   4.605   2.472  16.223  0.3200  0.6062 -0.1779
  637TMC3    C1 9480   4.713   1.770  16.080  0.2456 -0.0836 -0.3281
  637TMC3    C2 9481   4.689   1.790  16.213 -0.0467  0.1519 -0.4818
  637TMC3    C3 9482   0.025   1.710  16.299  0.5692 -0.2606  0.4237
  637TMC3    C4 9483   0.071   1.683  16.036 -0.3530 -0.0536  0.4545
  637TMC3    C5 9484   0.161   1.627  16.121  0.1054 -0.1416 -0.5037
  637TMC3    C6 9485   0.123   1.630  16.254  0.6072 -0.1295 -0.4005
  637TMC3     C 9486   4.698   1.882  15.993  0.7493 -0.0017 -0.0633
  637TMC3     O 9487   0.002   1.877  15.873 -0.0803 -0.0414  0.5298
  637TMC3     H 9488   4.617   1.857  16.257  0.1600 -1.4466  2.3249
  637TMC3    H1 9489   0.075   1.668  15.929  0.1143  0.4725  0.3922
  637TMC3    H2 9490   0.187   1.571  16.319  1.7607  0.7677 -0.7225
  637TMC3    C7 9491   0.288   1.713  16.108 -1.3250  0.2806  0.3345
  637TMC3    C8 9492   0.051   1.774  16.422  0.8148 -1.0554  0.1356
  637TMC3    O1 9493   0.363   1.732  16.201  0.4713  0.4884 -0.4524
  637TMC3    O2 9494   0.030   1.893  16.418  0.2452 -0.3765 -0.2277
  638MPD2     C 9495   4.407   1.755  14.642 -0.4799  0.0605 -0.0267
  638MPD2    C1 9496   4.378   1.638  14.583 -1.2412  0.5049 -0.2764
  638MPD2    C2 9497   4.350   1.530  14.661 -0.5937 -0.6707 -0.3055
  638MPD2    C3 9498   4.356   1.537  14.803 -0.4715  0.1846  0.0570
  638MPD2    C4 9499   4.398   1.657  14.860 -0.1292 -0.4220 -0.9463
  638MPD2    C5 9500   4.421   1.772  14.779 -0.1019  0.2224 -0.2936
  638MPD2     H 9501   4.336   1.434  14.613 -0.8237 -0.1772 -1.2240
  638MPD2    H1 9502   4.409   1.671  14.966  3.3371 -0.2340 -1.3377
  638MPD2    H2 9503   4.441   1.848  14.598  0.5577 -0.7564 -0.9521
  638MPD2    H3 9504   4.455   1.865  14.822  0.2786  0.8075 -1.8744
  638MPD2     N 9505   4.342   1.421  14.876 -0.0218 -0.3163  0.3171
  638MPD2    H5 9506   4.325   1.335  14.823  0.8029 -1.1130  1.3456
  638MPD2    N1 9507   4.382   1.620  14.442 -0.0531 -0.5830  0.2657
  638MPD2    H7 9508   4.378   1.522  14.416  1.2072 -0.5903  0.0868
  639TMC3    C1 9509   4.369   1.262  15.041  0.2737  0.3073  0.6260
  639TMC3    C2 9510   4.256   1.192  14.990  0.3658 -0.2881 -0.0937
  639TMC3    C3 9511   4.272   1.057  14.970  0.3381  0.4384  0.4651
  639TMC3    C4 9512   4.483   1.194  15.080  0.4553 -0.2092  0.0562
  639TMC3    C5 9513   4.483   1.058  15.068  0.8010 -0.5270 -0.3132
  639TMC3    C6 9514   4.385   0.983  15.010  0.4057 -0.1509 -0.3743
  639TMC3     C 9515   4.378   1.398  15.008 -0.2860  0.0396 -0.1105
  639TMC3     O 9516   4.435   1.473  15.083 -0.0084  0.1526  0.3754
  639TMC3     H 9517   4.166   1.245  14.961 -0.7804 -2.6490 -0.8048
  639TMC3    H1 9518   4.568   1.253  15.112  0.7610 -0.8479  0.4257
  639TMC3    H2 9519   4.387   0.875  15.013 -1.1650 -0.1957 -0.6663
  639TMC3    C7 9520   4.607   0.988  15.100  0.2027  0.0106  0.9627
  639TMC3    C8 9521   4.153   0.990  14.919 -0.1318  0.1635 -0.1751
  639TMC3    O1 9522   4.595   0.866  15.115  0.3686  0.5473 -0.1154
  639TMC3    O2 9523   4.051   1.039  14.967 -0.2473  0.1205  0.0301
  640MPD2     C 9524   0.269   4.464   9.763  0.5266  0.3676 -0.0500
  640MPD2    C1 9525   0.203   4.375   9.693  0.5544  0.1236 -0.4531
  640MPD2    C2 9526   0.089   4.420   9.617  0.5452 -0.0598 -0.2291
  640MPD2    C3 9527   0.061   4.554   9.616  0.2144 -0.7454 -0.2670
  640MPD2    C4 9528   0.136   4.645   9.692  0.2248 -0.3205  0.1177
  640MPD2    C5 9529   0.236   4.597   9.773 -0.1043  0.1863 -0.3181
  640MPD2     H 9530   0.033   4.350   9.556  1.0744  1.3425 -2.3316
  640MPD2    H1 9531   0.115   0.016   9.691  1.6919 -0.0374 -0.3998
  640MPD2    H2 9532   0.342   4.426   9.834 -1.0907 -3.1405 -0.2898
  640MPD2    H3 9533   0.291   4.666   9.837 -1.5690 -0.2252  1.3951
  640MPD2     N 9534   4.682   4.602   9.538  0.5556  0.6102 -0.0824
  640MPD2    H5 9535   4.679   4.704   9.535 -1.7592  0.5308 -0.1262
  640MPD2    N1 9536   0.238   4.240   9.704 -0.5990  0.1642  0.2863
  640MPD2    H7 9537   0.307   4.218   9.775 -0.0169  0.5557 -0.1576
  641TMC3    C1 9538   0.232   4.002   9.672 -0.0147 -0.0770 -0.1440
  641TMC3    C2 9539   0.220   3.904   9.580 -0.2193  0.1321 -0.2940
  641TMC3    C3 9540   0.299   3.790   9.604  0.5583 -0.2657  0.2296
  641TMC3    C4 9541   0.302   3.992   9.792 -0.0507  0.2224  0.7339
  641TMC3    C5 9542   0.376   3.873   9.807  0.8625  0.0500 -0.1271
  641TMC3    C6 9543   0.372   3.765   9.719  0.4043  0.1040 -0.5500
  641TMC3     C 9544   0.193   4.137   9.629  0.9275 -0.3166 -0.3261
  641TMC3     O 9545   0.113   4.138   9.536  0.2908  0.2762  0.3787
  641TMC3     H 9546   0.173   3.924   9.485 -1.5204  0.8977  0.5161
  641TMC3    H1 9547   0.301   4.075   9.862  0.8609 -1.5116  2.8160
  641TMC3    H2 9548   0.424   3.670   9.721 -0.9374 -0.6738 -2.4486
  641TMC3    C7 9549   0.474   3.869   9.905  0.0851 -0.4490 -0.5375
  641TMC3    C8 9550   0.243   3.686   9.526 -0.1057 -0.0870 -0.0472
  641TMC3    O1 9551   0.513   3.978   9.947 -0.1168 -0.1380  0.1912
  641TMC3    O2 9552   0.204   3.724   9.417  0.7215 -0.1834  0.0420
  642TMC3    C1 9553   0.899   0.892  12.213 -0.1831  0.2003  0.1787
  642TMC3    C2 9554   1.009   0.889  12.128  0.0295  0.1171 -0.7597
  642TMC3    C3 9555   0.997   0.835  12.006 -0.3936  1.1391  0.8918
  642TMC3    C4 9556   0.783   0.821  12.179 -0.5362  0.1412  0.9253
  642TMC3    C5 9557   0.783   0.756  12.062 -0.1012 -0.0073  0.1850
  642TMC3    C6 9558   0.884   0.754  11.976 -1.1766  0.1118  0.0410
  642TMC3     C 9559   0.911   0.956  12.341  0.1612 -0.3817  0.1421
  642TMC3     O 9560   1.024   0.967  12.389 -0.1797 -0.7873 -0.3264
  642TMC3     H 9561   1.091   0.950  12.163  1.5110 -2.2038 -0.2424
  642TMC3    H1 9562   0.693   0.819  12.240 -0.3581 -0.5317  1.1686
  642TMC3    H2 9563   0.885   0.691  11.887 -0.6729 -0.4353  0.4277
  642TMC3    C7 9564   0.692   0.630  12.057  0.7951  0.1885  0.1129
  642TMC3    C8 9565   1.106   0.821  11.912 -0.0623  0.2229  0.7176
  642TMC3    O1 9566   0.668   0.579  11.947 -0.2183  0.6060  0.3450
  642TMC3    O2 9567   1.088   0.804  11.793 -0.5356  0.7758  0.4080
  643TMC3    C1 9568   0.511   0.554   0.234 -0.7633  0.1041 -0.4633
  643TMC3    C2 9569   0.377   0.567   0.212 -0.2255  0.3863  0.0789
  643TMC3    C3 9570   0.316   0.492   0.116  0.6846  0.5897 -0.1412
  643TMC3    C4 9571   0.591   0.472   0.154  0.1040 -0.0308 -0.3391
  643TMC3    C5 9572   0.525   0.418   0.043 -0.3640  0.1385  0.3719
  643TMC3    C6 9573   0.393   0.428   0.025  0.2821  0.1327 -0.2209
  643TMC3     C 9574   0.567   0.640   0.333  1.1049 -0.4787  0.4195
  643TMC3     O 9575   0.499   0.736   0.368  0.2608  0.5931 -0.7389
  643TMC3     H 9576   0.325   0.652   0.257 -0.8042  0.8847 -1.5429
  643TMC3    H1 9577   0.697   0.481   0.172 -0.0325 -0.8898  0.9366
  643TMC3    H2 9578   0.345   0.416  17.669 -1.5715 -1.8078  0.9546
  643TMC3    C7 9579   0.610   0.436  17.669  0.0409  0.0272  0.6702
  643TMC3    C8 9580   0.199   0.544   0.048  0.2003 -0.5357 -0.0381
  643TMC3    O1 9581   0.689   0.523  17.660  0.2174 -0.1708 -0.1445
  643TMC3    O2 9582   0.127   0.463  17.734 -0.4729  0.0497 -0.2889
  644MPD2     C 9583   0.121   4.572   9.222  0.5580  0.8597 -0.1472
  644MPD2    C1 9584   0.175   4.447   9.199  0.2578  0.8196 -0.1263
  644MPD2    C2 9585   0.130   4.366   9.100 -0.1293 -0.0939  0.2750
  644MPD2    C3 9586   0.030   4.413   9.014 -0.1374  0.7284 -0.0603
  644MPD2    C4 9587   4.724   4.541   9.031  0.2844 -0.0955 -0.2035
  644MPD2    C5 9588   0.025   4.617   9.137  0.8303  0.3234 -0.0455
  644MPD2     H 9589   0.172   4.267   9.092  0.9893  0.3362  0.7485
  644MPD2    H1 9590   4.650   4.580   8.962  0.3097  1.8198  0.8690
  644MPD2    H2 9591   0.159   4.634   9.302 -2.1369  1.1718  0.8712
  644MPD2    H3 9592   4.722   4.718   9.145 -0.6348 -0.2194 -0.3548
  644MPD2     N 9593   4.722   4.315   8.920 -0.3746 -0.0715  0.0934
  644MPD2    H5 9594   0.042   4.231   8.916 -2.7423 -1.6020 -0.6575
  644MPD2    N1 9595   0.275   4.389   9.284 -0.2633  0.4687 -0.3866
  644MPD2    H7 9596   0.300   4.293   9.263  1.8161  0.8517  0.2619
  645TMC3    C1 9597   4.600   4.219   8.741  0.0934  0.1899 -0.4102
  645TMC3    C2 9598   4.530   4.240   8.622 -0.4593  0.0280  0.1347
  645TMC3    C3 9599   4.496   4.123   8.549 -0.0318  0.2223  0.5451
  645TMC3    C4 9600   4.651   4.093   8.777 -0.4190 -0.3328  0.5757
  645TMC3    C5 9601   4.638   3.989   8.684  0.4561 -0.1466  0.2914
  645TMC3    C6 9602   4.556   4.008   8.578 -0.9976 -0.5747  0.2039
  645TMC3     C 9603   4.617   4.330   8.830 -0.5655  0.1921 -0.3691
  645TMC3     O 9604   4.558   4.432   8.792 -0.0939 -0.3756  0.3117
  645TMC3     H 9605   4.487   4.337   8.601 -0.7152 -0.4545 -1.5728
  645TMC3    H1 9606   4.711   4.073   8.865  1.5771 -2.4784 -1.2492
  645TMC3    H2 9607   4.518   3.921   8.525  0.2806 -1.4226  0.7003
  645TMC3    C7 9608   4.678   3.852   8.710 -0.2074  0.4484 -0.8971
  645TMC3    C8 9609   4.371   4.127   8.473 -0.3394 -0.6353 -0.2349
  645TMC3    O1 9610   4.693   3.777   8.616  0.1904 -0.6188 -0.1997
  645TMC3    O2 9611   4.313   4.023   8.452  0.2703 -0.4998  0.3173
  646MPD2     C 9612   0.051   0.192  14.422 -0.1232 -0.1179 -0.0540
  646MPD2    C1 9613   4.673   0.156  14.486 -0.1435 -0.0317 -0.4394
  646MPD2    C2 9614   4.548   0.193  14.434 -0.0891  0.4040  0.2895
  646MPD2    C3 9615   4.543   0.263  14.310 -0.3342  0.4455  0.0747
  646MPD2    C4 9616   4.663   0.301  14.249 -0.1506  0.6812  0.0683
  646MPD2    C5 9617   0.044   0.260  14.302  0.3488 -0.1652  0.9003
  646MPD2     H 9618   4.456   0.166  14.486  1.6316 -1.4201  2.3627
  646MPD2    H1 9619   4.667   0.358  14.157 -0.5487  4.1509  2.2163
  646MPD2    H2 9620   0.148   0.172  14.465 -0.8444 -1.5217  0.9500
  646MPD2    H3 9621   0.130   0.298  14.248  0.4464  1.0919  1.9490
  646MPD2     N 9622   4.415   0.319  14.270 -0.3231  0.0979 -0.4210
  646MPD2    H5 9623   4.334   0.287  14.322  0.1196 -0.4159 -0.0477
  646MPD2    N1 9624   4.695   0.070  14.589 -0.5159 -0.1359 -0.0303
  646MPD2    H7 9625   0.056   0.066  14.621 -0.7630 -0.3772  0.6955
  647TMC3    C1 9626   4.654   4.657  14.762  0.4627  0.1491 -0.5470
  647TMC3    C2 9627   4.572   4.641  14.868 -0.0330 -0.5027  0.7912
  647TMC3    C3 9628   4.634   4.606  14.984  0.2940  0.4297  0.5410
  647TMC3    C4 9629   0.050   4.621  14.767 -0.5057  0.3846 -0.3695
  647TMC3    C5 9630   0.103   4.590  14.887  0.7727  0.0861 -0.7268
  647TMC3    C6 9631   0.032   4.598  15.003 -0.5529 -0.0689  0.4348
  647TMC3     C 9632   4.597   4.730  14.651 -0.0964  0.4402 -0.0713
  647TMC3     O 9633   4.471   4.724  14.645 -0.0152  0.6918 -0.0629
  647TMC3     H 9634   4.466   4.662  14.873  0.3563  1.7646 -0.3132
  647TMC3    H1 9635   0.096   4.600  14.671 -1.7922 -2.5638 -0.3435
  647TMC3    H2 9636   0.085   4.580  15.096 -0.6079 -2.1828  0.0593
  647TMC3    C7 9637   0.210   4.492  14.895  0.4299 -0.4196 -0.6062
  647TMC3    C8 9638   4.559   4.544  15.082 -0.0341 -0.3741 -0.3811
  647TMC3    O1 9639   0.201   4.405  14.982 -0.5135 -0.1424 -0.3098
  647TMC3    O2 9640   4.436   4.558  15.079  0.4059 -0.4988 -0.1625
  648TMC3    C1 9641   3.910   2.452  16.173  0.0738 -0.0417  0.1512
  648TMC3    C2 9642   3.991   2.347  16.144 -0.2535  0.4137  0.0200
  648TMC3    C3 9643   4.041   2.343  16.013 -0.1594 -0.6693  0.3534
  648TMC3    C4 9644   3.887   2.559  16.088 -0.6502 -0.4083  0.3735
  648TMC3    C5 9645   3.951   2.553  15.961 -0.3902 -0.2479 -0.1828
  648TMC3    C6 9646   4.021   2.440  15.917 -0.5569 -0.0276 -0.1431
  648TMC3     C 9647   3.871   2.471  16.310  0.9278  0.3161  1.0124
  648TMC3     O 9648   3.845   2.584  16.344 -0.2982 -0.6753 -0.1542
  648TMC3     H 9649   4.032   2.276  16.215 -0.6543 -1.0259 -1.1872
  648TMC3    H1 9650   3.817   2.636  16.118  0.7678 -0.0094  2.6037
  648TMC3    H2 9651   4.067   2.435  15.819  0.1631 -0.0696  0.1992
  648TMC3    C7 9652   3.922   2.655  15.859  0.5761 -0.1333 -0.2705
  648TMC3    C8 9653   4.130   2.227  15.991  0.1267 -0.1026 -0.3647
  648TMC3    O1 9654   3.976   2.644  15.745 -0.2592  0.5165 -0.4381
  648TMC3    O2 9655   4.183   2.166  16.084  0.1598  0.1318  0.5533
  649TMC3    C1 9656   3.051   3.146  12.996  0.2073  0.0745 -0.0429
  649TMC3    C2 9657   3.186   3.135  12.998  0.4482 -0.5709  0.1490
  649TMC3    C3 9658   3.247   3.060  13.092 -0.9392 -0.2255  0.1867
  649TMC3    C4 9659   2.971   3.076  13.079 -0.2758 -0.0065 -0.6538
  649TMC3    C5 9660   3.033   3.016  13.178  0.1701  1.1424  0.2401
  649TMC3    C6 9661   3.169   3.002  13.193 -0.1839 -0.0026 -0.2510
  649TMC3     C 9662   2.986   3.218  12.889 -0.1637 -0.2548  0.1541
  649TMC3     O 9663   2.877   3.262  12.907  0.3223  0.3124 -0.2284
  649TMC3     H 9664   3.245   3.187  12.924  1.3008 -0.6215  0.7905
  649TMC3    H1 9665   2.866   3.078  13.054  0.0023 -1.7113 -1.9833
  649TMC3    H2 9666   3.223   2.950  13.271  0.0711 -1.4854 -1.4185
  649TMC3    C7 9667   2.933   2.956  13.268 -0.2001  0.2216  0.1837
  649TMC3    C8 9668   3.391   3.031  13.087 -0.3062  0.0032  0.2333
  649TMC3    O1 9669   2.821   3.000  13.280  0.0951  0.2560 -0.0710
  649TMC3    O2 9670   3.419   2.930  13.150  0.2821 -0.2784 -0.2368
  650TMC3    C1 9671   0.307   0.151  12.616  0.0163  0.4501  0.2419
  650TMC3    C2 9672   0.261   0.274  12.648  0.2335 -0.2268 -0.2242
  650TMC3    C3 9673   0.129   0.303  12.622 -0.2244 -0.0099 -0.0024
  650TMC3    C4 9674   0.246   0.060  12.539 -0.5429 -0.3709  1.3473
  650TMC3    C5 9675   0.129   0.097  12.488 -0.3606  0.4267  0.2031
  650TMC3    C6 9676   0.059   0.210  12.539 -0.7239 -0.2991  0.1724
  650TMC3     C 9677   0.414   0.110  12.709 -0.5812  0.3644  0.0334
  650TMC3     O 9678   0.501   0.186  12.751  0.3092  0.3634 -0.4720
  650TMC3     H 9679   0.316   0.328  12.724 -1.1376  0.1204  0.5157
  650TMC3    H1 9680   0.294   4.708  12.497  0.6155  0.4521  0.9645
  650TMC3    H2 9681   4.695   0.231  12.502 -0.2100  0.3877 -0.7922
  650TMC3    C7 9682   0.054   0.004  12.416  0.3182  0.7713  0.5224
  650TMC3    C8 9683   0.092   0.434  12.653  0.1105  0.3077 -0.3628
  650TMC3    O1 9684   0.084   4.619  12.416 -0.1309 -0.2097  0.6969
  650TMC3    O2 9685   0.186   0.504  12.688  0.4605  0.0593  0.8756
  651MPD2     C 9686   3.967   1.566  10.640  0.6743 -0.9438  0.6857
  651MPD2    C1 9687   3.918   1.689  10.603  0.5827  0.4788 -0.1815
  651MPD2    C2 9688   4.003   1.783  10.560 -0.5985  0.4147  0.3116
  651MPD2    C3 9689   4.135   1.766  10.543 -0.1134 -0.4227 -0.0973
  651MPD2    C4 9690   4.186   1.642  10.577  0.0448 -0.5305 -0.2017
  651MPD2    C5 9691   4.101   1.542  10.616 -0.3557  0.6318 -0.2937
  651MPD2     H 9692   3.967   1.884  10.542 -0.6476  0.6369  1.6562
  651MPD2    H1 9693   4.292   1.624  10.582  0.1578  0.3371  0.4104
  651MPD2    H2 9694   3.904   1.486  10.678 -0.5618 -1.2208 -1.9696
  651MPD2    H3 9695   4.148   1.451  10.652  0.1199  0.8974 -0.2479
  651MPD2     N 9696   4.206   1.877  10.498 -0.4826 -0.3495 -0.5581
  651MPD2    H5 9697   4.155   1.965  10.494  1.9483  1.0868 -0.3021
  651MPD2    N1 9698   3.779   1.725  10.620 -0.4771 -0.7006 -0.3409
  651MPD2    H7 9699   3.758   1.821  10.595  0.0581 -0.5088 -0.0543
  652TMC3    C1 9700   4.458   2.226  10.638 -0.5017  0.4746 -0.7343
  652TMC3    C2 9701   4.450   2.084  10.616 -0.0629 -0.3527  0.7180
  652TMC3    C3 9702   4.370   2.033  10.514  0.2809  0.0836  0.3024
  652TMC3    C4 9703   4.392   2.305  10.551 -0.7648  0.6193 -0.1220
  652TMC3    C5 9704   4.322   2.253  10.446 -0.5332 -0.2409  0.0369
  652TMC3    C6 9705   4.304   2.119  10.430  0.0927 -0.5534  1.0770
  652TMC3     C 9706   4.585   2.269  10.697 -0.1234  0.4406  0.2294
  652TMC3     O 9707   4.643   2.175  10.746  0.2446  0.5677  0.0365
  652TMC3     H 9708   4.480   2.014  10.694 -1.7232 -2.0590 -0.1896
  652TMC3    H1 9709   4.413   2.411  10.557 -1.6355  0.7309  1.1591
  652TMC3    H2 9710   4.255   2.073  10.345 -0.9460  0.9081  0.8766
  652TMC3    C7 9711   4.238   2.341  10.370 -0.7565  0.6037  0.1111
  652TMC3    C8 9712   4.346   1.893  10.494  0.1681 -0.5822  0.8017
  652TMC3    O1 9713   4.135   2.302  10.322 -0.6384  0.2869 -0.0501
  652TMC3    O2 9714   4.429   1.810  10.516 -0.3455 -0.8810  0.3770
  653MPD2     C 9715   2.879   2.720  17.665  0.1529  0.9764 -0.5932
  653MPD2    C1 9716   2.852   2.822  17.571  0.1327 -0.8280  0.5148
  653MPD2    C2 9717   2.811   2.777  17.443 -0.4643  0.0329  0.9051
  653MPD2    C3 9718   2.798   2.646  17.407  0.3146 -0.2022 -0.0909
  653MPD2    C4 9719   2.833   2.549  17.501 -0.5905  0.6071  0.3665
  653MPD2    C5 9720   2.876   2.591  17.619 -0.0769  0.6169 -0.5509
  653MPD2     H 9721   2.786   2.852  17.369  1.3041  0.1824  0.4720
  653MPD2    H1 9722   2.834   2.443  17.478  2.2105  0.7944 -0.4071
  653MPD2    H2 9723   2.912   2.732   0.027  0.2589  1.3326 -0.6708
  653MPD2    H3 9724   2.914   2.522  17.694  2.3514  2.0370 -0.4720
  653MPD2     N 9725   2.757   2.614  17.270  0.4601  0.4302  0.4125
  653MPD2    H5 9726   2.757   2.697  17.212 -0.5689  0.4563  0.4521
  653MPD2    N1 9727   2.871   2.958  17.596  0.6842 -0.3902 -0.3170
  653MPD2    H7 9728   2.843   3.027  17.526 -0.1022 -0.3246  0.0625
  654TMC3    C1 9729   2.704   2.480  17.073  0.0731  0.6044 -0.2738
  654TMC3    C2 9730   2.625   2.579  17.019  0.0294  0.2412 -0.5584
  654TMC3    C3 9731   2.579   2.565  16.890 -0.2152 -0.0626  0.2118
  654TMC3    C4 9732   2.744   2.370  17.002  0.4905  0.0985 -0.1138
  654TMC3    C5 9733   2.708   2.367  16.866 -0.3414 -0.5417  0.1150
  654TMC3    C6 9734   2.635   2.471  16.803 -0.1907 -0.4081 -0.1936
  654TMC3     C 9735   2.740   2.486  17.215 -0.2246  0.0466  1.0161
  654TMC3     O 9736   2.760   2.378  17.266 -0.0819 -0.0781  0.0801
  654TMC3     H 9737   2.581   2.647  17.092 -1.5967 -3.1190  1.5619
  654TMC3    H1 9738   2.810   2.300  17.052 -0.3222 -0.4049  0.2519
  654TMC3    H2 9739   2.613   2.479  16.697  0.0453  1.6519 -0.0829
  654TMC3    C7 9740   2.650   2.237  16.812 -0.8975  0.2429  0.4585
  654TMC3    C8 9741   2.435   2.585  16.877 -0.4160  0.2222 -0.0226
  654TMC3    O1 9742   2.564   2.253  16.726 -0.7304  0.4583 -0.5188
  654TMC3    O2 9743   2.385   2.676  16.945 -0.3306  0.2952  0.8167
  655MPD2     C 9744   4.349   2.488  15.724 -0.4021 -0.2582 -0.3190
  655MPD2    C1 9745   4.326   2.605  15.667 -0.3987  0.3881  0.5221
  655MPD2    C2 9746   4.325   2.615  15.531 -0.7272 -0.0902  0.2031
  655MPD2    C3 9747   4.364   2.508  15.449 -0.2974  0.7264  0.5603
  655MPD2    C4 9748   4.378   2.384  15.512 -0.3651  0.5257  0.1971
  655MPD2    C5 9749   4.374   2.376  15.649  0.5627 -0.4953 -0.5557
  655MPD2     H 9750   4.319   2.711  15.481 -1.0731 -0.0465  0.3338
  655MPD2    H1 9751   4.387   2.292  15.456 -1.3497  0.6248 -0.1174
  655MPD2    H2 9752   4.346   2.466  15.831 -0.2047  0.7317 -0.1104
  655MPD2    H3 9753   4.387   2.282  15.702 -0.8859 -0.7370 -0.6339
  655MPD2     N 9754   4.371   2.518  15.310 -0.4788  0.1646  0.3462
  655MPD2    H5 9755   4.403   2.440  15.254 -1.1688  1.2688 -1.6338
  655MPD2    N1 9756   4.303   2.726  15.746 -0.0342 -0.1419  0.0524
  655MPD2    H7 9757   4.279   2.806  15.689  0.3295  0.3930  0.6551
  656TMC3    C1 9758   4.255   2.860  15.930  0.0092  0.2328  0.0293
  656TMC3    C2 9759   4.183   2.870  16.043  0.5145  1.3715  0.9493
  656TMC3    C3 9760   4.126   2.982  16.069  0.0328 -0.1461  0.4048
  656TMC3    C4 9761   4.284   2.966  15.857  0.1277 -0.2043  0.4262
  656TMC3    C5 9762   4.220   3.091  15.888 -0.0261  0.3291  0.5863
  656TMC3    C6 9763   4.140   3.096  15.995 -0.3624 -0.8270  0.2173
  656TMC3     C 9764   4.292   2.732  15.883 -0.7343 -0.0691 -0.1405
  656TMC3     O 9765   4.272   2.643  15.965 -0.0653 -0.5095 -0.8606
  656TMC3     H 9766   4.169   2.782  16.105 -0.2709 -0.3806 -1.6937
  656TMC3    H1 9767   4.361   2.964  15.781  0.3605  1.0198  0.6370
  656TMC3    H2 9768   4.103   3.194  16.023 -2.0240 -0.8026 -2.0178
  656TMC3    C7 9769   4.234   3.195  15.792  0.7633 -0.0588  0.3410
  656TMC3    C8 9770   4.017   2.970  16.165 -1.1301  0.1901 -0.2385
  656TMC3    O1 9771   4.334   3.199  15.722  0.2914 -0.8263 -0.1326
  656TMC3    O2 9772   3.966   2.860  16.186 -0.0089 -0.0861 -0.3405
  657TMC3    C1 9773   3.135   1.668  15.106  0.2773 -0.6132  0.1161
  657TMC3    C2 9774   3.191   1.761  15.185 -0.4098  0.3043  0.3540
  657TMC3    C3 9775   3.184   1.893  15.137  0.0951  0.3421 -0.2517
  657TMC3    C4 9776   3.068   1.697  14.990  0.5666 -0.4638 -0.0908
  657TMC3    C5 9777   3.057   1.830  14.952  0.1363  0.1630  0.4496
  657TMC3    C6 9778   3.120   1.927  15.021 -0.0706 -0.5376 -0.1389
  657TMC3     C 9779   3.155   1.523  15.122 -0.0417 -0.4537 -0.4640
  657TMC3     O 9780   3.081   1.447  15.063 -0.1957 -0.2593 -0.3091
  657TMC3     H 9781   3.252   1.735  15.271  0.1070  2.8546  0.7615
  657TMC3    H1 9782   3.043   1.625  14.912 -0.5987  2.4159 -2.3641
  657TMC3    H2 9783   3.101   2.032  15.001 -0.4658 -1.0750 -2.5998
  657TMC3    C7 9784   2.979   1.862  14.827 -0.0603  0.0722  0.4546
  657TMC3    C8 9785   3.208   2.003  15.234  0.5723 -0.1141  0.4782
  657TMC3    O1 9786   2.899   1.784  14.780 -0.0729  0.3919  0.3585
  657TMC3    O2 9787   3.212   2.113  15.178 -0.3154 -0.3342  0.1256
  658MPD2     C 9788   4.393   3.157  14.795 -0.4463  0.4735 -0.0703
  658MPD2    C1 9789   4.393   3.028  14.747  0.4393 -0.0201 -0.2330
  658MPD2    C2 9790   4.442   3.005  14.615  0.0290 -0.0207  0.3425
  658MPD2    C3 9791   4.471   3.103  14.524 -0.1859 -0.7355  0.5937
  658MPD2    C4 9792   4.473   3.227  14.577  0.5774  0.3558 -1.0823
  658MPD2    C5 9793   4.439   3.256  14.706 -1.4356 -0.2105 -0.4159
  658MPD2     H 9794   4.468   2.904  14.588  2.6248  1.1240 -1.3554
  658MPD2    H1 9795   4.485   3.316  14.515 -1.4055  0.4876 -1.2964
  658MPD2    H2 9796   4.368   3.188  14.896 -0.1435  0.6236 -0.0422
  658MPD2    H3 9797   4.435   3.360  14.738  0.3634 -0.1002 -0.5492
  658MPD2     N 9798   4.489   3.063  14.392 -0.0609 -0.2796 -0.0001
  658MPD2    H5 9799   4.482   2.965  14.366  1.4154  0.0323 -1.5612
  658MPD2    N1 9800   4.354   2.925  14.828 -0.2972 -0.1874 -0.1507
  658MPD2    H7 9801   4.335   2.943  14.926 -0.9972  1.0314 -0.5216
  659TMC3    C1 9802   4.290   2.703  14.881 -0.3521  0.6189  0.4567
  659TMC3    C2 9803   4.351   2.713  15.006 -0.0701  0.1117 -1.0414
  659TMC3    C3 9804   4.354   2.600  15.087  0.0654 -0.0321 -0.0913
  659TMC3    C4 9805   4.248   2.582  14.828 -0.7557 -0.1869 -0.0208
  659TMC3    C5 9806   4.260   2.477  14.914  1.0187  0.1632  0.3905
  659TMC3    C6 9807   4.307   2.479  15.045 -0.8624 -0.5296 -0.2849
  659TMC3     C 9808   4.326   2.796  14.784  0.7785  0.4849  0.0361
  659TMC3     O 9809   4.320   2.763  14.667  0.0983 -1.1459 -0.4755
  659TMC3     H 9810   4.393   2.806  15.042  1.0446  0.2718 -2.7799
  659TMC3    H1 9811   4.191   2.571  14.736 -1.1699  0.8627  0.1136
  659TMC3    H2 9812   4.304   2.390  15.107  0.9197 -2.0023 -2.3040
  659TMC3    C7 9813   4.170   2.370  14.886  0.2837  0.3496  1.1494
  659TMC3    C8 9814   4.361   2.631  15.230 -0.8242 -0.4839 -0.5090
  659TMC3    O1 9815   4.059   2.406  14.858  0.1482 -0.1214 -0.3378
  659TMC3    O2 9816   4.348   2.749  15.253  0.2356  0.1894 -0.1346
  660MPD2     C 9817   2.100   0.707  12.448 -0.1054  0.0709 -0.0929
  660MPD2    C1 9818   1.981   0.769  12.477  0.0906 -0.4224  0.0631
  660MPD2    C2 9819   1.919   0.752  12.599 -0.3781 -0.6748  0.5876
  660MPD2    C3 9820   1.975   0.664  12.688 -0.4052 -0.2120 -0.1220
  660MPD2    C4 9821   2.100   0.605  12.664  0.5202 -0.2664  0.3865
  660MPD2    C5 9822   2.165   0.627  12.542 -0.2534  0.5252  0.2424
  660MPD2     H 9823   1.825   0.803  12.619  0.7199  1.3337  0.5725
  660MPD2    H1 9824   2.153   0.550  12.740 -0.0656 -1.1345  0.1772
  660MPD2    H2 9825   2.145   0.707  12.350  0.3558  0.4840  0.1192
  660MPD2    H3 9826   2.267   0.595  12.525 -0.2434  0.5053  0.3371
  660MPD2     N 9827   1.919   0.638  12.816  0.2290  0.2250 -0.2134
  660MPD2    H5 9828   1.954   0.559  12.869 -3.0799 -0.7496  0.4908
  660MPD2    N1 9829   1.926   0.833  12.366 -0.2761 -0.0563 -0.1410
  660MPD2    H7 9830   1.987   0.837  12.285  0.9743  0.7320  0.8216
  661TMC3    C1 9831   1.771   0.969  12.242 -0.6466 -0.2158  0.4913
  661TMC3    C2 9832   1.857   0.974  12.132 -0.4951  0.1697 -0.4601
  661TMC3    C3 9833   1.810   1.050  12.024 -0.0714 -0.5228  0.2493
  661TMC3    C4 9834   1.649   1.042  12.239 -0.3437  0.2012 -0.1072
  661TMC3    C5 9835   1.615   1.117  12.134  0.1992  0.8331  0.0980
  661TMC3    C6 9836   1.692   1.119  12.022  0.7904  0.2677  0.3011
  661TMC3     C 9837   1.800   0.885  12.362  0.0537  0.5347  0.7146
  661TMC3     O 9838   1.711   0.871  12.444  0.0633 -0.1367  0.2958
  661TMC3     H 9839   1.947   0.913  12.130 -1.1738 -0.8086 -1.2242
  661TMC3    H1 9840   1.585   1.040  12.327  0.3503 -0.9451  0.3682
  661TMC3    H2 9841   1.656   1.178  11.938  1.2164  1.0004  0.6308
  661TMC3    C7 9842   1.494   1.189  12.142  0.3143  0.4597 -0.2513
  661TMC3    C8 9843   1.907   1.085  11.919  0.6323 -0.0738 -0.4518
  661TMC3    O1 9844   1.446   1.214  12.252 -1.0197  0.1395 -0.0357
  661TMC3    O2 9845   1.868   1.145  11.822  0.2043 -0.2906 -0.0008
  662MPD2     C 9846   2.470   1.329  16.607 -0.1092  0.2342  0.4601
  662MPD2    C1 9847   2.465   1.344  16.747  0.7910  0.3216 -0.1335
  662MPD2    C2 9848   2.369   1.422  16.809 -0.7789 -0.3868  0.5693
  662MPD2    C3 9849   2.277   1.500  16.738 -0.2511 -0.1803  0.2492
  662MPD2    C4 9850   2.285   1.483  16.601  0.3898 -0.1333  0.1900
  662MPD2    C5 9851   2.368   1.396  16.544  0.4749 -0.3329  0.2703
  662MPD2     H 9852   2.376   1.425  16.917  1.7645  1.3916  0.3601
  662MPD2    H1 9853   2.210   1.535  16.542  0.1543 -0.3697  0.2875
  662MPD2    H2 9854   2.537   1.270  16.546  1.3040  2.3325 -0.0409
  662MPD2    H3 9855   2.343   1.380  16.439 -0.7159 -0.7528  0.6194
  662MPD2     N 9856   2.174   1.579  16.801 -0.0551 -0.1806  1.2662
  662MPD2    H5 9857   2.118   1.628  16.732 -1.8896 -2.1932  1.3363
  662MPD2    N1 9858   2.534   1.262  16.837  0.3686  0.2851  0.6095
  662MPD2    H7 9859   2.497   1.253  16.931 -0.9125 -1.5171 -0.0632
  663TMC3    C1 9860   2.663   1.103  16.932  0.6092  0.4641  0.4886
  663TMC3    C2 9861   2.585   1.136  17.041  0.9877  0.6541  0.4078
  663TMC3    C3 9862   2.532   1.037  17.124 -0.1699 -0.5473 -0.0532
  663TMC3    C4 9863   2.690   0.973  16.907 -0.2491 -0.3741 -0.6711
  663TMC3    C5 9864   2.628   0.876  16.983  0.0233 -0.6600  0.1436
  663TMC3    C6 9865   2.536   0.913  17.078  0.0266 -0.8062 -0.5476
  663TMC3     C 9866   2.637   1.180  16.812 -0.1075  0.2953  0.5984
  663TMC3     O 9867   2.698   1.157  16.711  0.1524 -0.3468 -0.5078
  663TMC3     H 9868   2.593   1.236  17.081 -1.7789  1.0182  0.0308
  663TMC3    H1 9869   2.756   0.956  16.823 -0.4439  2.1250 -1.3440
  663TMC3    H2 9870   2.510   0.827  17.138  0.3130  0.9355  2.0488
  663TMC3    C7 9871   2.648   0.740  16.934 -0.5245  0.0672  0.0653
  663TMC3    C8 9872   2.403   1.079  17.186 -0.0401  0.4632 -0.2023
  663TMC3    O1 9873   2.678   0.731  16.817  0.3008 -0.3635 -0.4632
  663TMC3    O2 9874   2.367   1.188  17.138  0.2756  0.9347 -0.5496
  664MPD2     C 9875   0.892   4.118  17.219 -0.2316  0.0621 -0.1954
  664MPD2    C1 9876   0.987   4.125  17.314 -0.3480  0.1460 -0.2404
  664MPD2    C2 9877   0.959   4.074  17.438 -0.0765  0.2745 -0.0983
  664MPD2    C3 9878   0.835   4.022  17.467  0.1151 -0.0728 -0.0541
  664MPD2    C4 9879   0.735   4.024  17.375 -0.1646 -0.0695  0.1391
  664MPD2    C5 9880   0.764   4.070  17.244 -0.4292  0.1945 -0.0934
  664MPD2     H 9881   1.030   4.087  17.518  0.0679  0.4238 -0.2509
  664MPD2    H1 9882   0.634   3.995  17.402 -0.9408  0.8437 -1.7490
  664MPD2    H2 9883   0.925   4.160  17.125  0.3914  0.5838  0.2570
  664MPD2    H3 9884   0.697   4.073  17.159  0.9862 -0.3836 -1.2313
  664MPD2     N 9885   0.796   3.998  17.607  0.4016  0.2044  0.2956
  664MPD2    H5 9886   0.866   4.018  17.677  0.0947  1.2255  0.3114
  664MPD2    N1 9887   1.108   4.187  17.279  0.1047  0.1493  0.6343
  664MPD2    H7 9888   1.105   4.247  17.198  1.9805 -0.5212  0.0648
  665TMC3    C1 9889   0.698   3.916   0.064  0.1361  0.0569  1.1699
  665TMC3    C2 9890   0.618   3.964   0.158  0.1621  0.0443  0.3027
  665TMC3    C3 9891   0.668   3.956   0.286 -0.4184 -1.1218  0.4001
  665TMC3    C4 9892   0.826   3.888   0.094 -0.1357  0.2027  0.4643
  665TMC3    C5 9893   0.882   3.919   0.210 -0.1988 -0.1055  0.1566
  665TMC3    C6 9894   0.799   3.934   0.317  0.0830 -0.1536  0.3567
  665TMC3     C 9895   0.675   3.959  17.664 -0.3917  0.3319  0.7471
  665TMC3     O 9896   0.561   3.967  17.623 -0.8289  0.2712 -0.1434
  665TMC3     H 9897   0.516   3.991   0.132 -0.0455  0.9784  2.0986
  665TMC3    H1 9898   0.893   3.838   0.026 -0.0813  1.6405 -0.5264
  665TMC3    H2 9899   0.847   3.937   0.414  0.6307  0.2890  0.0676
  665TMC3    C7 9900   0.978   4.024   0.195 -0.4364  0.0539 -0.2205
  665TMC3    C8 9901   0.606   4.042   0.390  0.0302 -0.3050  0.0092
  665TMC3    O1 9902   0.972   4.069   0.084  0.6674  0.7041 -0.0712
  665TMC3    O2 9903   0.684   4.097   0.467  0.0293  0.0368 -0.0976
  666TMC3    C1 9904   3.966   3.731   9.589 -0.0379  0.2337 -0.1117
  666TMC3    C2 9905   4.088   3.693   9.524 -0.5665 -0.0975 -0.6687
  666TMC3    C3 9906   4.193   3.777   9.535 -0.5187  0.5075 -0.1873
  666TMC3    C4 9907   3.951   3.854   9.652  0.0404  0.1505  0.4576
  666TMC3    C5 9908   4.063   3.929   9.663  0.8283 -0.4687 -0.2238
  666TMC3    C6 9909   4.184   3.894   9.605  0.3121 -0.1932 -0.6315
  666TMC3     C 9910   3.876   3.627   9.634 -0.5407 -0.2458 -0.1883
  666TMC3     O 9911   3.852   3.532   9.562  0.1312  0.0747  0.4241
  666TMC3     H 9912   4.094   3.591   9.486  0.3923 -0.4715  0.4699
  666TMC3    H1 9913   3.871   3.879   9.721 -0.7210  0.2684 -0.4679
  666TMC3    H2 9914   4.268   3.959   9.622  0.4319 -0.3366 -0.6732
  666TMC3    C7 9915   4.046   4.039   9.755 -0.5175  0.2568 -0.7938
  666TMC3    C8 9916   4.319   3.716   9.553  0.8932  0.0455 -0.0372
  666TMC3    O1 9917   4.141   4.047   9.832 -0.6952  0.6299  0.3971
  666TMC3    O2 9918   4.387   3.751   9.648 -0.1711  0.7376 -0.0849
  667MPD2     C 9919   1.642   3.698  14.163  0.0882  0.6702 -0.5443
  667MPD2    C1 9920   1.658   3.653  14.294  0.3362 -0.4267  0.3313
  667MPD2    C2 9921   1.615   3.519  14.327  0.2716  0.3679  0.1734
  667MPD2    C3 9922   1.557   3.437  14.235  0.3870  0.1616 -0.3660
  667MPD2    C4 9923   1.552   3.480  14.105 -0.3596  0.2807  0.0754
  667MPD2    C5 9924   1.591   3.607  14.078  0.1074 -0.9134 -0.2266
  667MPD2     H 9925   1.618   3.494  14.433  0.7014  1.7001  0.4716
  667MPD2    H1 9926   1.516   3.416  14.026 -0.0968  0.3470 -0.1013
  667MPD2    H2 9927   1.673   3.795  14.124 -0.7132  1.5429  1.0037
  667MPD2    H3 9928   1.567   3.632  13.975  0.2796  0.7926  0.1441
  667MPD2     N 9929   1.524   3.308  14.263  0.4258  0.4952 -0.2463
  667MPD2    H5 9930   1.491   3.257  14.182  2.7279 -2.4065  0.6276
  667MPD2    N1 9931   1.714   3.737  14.394 -0.0231 -0.2675  0.4263
  667MPD2    H7 9932   1.725   3.706  14.490 -1.8578  0.3007  0.8234
  668TMC3    C1 9933   1.788   3.940  14.489  0.3362 -0.0828  0.1076
  668TMC3    C2 9934   1.787   4.077  14.486  0.2210 -0.5585  0.4861
  668TMC3    C3 9935   1.819   4.145  14.600  0.0903 -0.4934 -0.3425
  668TMC3    C4 9936   1.819   3.866  14.603 -0.6066  0.0979  0.6127
  668TMC3    C5 9937   1.856   3.940  14.716  0.3692 -0.1325 -0.7935
  668TMC3    C6 9938   1.851   4.078  14.717 -0.3247 -0.5013  0.4269
  668TMC3     C 9939   1.751   3.872  14.369  0.2917 -0.2380 -0.3164
  668TMC3     O 9940   1.748   3.946  14.271  0.1179  0.1896 -0.3113
  668TMC3     H 9941   1.756   4.132  14.398 -1.9239  1.1537  2.3058
  668TMC3    H1 9942   1.824   3.758  14.611 -3.5805  0.0866  2.3106
  668TMC3    H2 9943   1.864   4.142  14.803 -1.3252 -0.5786  0.6349
  668TMC3    C7 9944   1.863   3.877  14.849  0.2673 -0.3782  1.4362
  668TMC3    C8 9945   1.820   4.293  14.602 -0.7356  0.6277  0.5826
  668TMC3    O1 9946   1.849   3.755  14.843  0.0879  0.3521 -0.7285
  668TMC3    O2 9947   1.785   4.349  14.705  0.3326  0.5084  0.1502
  669TMC3    C1 9948   4.456   4.153  15.087 -0.3172 -0.6157  0.0538
  669TMC3    C2 9949   4.342   4.208  15.028 -0.4089 -0.8394 -0.6016
  669TMC3    C3 9950   4.356   4.261  14.903  0.5039 -0.0064 -0.2341
  669TMC3    C4 9951   4.577   4.165  15.021  0.3071  0.5361  0.6900
  669TMC3    C5 9952   4.589   4.234  14.904  0.2044  0.0169 -0.4936
  669TMC3    C6 9953   4.474   4.275  14.835  0.4535 -0.1212  0.2440
  669TMC3     C 9954   4.449   4.086  15.210  0.2090 -0.7146  0.0830
  669TMC3     O 9955   4.336   4.074  15.257 -0.4607 -0.0252  0.1195
  669TMC3     H 9956   4.245   4.194  15.075  0.1873 -0.4437  0.7374
  669TMC3    H1 9957   4.672   4.138  15.065  0.9705  0.1222 -0.9911
  669TMC3    H2 9958   4.477   4.310  14.732  0.5490  1.5149  0.8082
  669TMC3    C7 9959   4.700   4.239  14.821  0.1842  0.0157 -0.7676
  669TMC3    C8 9960   4.240   4.253  14.817  0.6545 -0.6536  0.1407
  669TMC3    O1 9961   4.693   4.322  14.729 -0.1556  0.4120  0.5163
  669TMC3    O2 9962   4.255   4.212  14.706  0.0503 -0.4852  0.0210
  670MPD2     C 9963   2.628   1.444  13.550 -0.2871  0.0317  0.7536
  670MPD2    C1 9964   2.720   1.386  13.635  0.0158 -0.0770  0.9386
  670MPD2    C2 9965   2.690   1.382  13.765 -0.0421 -0.0910  0.0149
  670MPD2    C3 9966   2.569   1.429  13.814  0.2746  0.6222  0.1450
  670MPD2    C4 9967   2.473   1.478  13.728  0.2727  0.1778 -0.2447
  670MPD2    C5 9968   2.500   1.478  13.594  0.2136 -0.3934  0.2113
  670MPD2     H 9969   2.758   1.340  13.838 -0.7996 -2.5280 -0.6809
  670MPD2    H1 9970   2.369   1.493  13.756  0.1689 -0.3908 -0.3110
  670MPD2    H2 9971   2.642   1.442  13.443  0.5155 -0.4318  0.8641
  670MPD2    H3 9972   2.420   1.493  13.523 -0.4216 -1.3489  0.7246
  670MPD2     N 9973   2.557   1.432  13.954  0.4209 -0.1608 -0.3255
  670MPD2    H5 9974   2.637   1.403  14.010 -0.6298 -1.1239  0.6745
  670MPD2    N1 9975   2.853   1.354  13.603 -0.4968  0.2002 -0.0116
  670MPD2    H7 9976   2.922   1.342  13.676  1.0308  1.8022 -1.1936
  671TMC3    C1 9977   2.460   1.460  14.179  0.6538  0.8006 -0.6967
  671TMC3    C2 9978   2.593   1.453  14.213  1.0197 -0.1838 -0.2672
  671TMC3    C3 9979   2.638   1.347  14.290 -0.6927 -0.7378  0.2542
  671TMC3    C4 9980   2.376   1.371  14.235  0.2159  0.3703 -0.1501
  671TMC3    C5 9981   2.421   1.267  14.315  0.3856 -0.2101 -0.7208
  671TMC3    C6 9982   2.551   1.257  14.352 -0.1912  0.6302 -0.3371
  671TMC3     C 9983   2.442   1.456  14.030 -0.3177  0.5560 -0.3340
  671TMC3     O 9984   2.326   1.477  13.994  0.7918 -0.0076 -0.3468
  671TMC3     H 9985   2.664   1.507  14.153  0.6756  0.5940  0.0347
  671TMC3    H1 9986   2.276   1.367  14.192  0.6667  2.3959 -1.4193
  671TMC3    H2 9987   2.588   1.180  14.418  0.7756 -1.0828 -2.8874
  671TMC3    C7 9988   2.371   1.150  14.248 -0.5985 -1.0442 -0.0174
  671TMC3    C8 9989   2.758   1.283  14.247 -0.7044  0.3635 -0.5960
  671TMC3    O1 9990   2.344   1.158  14.128  0.3573  0.2511 -0.1737
  671TMC3    O2 9991   2.771   1.284  14.123 -0.5566  0.9872  0.0295
  672MPD2     C 9992   2.828   2.400   0.864 -0.0361 -0.0378  0.2353
  672MPD2    C1 9993   2.915   2.357   0.762  0.5685  0.4460  0.5554
  672MPD2    C2 9994   3.029   2.430   0.726  0.8816 -0.0968  0.1095
  672MPD2    C3 9995   3.058   2.546   0.792  0.2386  0.3469 -0.0741
  672MPD2    C4 9996   2.966   2.594   0.887 -0.3217 -0.7225 -0.5192
  672MPD2    C5 9997   2.856   2.522   0.922  0.5423 -1.1278 -0.0579
  672MPD2     H 9998   3.095   2.390   0.650 -0.5366 -0.0670 -1.1163
  672MPD2    H1 9999   2.986   2.687   0.940 -1.2114 -0.4399 -0.6765
  672MPD2    H210000   2.744   2.337   0.891 -0.3922  0.7456  0.9896
  672MPD2    H310001   2.805   2.551   1.013  0.4266 -1.4478 -0.0210
  672MPD2     N10002   3.188   2.610   0.771  0.3881 -0.5409  0.4217
  672MPD2    H510003   3.210   2.693   0.824  0.1914  0.2709 -0.7628
  672MPD2    N110004   2.884   2.244   0.682 -0.2256  0.2622  0.5725
  672MPD2    H710005   2.958   2.192   0.636  1.6067  2.6325  0.8273
  673TMC3    C110006   2.753   2.110   0.553 -0.0479  0.8510  0.8290
  673TMC3    C210007   2.867   2.053   0.505 -0.0150  0.5756  0.0548
  673TMC3    C310008   2.869   2.011   0.374  0.5848 -0.7603  0.2925
  673TMC3    C410009   2.642   2.128   0.474 -0.2666  0.8591 -0.4933
  673TMC3    C510010   2.654   2.087   0.343 -0.1486 -0.0625  0.1392
  673TMC3    C610011   2.761   2.020   0.294 -0.5711  0.3684  0.4342
  673TMC3     C10012   2.761   2.196   0.668  0.4409  0.0521  0.5530
  673TMC3     O10013   2.660   2.241   0.713  0.3591 -0.2834  0.0516
  673TMC3     H10014   2.941   2.018   0.577  1.0057  0.7744 -0.8944
  673TMC3    H110015   2.560   2.195   0.498  0.0621  1.5803 -1.3931
  673TMC3    H210016   2.770   2.002   0.187  0.8294 -1.1892  0.8003
  673TMC3    C710017   2.561   2.143   0.246  0.2099  0.3993 -0.2914
  673TMC3    C810018   2.944   1.890   0.352 -0.0607 -0.2855  0.1502
  673TMC3    O110019   2.546   2.083   0.144 -0.4029  0.0558  0.1635
  673TMC3    O210020   2.894   1.799   0.290  0.1015  0.7494  0.2793
  674MPD2     C10021   2.446   2.495  17.435  0.7086  0.5037 -0.5307
  674MPD2    C110022   2.381   2.368  17.441  0.2214 -0.2357 -0.4972
  674MPD2    C210023   2.244   2.360  17.452 -0.0635  0.3060 -0.1115
  674MPD2    C310024   2.159   2.475  17.449 -0.7447  0.3542 -1.0904
  674MPD2    C410025   2.222   2.597  17.434 -0.0496 -0.1336  0.1676
  674MPD2    C510026   2.360   2.605  17.425  0.1444  0.2649  0.6527
  674MPD2     H10027   2.200   2.261  17.456  1.9164 -0.5219  1.1587
  674MPD2    H110028   2.163   2.688  17.433 -0.6500 -0.4905  2.5885
  674MPD2    H210029   2.552   2.514  17.433  0.2567  3.2500  1.3766
  674MPD2    H310030   2.405   2.703  17.409 -2.2025  1.0724 -1.0619
  674MPD2     N10031   2.019   2.466  17.488  0.1372  0.2273  0.2711
  674MPD2    H510032   1.985   2.371  17.501  1.6927 -0.1889  1.4310
  674MPD2    N110033   2.464   2.248  17.444 -0.4867 -0.3991  0.0288
  674MPD2    H710034   2.564   2.266  17.449 -0.2114 -2.3231  1.5301
  675TMC3    C110035   2.526   2.034  17.515 -0.4506  0.9064 -0.4352
  675TMC3    C210036   2.495   1.905  17.525  0.2326 -0.1422 -0.1598
  675TMC3    C310037   2.599   1.817  17.554  0.1087  0.5882  0.8809
  675TMC3    C410038   2.649   2.089  17.556 -0.0577  0.4074 -0.4793
  675TMC3    C510039   2.736   1.998  17.604 -0.4571  0.2625 -0.1789
  675TMC3    C610040   2.720   1.865  17.593  0.5183 -0.4089  0.6407
  675TMC3     C10041   2.421   2.120  17.467 -0.3550 -0.6552 -0.0265
  675TMC3     O10042   2.309   2.070  17.438 -0.1109  0.2996  0.1126
  675TMC3     H10043   2.396   1.869  17.500  1.0834 -3.2748  0.9349
  675TMC3    H110044   2.661   2.197  17.567  2.4770  0.2068 -1.5275
  675TMC3    H210045   2.798   1.799  17.628  1.2542  0.1245  0.0068
  675TMC3    C710046   2.855   2.037  17.673 -0.4714 -0.1353 -0.2153
  675TMC3    C810047   2.567   1.674  17.559  0.3218 -0.1887  0.1634
  675TMC3    O110048   2.945   1.960  17.682 -0.3417 -0.3920 -0.0723
  675TMC3    O210049   2.653   1.589  17.533  0.3002  0.7204  0.1329
  676MPD2     C10050   0.390   4.637  11.218 -0.7494  0.7443  0.2411
  676MPD2    C110051   0.298   4.539  11.243 -0.4277  0.1842  0.2754
  676MPD2    C210052   0.340   4.414  11.285  0.2530 -0.1172 -0.1347
  676MPD2    C310053   0.473   4.381  11.287  0.3932  0.1213  0.1254
  676MPD2    C410054   0.563   4.475  11.256 -0.5281 -0.4129  0.1741
  676MPD2    C510055   0.520   4.603  11.224  0.1808 -0.2049 -0.2275
  676MPD2     H10056   0.262   4.343  11.312  0.3905  1.2743  3.8428
  676MPD2    H110057   0.669   4.457  11.264 -0.7508 -1.7602  0.0371
  676MPD2    H210058   0.369   0.005  11.192 -1.4617  0.7746  0.9324
  676MPD2    H310059   0.605   4.667  11.203 -1.9148  3.1373  1.5258
  676MPD2     N10060   0.524   4.254  11.320  0.1761 -0.2923 -0.1818
  676MPD2    H510061   0.621   4.238  11.296 -0.0911  0.6460 -1.9104
  676MPD2    N110062   0.158   4.555  11.243  0.0699 -1.1059 -0.6820
  676MPD2    H710063   0.098   4.478  11.271  0.2900 -0.3182  1.9357
  677TMC3    C110064   4.690   4.681  11.230 -0.3053  0.1770  0.2454
  677TMC3    C210065   4.616   4.570  11.240  0.7156 -0.0078  0.8136
  677TMC3    C310066   4.511   4.568  11.316 -0.2795 -0.8738  0.3508
  677TMC3    C410067   4.659   0.058  11.308 -0.2850  0.5245 -0.4282
  677TMC3    C510068   4.560   0.041  11.403  0.1279 -0.0977 -0.4593
  677TMC3    C610069   4.488   4.662  11.412  0.1047 -0.4546  0.0652
  677TMC3     C10070   0.095   4.667  11.192 -0.3196  0.1392  0.2177
  677TMC3     O10071   0.141   0.023  11.124  0.0935  0.0441  0.1919
  677TMC3     H10072   4.640   4.486  11.176  1.8432  0.2082  0.9479
  677TMC3    H110073   4.727   0.141  11.292  0.7339  0.5214  3.8740
  677TMC3    H210074   4.403   4.645  11.477  0.0358 -2.6720 -0.5999
  677TMC3    C710075   4.578   0.106  11.531 -0.7260 -0.7428 -0.1882
  677TMC3    C810076   4.450   4.438  11.324  0.4894 -0.0083 -0.0730
  677TMC3    O110077   4.495   0.085  11.620  0.3005  0.3544 -0.3202
  677TMC3    O210078   4.415   4.391  11.217  0.6861  0.4048  0.0452
  678MPD2     C10079   1.984   0.063   1.322 -0.4430  0.1606 -0.0040
  678MPD2    C110080   2.002   0.052   1.185 -0.2818  0.3341 -0.6765
  678MPD2    C210081   1.894   0.033   1.101  0.0597  0.5825  0.0534
  678MPD2    C310082   1.764   0.013   1.156 -0.0651 -0.3552  0.7472
  678MPD2    C410083   1.747   0.018   1.299 -0.9224 -0.2731  0.0409
  678MPD2    C510084   1.861   0.047   1.375  0.6708  0.3351  0.7064
  678MPD2     H10085   1.919   0.041   0.995 -0.9144  0.7825 -0.1561
  678MPD2    H110086   1.649   4.731   1.337 -0.1294 -2.3089  0.8901
  678MPD2    H210087   2.063   0.086   1.393 -0.0902 -0.4805 -0.1824
  678MPD2    H310088   1.846   0.048   1.483  0.7128 -0.1208  0.7169
  678MPD2     N10089   1.650   0.004   1.072 -0.1358 -0.1552  0.1611
  678MPD2    H510090   1.668   4.727   0.973  0.3551 -0.6733  0.3166
  678MPD2    N110091   2.125   0.074   1.123  0.9066  0.2969  0.0983
  678MPD2    H710092   2.134   0.072   1.021  4.0222 -2.8090  0.4455
  679TMC3    C110093   2.564   0.244   1.066 -0.1108 -0.2599  0.4329
  679TMC3    C210094   2.476   0.157   1.129  1.0746  0.1843 -0.1420
  679TMC3    C310095   2.343   0.166   1.097  0.2386 -0.0350  0.2707
  679TMC3    C410096   2.519   0.336   0.977  0.2187 -0.1173  0.3180
  679TMC3    C510097   2.384   0.354   0.945 -0.1135  0.4584  0.3422
  679TMC3    C610098   2.297   0.260   1.006 -0.5541 -1.2196  0.5072
  679TMC3     C10099   2.687   0.174   1.022 -0.7283  0.0484 -0.8964
  679TMC3     O10100   2.736   0.209   0.917  0.3090 -0.2574  0.9600
  679TMC3     H10101   2.503   0.093   1.212 -2.5291  0.1450  0.9739
  679TMC3    H110102   2.603   0.400   0.951  0.2437  0.5687  2.0876
  679TMC3    H210103   2.193   0.271   0.977 -0.0649 -1.1592 -1.2128
  679TMC3    C710104   2.354   0.393   0.814 -0.4683 -0.4132  0.3237
  679TMC3    C810105   2.241   0.111   1.189  0.5963  0.3688 -0.1397
  679TMC3    O110106   2.237   0.394   0.794 -0.8385 -0.1327  0.3413
  679TMC3    O210107   2.269   0.100   1.308  0.2248 -0.6069  0.1706
  680MPD2     C10108   2.196   3.317  13.662  0.0789 -0.1842 -0.2756
  680MPD2    C110109   2.248   3.280  13.782 -0.1740 -0.1196 -0.5905
  680MPD2    C210110   2.270   3.385  13.874 -0.4611 -0.7990 -0.2700
  680MPD2    C310111   2.271   3.520  13.830  0.1634  0.2017  0.2696
  680MPD2    C410112   2.215   3.548  13.712 -0.2661  0.0432  0.3607
  680MPD2    C510113   2.177   3.446  13.624 -1.0646 -0.3397 -0.9776
  680MPD2     H10114   2.306   3.356  13.972 -1.1170 -0.9685 -0.0730
  680MPD2    H110115   2.203   3.647  13.670 -0.8039 -1.4524 -2.9493
  680MPD2    H210116   2.156   3.237  13.600 -0.5502 -0.4061  0.4277
  680MPD2    H310117   2.142   3.469  13.524  1.4745 -0.1634 -1.8252
  680MPD2     N10118   2.327   3.624  13.910 -0.0502 -0.2891 -1.1889
  680MPD2    H510119   2.339   3.709  13.854  0.4371 -0.6021 -1.5568
  680MPD2    N110120   2.274   3.151  13.818  0.2058  0.5384  0.4721
  680MPD2    H710121   2.309   3.137  13.912 -0.9130 -0.2656  0.7748
  681TMC3    C110122   2.347   2.928  13.797 -0.5450 -0.2281  0.5789
  681TMC3    C210123   2.292   2.885  13.912 -0.3321 -0.0277  0.1219
  681TMC3    C310124   2.303   2.754  13.936 -0.1143 -0.0672  0.0397
  681TMC3    C410125   2.425   2.859  13.712  0.2216  0.5751 -0.3724
  681TMC3    C510126   2.426   2.722  13.738 -0.4885 -0.1685 -0.1690
  681TMC3    C610127   2.359   2.665  13.845  0.4567 -1.0089  0.0299
  681TMC3     C10128   2.279   3.039  13.737 -0.6218  0.0285  0.2975
  681TMC3     O10129   2.219   3.014  13.631  0.1702 -0.4748  0.1512
  681TMC3     H10130   2.230   2.941  13.982  0.0477  0.3759  0.1341
  681TMC3    H110131   2.459   2.907  13.622 -2.6358 -1.8350 -2.7470
  681TMC3    H210132   2.371   2.558  13.858 -1.1942 -1.0311  1.3607
  681TMC3    C710133   2.544   2.653  13.685 -1.2673 -0.1181 -0.5723
  681TMC3    C810134   2.290   2.702  14.074  0.0341 -0.0690 -0.5631
  681TMC3    O110135   2.570   2.542  13.731 -0.5866 -0.0221 -0.6553
  681TMC3    O210136   2.259   2.586  14.083  0.3462 -0.4754  0.7290
  682MPD2     C10137   3.755   0.007  10.939  0.1360 -0.1280 -0.1367
  682MPD2    C110138   3.780   4.612  10.954 -0.4433 -0.0983 -0.3124
  682MPD2    C210139   3.766   4.559  11.078 -0.5726  0.4474  0.0610
  682MPD2    C310140   3.717   4.636  11.181  0.0804  0.3994 -0.7988
  682MPD2    C410141   3.687   0.031  11.164 -0.4360 -0.0703  0.2051
  682MPD2    C510142   3.708   0.083  11.044 -0.6047 -0.0835  0.5252
  682MPD2     H10143   3.784   4.453  11.086  0.5821  0.6495  0.1926
  682MPD2    H110144   3.638   0.083  11.246 -1.1542  0.9365 -0.8631
  682MPD2    H210145   3.776   0.064  10.850  0.7897  1.0117  0.7490
  682MPD2    H310146   3.694   0.188  11.025 -1.4693 -0.8490 -3.0892
  682MPD2     N10147   3.686   4.589  11.313 -0.2311  0.0232  0.4153
  682MPD2    H510148   3.651   4.659  11.378  0.1550 -0.0916  0.7477
  682MPD2    N110149   3.827   4.530  10.845  0.3749  0.1323  0.0054
  682MPD2    H710150   3.833   4.432  10.867 -2.3123 -0.4357 -1.7280
  683TMC3    C110151   3.749   4.551  11.712  0.7504  0.2561 -0.0808
  683TMC3    C210152   3.760   4.423  11.761 -0.1980  0.3637  0.5157
  683TMC3    C310153   3.760   4.313  11.682 -0.0617 -0.1716  0.0442
  683TMC3    C410154   3.721   4.562  11.580  0.2644  0.1284  0.9656
  683TMC3    C510155   3.693   4.452  11.502  0.2961 -0.4238 -0.3777
  683TMC3    C610156   3.704   4.325  11.555  0.3442  0.9947  0.3494
  683TMC3     C10157   3.693   4.654  11.806 -0.1409  0.0085 -0.1865
  683TMC3     O10158   3.697   0.033  11.761 -0.3772 -0.1306  0.1155
  683TMC3     H10159   3.784   4.409  11.866  1.8446  0.5724  0.0735
  683TMC3    H110160   3.705   4.665  11.549 -0.9304 -0.6234 -0.8896
  683TMC3    H210161   3.679   4.238  11.495 -1.3229  0.5653  1.6872
  683TMC3    C710162   3.693   4.460  11.353  0.7466 -0.5988 -0.4781
  683TMC3    C810163   3.745   4.183  11.748  0.1982  0.5452 -0.1739
  683TMC3    O110164   3.735   4.359  11.299 -0.0174  0.7279  0.2495
  683TMC3    O210165   3.727   4.187  11.868  0.1804 -0.0544  0.1845
  684MPD2     C10166   2.743   4.241  16.063 -0.6015 -0.4950  0.5560
  684MPD2    C110167   2.671   4.315  15.970  0.1736  0.3421  0.2851
  684MPD2    C210168   2.612   4.434  16.005  0.0493  0.5094 -0.9892
  684MPD2    C310169   2.632   4.491  16.129 -0.5604  0.6731  0.1148
  684MPD2    C410170   2.707   4.421  16.217 -0.5732 -0.6244  0.7622
  684MPD2    C510171   2.754   4.300  16.186 -0.7384  0.1560  0.3643
  684MPD2     H10172   2.568   4.494  15.925 -1.8258 -0.6566 -0.8185
  684MPD2    H110173   2.723   4.447  16.321  2.0296  2.6132 -0.4349
  684MPD2    H210174   2.773   4.138  16.046 -1.2866 -0.0905 -3.0408
  684MPD2    H310175   2.811   4.247  16.262  0.3892 -0.8765 -1.1885
  684MPD2     N10176   2.590   4.628  16.164  0.0308  0.5404  0.2989
  684MPD2    H510177   2.590   4.660  16.260  1.4533 -1.3603  0.9359
  684MPD2    N110178   2.651   4.265  15.838  0.0680  0.1394  0.2961
  684MPD2    H710179   2.576   4.310  15.787  0.2618  0.4944  0.3282
  685TMC3    C110180   2.699   4.158  15.634 -0.1814 -0.1334 -0.0127
  685TMC3    C210181   2.575   4.198  15.574  0.2781  0.0596  0.3455
  685TMC3    C310182   2.585   4.259  15.447 -0.6470  0.4031  0.2839
  685TMC3    C410183   2.818   4.174  15.573  0.2328  0.0218 -0.2708
  685TMC3    C510184   2.812   4.247  15.456  0.1978 -0.0810 -0.0440
  685TMC3    C610185   2.701   4.277  15.385 -0.1724  0.1064 -0.3189
  685TMC3     C10186   2.715   4.165  15.778 -0.0001  0.5170 -0.1955
  685TMC3     O10187   2.799   4.088  15.825  0.6014 -0.3503 -0.0909
  685TMC3     H10188   2.483   4.148  15.600 -0.7226  1.0662 -1.2418
  685TMC3    H110189   2.909   4.154  15.628 -1.6257  1.8031  3.4979
  685TMC3    H210190   2.699   4.334  15.292 -1.4665  0.4733 -0.0566
  685TMC3    C710191   2.925   4.333  15.426 -0.7221  0.2765  0.1039
  685TMC3    C810192   2.467   4.278  15.373 -0.3032 -0.4144  0.7301
  685TMC3    O110193   2.947   4.363  15.311  0.0235  0.1996 -0.4847
  685TMC3    O210194   2.477   4.278  15.251  0.1750  0.1546 -0.1096
  686MPD2     C10195   3.681   0.233  15.740  0.1543  0.5340  0.3534
  686MPD2    C110196   3.746   0.135  15.666 -0.4775 -0.2213  0.6430
  686MPD2    C210197   3.863   0.161  15.592 -0.3597  0.1992  0.4632
  686MPD2    C310198   3.933   0.272  15.624 -0.0526  0.3940 -0.8062
  686MPD2    C410199   3.872   0.368  15.699 -0.7509 -0.3584  0.6450
  686MPD2    C510200   3.745   0.354  15.753 -0.0891 -0.1443  0.1646
  686MPD2     H10201   3.910   0.081  15.536 -0.2407 -0.0074  0.8643
  686MPD2    H110202   3.917   0.466  15.703 -0.0976 -0.4746 -3.2336
  686MPD2    H210203   3.585   0.215  15.787  0.3195 -0.7598  0.1868
  686MPD2    H310204   3.701   0.437  15.808 -0.1670  1.0314 -1.6882
  686MPD2     N10205   4.063   0.288  15.575  0.0276  0.3374 -0.0303
  686MPD2    H510206   4.100   0.221  15.510  1.1437 -0.0987  1.0551
  686MPD2    N110207   3.680   0.012  15.659 -0.2301  0.0627  0.3620
  686MPD2    H710208   3.608   4.727  15.728  1.4035  0.6617  2.2353
  687TMC3    C110209   4.276   0.371  15.566 -0.0009  0.3007 -0.4926
  687TMC3    C210210   4.301   0.318  15.443  0.3399 -0.6022  0.1210
  687TMC3    C310211   4.432   0.269  15.429  0.0168 -0.5738  0.1333
  687TMC3    C410212   4.363   0.375  15.666 -0.7796 -0.3535  0.3795
  687TMC3    C510213   4.485   0.310  15.651  0.2159 -0.1021  0.2182
  687TMC3    C610214   4.517   0.257  15.531 -0.6150 -1.0413 -0.2759
  687TMC3     C10215   4.145   0.393  15.610 -0.6758  0.0596 -0.3991
  687TMC3     O10216   4.124   0.496  15.670  0.2111 -0.1247  0.5438
  687TMC3     H10217   4.232   0.332  15.360  1.8247  0.4025 -0.9491
  687TMC3    H110218   4.331   0.407  15.765 -0.1255  1.9302 -0.1554
  687TMC3    H210219   4.615   0.212  15.523 -0.9636 -1.5577 -1.5499
  687TMC3    C710220   4.528   0.232  15.766  0.2231 -0.3489 -0.5393
  687TMC3    C810221   4.479   0.220  15.302  0.2093  0.4120  0.4378
  687TMC3    O110222   4.491   0.287  15.871 -0.5236  0.0184  0.0795
  687TMC3    O210223   4.585   0.262  15.263 -0.3385  0.3721  0.4439
  688MPD2     C10224   3.246   3.380  17.166  0.8192  0.0314 -0.4863
  688MPD2    C110225   3.235   3.261  17.243  0.1749 -0.4381 -0.6229
  688MPD2    C210226   3.316   3.153  17.204 -0.0566 -0.5212 -0.2241
  688MPD2    C310227   3.408   3.174  17.100 -0.1026 -0.4476 -0.4139
  688MPD2    C410228   3.416   3.300  17.025  0.1349  0.0297  0.2901
  688MPD2    C510229   3.329   3.399  17.062 -0.5501  0.6930 -0.2171
  688MPD2     H10230   3.320   3.069  17.274  0.4980 -0.3144 -0.0134
  688MPD2    H110231   3.490   3.321  16.949 -0.3360 -0.2051 -0.2305
  688MPD2    H210232   3.190   3.471  17.185 -0.4728 -0.6001 -1.2439
  688MPD2    H310233   3.336   3.486  16.997 -1.3212  0.5662 -0.4792
  688MPD2     N10234   3.513   3.082  17.085 -0.1307  0.3221 -0.3381
  688MPD2    H510235   3.596   3.120  17.040 -0.2179 -1.0273 -1.6631
  688MPD2    N110236   3.155   3.253  17.360  0.7576  0.6780 -0.8361
  688MPD2    H710237   3.151   3.162  17.404  1.1200  0.0465 -2.1064
  689TMC3    C110238   3.044   3.324  17.552 -0.6368  0.3722 -0.2192
  689TMC3    C210239   3.088   3.405  17.659  0.1629 -0.2806 -0.4582
  689TMC3    C310240   3.052   3.353   0.041  0.2007 -0.2081 -0.8593
  689TMC3    C410241   2.995   3.200  17.568 -0.5339  0.5298 -0.2636
  689TMC3    C510242   2.982   3.147  17.690  0.3704 -0.7771 -0.3682
  689TMC3    C610243   3.021   3.218   0.058 -0.0624  0.3210 -0.3108
  689TMC3     C10244   3.108   3.359  17.427 -1.0389  0.8025 -0.4319
  689TMC3     O10245   3.098   3.476  17.389  0.2409 -0.5386  0.5250
  689TMC3     H10246   3.131   3.504  17.649 -0.5798  0.3823  3.0560
  689TMC3    H110247   2.974   3.135  17.483  1.0828 -0.0853 -0.1860
  689TMC3    H210248   2.997   3.180   0.157  0.9598  0.5004  0.0023
  689TMC3    C710249   2.939   3.012  17.706 -0.3640 -0.0746  1.1350
  689TMC3    C810250   3.050   3.441   0.161 -0.2788 -0.2230  0.7528
  689TMC3    O110251   2.960   2.969   0.079 -0.7765  0.1634  0.4700
  689TMC3    O210252   3.062   3.379   0.267  0.5412 -0.1416 -0.1925
  690MPD2     C10253   1.178   0.549  15.527  0.3278 -0.2723  0.2912
  690MPD2    C110254   1.148   0.427  15.465  0.8713  0.6767  0.4148
  690MPD2    C210255   1.239   0.378  15.373  0.1613  0.0196  0.0882
  690MPD2    C310256   1.350   0.454  15.338 -0.5868  0.1900  0.2977
  690MPD2    C410257   1.366   0.575  15.392 -0.3331 -0.3064  0.2208
  690MPD2    C510258   1.286   0.618  15.487 -0.2247  0.2230 -0.3926
  690MPD2     H10259   1.223   0.283  15.325 -0.5027  0.5930 -0.8220
  690MPD2    H110260   1.462   0.621  15.372  0.3456 -1.6335  0.4527
  690MPD2    H210261   1.120   0.598  15.606  0.3373  1.5231 -0.8131
  690MPD2    H310262   1.322   0.702  15.545  2.1877 -2.3684  1.8564
  690MPD2     N10263   1.435   0.399  15.236  0.0476 -0.0981 -0.0565
  690MPD2    H510264   1.417   0.306  15.200  2.8130 -0.6683  0.0088
  690MPD2    N110265   1.037   0.348  15.504 -0.3081 -0.5578 -0.7839
  690MPD2    H710266   1.015   0.268  15.446  1.2121 -0.7937 -1.0311
  691TMC3    C110267   0.827   0.275  15.600  0.1784 -0.9253  0.4592
  691TMC3    C210268   0.720   0.313  15.678 -0.1840 -0.0837  0.0799
  691TMC3    C310269   0.627   0.218  15.705  0.0442  0.0897 -0.4248
  691TMC3    C410270   0.853   0.148  15.562 -0.1548 -0.4890  0.4727
  691TMC3    C510271   0.767   0.054  15.609 -0.1227  0.0288 -0.2867
  691TMC3    C610272   0.643   0.086  15.663  0.8176 -0.0894 -0.4771
  691TMC3     C10273   0.938   0.378  15.588  0.1819 -0.1783 -0.3075
  691TMC3     O10274   0.928   0.472  15.670 -0.4208 -0.5617 -0.3826
  691TMC3     H10275   0.709   0.412  15.720  1.3665 -0.1000  0.5470
  691TMC3    H110276   0.935   0.110  15.503  0.3895  0.4296  0.6418
  691TMC3    H210277   0.569   0.011  15.686  0.5770 -0.3689 -2.1640
  691TMC3    C710278   0.814   4.650  15.614 -0.1396 -0.1570  0.3346
  691TMC3    C810279   0.511   0.244  15.783  0.8207  0.1411  0.3637
  691TMC3    O110280   0.937   4.634  15.605  0.4283  0.3423 -0.4028
  691TMC3    O210281   0.481   0.160  15.866 -0.3335  0.0723  0.6818
  692TMC3    C110282   2.100   1.172  15.514 -0.4445  0.2315  0.5674
  692TMC3    C210283   2.223   1.238  15.507 -0.3292 -0.3670  0.1378
  692TMC3    C310284   2.337   1.167  15.483 -0.2822  0.3049 -0.1522
  692TMC3    C410285   2.089   1.038  15.526 -0.0598  0.2880  0.1157
  692TMC3    C510286   2.202   0.975  15.520 -0.8716 -0.7341 -0.4545
  692TMC3    C610287   2.322   1.038  15.518 -0.4750  0.5970  0.2594
  692TMC3     C10288   1.985   1.256  15.567 -0.1062  0.1722 -0.1199
  692TMC3     O10289   1.879   1.196  15.598  0.2689 -0.2193 -0.8750
  692TMC3     H10290   2.230   1.338  15.465  0.7787 -0.1439  0.8366
  692TMC3    H110291   1.993   0.989  15.511  0.4723 -0.7277  0.0772
  692TMC3    H210292   2.402   0.971  15.491 -0.8639 -1.0667  3.1937
  692TMC3    C710293   2.190   0.837  15.486 -0.0620  0.2840  0.5671
  692TMC3    C810294   2.430   1.221  15.564 -0.3524  0.1804  0.0161
  692TMC3    O110295   2.101   0.810  15.409  0.3722 -0.9339 -0.4949
  692TMC3    O210296   2.538   1.256  15.518  0.0028 -0.3110 -0.1521
  693MPD2     C10297   1.542   3.443  10.644  0.3623  0.7217 -0.2153
  693MPD2    C110298   1.558   3.498  10.765 -0.3970 -0.9827  0.7466
  693MPD2    C210299   1.657   3.459  10.850 -0.2642  0.1419  0.6672
  693MPD2    C310300   1.745   3.349  10.822  0.1997 -0.3034 -0.0600
  693MPD2    C410301   1.729   3.288  10.700 -0.0708 -0.2293  0.1734
  693MPD2    C510302   1.627   3.339  10.617  0.7023 -0.5677  0.0830
  693MPD2     H10303   1.658   3.505  10.948 -0.8490 -0.2560  0.8596
  693MPD2    H110304   1.805   3.225  10.654  1.9189  1.5007  1.0691
  693MPD2    H210305   1.463   3.469  10.574 -0.0684  1.4507  0.5532
  693MPD2    H310306   1.611   3.279  10.528  1.0602 -1.5802  0.6984
  693MPD2     N10307   1.848   3.304  10.910 -0.5385  0.1737  0.4051
  693MPD2    H510308   1.911   3.237  10.868 -0.5679 -0.9597  2.1707
  693MPD2    N110309   1.452   3.574  10.812  0.4073  0.6261 -0.0004
  693MPD2    H710310   1.370   3.572  10.752  1.1004 -2.3089 -0.8369
  694TMC3    C110311   1.303   3.664  10.964  0.2953 -0.2934 -0.4405
  694TMC3    C210312   1.212   3.589  10.894 -0.0348 -0.0617  0.3358
  694TMC3    C310313   1.125   3.506  10.954  0.2963  0.6028  0.3554
  694TMC3    C410314   1.298   3.655  11.104  0.1837  0.0428 -0.1310
  694TMC3    C510315   1.218   3.554  11.157  0.4174  1.1483  0.5498
  694TMC3    C610316   1.127   3.481  11.090  0.0840  0.2544  1.1310
  694TMC3     C10317   1.444   3.650  10.926  0.3797  0.1481  0.0970
  694TMC3     O10318   1.533   3.687  11.003 -0.3985 -0.1871 -0.3091
  694TMC3     H10319   1.221   3.579  10.786  1.7580 -2.0046  0.6538
  694TMC3    H110320   1.373   3.704  11.164  0.2855 -0.8168  0.4368
  694TMC3    H210321   1.054   3.417  11.140  1.5733 -2.4105 -0.1402
  694TMC3    C710322   1.217   3.541  11.302 -0.0094  0.4111 -0.3969
  694TMC3    C810323   0.997   3.475  10.887  0.4555  0.0856 -0.1099
  694TMC3    O110324   1.259   3.634  11.370 -0.1149  0.5231  0.4058
  694TMC3    O210325   0.940   3.384  10.942  0.5469  0.0423 -0.0222
  695MPD2     C10326   2.773   0.504  13.407 -0.1674 -0.6275  0.1549
  695MPD2    C110327   2.755   0.580  13.516 -0.5019  0.8237  0.1665
  695MPD2    C210328   2.627   0.610  13.556  0.1894 -0.2547  0.2838
  695MPD2    C310329   2.511   0.572  13.486 -0.0607  0.1460  0.4172
  695MPD2    C410330   2.529   0.497  13.374  0.2621  0.0325 -0.1470
  695MPD2    C510331   2.663   0.462  13.338  0.2962 -0.0378  0.2621
  695MPD2     H10332   2.615   0.677  13.641 -0.6726 -1.1969  0.9057
  695MPD2    H110333   2.449   0.453  13.316  0.2866  0.4833 -0.5272
  695MPD2    H210334   2.870   0.476  13.369 -0.4046  0.5962 -1.4058
  695MPD2    H310335   2.671   0.411  13.243 -0.3835 -0.0401  0.2064
  695MPD2     N10336   2.387   0.610  13.541 -0.0885  0.2212 -0.2276
  695MPD2    H510337   2.394   0.667  13.625  1.2322 -0.8015  0.3510
  695MPD2    N110338   2.861   0.624  13.599  0.8798 -0.6147 -0.2075
  695MPD2    H710339   2.831   0.673  13.683  0.8618 -2.1989  0.7003
  696TMC3    C110340   2.161   0.649  13.581 -0.3424  1.1728 -0.5927
  696TMC3    C210341   2.188   0.662  13.714 -0.2990 -0.2801 -0.3588
  696TMC3    C310342   2.107   0.749  13.775 -0.1432  0.1824  0.6781
  696TMC3    C410343   2.058   0.705  13.511  0.3635  0.2545  0.1239
  696TMC3    C510344   1.983   0.797  13.575 -0.6251 -0.4287 -0.2205
  696TMC3    C610345   1.999   0.808  13.717  0.1619  1.1026 -0.8745
  696TMC3     C10346   2.261   0.587  13.493 -0.0863 -0.3171 -0.1193
  696TMC3     O10347   2.237   0.546  13.379 -0.6877 -0.8797  0.2864
  696TMC3     H10348   2.281   0.637  13.764  0.8143  2.0831 -1.2204
  696TMC3    H110349   2.062   0.694  13.403  1.0238 -1.6769  0.3461
  696TMC3    H210350   1.925   0.858  13.777  0.9854 -0.5169  1.5102
  696TMC3    C710351   1.969   0.924  13.511  0.0232 -0.0318 -0.3247
  696TMC3    C810352   2.138   0.805  13.903 -0.9061 -0.0462  0.0451
  696TMC3    O110353   1.985   0.920  13.389 -0.5787 -0.9144  0.1892
  696TMC3    O210354   2.106   0.919  13.925  0.1492 -0.4647 -0.0982
  697MPD2     C10355   1.777   2.468  15.845  0.4110  0.2576 -0.4409
  697MPD2    C110356   1.817   2.442  15.718  0.8440 -0.4274 -0.4721
  697MPD2    C210357   1.890   2.533  15.649 -0.4271 -0.6795  0.1410
  697MPD2    C310358   1.934   2.651  15.710  0.6803 -0.0029  0.2490
  697MPD2    C410359   1.899   2.670  15.845  0.2071  0.2030  0.1356
  697MPD2    C510360   1.819   2.585  15.911  0.3236 -0.3675 -0.1383
  697MPD2     H10361   1.922   2.513  15.548  2.8392  1.6765  0.7078
  697MPD2    H110362   1.934   2.760  15.894 -2.0619  1.5142 -0.6934
  697MPD2    H210363   1.711   2.405  15.904  2.1695  0.6464  1.9425
  697MPD2    H310364   1.773   2.602  16.008 -1.3297  0.4871 -1.0614
  697MPD2     N10365   2.026   2.732  15.635  0.5042 -0.3120 -0.4975
  697MPD2    H510366   2.045   2.705  15.539  2.8695  3.2483 -1.0399
  697MPD2    N110367   1.788   2.326  15.642 -0.1273 -0.3962  0.0027
  697MPD2    H710368   1.822   2.322  15.547  0.2029  0.9078  0.0672
  698TMC3    C110369   2.186   2.903  15.595  0.0418 -0.3887 -0.3861
  698TMC3    C210370   2.297   2.967  15.644 -0.1448  0.1268 -0.1350
  698TMC3    C310371   2.392   3.020  15.556 -0.2302  0.1939  0.3717
  698TMC3    C410372   2.161   2.890  15.466 -0.1931 -0.2177  0.3212
  698TMC3    C510373   2.254   2.945  15.379 -0.4140 -1.1159 -0.1113
  698TMC3    C610374   2.376   2.999  15.421  0.6254  0.2289  0.3578
  698TMC3     C10375   2.097   2.834  15.692 -0.2719 -0.4218 -0.0438
  698TMC3     O10376   2.103   2.879  15.810 -0.1681  0.5533  0.0572
  698TMC3     H10377   2.304   2.995  15.749 -0.1586 -0.3849 -0.0012
  698TMC3    H110378   2.064   2.854  15.435  0.0925 -2.1892  1.6551
  698TMC3    H210379   2.458   3.024  15.354  0.9585 -1.4248  0.1366
  698TMC3    C710380   2.213   2.963  15.241  0.0533  0.0419 -0.4366
  698TMC3    C810381   2.520   3.057  15.619 -0.3769  0.0718 -0.7897
  698TMC3    O110382   2.123   2.892  15.206 -1.0749 -1.3718 -0.0376
  698TMC3    O210383   2.560   3.029  15.730 -0.5939 -0.0512  0.3353
  699TMC3    C110384   1.807   0.688  13.014 -0.2255 -0.0793 -0.0488
  699TMC3    C210385   1.878   0.593  13.085  0.2257 -0.4511  0.0951
  699TMC3    C310386   1.847   0.571  13.213  0.8996 -0.2222 -0.0407
  699TMC3    C410387   1.711   0.766  13.068 -0.4290 -0.6829 -0.5628
  699TMC3    C510388   1.684   0.740  13.206 -0.7494  0.2203 -0.3032
  699TMC3    C610389   1.757   0.647  13.280  0.3896 -0.1982  0.1918
  699TMC3     C10390   1.822   0.716  12.874 -0.2694 -0.2282  0.3748
  699TMC3     O10391   1.781   0.828  12.839 -0.1787  0.2443  0.2957
  699TMC3     H10392   1.959   0.543  13.034  0.8944  1.0527 -0.3241
  699TMC3    H110393   1.655   0.831  13.002  1.9814  1.6310 -0.3575
  699TMC3    H210394   1.736   0.623  13.383 -1.3117 -2.8484 -0.7845
  699TMC3    C710395   1.546   0.771  13.259  0.5085  0.0389 -0.7455
  699TMC3    C810396   1.872   0.438  13.264  0.8219  0.1262 -0.9747
  699TMC3    O110397   1.527   0.732  13.373  0.2358  0.1525  0.1595
  699TMC3    O210398   1.771   0.382  13.304  0.9953 -0.2560 -0.4348
  700TMC3    C110399   1.329   3.752  17.373 -0.1748  0.4948  0.5396
  700TMC3    C210400   1.318   3.611  17.387 -0.6787  0.6236  0.1140
  700TMC3    C310401   1.424   3.551  17.445  0.5381 -1.1962 -0.3815
  700TMC3    C410402   1.426   3.821  17.441  0.0099 -0.4176 -0.2880
  700TMC3    C510403   1.525   3.756  17.510 -0.5995 -0.3338 -0.7514
  700TMC3    C610404   1.528   3.616  17.506  0.1487  0.2111  0.0190
  700TMC3     C10405   1.254   3.822  17.262  0.5763  0.0386 -0.7367
  700TMC3     O10406   1.147   3.768  17.228  0.0292 -0.4847  0.2448
  700TMC3     H10407   1.240   3.551  17.342 -0.5938  0.8139 -0.2944
  700TMC3    H110408   1.428   3.929  17.449  1.1688 -0.2214 -2.8718
  700TMC3    H210409   1.600   3.561  17.565  1.0861  1.2925 -0.1255
  700TMC3    C710410   1.593   3.836  17.615 -0.4140 -0.6522  0.0156
  700TMC3    C810411   1.449   3.412  17.414 -0.2587  0.5414  0.3796
  700TMC3    O110412   1.596   3.956  17.607 -0.5116  0.0008  0.4357
  700TMC3    O210413   1.565   3.385  17.383  0.1463 -0.4413  0.4573
  701TMC3    C110414   0.976   1.951  15.391  0.4130 -0.3272  0.1635
  701TMC3    C210415   1.034   1.904  15.279 -0.1489  0.7024  0.5034
  701TMC3    C310416   1.172   1.903  15.279  0.3690  0.4570 -0.0920
  701TMC3    C410417   1.049   1.995  15.499  0.3355  0.7648 -0.5126
  701TMC3    C510418   1.182   1.993  15.493 -0.3731  0.1342  0.1532
  701TMC3    C610419   1.245   1.942  15.388  0.3537  0.0407 -0.3135
  701TMC3     C10420   0.833   1.992  15.389 -0.0046  0.1399 -0.0552
  701TMC3     O10421   0.787   2.061  15.483  0.4429  0.3679  0.1493
  701TMC3     H10422   0.981   1.843  15.206  1.6577  1.0021 -1.0512
  701TMC3    H110423   0.993   2.033  15.583 -2.5604 -1.8736 -1.2643
  701TMC3    H210424   1.353   1.929  15.384  0.5027  1.0770  0.2175
  701TMC3    C710425   1.249   2.098  15.571  0.5410  0.1798 -0.3566
  701TMC3    C810426   1.239   1.835  15.171 -0.0414 -0.2615 -0.1327
  701TMC3    O110427   1.352   2.150  15.526  0.5632  0.2886  0.3409
  701TMC3    O210428   1.346   1.773  15.176 -0.2828 -0.1878  0.6279
  702MPD2     C10429   0.799   3.984  10.767  0.1870 -0.1431 -0.6356
  702MPD2    C110430   0.666   3.952  10.809  0.4272  0.7810 -0.2653
  702MPD2    C210431   0.560   3.956  10.717 -0.2185  0.3606 -0.4245
  702MPD2    C310432   0.593   3.988  10.588 -0.1638  0.2270  0.2089
  702MPD2    C410433   0.725   4.023  10.547  0.0732  0.8816  0.6774
  702MPD2    C510434   0.825   4.013  10.639  0.6584 -0.2614 -0.3396
  702MPD2     H10435   0.458   3.947  10.751 -0.2480  1.8617 -0.1088
  702MPD2    H110436   0.747   4.069  10.452  3.0430 -2.8362 -0.4659
  702MPD2    H210437   0.878   4.001  10.839 -1.6912 -1.5897  1.8075
  702MPD2    H310438   0.927   4.038  10.612 -0.6128  3.8504 -1.2633
  702MPD2     N10439   0.489   4.013  10.487 -0.1731 -0.7353  0.1246
  702MPD2    H510440   0.523   4.042  10.396  0.8679  0.5479  0.9229
  702MPD2    N110441   0.627   3.918  10.944 -0.0795  0.2367 -0.6706
  702MPD2    H710442   0.527   3.902  10.948  0.1471 -0.4360  2.4447
  703TMC3    C110443   0.268   4.070  10.409  0.1180  0.1070  0.0290
  703TMC3    C210444   0.138   4.058  10.456 -0.5815 -0.7387 -0.6108
  703TMC3    C310445   0.069   4.165  10.493 -0.1877  0.2069  1.0380
  703TMC3    C410446   0.311   4.191  10.366 -0.2522  0.3052  0.5420
  703TMC3    C510447   0.231   4.300  10.404 -0.0760  0.1380 -0.0507
  703TMC3    C610448   0.111   4.290  10.466  0.5809 -0.0441 -0.5138
  703TMC3     C10449   0.355   3.999  10.502  0.0221  0.3705  0.4526
  703TMC3     O10450   0.300   3.951  10.605  0.3720 -0.1661 -0.1866
  703TMC3     H10451   0.101   3.960  10.484 -0.8088 -0.4478  0.0896
  703TMC3    H110452   0.413   4.211  10.333  0.1507 -1.5578  0.6638
  703TMC3    H210453   0.039   4.369  10.482  0.1983 -0.8051  1.5292
  703TMC3    C710454   0.280   4.430  10.365 -0.2560  0.5114  0.0483
  703TMC3    C810455   4.727   4.153  10.613 -0.2335 -0.4303 -0.0188
  703TMC3    O110456   0.359   4.426  10.276 -0.3022 -0.1307  0.7167
  703TMC3    O210457   4.666   4.247  10.665 -0.4838 -0.3856 -0.2994
  704TMC3    C110458   3.208   2.739  12.435  0.2883  0.2864  0.1656
  704TMC3    C210459   3.342   2.738  12.411  0.2878 -0.1129  0.2410
  704TMC3    C310460   3.423   2.639  12.464 -0.0935 -0.3821 -0.1440
  704TMC3    C410461   3.159   2.668  12.538 -0.1481  0.0162 -0.2953
  704TMC3    C510462   3.241   2.578  12.603 -0.1875 -0.4144  0.1219
  704TMC3    C610463   3.372   2.566  12.570 -0.2315 -0.1963 -0.2950
  704TMC3     C10464   3.116   2.814  12.362 -0.6806 -0.5776  0.2652
  704TMC3     O10465   3.021   2.866  12.419  0.0696 -0.0339 -0.4493
  704TMC3     H10466   3.383   2.795  12.329  0.6638 -2.1967 -1.0332
  704TMC3    H110467   3.052   2.668  12.555  0.1105  1.0329  1.3071
  704TMC3    H210468   3.427   2.486  12.620  1.6298  1.4952  0.3413
  704TMC3    C710469   3.169   2.454  12.637 -0.0750 -0.3329 -0.6070
  704TMC3    C810470   3.505   2.568  12.372  0.3159  1.0694  1.0998
  704TMC3    O110471   3.235   2.353  12.623  0.6950 -0.2002 -0.0863
  704TMC3    O210472   3.493   2.605  12.256 -0.1953 -0.2580  0.1780
  705MPD2     C10473   2.471   0.951  16.540  0.1585  0.0048  0.3449
  705MPD2    C110474   2.418   0.967  16.420  0.2695  0.1400  0.7897
  705MPD2    C210475   2.294   1.019  16.405  0.4751  0.7564 -0.3893
  705MPD2    C310476   2.221   1.061  16.517 -0.6843 -0.7211  0.1677
  705MPD2    C410477   2.281   1.050  16.639 -0.2620  0.4143 -0.6875
  705MPD2    C510478   2.406   0.980  16.653 -0.0021 -0.1045  1.1697
  705MPD2     H10479   2.261   1.032  16.302 -1.6714 -2.1984 -0.0855
  705MPD2    H110480   2.238   1.087  16.732  0.0001 -0.4673 -0.2182
  705MPD2    H210481   2.568   0.905  16.552  0.8774  1.8354  1.3725
  705MPD2    H310482   2.434   0.937  16.748  2.5705  0.3240  0.6000
  705MPD2     N10483   2.096   1.129  16.511  0.5590  0.2091  0.3712
  705MPD2    H510484   2.061   1.162  16.601  0.7009 -2.5940  1.4348
  705MPD2    N110485   2.487   0.914  16.312  0.3803 -0.1372  0.1334
  705MPD2    H710486   2.458   0.957  16.224  1.3089  0.5217  0.1438
  706TMC3    C110487   2.743   0.720  15.996  0.3123 -0.6158 -0.4336
  706TMC3    C210488   2.733   0.833  15.922  0.2569  0.0029 -0.2741
  706TMC3    C310489   2.695   0.944  15.991  0.5737 -0.1407 -0.1981
  706TMC3    C410490   2.717   0.727  16.134 -0.2272 -0.5229 -0.6377
  706TMC3    C510491   2.675   0.839  16.193 -0.6105 -0.4096 -0.5998
  706TMC3    C610492   2.667   0.958  16.124 -0.7397  0.0735  0.2013
  706TMC3     C10493   2.762   0.594  15.938 -1.0447 -0.0355  0.0520
  706TMC3     O10494   2.768   0.494  16.005 -0.0019  0.1825  0.3906
  706TMC3     H10495   2.751   0.833  15.815 -0.8367 -0.0702 -0.4672
  706TMC3    H110496   2.727   0.635  16.190 -0.9388  0.2421  0.7465
  706TMC3    H210497   2.648   1.055  16.167 -4.3849 -0.9605  0.9283
  706TMC3    C710498   2.596   0.826  16.315 -0.1226 -0.2832  0.3112
  706TMC3    C810499   2.687   1.059  15.906 -0.0384  0.9319  0.3743
  706TMC3    O110500   2.634   0.748  16.401  0.0008 -0.2321  0.2262
  706TMC3    O210501   2.664   1.037  15.790  0.1440 -0.2435  0.3509
  707TMC3    C110502   4.409   0.320   1.036 -0.6626  0.4934 -1.1966
  707TMC3    C210503   4.499   0.308   1.132 -0.8809 -0.4117  0.5169
  707TMC3    C310504   4.452   0.306   1.268  0.9579  0.0980 -0.4255
  707TMC3    C410505   4.275   0.318   1.064  0.5259  0.7217  0.3321
  707TMC3    C510506   4.230   0.299   1.192 -0.7102  0.3298 -0.7065
  707TMC3    C610507   4.317   0.297   1.295  0.2706 -0.1073  0.8338
  707TMC3     C10508   4.455   0.309   0.897 -0.4054  0.1103 -0.4600
  707TMC3     O10509   4.560   0.256   0.879  0.5035 -0.8565  0.3794
  707TMC3     H10510   4.607   0.308   1.122 -0.9135  0.9187  0.1523
  707TMC3    H110511   4.209   0.301   0.980  2.3167  1.2677 -1.1858
  707TMC3    H210512   4.292   0.288   1.400 -1.6529 -1.0640  0.2967
  707TMC3    C710513   4.090   0.264   1.201  0.0743 -0.6762  0.2779
  707TMC3    C810514   4.533   0.251   1.379  0.2485  0.6410  0.4743
  707TMC3    O110515   4.025   0.243   1.101 -0.2703  0.3886 -0.0944
  707TMC3    O210516   4.489   0.260   1.495  0.3044 -0.0506 -0.6489
  708MPD2     C10517   0.444   3.564  14.282 -0.1364 -1.3063  0.4869
  708MPD2    C110518   0.557   3.515  14.225 -0.2604 -0.1245  0.1269
  708MPD2    C210519   0.633   3.411  14.285  0.0035 -0.1179 -0.2970
  708MPD2    C310520   0.579   3.360  14.404  0.0774 -0.2809 -0.2967
  708MPD2    C410521   0.461   3.411  14.451 -0.3023  0.1344  1.3020
  708MPD2    C510522   0.390   3.505  14.384  0.1546  0.4839  0.1496
  708MPD2     H10523   0.727   3.369  14.250 -0.7995 -1.5128 -0.7477
  708MPD2    H110524   0.416   3.377  14.544  3.4848 -2.3041  2.2208
  708MPD2    H210525   0.396   3.649  14.234  1.4342 -0.2451  0.7755
  708MPD2    H310526   0.293   3.541  14.417  0.2558  1.4454 -0.6223
  708MPD2     N10527   0.639   3.257  14.487  0.3736 -0.2204  0.1743
  708MPD2    H510528   0.598   3.228  14.575 -0.3098 -1.7291 -0.6249
  708MPD2    N110529   0.603   3.600  14.122  0.7527 -0.4640 -0.1515
  708MPD2    H710530   0.549   3.683  14.100 -0.3663 -0.9673  0.6524
  709TMC3    C110531   0.761   3.718  14.016  0.1211  0.1488  0.0278
  709TMC3    C210532   0.655   3.795  13.981  0.3653  0.1128  0.7073
  709TMC3    C310533   0.651   3.917  14.039 -0.2187 -0.3118  0.6832
  709TMC3    C410534   0.863   3.774  14.089  0.2099 -0.5418  0.1205
  709TMC3    C510535   0.836   3.885  14.169 -0.5275  0.1740 -0.2734
  709TMC3    C610536   0.730   3.966  14.140 -0.8440 -0.1081  0.6748
  709TMC3     C10537   0.732   3.588  14.079  0.2105 -0.0887  0.4585
  709TMC3     O10538   0.828   3.519  14.108 -0.0809 -0.4209  0.0649
  709TMC3     H10539   0.581   3.762  13.909  1.8273 -0.9900 -0.2728
  709TMC3    H110540   0.941   3.706  14.121 -0.1403 -0.5613  0.9289
  709TMC3    H210541   0.715   4.063  14.184 -0.9469 -0.5521  1.6113
  709TMC3    C710542   0.891   3.894  14.305  0.3291 -0.6409 -1.4718
  709TMC3    C810543   0.523   3.983  14.021 -0.3981 -0.0329 -0.0243
  709TMC3    O110544   0.909   4.003  14.355  0.3517 -0.7508 -0.2110
  709TMC3    O210545   0.481   4.046  14.117 -0.2217  0.2931 -0.1285
  710TMC3    C110546   1.876   0.798   0.234  0.0780 -0.0245 -0.1238
  710TMC3    C210547   1.915   0.817   0.103 -0.5388  0.4707  0.2171
  710TMC3    C310548   2.019   0.752   0.067  0.3433  0.6558 -0.4701
  710TMC3    C410549   1.945   0.720   0.321 -0.2844 -0.9780 -0.2367
  710TMC3    C510550   2.054   0.652   0.273 -0.2710 -0.1404  0.3346
  710TMC3    C610551   2.095   0.668   0.143 -0.5851 -0.5448 -0.3849
  710TMC3     C10552   1.760   0.876   0.283 -0.4029  0.0421  0.0785
  710TMC3     O10553   1.683   0.916   0.197  0.1944  0.0235 -0.0792
  710TMC3     H10554   1.865   0.888   0.038 -0.3293 -1.1759 -1.7192
  710TMC3    H110555   1.895   0.697   0.415 -0.8307 -1.6323 -0.6957
  710TMC3    H210556   2.158   0.601   0.087 -1.7797 -2.1508  0.2091
  710TMC3    C710557   2.135   0.584   0.364  0.1615  0.4540  0.2175
  710TMC3    C810558   2.079   0.787  17.676  0.1197  0.4894 -0.8398
  710TMC3    O110559   2.103   0.573   0.480 -0.0405  0.0554 -0.0262
  710TMC3    O210560   2.196   0.754  17.660  0.3295 -0.1052 -0.0788
  711TMC3    C110561   1.578   1.368  15.046 -0.7701  0.4379  0.4803
  711TMC3    C210562   1.571   1.439  15.163 -0.1212  0.6211 -0.0913
  711TMC3    C310563   1.672   1.401  15.256  0.6529  0.1405  0.1594
  711TMC3    C410564   1.661   1.261  15.023  0.4351  0.3187  0.3787
  711TMC3    C510565   1.740   1.211  15.124  0.4028 -0.2740  0.0728
  711TMC3    C610566   1.740   1.282  15.244  0.4716  0.6203  0.2947
  711TMC3     C10567   1.504   1.403  14.934  0.0553 -0.3557  0.6274
  711TMC3     O10568   1.529   1.348  14.824  0.0251 -0.0864  0.3168
  711TMC3     H10569   1.512   1.529  15.176  1.4723  1.6286  0.0824
  711TMC3    H110570   1.647   1.197  14.937 -0.9086  2.9751 -1.3651
  711TMC3    H210571   1.805   1.246  15.323 -0.2701 -1.8743 -0.2585
  711TMC3    C710572   1.839   1.110  15.095  0.4277  0.5509  0.2127
  711TMC3    C810573   1.732   1.511  15.325 -0.1957 -0.5695  0.0968
  711TMC3    O110574   1.911   1.088  15.193  0.5439 -0.5893 -0.1197
  711TMC3    O210575   1.659   1.612  15.337  0.2408 -0.3628  0.8480
  712MPD2     C10576   3.729   2.421  13.829  0.7587  0.6706 -0.8581
  712MPD2    C110577   3.597   2.449  13.794  0.0072  0.3170 -0.7815
  712MPD2    C210578   3.547   2.572  13.817 -0.5437  0.0511  0.5808
  712MPD2    C310579   3.628   2.672  13.869 -0.2323  0.5707 -0.1875
  712MPD2    C410580   3.762   2.649  13.883  0.0370  0.6593 -0.2351
  712MPD2    C510581   3.813   2.521  13.870  0.8766 -0.1605 -0.6270
  712MPD2     H10582   3.442   2.591  13.798 -0.2859 -1.4390 -2.3991
  712MPD2    H110583   3.826   2.728  13.920  0.8130 -0.4086  0.7012
  712MPD2    H210584   3.776   2.325  13.807  0.7983  0.8481 -1.5258
  712MPD2    H310585   3.916   2.495  13.890 -0.0564 -1.2435  2.6903
  712MPD2     N10586   3.577   2.803  13.885 -0.1102  1.4479  0.0328
  712MPD2    H510587   3.643   2.874  13.915  0.1115  0.6266  1.4627
  712MPD2    N110588   3.508   2.352  13.742  0.4373 -0.0450 -0.1518
  712MPD2    H710589   3.416   2.385  13.715 -0.0521 -1.0191  0.3280
  713TMC3    C110590   3.449   2.997  13.871  0.4060  0.7545  0.1946
  713TMC3    C210591   3.563   3.060  13.838 -0.4202  0.7589  0.0110
  713TMC3    C310592   3.580   3.187  13.895  0.6172  0.3037  0.7992
  713TMC3    C410593   3.351   3.048  13.950  0.1657  0.1883 -0.2887
  713TMC3    C510594   3.377   3.159  14.019  0.2640 -0.1844  0.3514
  713TMC3    C610595   3.490   3.235  13.990 -0.1858  0.1994  1.0331
  713TMC3     C10596   3.448   2.851  13.866 -0.3755  0.3305 -0.5651
  713TMC3     O10597   3.341   2.796  13.860 -0.6669  0.0367 -0.2731
  713TMC3     H10598   3.639   3.023  13.769  0.8777 -1.3132  2.5736
  713TMC3    H110599   3.257   2.997  13.963  1.0837 -1.3494  0.4001
  713TMC3    H210600   3.492   3.333  14.038  1.7742  0.2087  0.9073
  713TMC3    C710601   3.255   3.218  14.062 -0.0521  0.1410  0.1068
  713TMC3    C810602   3.696   3.270  13.866 -0.1647 -0.1124  0.8247
  713TMC3    O110603   3.258   3.269  14.173  0.2789 -0.1942  0.4299
  713TMC3    O210604   3.711   3.305  13.747  0.0904 -0.0427  0.4908
  714MPD2     C10605   0.650   1.610   1.541 -0.1127  0.2270  0.5457
  714MPD2    C110606   0.710   1.546   1.434  0.2919  0.0086  1.3292
  714MPD2    C210607   0.659   1.567   1.307  0.6881 -0.0464  0.0055
  714MPD2    C310608   0.557   1.653   1.282  0.2201  0.0866  0.3838
  714MPD2    C410609   0.496   1.711   1.389 -0.2653 -0.2438 -0.2299
  714MPD2    C510610   0.538   1.686   1.520 -0.9457  0.7616  0.4613
  714MPD2     H10611   0.694   1.524   1.214  2.4910 -1.2016  1.2149
  714MPD2    H110612   0.420   1.786   1.368 -1.5822 -1.7029 -0.6310
  714MPD2    H210613   0.678   1.606   1.646 -2.5113 -3.9190  1.0425
  714MPD2    H310614   0.487   1.730   1.606 -0.5044 -0.6532  1.4480
  714MPD2     N10615   0.512   1.677   1.148 -0.0629  0.4588 -0.0980
  714MPD2    H510616   0.556   1.622   1.075  0.1843 -1.1209  1.2256
  714MPD2    N110617   0.818   1.460   1.461  0.4409  0.3937 -0.3095
  714MPD2    H710618   0.846   1.449   1.558  3.1381  0.6363 -1.0439
  715TMC3    C110619   0.990   1.303   1.429  0.2022 -0.0151 -0.2802
  715TMC3    C210620   1.021   1.190   1.362  0.0041  0.2936 -0.4271
  715TMC3    C310621   1.130   1.123   1.406 -0.0757  0.0178 -0.9195
  715TMC3    C410622   1.058   1.351   1.537 -0.1301  0.1731  0.2028
  715TMC3    C510623   1.168   1.275   1.572  0.4360  0.6445 -0.2559
  715TMC3    C610624   1.212   1.161   1.509  0.2665  0.2673 -0.3567
  715TMC3     C10625   0.889   1.387   1.365 -0.4417 -0.7866 -0.1125
  715TMC3     O10626   0.870   1.369   1.244  0.3330  0.1573 -0.2309
  715TMC3     H10627   0.957   1.155   1.282 -1.7312  1.1105  0.6109
  715TMC3    H110628   1.039   1.452   1.572 -0.8702  0.1077  0.0012
  715TMC3    H210629   1.293   1.102   1.552 -0.1813 -1.7990 -2.4060
  715TMC3    C710630   1.254   1.330   1.678  0.2741  0.0138 -0.2197
  715TMC3    C810631   1.145   0.989   1.349 -0.5657 -0.4749 -0.2292
  715TMC3    O110632   1.367   1.280   1.687  0.0104  0.0021 -0.1340
  715TMC3    O210633   1.078   0.967   1.253  0.1208  0.3810 -0.3823
  716MPD2     C10634   0.209   3.320   9.588  0.5845 -0.0081 -0.3874
  716MPD2    C110635   0.203   3.440   9.523 -0.1615 -0.0509  0.2503
  716MPD2    C210636   0.165   3.445   9.384 -0.1172  0.7831  0.3176
  716MPD2    C310637   0.117   3.327   9.323  0.1075 -0.0897  0.4474
  716MPD2    C410638   0.124   3.210   9.402  0.3317  0.0187  0.2344
  716MPD2    C510639   0.161   3.204   9.539  0.1570  0.1678  0.1887
  716MPD2     H10640   0.162   3.533   9.322  0.1422  0.9046  0.4790
  716MPD2    H110641   0.090   3.124   9.345  1.3713 -2.1013  2.8708
  716MPD2    H210642   0.253   3.308   9.686  1.1073 -0.6973 -0.7091
  716MPD2    H310643   0.163   3.106   9.586  1.4000 -0.1436 -0.5091
  716MPD2     N10644   0.060   3.349   9.194 -0.3450 -0.2379  0.6686
  716MPD2    H510645   0.052   3.447   9.166  0.4351 -0.0612  1.0385
  716MPD2    N110646   0.239   3.563   9.584  0.4876  0.3362 -0.8249
  716MPD2    H710647   0.281   3.559   9.676 -0.2939  0.8251 -0.4504
  717TMC3    C110648   4.688   3.304   8.988 -0.6643  0.9294 -0.5052
  717TMC3    C210649   4.626   3.425   8.987 -0.1198 -0.5089  0.2549
  717TMC3    C310650   4.560   3.456   8.868  0.1195 -0.1283 -0.0964
  717TMC3    C410651   4.691   3.219   8.880 -0.1156 -0.1986  0.4601
  717TMC3    C510652   4.627   3.252   8.767 -0.6493  0.8702  0.3188
  717TMC3    C610653   4.551   3.368   8.765 -0.1319  0.4580  0.0168
  717TMC3     C10654   0.029   3.250   9.106  0.1467 -0.2492  0.5876
  717TMC3     O10655   0.042   3.130   9.104  0.2608  0.0153  0.6759
  717TMC3     H10656   4.614   3.484   9.077 -1.8625 -0.2237 -0.1623
  717TMC3    H110657   0.020   3.133   8.883  1.3473  0.8959  0.3396
  717TMC3    H210658   4.501   3.398   8.674 -0.1330 -2.2263 -0.8476
  717TMC3    C710659   4.615   3.150   8.660  0.2545 -0.5062 -0.2090
  717TMC3    C810660   4.454   3.553   8.875  0.2821  0.5908 -0.2777
  717TMC3    O110661   4.578   3.191   8.552  0.2691 -0.1206  0.1762
  717TMC3    O210662   4.420   3.599   8.984  0.1480 -0.3176  0.1733
  718MPD2     C10663   4.681   3.366  13.721  0.3988 -0.7056  0.2014
  718MPD2    C110664   0.003   3.314  13.609  0.6768 -0.0916 -0.1096
  718MPD2    C210665   0.082   3.200  13.618  0.0952 -0.0823  0.0291
  718MPD2    C310666   0.095   3.128  13.738 -0.0110  0.4291 -0.2212
  718MPD2    C410667   0.041   3.182  13.854  0.8176  0.5896  0.2805
  718MPD2    C510668   4.706   3.301  13.844  0.6976 -0.1629 -0.1708
  718MPD2     H10669   0.120   3.154  13.528 -1.7137  1.2599 -1.4157
  718MPD2    H110670   0.052   3.131  13.949  0.4209  1.1310  0.6152
  718MPD2    H210671   4.635   3.464  13.718 -1.1456 -1.4618 -0.8256
  718MPD2    H310672   4.681   3.353  13.936 -1.1751 -0.7771 -0.3345
  718MPD2     N10673   0.150   3.001  13.726  0.7289 -0.5334 -0.2546
  718MPD2    H510674   0.179   2.980  13.631  0.2659  0.8542 -0.7044
  718MPD2    N110675   4.705   3.372  13.483 -0.3230 -0.4305 -0.2968
  718MPD2    H710676   4.620   3.427  13.476 -1.8777 -2.8895 -0.5202
  719TMC3    C110677   4.678   3.359  13.253  0.7161 -0.2537 -0.7481
  719TMC3    C210678   4.573   3.273  13.259 -0.6267  0.0068 -0.2723
  719TMC3    C310679   4.531   3.197  13.153  0.9911 -0.0115  0.6520
  719TMC3    C410680   0.003   3.378  13.132  0.2651 -0.0732 -0.3239
  719TMC3    C510681   4.679   3.320  13.017  0.2748  0.2689 -0.3498
  719TMC3    C610682   4.581   3.225  13.032 -0.1109 -0.3298 -0.6077
  719TMC3     C10683   0.035   3.341  13.364 -0.2079  0.5588  0.5386
  719TMC3     O10684   0.149   3.301  13.342 -0.1416  0.0671  0.0309
  719TMC3     H10685   4.555   3.237  13.360 -1.8929  0.1652 -0.4496
  719TMC3    H110686   0.109   3.400  13.130 -0.0269  1.3001 -1.1380
  719TMC3    H210687   4.550   3.171  12.943  0.3197  0.9407 -1.5310
  719TMC3    C710688   0.009   3.320  12.893 -0.2302 -1.2937  0.1494
  719TMC3    C810689   4.543   3.051  13.191  0.3299  0.4010 -0.5129
  719TMC3    O110690   0.022   3.204  12.850  0.0713  0.5565 -0.1752
  719TMC3    O210691   4.521   3.029  13.312 -0.4917 -0.1359 -0.5265
  720MPD2     C10692   3.185   4.361  13.348  0.2266  0.2956 -0.9662
  720MPD2    C110693   3.143   4.486  13.395  0.0703  0.0555 -0.3587
  720MPD2    C210694   3.218   4.545  13.497  0.4946 -0.2087 -0.3168
  720MPD2    C310695   3.337   4.493  13.548  0.4157  0.4768 -0.5258
  720MPD2    C410696   3.373   4.368  13.501 -0.1226  0.3652 -0.3865
  720MPD2    C510697   3.294   4.302  13.407 -0.4045 -0.0799  0.2047
  720MPD2     H10698   3.191   4.646  13.524  0.6963 -0.5499  1.1570
  720MPD2    H110699   3.458   4.310  13.534 -0.4995  0.8811  1.4940
  720MPD2    H210700   3.138   4.301  13.272  1.9768  0.0306 -1.8481
  720MPD2    H310701   3.320   4.200  13.379  0.3261  0.9855 -3.0471
  720MPD2     N10702   3.409   4.557  13.649  0.1813  1.3509 -0.1892
  720MPD2    H510703   3.364   4.630  13.704 -0.5099  1.2772 -0.6559
  720MPD2    N110704   3.029   4.552  13.345  0.1190  0.5932  0.3963
  720MPD2    H710705   3.005   4.642  13.385 -1.4931 -0.0419  0.8778
  721TMC3    C110706   3.591   4.595  13.799  0.5046  0.1026  0.0585
  721TMC3    C210707   3.506   4.660  13.881  0.8377 -0.3170  0.4872
  721TMC3    C310708   3.560   4.721  13.992 -0.2298  0.1415  0.1314
  721TMC3    C410709   3.726   4.603  13.817  0.3468 -0.5317  0.3410
  721TMC3    C510710   3.778   4.668  13.925 -0.1554  0.3179 -0.2485
  721TMC3    C610711   3.694   4.729  14.011  0.3796  0.4256  0.0405
  721TMC3     C10712   3.538   4.524  13.680  0.0271  0.0213 -0.5164
  721TMC3     O10713   3.628   4.488  13.609  0.1115 -0.5463  0.0722
  721TMC3     H10714   3.398   4.655  13.879  0.8464  0.4008 -1.1805
  721TMC3    H110715   3.796   4.555  13.749  1.5283  0.1094  1.1058
  721TMC3    H210716   3.742   0.053  14.088  1.9204  0.2431 -0.7857
  721TMC3    C710717   3.905   0.005  13.897 -0.6365 -0.2906  0.4282
  721TMC3    C810718   3.466   0.047  14.088 -0.6217  0.1018 -0.2584
  721TMC3    O110719   3.963   0.041  13.995 -0.1878  0.0250 -0.4818
  721TMC3    O210720   3.359   0.082  14.042  0.3696  0.2216 -0.2979
  722MPD2     C10721   2.460   2.851  13.314 -0.2899 -0.3601  0.3071
  722MPD2    C110722   2.382   2.959  13.282  0.0366 -0.1851  0.5502
  722MPD2    C210723   2.278   2.947  13.192  0.1620  0.1477 -0.3089
  722MPD2    C310724   2.243   2.824  13.149  0.0745  0.4697  0.7795
  722MPD2    C410725   2.314   2.710  13.198 -0.5099  0.2578 -0.2987
  722MPD2    C510726   2.425   2.724  13.268  0.0781 -0.5349 -0.3571
  722MPD2     H10727   2.233   3.035  13.146 -0.2243  1.3925  2.5005
  722MPD2    H110728   2.278   2.609  13.182 -0.2255  0.3205 -1.3719
  722MPD2    H210729   2.552   2.869  13.369 -0.4200  1.1202  0.0550
  722MPD2    H310730   2.475   2.639  13.313  1.4010 -0.8651 -2.4428
  722MPD2     N10731   2.127   2.817  13.072  0.3669 -0.3136  0.1302
  722MPD2    H510732   2.082   2.902  13.037  2.4269  0.4347 -0.6957
  722MPD2    N110733   2.403   3.086  13.339 -0.1472  0.2081  0.2497
  722MPD2    H710734   2.340   3.156  13.300  1.8588  1.3836 -0.8861
  723TMC3    C110735   1.936   2.733  12.983 -0.8296 -0.3156  0.4707
  723TMC3    C210736   1.822   2.716  13.063 -0.5730 -0.5824  0.0078
  723TMC3    C310737   1.712   2.796  13.037 -0.1909  0.0340 -0.1319
  723TMC3    C410738   1.945   2.829  12.889 -0.4385 -1.0586 -0.5487
  723TMC3    C510739   1.828   2.901  12.864 -0.2757 -0.2212  0.9208
  723TMC3    C610740   1.714   2.885  12.936  0.6857  0.6885  0.0476
  723TMC3     C10741   2.056   2.698  13.049 -0.4130 -0.0685  0.2591
  723TMC3     O10742   2.069   2.593  13.113  0.1224 -0.3171  0.3359
  723TMC3     H10743   1.830   2.670  13.162 -0.2497 -1.7687 -0.5650
  723TMC3    H110744   2.037   2.847  12.834 -0.2734 -0.3736 -0.0411
  723TMC3    H210745   1.621   2.935  12.909 -0.5421 -1.1998  0.7393
  723TMC3    C710746   1.826   3.001  12.755 -0.7560 -0.2461 -0.1289
  723TMC3    C810747   1.583   2.754  13.077 -0.6315  0.0472  0.3709
  723TMC3    O110748   1.897   2.974  12.660  0.2151  0.3984 -0.8007
  723TMC3    O210749   1.498   2.840  13.108 -0.3487  0.3137 -0.1246
  724TMC3    C110750   1.879   1.550  10.390 -0.1255  0.0482  0.3579
  724TMC3    C210751   1.888   1.521  10.258 -0.3394 -0.1736 -0.2738
  724TMC3    C310752   1.973   1.608  10.183  0.1690  0.4272 -0.4618
  724TMC3    C410753   1.946   1.663  10.448  0.2811  0.0668 -0.4058
  724TMC3    C510754   2.029   1.741  10.370  0.3395  0.1787 -0.0568
  724TMC3    C610755   2.043   1.716  10.236 -0.2739  0.5090  0.1902
  724TMC3     C10756   1.807   1.462  10.483  0.1008 -0.0185 -0.0538
  724TMC3     O10757   1.704   1.404  10.441 -0.2160  0.5054 -0.3907
  724TMC3     H10758   1.871   1.424  10.214  1.6521 -0.1731 -1.0624
  724TMC3    H110759   1.919   1.696  10.548 -0.8813 -1.5786 -0.1781
  724TMC3    H210760   2.111   1.777  10.178 -0.3462  0.0987 -0.3262
  724TMC3    C710761   2.101   1.861  10.420  0.0081  0.1143  0.7974
  724TMC3    C810762   1.991   1.586  10.044 -0.1584 -0.1970 -0.1000
  724TMC3    O110763   2.155   1.932  10.337 -0.5691  0.4535 -0.3258
  724TMC3    O210764   1.998   1.470  10.010 -0.4424 -0.1490 -0.0427
  725TMC3    C110765   3.572   0.209  12.788  0.3417  0.1626 -0.1464
  725TMC3    C210766   3.459   0.227  12.716 -0.9679  0.1932 -0.5436
  725TMC3    C310767   3.393   0.119  12.672 -0.1725  0.1261  0.1788
  725TMC3    C410768   3.621   0.084  12.817 -0.0587 -0.4928  0.5900
  725TMC3    C510769   3.546   4.715  12.785  0.5295  0.0690  0.6442
  725TMC3    C610770   3.440   4.734  12.707 -0.0366 -0.5598 -0.8149
  725TMC3     C10771   3.676   0.313  12.767  0.2706  0.3344 -0.1327
  725TMC3     O10772   3.645   0.431  12.782  0.1664 -0.3914  0.3366
  725TMC3     H10773   3.437   0.326  12.678 -2.4222  1.2147  2.9380
  725TMC3    H110774   3.714   0.074  12.871  2.0587  0.4283 -2.8595
  725TMC3    H210775   3.384   4.643  12.690  0.2395 -1.1509  1.4040
  725TMC3    C710776   3.619   4.589  12.772  0.2846  0.0939  0.3751
  725TMC3    C810777   3.302   0.133  12.556 -0.1106  0.2451  0.4117
  725TMC3    O110778   3.576   4.499  12.701  0.0083 -0.4936 -0.2495
  725TMC3    O210779   3.247   0.029  12.516 -0.6687  0.0718 -0.7442
  726MPD2     C10780   0.417   1.590  10.012 -0.1400  0.6346 -0.0708
  726MPD2    C110781   0.523   1.583  10.104  0.9491 -0.5254 -0.0112
  726MPD2    C210782   0.532   1.479  10.193  0.3764  0.3465  0.2960
  726MPD2    C310783   0.430   1.381  10.186 -0.4799 -0.9928 -0.3717
  726MPD2    C410784   0.331   1.378  10.095  0.5202  0.6351  0.2619
  726MPD2    C510785   0.322   1.488  10.015  0.6797 -0.0014  0.5424
  726MPD2     H10786   0.610   1.484  10.268  0.2053  0.9564  0.4386
  726MPD2    H110787   0.261   1.295  10.100  0.9513  0.3342  1.4203
  726MPD2    H210788   0.407   1.674   9.945  0.6731  0.5976 -0.2319
  726MPD2    H310789   0.246   1.488   9.938 -0.5252 -1.5548  1.7425
  726MPD2     N10790   0.427   1.274  10.281 -1.0661  0.0041 -0.0232
  726MPD2    H510791   0.355   1.207  10.258  0.2984 -0.7203 -2.0857
  726MPD2    N110792   0.612   1.689  10.094  1.0504  0.4203 -0.1976
  726MPD2    H710793   0.583   1.760  10.027  0.6892 -0.7107 -1.2450
  727TMC3    C110794   0.784   1.848  10.174  0.0762 -0.3511 -0.4015
  727TMC3    C210795   0.913   1.870  10.213 -0.1687 -0.6808 -0.6241
  727TMC3    C310796   0.947   2.005  10.220  0.6822 -0.3995  0.5085
  727TMC3    C410797   0.698   1.947  10.133  0.1402  0.0118  1.1125
  727TMC3    C510798   0.741   2.080  10.145 -0.1265  0.1973  0.2252
  727TMC3    C610799   0.870   2.112  10.179 -0.1770 -0.4996 -0.3351
  727TMC3     C10800   0.719   1.710  10.183 -0.7776 -0.4718  0.5866
  727TMC3     O10801   0.775   1.626  10.259  0.2504  0.0723 -0.4693
  727TMC3     H10802   0.984   1.793  10.240 -0.2930 -0.5893 -0.0358
  727TMC3    H110803   0.591   1.939  10.117 -0.0141 -0.0090  2.1585
  727TMC3    H210804   0.908   2.213  10.171 -1.7257  0.1668  0.8630
  727TMC3    C710805   0.652   2.185  10.101  0.2943  0.2064 -0.1022
  727TMC3    C810806   1.067   2.033  10.292  0.6417 -0.6125 -0.5593
  727TMC3    O110807   0.558   2.162  10.023 -0.3945  0.6370 -0.6525
  727TMC3    O210808   1.167   1.957  10.273 -0.0793  0.0975  0.3377
  728TMC3    C110809   1.611   0.394  15.088  0.5444 -0.2400 -0.1482
  728TMC3    C210810   1.628   0.258  15.091  0.5467  0.0725 -0.2650
  728TMC3    C310811   1.691   0.189  14.989  0.4920  0.5233  0.6772
  728TMC3    C410812   1.639   0.457  14.972 -0.1035  0.5424  0.1446
  728TMC3    C510813   1.689   0.383  14.863  0.4058  0.0776 -0.1476
  728TMC3    C610814   1.721   0.253  14.870  0.0401  0.3616 -0.2439
  728TMC3     C10815   1.537   0.471  15.178  0.0011 -0.4996  0.1894
  728TMC3     O10816   1.564   0.592  15.174 -0.0217  0.4883  0.3903
  728TMC3     H10817   1.617   0.213  15.189  1.7579  1.0097  0.3091
  728TMC3    H110818   1.635   0.565  14.962 -0.1480  0.4863 -0.4409
  728TMC3    H210819   1.757   0.197  14.784 -1.9208  1.0774 -1.5331
  728TMC3    C710820   1.694   0.442  14.733 -0.1801 -0.4748  0.0214
  728TMC3    C810821   1.697   0.048  14.975  0.1515  0.1292 -0.2858
  728TMC3    O110822   1.774   0.396  14.654  0.0327 -0.1086  0.8208
  728TMC3    O210823   1.766   4.731  14.882  0.1591 -0.3748  0.2546
  729MPD2     C10824   3.289   1.576  16.488  0.2138  0.0553  0.3182
  729MPD2    C110825   3.420   1.598  16.530  0.3427 -0.3462  0.2985
  729MPD2    C210826   3.432   1.609  16.666 -0.6996 -0.6047  0.4386
  729MPD2    C310827   3.332   1.586  16.753 -0.4102 -0.0695 -0.3097
  729MPD2    C410828   3.206   1.554  16.707  0.1304  0.2589  0.6025
  729MPD2    C510829   3.189   1.548  16.574  0.1868 -0.2443 -0.0810
  729MPD2     H10830   3.529   1.644  16.700  0.1316 -1.1532 -1.3657
  729MPD2    H110831   3.128   1.543  16.782  0.2726  1.5278  0.9393
  729MPD2    H210832   3.266   1.570  16.382  0.8083 -0.3689  0.2148
  729MPD2    H310833   3.086   1.538  16.542  0.1207 -0.7113  0.2807
  729MPD2     N10834   3.357   1.590  16.892  0.1393 -0.4606  0.6678
  729MPD2    H510835   3.274   1.583  16.951  0.5191 -1.3542  1.0943
  729MPD2    N110836   3.513   1.652  16.438 -0.2485  0.0001 -0.1899
  729MPD2    H710837   3.471   1.664  16.346 -0.3891 -0.0832 -0.1368
  730TMC3    C110838   3.442   1.663  17.102  0.2373  0.4440 -0.0318
  730TMC3    C210839   3.544   1.698  17.184  0.1703 -0.3221 -0.2813
  730TMC3    C310840   3.522   1.794  17.276 -0.0938 -0.0876  0.5106
  730TMC3    C410841   3.319   1.723  17.127  0.3136  0.5889 -0.1049
  730TMC3    C510842   3.300   1.806  17.231 -0.7936 -0.4086  0.3950
  730TMC3    C610843   3.401   1.839  17.308  0.3908  0.8180 -0.3112
  730TMC3     C10844   3.473   1.630  16.962  0.0271 -1.0750  0.0600
  730TMC3     O10845   3.591   1.634  16.929  0.4871  0.3709  0.1242
  730TMC3     H10846   3.644   1.656  17.173  0.7484  0.6306  1.3587
  730TMC3    H110847   3.239   1.715  17.053 -0.9956  0.1212  1.3638
  730TMC3    H210848   3.394   1.912  17.388 -0.4681 -2.0232  2.2019
  730TMC3    C710849   3.223   1.920  17.191  0.5315 -0.2699 -0.2061
  730TMC3    C810850   3.631   1.887  17.267  0.8788  0.2795 -0.0614
  730TMC3    O110851   3.205   1.939  17.073  0.4253  0.0495  0.0740
  730TMC3    O210852   3.736   1.859  17.223  0.3535  0.1587  0.2172
  731MPD2     C10853   3.130   3.996  12.628  0.2553 -0.3969 -0.2114
  731MPD2    C110854   3.023   3.914  12.631  0.5741 -0.1889 -0.2345
  731MPD2    C210855   2.931   3.917  12.739 -0.1904 -0.3897 -0.1754
  731MPD2    C310856   2.930   4.018  12.834  0.3500  0.5765  0.5251
  731MPD2    C410857   3.031   4.110  12.821  0.4573  0.8070  0.7027
  731MPD2    C510858   3.134   4.091  12.726 -0.2454 -0.0956  0.3184
  731MPD2     H10859   2.855   3.840  12.741  0.1008 -0.7207 -1.6476
  731MPD2    H110860   3.035   4.194  12.889 -0.3133  1.4413 -0.0354
  731MPD2    H210861   3.195   4.005  12.541 -0.6668 -2.8205 -1.1396
  731MPD2    H310862   3.211   4.168  12.720  0.0840 -0.3816  0.8897
  731MPD2     N10863   2.834   4.017  12.936 -0.0547 -0.2761 -0.2338
  731MPD2    H510864   2.777   3.934  12.951 -1.8936  1.2101  1.0405
  731MPD2    N110865   3.014   3.807  12.530  0.5121 -0.2712 -0.0074
  731MPD2    H710866   3.101   3.781  12.485  0.1871 -2.5877  0.6841
  732TMC3    C110867   2.941   3.666  12.366  1.1880  0.8880  0.0849
  732TMC3    C210868   2.863   3.692  12.256 -0.2039  0.6166  0.1616
  732TMC3    C310869   2.915   3.657  12.135 -0.2570  0.5918  0.2411
  732TMC3    C410870   3.072   3.618  12.349 -0.0753 -0.7909  0.4702
  732TMC3    C510871   3.115   3.581  12.229 -0.2948  0.6471  0.9076
  732TMC3    C610872   3.036   3.599  12.115 -0.7136 -0.3023 -0.1171
  732TMC3     C10873   2.904   3.744  12.480  0.1096 -0.4033 -0.2380
  732TMC3     O10874   2.788   3.759  12.508 -0.0214  0.3952  0.1714
  732TMC3     H10875   2.768   3.742  12.269 -0.7693 -0.1655 -0.9966
  732TMC3    H110876   3.140   3.609  12.433 -0.7517 -0.1172  1.0940
  732TMC3    H210877   3.072   3.574  12.016 -2.5672  0.1176 -0.9117
  732TMC3    C710878   3.260   3.594  12.219  0.1924  0.5369  0.2603
  732TMC3    C810879   2.848   3.693  12.009 -0.4370  0.4996 -0.6401
  732TMC3    O110880   3.309   3.680  12.296 -0.4442 -0.1293 -0.5565
  732TMC3    O210881   2.886   3.644  11.904  0.0590 -0.9764  0.1615
  733TMC3    C110882   0.158   2.552  13.825 -0.2933  0.0787 -0.8200
  733TMC3    C210883   0.152   2.679  13.871  0.5734  0.4265 -0.5803
  733TMC3    C310884   0.172   2.778  13.786  0.1477 -0.1741  0.3619
  733TMC3    C410885   0.181   2.524  13.693 -0.4369  0.0458  0.6152
  733TMC3    C510886   0.198   2.625  13.611 -0.9667 -0.2530  0.1729
  733TMC3    C610887   0.194   2.755  13.650  0.5731  0.1541 -0.2053
  733TMC3     C10888   0.058   2.464  13.868 -0.1435 -0.2506 -0.6711
  733TMC3     O10889   0.054   2.416  13.985 -0.1036  0.3206 -0.4476
  733TMC3     H10890   0.126   2.692  13.975 -0.5926 -0.1863 -0.7943
  733TMC3    H110891   0.189   2.428  13.645  2.1773  0.9447 -0.7085
  733TMC3    H210892   0.213   2.827  13.571 -1.6276 -0.3949 -1.2375
  733TMC3    C710893   0.191   2.600  13.472  0.4826 -0.3587 -0.0750
  733TMC3    C810894   0.156   2.915  13.831 -0.4444 -0.3860  0.0718
  733TMC3    O110895   0.268   2.515  13.432  0.3254 -0.0472  0.9662
  733TMC3    O210896   0.166   2.931  13.953  0.3048 -0.8858 -0.4563
  734MPD2     C10897   1.257   0.547  12.151  0.6113 -0.0506 -0.4938
  734MPD2    C110898   1.129   0.535  12.202  0.3074  0.7409 -0.4422
  734MPD2    C210899   1.025   0.501  12.113  0.1051  0.2623  0.0224
  734MPD2    C310900   1.042   0.479  11.975  0.2625 -0.3575 -0.1713
  734MPD2    C410901   1.168   0.476  11.924  1.1345  0.0414  0.2550
  734MPD2    C510902   1.268   0.522  12.015  0.2444  0.4359  0.1917
  734MPD2     H10903   0.924   0.503  12.153  0.5239  1.4593  0.9893
  734MPD2    H110904   1.203   0.443  11.827 -1.8207  0.7876 -1.0554
  734MPD2    H210905   1.335   0.587  12.215 -1.8551  0.0223  2.4512
  734MPD2    H310906   1.364   0.531  11.968 -0.0633 -1.5197 -0.8031
  734MPD2     N10907   0.928   0.441  11.903 -0.3358 -0.7429 -0.2152
  734MPD2    H510908   0.841   0.424  11.952 -0.2859 -1.6680 -0.4350
  734MPD2    N110909   1.105   0.551  12.347  0.1647  0.2955  0.0190
  734MPD2    H710910   1.192   0.552  12.400  0.6081 -0.6614 -0.6643
  735TMC3    C110911   0.995   0.530  12.552 -0.5080 -0.1135 -0.1186
  735TMC3    C210912   0.902   0.448  12.598 -0.0910  0.3803 -0.4805
  735TMC3    C310913   0.928   0.336  12.676 -0.0009  0.9832 -0.4150
  735TMC3    C410914   1.120   0.513  12.607 -0.3299  0.2429 -0.0532
  735TMC3    C510915   1.153   0.399  12.681 -0.4586  0.1018  0.0982
  735TMC3    C610916   1.057   0.307  12.712 -0.5745 -0.3700  0.7228
  735TMC3     C10917   0.984   0.541  12.408 -0.4030  0.1531  0.6126
  735TMC3     O10918   0.869   0.531  12.367  0.3240 -0.2202  0.1788
  735TMC3     H10919   0.801   0.466  12.561 -1.0222 -0.6651  1.5583
  735TMC3    H110920   1.194   0.592  12.597  1.3207 -1.2573  0.1496
  735TMC3    H210921   1.073   0.211  12.759 -0.8867 -0.1495  1.2704
  735TMC3    C710922   1.290   0.351  12.678  0.0503  0.6792  0.0571
  735TMC3    C810923   0.854   0.211  12.634  0.3300  0.1661 -0.3290
  735TMC3    O110924   1.366   0.398  12.597 -0.2585 -0.0558 -0.0265
  735TMC3    O210925   0.860   0.111  12.709 -0.1692 -0.2439 -0.0435
  736MPD2     C10926   1.432   0.055  12.843 -0.0455 -0.2402 -0.3824
  736MPD2    C110927   1.415   0.142  12.740  0.3122 -0.0949  0.3978
  736MPD2    C210928   1.492   0.131  12.623  0.4264  1.1320 -0.6075
  736MPD2    C310929   1.588   0.038  12.613  0.5600  0.0466  0.0967
  736MPD2    C410930   1.609   4.687  12.715 -0.4122 -0.2121  0.3797
  736MPD2    C510931   1.529   4.694  12.829  0.0379  0.7750 -0.2808
  736MPD2     H10932   1.468   0.200  12.543 -0.4460  2.1426  0.5242
  736MPD2    H110933   1.686   4.611  12.714 -1.3505 -1.1720  1.4838
  736MPD2    H210934   1.377   0.066  12.936  1.9650  0.5679  0.6886
  736MPD2    H310935   1.559   4.626  12.908  0.4958 -0.6492 -1.6830
  736MPD2     N10936   1.668   0.025  12.501  0.2843  0.4102 -0.9274
  736MPD2    H510937   1.744   4.694  12.512 -1.4440 -1.1523  1.3613
  736MPD2    N110938   1.311   0.242  12.756 -0.1814 -0.0424  0.1489
  736MPD2    H710939   1.235   0.229  12.821 -1.3120  1.6449 -0.8257
  737TMC3    C110940   1.739   0.042  12.269  0.6429 -0.0256  0.0447
  737TMC3    C210941   1.735   0.135  12.168 -0.3879  0.2203 -0.1015
  737TMC3    C310942   1.738   0.075  12.044  0.0049 -0.7799 -0.6849
  737TMC3    C410943   1.752   4.640  12.250 -1.0392 -0.6299 -0.6297
  737TMC3    C510944   1.763   4.591  12.119 -0.6904 -0.5958  0.1182
  737TMC3    C610945   1.742   4.673  12.015  0.2571 -0.0897 -0.3856
  737TMC3     C10946   1.645   0.081  12.375  0.4925  0.5360  0.4442
  737TMC3     O10947   1.554   0.161  12.343  0.0074 -0.0009 -0.2185
  737TMC3     H10948   1.722   0.240  12.191  1.1231  0.3247  0.3256
  737TMC3    H110949   1.747   4.566  12.330 -0.2673  1.1164  1.0349
  737TMC3    H210950   1.762   4.646  11.912 -0.2893  0.5555 -0.6663
  737TMC3    C710951   1.817   4.456  12.100 -0.2009 -0.0691 -0.5257
  737TMC3    C810952   1.706   0.171  11.939 -0.7762 -1.0003 -0.6653
  737TMC3    O110953   1.824   4.387  12.202 -0.1570  0.6899  0.6168
  737TMC3    O210954   1.746   0.284  11.956 -0.1900  0.0037  0.0423
  738MPD2     C10955   2.774   3.209  15.662 -0.0200  1.3366 -0.4376
  738MPD2    C110956   2.690   3.228  15.549  0.8371 -0.7032 -0.1669
  738MPD2    C210957   2.719   3.324  15.454  0.9665 -0.5079 -1.0336
  738MPD2    C310958   2.828   3.405  15.469 -0.0620 -0.3642 -0.0767
  738MPD2    C410959   2.908   3.392  15.580  0.0000 -0.2409  0.0535
  738MPD2    C510960   2.872   3.303  15.678  0.1992  0.1515 -0.5475
  738MPD2     H10961   2.659   3.330  15.364  1.2390  2.2629 -1.0374
  738MPD2    H110962   2.999   3.443  15.610  1.0811 -2.3045  0.3000
  738MPD2    H210963   2.747   3.145  15.746 -1.6667  0.8105 -1.3806
  738MPD2    H310964   2.938   3.295  15.763 -3.1662 -0.5374  1.9894
  738MPD2     N10965   2.874   3.501  15.375 -0.2523  0.0032  0.1509
  738MPD2    H510966   2.950   3.566  15.391  0.2430 -0.2540 -1.2333
  738MPD2    N110967   2.571   3.156  15.534  0.0810  0.1623 -0.7035
  738MPD2    H710968   2.511   3.191  15.460  0.8968  2.4223 -0.2923
  739TMC3    C110969   2.887   3.605  15.165 -0.0484  0.4356  0.7008
  739TMC3    C210970   2.839   3.628  15.043  0.0132  0.8705 -0.0391
  739TMC3    C310971   2.923   3.683  14.947  0.4097 -0.2262  0.6263
  739TMC3    C410972   3.018   3.616  15.190 -0.2637 -0.6577 -0.6573
  739TMC3    C510973   3.099   3.666  15.093 -0.3464  0.5569 -0.3740
  739TMC3    C610974   3.059   3.694  14.969 -0.2231  0.5345  0.5871
  739TMC3     C10975   2.809   3.529  15.257  0.1826 -0.8359 -0.4149
  739TMC3     O10976   2.704   3.483  15.216  0.2680  0.3943 -0.1699
  739TMC3     H10977   2.735   3.613  15.017  0.4171 -0.3961 -0.9575
  739TMC3    H110978   3.072   3.592  15.281 -0.3412 -2.1106 -0.9975
  739TMC3    H210979   3.130   3.726  14.892 -1.0040  1.1871  0.1431
  739TMC3    C710980   3.237   3.640  15.120  0.9092 -0.1145 -0.3821
  739TMC3    C810981   2.864   3.743  14.829 -0.0234  0.1166 -0.1996
  739TMC3    O110982   3.273   3.521  15.101  0.1727 -0.0154  0.0276
  739TMC3    O210983   2.764   3.689  14.782  0.0756  0.0665 -0.6760
  740TMC3    C110984   3.292   0.415  14.470  0.5589 -0.3820  0.2901
  740TMC3    C210985   3.341   0.456  14.587  0.0535 -0.0018  0.0923
  740TMC3    C310986   3.475   0.454  14.606  0.5921  0.9917  0.2839
  740TMC3    C410987   3.375   0.382  14.366 -0.5168 -0.0734  0.1128
  740TMC3    C510988   3.514   0.388  14.382  0.0895  0.9203  0.1346
  740TMC3    C610989   3.565   0.427  14.506 -0.1404  0.5304  0.7912
  740TMC3     C10990   3.152   0.424  14.435  0.2678 -0.3895  0.6618
  740TMC3     O10991   3.123   0.443  14.318 -0.0030 -0.9680 -0.2337
  740TMC3     H10992   3.279   0.477  14.674 -0.5827  1.4587 -0.7149
  740TMC3    H110993   3.331   0.338  14.277  1.1780  0.4437 -0.9684
  740TMC3    H210994   3.672   0.434  14.515  0.0011  0.5959 -0.9341
  740TMC3    C710995   3.599   0.365  14.269 -0.6136  0.6464 -0.3643
  740TMC3    C810996   3.510   0.456  14.749  0.0893  0.5311 -0.1318
  740TMC3    O110997   3.707   0.312  14.282 -0.5919  0.1401  0.4075
  740TMC3    O210998   3.436   0.506  14.830  0.2832 -0.4824  0.1978
  741TMC3    C110999   2.568   4.247  14.787 -0.3724 -0.0162  0.8968
  741TMC3    C211000   2.516   4.197  14.671  0.0850 -0.4629  0.3660
  741TMC3    C311001   2.482   4.065  14.669 -0.1812 -0.0496  0.2348
  741TMC3    C411002   2.591   4.167  14.899  0.0602  0.3578 -0.3434
  741TMC3    C511003   2.557   4.038  14.891 -0.0077  0.4880  0.1995
  741TMC3    C611004   2.507   3.981  14.775 -0.1087 -0.4255 -0.0815
  741TMC3     C11005   2.655   4.367  14.793  0.2064 -0.3967  0.1828
  741TMC3     O11006   2.727   4.378  14.892  0.2916 -0.4329 -0.2948
  741TMC3     H11007   2.511   4.258  14.582  2.6471  0.7929  1.1046
  741TMC3    H111008   2.622   4.206  14.995 -2.0084  1.6449 -0.2151
  741TMC3    H211009   2.489   3.875  14.762  0.9406 -0.6801  0.5842
  741TMC3    C711010   2.553   3.947  15.005  0.3193 -0.1099 -0.3255
  741TMC3    C811011   2.385   4.022  14.574 -1.0111 -0.2427  0.2651
  741TMC3    O111012   2.488   3.846  14.992 -0.4106 -0.2654  0.1551
  741TMC3    O211013   2.388   4.066  14.461 -0.5424 -0.0664 -0.1355
  742TMC3    C111014   2.713   2.760  15.210 -0.5509  0.4481 -0.0223
  742TMC3    C211015   2.660   2.738  15.083 -0.3426 -1.2516  0.3152
  742TMC3    C311016   2.741   2.761  14.977 -0.2915  0.1245 -0.0048
  742TMC3    C411017   2.844   2.779  15.227  0.0407  0.0760  0.4740
  742TMC3    C511018   2.920   2.787  15.114  0.2236 -0.3690 -0.1812
  742TMC3    C611019   2.875   2.760  14.990 -0.3005  0.8167  0.6479
  742TMC3     C11020   2.637   2.767  15.329 -0.4017  0.0941 -0.9359
  742TMC3     O11021   2.702   2.808  15.429  0.2283  0.3933 -0.1517
  742TMC3     H11022   2.553   2.747  15.068  0.1046 -0.1952 -2.2969
  742TMC3    H111023   2.887   2.772  15.326 -0.5337  0.6339  0.7708
  742TMC3    H211024   2.941   2.760  14.903  0.4565 -1.4648  1.2254
  742TMC3    C711025   3.058   2.759  15.134  1.2558  1.0913  0.3915
  742TMC3    C811026   2.700   2.698  14.854 -0.2745  0.3284 -0.4730
  742TMC3    O111027   3.117   2.698  15.045  0.0613 -0.2694 -0.7101
  742TMC3    O211028   2.620   2.604  14.863  0.8569  0.0565  0.0543
  743MPD2     C11029   0.785   4.398   1.620  0.6346  0.3700 -0.7128
  743MPD2    C111030   0.823   4.402   1.490  0.1257  0.2505 -0.9629
  743MPD2    C211031   0.960   4.372   1.458  0.3780  0.2246  0.4899
  743MPD2    C311032   1.049   4.338   1.557  0.3701 -0.4989  0.0769
  743MPD2    C411033   1.001   4.327   1.683  0.5960  0.7053 -0.9020
  743MPD2    C511034   0.875   4.357   1.718  0.1362  0.6819 -0.1390
  743MPD2     H11035   0.985   4.379   1.353  0.8647  0.5665  0.6282
  743MPD2    H111036   1.066   4.303   1.766  0.9373 -1.1198 -1.7034
  743MPD2    H211037   0.680   4.417   1.641  1.1385 -0.3925  2.4566
  743MPD2    H311038   0.849   4.360   1.823 -3.4270 -1.9289 -0.9588
  743MPD2     N11039   1.185   4.311   1.518 -0.0498 -0.0077  0.7262
  743MPD2    H511040   1.203   4.312   1.419 -2.6431 -0.6244  0.2361
  743MPD2    N111041   0.726   4.435   1.394 -0.5561  0.1269  0.3772
  743MPD2    H711042   0.633   4.457   1.430 -1.1726  1.8328 -2.2243
  744TMC3    C111043   0.617   4.443   1.174 -0.0799  0.1491  0.2581
  744TMC3    C211044   0.519   4.520   1.223 -0.0255 -0.1539 -0.1832
  744TMC3    C311045   0.409   4.548   1.145 -0.5282  0.3482 -0.3882
  744TMC3    C411046   0.620   4.381   1.051  0.3632 -1.0413 -0.3673
  744TMC3    C511047   0.511   4.418   0.970 -0.4891  0.2500 -0.0485
  744TMC3    C611048   0.406   4.499   1.017 -0.0921  0.0382 -0.2946
  744TMC3     C11049   0.738   4.426   1.251 -0.1071 -0.5784  0.2784
  744TMC3     O11050   0.828   4.367   1.192  0.0230 -0.6796 -0.0681
  744TMC3     H11051   0.546   4.590   1.302  0.3660  0.3002 -0.7196
  744TMC3    H111052   0.690   4.305   1.019  1.5024 -0.6700  1.2424
  744TMC3    H211053   0.330   4.529   0.946  0.7945  0.6983 -0.9680
  744TMC3    C711054   0.506   4.337   0.848 -0.1230 -0.3584 -0.8741
  744TMC3    C811055   0.296   4.621   1.192  0.2564  0.2272 -0.1416
  744TMC3    O111056   0.608   4.287   0.812  0.0495 -0.3595 -0.2108
  744TMC3    O211057   0.212   4.646   1.107 -0.1332 -0.0314 -0.1367
  745TMC3    C111058   3.439   2.158  13.615 -0.0354 -0.2742 -0.6305
  745TMC3    C211059   3.314   2.177  13.656 -0.0483 -0.2016  0.4261
  745TMC3    C311060   3.220   2.110  13.576  0.0688  0.0238 -0.1071
  745TMC3    C411061   3.477   2.072  13.518  0.4020 -0.9723  0.1318
  745TMC3    C511062   3.380   2.013  13.438 -0.1022 -0.1221  0.1103
  745TMC3    C611063   3.244   2.031  13.468 -0.4421 -0.6835 -0.5248
  745TMC3     C11064   3.537   2.223  13.701 -0.3328  1.1587 -0.2206
  745TMC3     O11065   3.647   2.172  13.713 -0.2295  0.0753  0.2676
  745TMC3     H11066   3.292   2.219  13.754  1.0763  2.3658 -0.4297
  745TMC3    H111067   3.582   2.061  13.496  0.5820  0.5900  0.2191
  745TMC3    H211068   3.173   1.996  13.394 -0.8675 -1.3630  0.2142
  745TMC3    C711069   3.414   2.006  13.296 -0.7231 -0.4037  0.1332
  745TMC3    C811070   3.078   2.145  13.602  0.2471 -0.2906  0.2255
  745TMC3    O111071   3.324   1.979  13.221  0.8191 -0.7339  0.0069
  745TMC3    O211072   2.990   2.069  13.564  0.0495 -0.4961 -0.1794
  746TMC3    C111073   0.520   4.022  11.334  0.6081  0.3742  0.5602
  746TMC3    C211074   0.623   4.026  11.247  0.1686  0.0363 -0.6843
  746TMC3    C311075   0.635   3.914  11.171 -0.4089  0.5285  0.3551
  746TMC3    C411076   0.434   3.913  11.347  0.4961  0.0119 -0.2012
  746TMC3    C511077   0.449   3.806  11.261 -0.2098  0.3628 -0.2419
  746TMC3    C611078   0.545   3.812  11.163  0.3727 -0.1531 -0.2198
  746TMC3     C11079   0.447   4.150  11.359 -0.2418 -0.6316 -0.1245
  746TMC3     O11080   0.329   4.144  11.394 -0.3661  0.2369 -0.0434
  746TMC3     H11081   0.700   4.101  11.234  0.1202 -0.0644 -1.5646
  746TMC3    H111082   0.347   3.914  11.412  1.9586 -1.0793  1.7919
  746TMC3    H211083   0.566   3.729  11.096  2.3696 -0.5072  0.8229
  746TMC3    C711084   0.347   3.707  11.238 -0.5698 -0.7248  0.5106
  746TMC3    C811085   0.705   3.937  11.047 -0.1607 -0.2585  0.0068
  746TMC3    O111086   0.351   3.648  11.134  0.1518  0.2891  0.2112
  746TMC3    O211087   0.821   3.979  11.049 -0.0884 -0.5123 -0.3274
  747TMC3    C111088   1.997   3.977  11.208 -0.4665  0.3486  0.4956
  747TMC3    C211089   1.921   4.035  11.302  0.4920 -0.4593  0.0162
  747TMC3    C311090   1.989   4.072  11.413 -0.7706 -0.7210 -0.1394
  747TMC3    C411091   2.124   3.940  11.223  0.4451  0.3161 -0.1477
  747TMC3    C511092   2.183   3.973  11.342  0.4967 -0.0767  0.0678
  747TMC3    C611093   2.117   4.041  11.434  0.0364 -0.3199  0.9013
  747TMC3     C11094   1.911   3.946  11.091 -0.5774 -0.1863  0.7790
  747TMC3     O11095   1.788   3.951  11.110  0.0732  0.2359 -0.2743
  747TMC3     H11096   1.822   4.077  11.290 -0.4408 -2.2535  1.3530
  747TMC3    H111097   2.166   3.869  11.153 -4.3393 -2.4377 -0.1992
  747TMC3    H211098   2.165   4.093  11.517 -0.5157  0.7241  0.5672
  747TMC3    C711099   2.329   3.969  11.373 -0.4122  0.4285  0.4592
  747TMC3    C811100   1.923   4.145  11.519 -0.0190  0.0039  0.7339
  747TMC3    O111101   2.364   4.006  11.486 -0.4610  0.1660  1.0920
  747TMC3    O211102   1.851   4.241  11.501 -0.4813 -0.3126  0.5522
  748MPD2     C11103   4.185   0.663   1.287 -0.5769  0.5465  0.6994
  748MPD2    C111104   4.205   0.629   1.158 -0.2997  0.2107  0.3343
  748MPD2    C211105   4.338   0.620   1.114  0.5275 -0.7234  0.3156
  748MPD2    C311106   4.445   0.624   1.202  0.2188  0.6627 -0.5043
  748MPD2    C411107   4.422   0.628   1.332 -0.4169  0.1839  0.3426
  748MPD2    C511108   4.294   0.660   1.369 -0.3274 -0.4786  0.0383
  748MPD2     H11109   4.357   0.612   1.007  2.5689 -1.7736  0.7688
  748MPD2    H111110   4.497   0.608   1.408 -0.2206  3.4162  0.9873
  748MPD2    H211111   4.085   0.669   1.329 -0.7935 -0.5380  0.3473
  748MPD2    H311112   4.284   0.649   1.477 -1.9380  0.2904 -0.0364
  748MPD2     N11113   4.572   0.618   1.143  1.1511  0.2724 -0.0021
  748MPD2    H511114   4.573   0.619   1.041 -0.0533 -2.7123 -0.0365
  748MPD2    N111115   4.089   0.599   1.087  0.9538 -0.2151  0.2993
  748MPD2    H711116   4.006   0.597   1.146  1.5517  2.8036  1.2149
  749TMC3    C111117   0.063   0.542   1.127  0.1727  0.3556  0.6045
  749TMC3    C211118   0.144   0.456   1.195 -0.6361 -0.6492 -0.0439
  749TMC3    C311119   0.261   0.416   1.146  0.0956 -0.2036 -0.7672
  749TMC3    C411120   0.106   0.597   1.011 -0.3259 -0.3423 -0.4438
  749TMC3    C511121   0.227   0.557   0.965  0.2086  0.1014 -0.1503
  749TMC3    C611122   0.310   0.468   1.031 -0.9532  0.2705  0.6326
  749TMC3     C11123   4.692   0.598   1.204  0.3448  0.2809  0.2562
  749TMC3     O11124   4.723   0.607   1.323  0.0818 -0.0798  0.0789
  749TMC3     H11125   0.105   0.405   1.282 -1.5656  0.9979  0.4985
  749TMC3    H111126   0.053   0.680   0.967  1.4361  1.5898  1.0363
  749TMC3    H211127   0.411   0.459   0.994 -0.1860  2.5518  2.1392
  749TMC3    C711128   0.267   0.615   0.831 -0.2228  0.7914  0.0557
  749TMC3    C811129   0.349   0.344   1.230 -0.3379  0.6182  1.2176
  749TMC3    O111130   0.378   0.648   0.811 -0.1359 -0.7839  0.2600
  749TMC3    O211131   0.338   0.368   1.350  0.3580  0.4677 -0.1794
  750MPD2     C11132   0.037   1.073  11.136  0.5368 -0.4183 -0.5033
  750MPD2    C111133   4.652   1.023  11.190  0.0011 -0.3118 -0.3651
  750MPD2    C211134   4.611   0.896  11.166 -0.0527 -0.1049 -0.4680
  750MPD2    C311135   4.682   0.816  11.078 -0.3537  0.2073 -0.0564
  750MPD2    C411136   0.058   0.865  11.018 -0.4338  0.3805  0.1768
  750MPD2    C511137   0.098   0.994  11.040 -0.1566 -0.7772 -0.4660
  750MPD2     H11138   4.526   0.856  11.221  2.1647 -0.2390  2.8846
  750MPD2    H111139   0.113   0.807  10.946 -2.6420 -2.5719  0.8436
  750MPD2    H211140   0.078   1.170  11.160 -1.9029  0.0849  1.5153
  750MPD2    H311141   0.185   1.035  10.989  1.0875 -0.0752  2.2148
  750MPD2     N11142   4.639   0.682  11.052  0.2355  0.0366 -0.4718
  750MPD2    H511143   4.693   0.624  10.990 -0.4186  0.4804 -1.4546
  750MPD2    N111144   4.591   1.111  11.278  0.2693 -0.3571 -0.1106
  750MPD2    H711145   4.644   1.194  11.302 -1.1213  0.6850 -0.6154
  751TMC3    C111146   4.519   0.480  11.046  0.5518  0.3020  0.3578
  751TMC3    C211147   4.450   0.389  11.123 -0.0668 -0.2299  0.0787
  751TMC3    C311148   4.473   0.257  11.110  0.0299  0.9672 -0.0176
  751TMC3    C411149   4.603   0.442  10.948  0.1678 -0.0619 -0.5151
  751TMC3    C511150   4.622   0.307  10.936  0.0038  0.0992 -0.4964
  751TMC3    C611151   4.561   0.216  11.015 -0.1247 -0.6831  0.5366
  751TMC3     C11152   4.524   0.620  11.097 -0.2074 -0.4401 -0.5553
  751TMC3     O11153   4.427   0.643  11.171  0.1170  0.0197 -0.6008
  751TMC3     H11154   4.371   0.427  11.187 -0.4206  0.3824 -0.7205
  751TMC3    H111155   4.641   0.510  10.873  0.1300  1.6791  1.0182
  751TMC3    H211156   4.602   0.115  11.018 -0.3462 -0.7065  2.7335
  751TMC3    C711157   4.677   0.259  10.808 -0.3508 -0.1517  1.4417
  751TMC3    C811158   4.384   0.153  11.159 -0.0743  0.5126  0.0501
  751TMC3    O111159   0.004   0.340  10.739  0.4220  0.4260 -0.5919
  751TMC3    O211160   4.400   0.048  11.099 -0.4901 -0.1745  0.7069
  752TMC3    C111161   4.050   1.966  17.243 -0.6925  0.3316  1.1172
  752TMC3    C211162   4.054   1.827  17.254  0.1876  0.5984 -0.3440
  752TMC3    C311163   4.017   1.772  17.373 -0.3539 -0.3189  0.6063
  752TMC3    C411164   3.990   2.044  17.332 -1.0402  0.2188 -0.0937
  752TMC3    C511165   3.930   1.984  17.438  0.2037  0.1986 -0.0747
  752TMC3    C611166   3.939   1.850  17.460 -0.3025  0.8591  0.7090
  752TMC3     C11167   4.085   2.031  17.121 -0.7763 -0.4520 -0.5860
  752TMC3     O11168   4.096   2.150  17.124  0.1861 -0.0106 -0.0216
  752TMC3     H11169   4.123   1.769  17.194  0.5260 -0.0571  0.6645
  752TMC3    H111170   3.983   2.151  17.318  0.1675  0.3188  0.0858
  752TMC3    H211171   3.901   1.806  17.552 -0.1048  1.4364  1.0668
  752TMC3    C711172   3.860   2.070  17.531  0.3661 -0.5737  0.0328
  752TMC3    C811173   3.971   1.634  17.360 -0.2736  0.5729  0.3202
  752TMC3    O111174   3.875   2.192  17.511  0.2397  0.1835  0.0280
  752TMC3    O211175   3.972   1.583  17.252 -0.3103  0.7294  0.4778
  753TMC3    C111176   1.784   2.051  13.814  0.3436  0.1246  0.0416
  753TMC3    C211177   1.853   2.055  13.931 -0.0084 -0.0835 -0.6622
  753TMC3    C311178   1.863   1.944  14.002  0.2399 -1.2628  0.0296
  753TMC3    C411179   1.738   1.934  13.758 -0.6951  0.1179 -0.5830
  753TMC3    C511180   1.753   1.826  13.838  1.0897 -0.2712 -1.0897
  753TMC3    C611181   1.804   1.829  13.965  0.9951  0.2827  0.4013
  753TMC3     C11182   1.745   2.180  13.755  0.4411  0.2679  0.3148
  753TMC3     O11183   1.748   2.270  13.832  0.8332  0.7286 -0.6953
  753TMC3     H11184   1.912   2.145  13.941 -0.2791  0.1289 -0.9451
  753TMC3    H111185   1.690   1.912  13.663 -0.4064  1.1269 -0.9624
  753TMC3    H211186   1.807   1.741  14.029  0.7858  0.6654  0.9330
  753TMC3    C711187   1.749   1.702  13.769 -0.2981 -0.3111  0.3076
  753TMC3    C811188   1.887   1.962  14.142 -0.4714  0.1103  0.2021
  753TMC3    O111189   1.761   1.714  13.645  0.0402  0.8840  0.0002
  753TMC3    O211190   1.857   1.870  14.218  0.1995 -0.8353  0.2758
  754MPD2     C11191   0.155   0.540  13.026 -0.6103  0.8556 -0.1407
  754MPD2    C111192   0.150   0.675  13.017 -0.2382 -0.6403 -0.4628
  754MPD2    C211193   0.027   0.743  13.013 -0.6493 -0.4841 -0.2282
  754MPD2    C311194   4.647   0.667  13.030 -0.1484 -0.0866  0.7458
  754MPD2    C411195   4.656   0.526  13.046 -0.7901 -0.0018 -0.5593
  754MPD2    C511196   0.044   0.463  13.049  0.2855  0.8235  0.5216
  754MPD2     H11197   0.018   0.850  12.997 -0.4804 -0.3748  0.3899
  754MPD2    H111198   4.567   0.464  13.050 -1.2182  0.5869 -0.9498
  754MPD2    H211199   0.250   0.488  13.014 -0.5936  0.9515 -0.4297
  754MPD2    H311200   0.043   0.355  13.043  0.0953  0.7584  1.8492
  754MPD2     N11201   4.518   0.717  13.028  0.6115  0.3473  0.1567
  754MPD2    H511202   4.446   0.648  13.006  1.2523 -0.1960 -0.2601
  754MPD2    N111203   0.275   0.750  13.010 -0.0035  0.3679 -0.5762
  754MPD2    H711204   0.361   0.706  13.041 -0.9308 -1.4369 -0.5954
  755MPD2     C11205   3.709   1.379  13.308 -0.2830  0.0578  0.0662
  755MPD2    C111206   3.814   1.335  13.386  0.2172  0.4914  0.2651
  755MPD2    C211207   3.906   1.242  13.321 -0.1253 -0.6858  0.2814
  755MPD2    C311208   3.891   1.206  13.187  0.1658  0.1891 -0.3070
  755MPD2    C411209   3.786   1.263  13.119  0.0423 -0.4080 -0.0813
  755MPD2    C511210   3.699   1.347  13.175 -0.5382  0.0458 -0.0635
  755MPD2     H11211   3.995   1.207  13.372  1.9354  1.9605 -1.5370
  755MPD2    H111212   3.770   1.233  13.016  0.7176  1.5178 -0.7575
  755MPD2    H211213   3.629   1.442  13.346  1.8569  2.0388  1.3308
  755MPD2    H311214   3.612   1.381  13.118 -0.2559  0.4339 -0.2658
  755MPD2     N11215   3.979   1.128  13.114 -0.3693  0.1442 -0.2018
  755MPD2    H511216   3.946   1.092  13.025 -0.6819 -1.6505  0.6312
  755MPD2    N111217   3.839   1.358  13.524 -0.3472  0.2625  0.4751
  755MPD2    H711218   3.926   1.323  13.563  0.4948 -0.8585 -2.4146
  756MPD2     C11219   3.937   1.712   9.488  0.0848  0.6782 -0.2518
  756MPD2    C111220   3.945   1.659   9.612  0.3970  0.8676 -0.2384
  756MPD2    C211221   3.826   1.631   9.680 -0.7503 -0.0153 -0.4603
  756MPD2    C311222   3.698   1.640   9.619  0.3081  1.2335  0.8833
  756MPD2    C411223   3.700   1.687   9.491 -0.2805  0.0682  0.5035
  756MPD2    C511224   3.815   1.722   9.431 -0.4458 -0.1726  0.0954
  756MPD2     H11225   3.830   1.608   9.786 -0.3358  0.6295 -0.3357
  756MPD2    H111226   3.610   1.711   9.436  0.4204  0.5148 -0.4358
  756MPD2    H211227   4.024   1.734   9.427  0.0482  1.9992  0.1710
  756MPD2    H311228   3.820   1.744   9.325 -0.0108 -1.5524 -0.1673
  756MPD2     N11229   3.576   1.611   9.686 -0.0923  0.7512 -0.4919
  756MPD2    H511230   3.590   1.561   9.773  0.1530  2.2999  0.3653
  756MPD2    N111231   4.071   1.653   9.683  0.1679 -0.5379  0.5127
  756MPD2    H711232   4.069   1.615   9.777 -1.4006  2.5904  1.7240
  757MPD2     C11233   3.374   0.945  10.255 -0.0955 -0.1641  0.4047
  757MPD2    C111234   3.491   1.010  10.221  0.4458 -0.5379 -0.1612
  757MPD2    C211235   3.472   1.124  10.145  0.1140 -0.0182  0.7163
  757MPD2    C311236   3.348   1.182  10.108  0.0357  0.0954 -0.6015
  757MPD2    C411237   3.233   1.104  10.135  0.3013 -0.2206 -0.1055
  757MPD2    C511238   3.247   0.987  10.206 -1.0558  1.0222  0.1444
  757MPD2     H11239   3.561   1.184  10.131  0.2296 -0.4231 -0.2606
  757MPD2    H111240   3.136   1.149  10.119  1.4213  2.2330 -0.0538
  757MPD2    H211241   3.395   0.855  10.313 -2.9905  0.7543  2.8658
  757MPD2    H311242   3.158   0.928  10.219  0.2860 -0.2641  3.2628
  757MPD2     N11243   3.343   1.310  10.040 -0.4696 -0.4601  0.0733
  757MPD2    H511244   3.428   1.362  10.018 -2.4702  2.5928 -0.4759
  757MPD2    N111245   3.613   0.954  10.251  0.5994 -0.3084  0.2097
  757MPD2    H711246   3.615   0.870  10.308 -1.8491  0.0619  0.8332
  758MPD2     C11247   4.683   0.942  15.875  0.0756 -1.0075 -0.1644
  758MPD2    C111248   0.055   0.909  15.957 -0.1641  0.2111 -1.3703
  758MPD2    C211249   0.041   0.918  16.098 -0.0213  0.0250 -0.2724
  758MPD2    C311250   4.659   0.965  16.148 -0.7506  0.5506  0.4960
  758MPD2    C411251   4.554   1.005  16.067  0.4774 -0.1486  0.3900
  758MPD2    C511252   4.567   0.999  15.931  0.1374 -1.2751  1.0061
  758MPD2     H11253   0.117   0.883  16.167 -0.2265  1.3083  0.5892
  758MPD2    H111254   4.462   1.053  16.100  0.6843  1.4155 -1.3167
  758MPD2    H211255   4.687   0.911  15.772 -1.2178 -0.1104 -0.4889
  758MPD2    H311256   4.474   1.024  15.881  0.4377 -0.8575  0.6513
  758MPD2     N11257   4.639   0.978  16.288  0.4022  0.3282 -0.3430
  758MPD2    H511258   4.545   1.007  16.313 -0.9124 -3.8469 -0.4007
  758MPD2    N111259   0.182   0.860  15.905 -0.8802  0.8739 -0.1712
  758MPD2    H711260   0.200   0.862  15.805 -1.3687  0.6890 -0.2624
  759MPD2     C11261   3.238   4.393   9.880  0.1873  0.7781  0.2462
  759MPD2    C111262   3.324   4.381   9.988 -0.8116 -0.3649 -0.5364
  759MPD2    C211263   3.410   4.488  10.010  0.3739  0.4306  0.0972
  759MPD2    C311264   3.429   4.579   9.911  0.4911 -0.3168  0.3914
  759MPD2    C411265   3.350   4.586   9.801 -0.8309  0.4476 -0.0706
  759MPD2    C511266   3.244   4.494   9.791  0.3821 -0.2584  0.5296
  759MPD2     H11267   3.455   4.506  10.107  1.4561  0.4843 -0.4275
  759MPD2    H111268   3.358   4.666   9.727  0.3752  0.8745  0.5228
  759MPD2    H211269   3.158   4.323   9.859 -0.7815  1.5817  1.2826
  759MPD2    H311270   3.175   4.500   9.708  2.2314  1.6119 -0.8813
  759MPD2     N11271   3.539   4.665   9.931 -0.0303  0.2512 -0.1409
  759MPD2    H511272   3.585   4.657  10.021  2.4241  2.0820 -1.2065
  759MPD2    N111273   3.311   4.279  10.079  0.8452  1.1170 -0.0995
  759MPD2    H711274   3.359   4.293  10.168 -1.8340  1.6412  1.2637
  760MPD2     C11275   2.871   1.422  11.862 -0.4294 -0.1226 -0.1946
  760MPD2    C111276   3.004   1.410  11.827 -0.1876  0.2053  0.3709
  760MPD2    C211277   3.078   1.291  11.839 -0.7571 -0.8302  0.1883
  760MPD2    C311278   3.022   1.181  11.894  0.0897 -0.3723  0.4061
  760MPD2    C411279   2.888   1.184  11.918 -0.3401  0.4574  0.4037
  760MPD2    C511280   2.815   1.303  11.903  0.5187 -0.0042  0.6260
  760MPD2     H11281   3.179   1.291  11.801  0.1920 -0.1497  2.7170
  760MPD2    H111282   2.832   1.102  11.960  0.8766  0.6720  2.4323
  760MPD2    H211283   2.814   1.514  11.857  0.4438  0.3300 -1.9391
  760MPD2    H311284   2.713   1.299  11.940 -0.8542  2.6330 -2.8842
  760MPD2     N11285   3.087   1.067  11.932 -0.1881 -0.2556  0.0068
  760MPD2    H511286   3.020   0.992  11.952  1.1741 -1.2191  0.9555
  760MPD2    N111287   3.070   1.522  11.771  0.3232 -0.0505 -0.2336
  760MPD2    H711288   3.170   1.509  11.763  0.9861  3.2418  2.6325
  761MPD2     C11289   4.014   4.681  11.437 -0.3780 -0.8599 -0.3756
  761MPD2    C111290   4.067   4.639  11.317 -0.6140  0.2133 -0.5966
  761MPD2    C211291   4.163   4.716  11.253  0.1437 -1.0048 -0.3672
  761MPD2    C311292   4.204   0.099  11.312  0.6626 -0.2467  0.2253
  761MPD2    C411293   4.147   0.139  11.425  0.2613  0.5648 -0.3065
  761MPD2    C511294   4.060   0.059  11.491  0.3219 -0.5645  0.2231
  761MPD2     H11295   4.224   4.679  11.172 -0.2676 -2.0181 -0.2196
  761MPD2    H111296   4.171   0.232  11.476 -0.5956  0.7565 -0.2581
  761MPD2    H211297   3.947   4.611  11.485 -1.6235  0.4567 -0.1949
  761MPD2    H311298   4.023   0.091  11.588  0.8028 -1.1549  0.6027
  761MPD2     N11299   4.298   0.194  11.255 -0.6423  0.0602  0.4965
  761MPD2    H511300   4.306   0.284  11.302  1.2206 -0.1905  0.6529
  761MPD2    N111301   4.035   4.511  11.273 -0.4524  0.0787 -0.2920
  761MPD2    H711302   3.993   4.450  11.343  0.5391 -2.6877 -2.1347
  762MPD2     C11303   4.605   3.874  11.030 -0.3791  0.0418  0.2236
  762MPD2    C111304   4.543   3.982  10.971 -0.4287 -0.3873  0.4323
  762MPD2    C211305   4.596   4.044  10.860 -0.1774 -0.5888 -0.4094
  762MPD2    C311306   4.704   3.982  10.800  0.2641  0.3485 -1.0796
  762MPD2    C411307   0.036   3.877  10.861 -0.3443  0.1251 -0.7380
  762MPD2    C511308   4.720   3.822  10.972  1.2088  0.1186 -0.0849
  762MPD2     H11309   4.549   4.134  10.821 -1.4755 -1.7660 -1.5485
  762MPD2    H111310   0.113   3.824  10.805 -1.5960  0.2149 -2.5665
  762MPD2    H211311   4.564   3.825  11.117  1.2008  0.8388  1.4081
  762MPD2    H311312   0.028   3.739  11.026 -0.2483  0.5126  1.7233
  762MPD2     N11313   0.029   4.036  10.682  0.3218  0.3721 -0.0944
  762MPD2    H511314   0.098   3.974  10.641  0.6508 -0.4780  1.7465
  762MPD2    N111315   4.430   4.031  11.038 -0.1384  0.3309 -0.5066
  762MPD2    H711316   4.400   3.969  11.113  0.6124  0.9133  0.2743
  763MPD2     C11317   1.585   1.103  15.985  0.1713  0.5219  0.7123
  763MPD2    C111318   1.708   1.128  15.925 -0.2913  0.0997  0.3981
  763MPD2    C211319   1.784   1.236  15.965 -0.6177  0.1254  0.7066
  763MPD2    C311320   1.740   1.314  16.081  0.0434 -0.1130 -0.2694
  763MPD2    C411321   1.614   1.295  16.129 -0.0371 -0.8558  0.5134
  763MPD2    C511322   1.539   1.183  16.089 -1.1249 -0.4185 -0.7382
  763MPD2     H11323   1.869   1.268  15.907  0.2357 -0.4884  1.6181
  763MPD2    H111324   1.574   1.365  16.201 -0.4178 -1.9694  1.3902
  763MPD2    H211325   1.519   1.023  15.955  0.1630  0.5696  0.6042
  763MPD2    H311326   1.436   1.164  16.118 -0.1158 -3.1160  1.0036
  763MPD2     N11327   1.810   1.426  16.128 -0.0972  0.2045  0.4482
  763MPD2    H511328   1.756   1.494  16.179 -1.6093 -0.7150  0.0543
  763MPD2    N111329   1.753   1.053  15.811 -0.0322  0.0332 -0.2507
  763MPD2    H711330   1.824   1.097  15.753  0.1589  0.1288  0.0555
  764MPD2     C11331   0.027   2.855  17.232 -0.4147 -0.6712 -0.4235
  764MPD2    C111332   4.650   2.777  17.204  0.4906  0.3035  0.0742
  764MPD2    C211333   4.595   2.686  17.297  0.1811  0.4151  0.3563
  764MPD2    C311334   4.665   2.656  17.412  0.1498 -0.2629 -0.0848
  764MPD2    C411335   0.044   2.730  17.435  0.1082 -0.0546  0.3757
  764MPD2    C511336   0.090   2.831  17.349  0.0244 -0.0012 -0.1986
  764MPD2     H11337   4.502   2.634  17.274 -0.1758  0.2218  2.2372
  764MPD2    H111338   0.109   2.712  17.519 -1.1329 -1.5159  1.0133
  764MPD2    H211339   0.072   2.924  17.162 -1.2163  1.2426  0.9513
  764MPD2    H311340   0.188   2.871  17.375  0.1624 -0.3909 -0.1144
  764MPD2     N11341   4.600   2.562  17.506  0.7489 -0.5455 -0.1718
  764MPD2    H511342   4.527   2.508  17.461 -0.8684  1.2188  0.3549
  764MPD2    N111343   4.574   2.802  17.088  0.8752  0.2137  0.1517
  764MPD2    H711344   4.501   2.736  17.064  0.7577 -0.5367  2.5877
  765MPD2     C11345   0.049   0.462  15.855 -0.5070 -0.7892  0.3982
  765MPD2    C111346   0.120   0.538  15.759  0.4978  0.4521 -0.4361
  765MPD2    C211347   0.256   0.513  15.734  0.8297 -0.1802  0.2510
  765MPD2    C311348   0.319   0.403  15.793  0.5302 -0.1942 -0.1489
  765MPD2    C411349   0.251   0.329  15.890 -0.4117  0.4550  0.1944
  765MPD2    C511350   0.115   0.357  15.915 -0.6699 -0.1642  0.1515
  765MPD2     H11351   0.306   0.564  15.652  1.0332  0.2503  0.6410
  765MPD2    H111352   0.291   0.252  15.956 -2.8202 -0.2544  0.8436
  765MPD2    H211353   4.679   0.480  15.872  0.2050  2.2419  1.7647
  765MPD2    H311354   0.056   0.295  15.982  0.2995  0.5204  1.6597
  765MPD2     N11355   0.453   0.367  15.750 -0.4089 -0.0552 -0.2043
  765MPD2    H511356   0.495   0.420  15.674 -0.1616 -0.0525 -0.0636
  765MPD2    N111357   0.050   0.639  15.689 -0.3128 -0.8739 -0.4624
  765MPD2    H711358   4.684   0.635  15.687 -0.3699 -0.5016  1.5730
  766MPD2     C11359   4.258   0.598  15.171  0.9178  0.3013 -0.1398
  766MPD2    C111360   4.394   0.606  15.174  0.2729  0.8923 -0.9699
  766MPD2    C211361   4.457   0.588  15.051  0.1595  0.3565 -0.0985
  766MPD2    C311362   4.391   0.549  14.937 -0.7787  0.0928  1.1179
  766MPD2    C411363   4.255   0.535  14.944 -0.4933 -0.0435 -0.2242
  766MPD2    C511364   4.192   0.567  15.058  0.7214 -0.9604 -0.4485
  766MPD2     H11365   4.565   0.601  15.054  0.1883 -0.3345  1.8647
  766MPD2    H111366   4.200   0.488  14.863 -2.7047 -2.9476  2.9742
  766MPD2    H211367   4.194   0.616  15.256 -0.4912 -0.9682 -0.9196
  766MPD2    H311368   4.085   0.549  15.062  0.8608 -2.2532 -2.3842
  766MPD2     N11369   4.442   0.519  14.812 -0.2151  0.3878  0.3531
  766MPD2    H511370   4.378   0.490  14.739  0.2896 -0.3481  0.1970
  766MPD2    N111371   4.467   0.662  15.276  0.5924 -0.7331 -0.4466
  766MPD2    H711372   4.568   0.674  15.264  0.6361  1.5778  2.0196
  767MPD2     C11373   3.976   0.776  14.839 -0.1841  0.2306 -0.2361
  767MPD2    C111374   4.084   0.809  14.760  0.3266 -0.7241 -0.2811
  767MPD2    C211375   4.117   0.736  14.646  0.3737 -0.2575 -0.0079
  767MPD2    C311376   4.018   0.655  14.587 -1.3138  0.8670  0.5508
  767MPD2    C411377   3.902   0.624  14.650  1.0613  0.6671 -0.4326
  767MPD2    C511378   3.892   0.685  14.777 -0.1800 -0.3833 -0.4992
  767MPD2     H11379   4.210   0.745  14.592  1.8581 -3.2081  2.0751
  767MPD2    H111380   3.842   0.541  14.616 -0.5337  2.4704 -1.9803
  767MPD2    H211381   3.961   0.808  14.942 -0.4353 -0.5869 -0.0120
  767MPD2    H311382   3.807   0.665  14.841  0.2575  0.4710  0.3581
  767MPD2     N11383   4.050   0.596  14.456  0.1601 -0.4164  0.1109
  767MPD2    H511384   4.146   0.602  14.426 -0.1489  0.2367 -0.7586
  767MPD2    N111385   4.184   0.892  14.827  0.5714 -0.2209 -0.4626
  767MPD2    H711386   4.283   0.874  14.814  0.9107  1.3485 -0.0505
  768MPD2     C11387   0.310   3.630  10.659 -0.1746  0.0762 -0.4335
  768MPD2    C111388   0.255   3.545  10.757 -0.6124 -0.6187  0.3193
  768MPD2    C211389   0.347   3.486  10.842  1.1347 -0.0114 -0.5591
  768MPD2    C311390   0.480   3.519  10.854 -0.4667 -0.4917  0.2023
  768MPD2    C411391   0.522   3.614  10.765  0.5119 -0.7831 -0.0305
  768MPD2    C511392   0.441   3.676  10.671  0.2708 -0.4631 -0.0772
  768MPD2     H11393   0.297   3.417  10.910 -1.3560  4.1808  1.8300
  768MPD2    H111394   0.627   3.640  10.775 -0.0986  2.2084 -1.3509
  768MPD2    H211395   0.248   3.673  10.582 -1.8643 -2.0454 -0.2557
  768MPD2    H311396   0.478   3.730  10.585 -2.5822  2.6241  0.6283
  768MPD2     N11397   0.566   3.468  10.956  0.3364 -0.3603 -0.4497
  768MPD2    H511398   0.662   3.503  10.961 -0.3250  1.0711  2.1616
  768MPD2    N111399   0.119   3.505  10.775 -0.4061  1.0158  0.8102
  768MPD2    H711400   0.094   3.443  10.850 -1.2055  1.6600  1.0728
  769MPD2     C11401   1.315   1.805  14.664  0.7266  1.1646  0.1469
  769MPD2    C111402   1.178   1.823  14.680  0.2752  0.0688 -0.4670
  769MPD2    C211403   1.132   1.836  14.814 -0.5626 -0.7162  0.3783
  769MPD2    C311404   1.225   1.828  14.916 -0.0931  0.6521  0.1601
  769MPD2    C411405   1.360   1.798  14.889 -0.0036  0.2282 -0.0617
  769MPD2    C511406   1.406   1.782  14.760  0.1626 -0.1423  0.4910
  769MPD2     H11407   1.027   1.858  14.825  0.0009  2.5629 -0.8135
  769MPD2    H111408   1.434   1.790  14.967  0.2342 -0.6151 -0.3762
  769MPD2    H211409   1.342   1.786  14.560 -3.0923 -1.3416 -0.4136
  769MPD2    H311410   1.506   1.766  14.722  0.2607 -0.6202  0.9484
  769MPD2     N11411   1.173   1.849  15.050  0.6124  0.1929 -0.6118
  769MPD2    H511412   1.080   1.891  15.048  1.1338  1.3482 -0.6580
  769MPD2    N111413   1.093   1.844  14.574  0.0461  0.4299 -0.2064
  769MPD2    H711414   1.135   1.831  14.482  1.2853  0.8836  0.2972
  770MPD2     C11415   0.330   1.742  14.851  0.9685  0.5143  0.1922
  770MPD2    C111416   0.465   1.711  14.859  0.0099  0.2967 -1.5107
  770MPD2    C211417   0.546   1.799  14.788 -0.6687  0.1582 -0.0936
  770MPD2    C311418   0.507   1.901  14.705 -0.2126  0.1858  0.0785
  770MPD2    C411419   0.374   1.930  14.709 -0.4939  0.0955 -0.2391
  770MPD2    C511420   0.295   1.846  14.778 -1.2059  0.0399 -0.1166
  770MPD2     H11421   0.650   1.776  14.772 -0.6773  0.5037 -0.6420
  770MPD2    H111422   0.327   2.003  14.644  0.0134  0.7134  0.0852
  770MPD2    H211423   0.249   1.691  14.903  0.1547 -0.1471 -1.7266
  770MPD2    H311424   0.191   1.875  14.775 -0.9398  1.0381  0.2768
  770MPD2     N11425   0.606   1.966  14.626 -0.3788 -0.3179  0.4172
  770MPD2    H511426   0.702   1.939  14.643  0.2530  0.9028 -1.2153
  770MPD2    N111427   0.514   1.601  14.922  0.2709  0.0239 -0.6919
  770MPD2    H711428   0.447   1.529  14.947  0.6970 -0.2843 -0.4477
  771MPD2     C11429   1.700   3.884  13.492 -0.1843 -0.5795 -0.2800
  771MPD2    C111430   1.619   3.990  13.462 -0.0316 -0.1952 -0.5105
  771MPD2    C211431   1.525   3.977  13.361 -0.5327 -0.5693 -0.1444
  771MPD2    C311432   1.514   3.857  13.293 -0.0949 -0.3955  0.1218
  771MPD2    C411433   1.591   3.745  13.328 -0.2332  0.1128  0.4635
  771MPD2    C511434   1.687   3.765  13.421  0.8430  0.2517 -0.1925
  771MPD2     H11435   1.464   4.060  13.330  0.1728  0.5461  1.4707
  771MPD2    H111436   1.591   3.654  13.269  0.3908 -0.9465  2.0994
  771MPD2    H211437   1.763   3.881  13.581  0.5665 -3.2449 -0.8983
  771MPD2    H311438   1.753   3.683  13.448 -1.0870 -1.5850 -1.0092
  771MPD2     N11439   1.434   3.864  13.184  0.1947 -0.7781 -0.2508
  771MPD2    H511440   1.411   3.957  13.150 -1.0995 -1.1202 -0.3224
  771MPD2    N111441   1.627   4.110  13.530  0.1393 -0.1749  0.0975
  771MPD2    H711442   1.552   4.176  13.511 -0.4060 -0.3576  1.6134
  772MPD2     C11443   1.268   4.631  13.883 -0.1553  0.4243  0.3208
  772MPD2    C111444   1.275   4.550  13.768  0.1923  0.2792 -0.0420
  772MPD2    C211445   1.158   4.492  13.717  0.1490 -0.1631 -0.5699
  772MPD2    C311446   1.038   4.520  13.777 -0.3195  0.2764 -0.0296
  772MPD2    C411447   1.034   4.593  13.892 -0.9160  0.1401  0.0530
  772MPD2    C511448   1.147   4.648  13.941 -0.2450  0.1168 -0.5084
  772MPD2     H11449   1.153   4.429  13.629  0.0846 -2.0207  0.7632
  772MPD2    H111450   0.935   4.613  13.932 -0.9071  0.8530 -0.2755
  772MPD2    H211451   1.351   4.681  13.932 -1.3008  2.4916  0.1839
  772MPD2    H311452   1.133   4.719  14.022  2.9865 -0.9675  1.0060
  772MPD2     N11453   0.913   4.465  13.732  0.1523 -0.0377 -0.8381
  772MPD2    H511454   0.844   4.439  13.801  1.2822  1.3479  0.8066
  772MPD2    N111455   1.399   4.506  13.711 -0.2472 -0.3720 -0.4698
  772MPD2    H711456   1.388   4.432  13.642  1.1345 -1.9022  0.9625
  773MPD2     C11457   0.724   1.320   0.195 -0.3673 -0.2549  0.8286
  773MPD2    C111458   0.704   1.215   0.108 -0.0044  0.1552  0.3631
  773MPD2    C211459   0.761   1.094   0.133 -0.4761  0.2391 -0.0893
  773MPD2    C311460   0.875   1.088   0.213  0.6119 -0.4774  0.2074
  773MPD2    C411461   0.916   1.205   0.279  0.1495 -0.1355  0.1623
  773MPD2    C511462   0.831   1.317   0.270 -0.2368 -0.2707 -0.3517
  773MPD2     H11463   0.738   1.008   0.071 -1.1602 -0.2733  0.8771
  773MPD2    H111464   0.999   1.213   0.348 -0.7320  0.1099  1.1971
  773MPD2    H211465   0.668   1.412   0.182 -0.3073 -0.1275  1.4819
  773MPD2    H311466   0.855   1.399   0.337 -2.3045 -0.5083  0.6759
  773MPD2     N11467   0.950   0.965   0.222 -0.4884 -0.5149  0.2513
  773MPD2    H511468   0.909   0.883   0.179 -0.6369  0.6487 -1.7996
  773MPD2    N111469   0.622   1.233  17.730 -0.2251 -0.1688  0.9065
  773MPD2    H711470   0.598   1.153  17.672 -0.4368  0.7882 -0.3092
  774MPD2     C11471   0.282   0.801  13.858 -0.2111 -0.5341  0.0688
  774MPD2    C111472   0.197   0.742  13.766 -0.3078  0.3275 -0.2770
  774MPD2    C211473   0.207   0.793  13.636 -0.5480  0.0758 -0.1478
  774MPD2    C311474   0.297   0.889  13.601  0.0715  0.5899  0.3367
  774MPD2    C411475   0.378   0.947  13.701 -0.5550 -0.2838  0.1298
  774MPD2    C511476   0.373   0.896  13.825 -0.0186  0.6434  0.4240
  774MPD2     H11477   0.154   0.749  13.552 -3.1447  0.7131  1.1556
  774MPD2    H111478   0.449   1.023  13.671 -1.0541  0.5890  1.1711
  774MPD2    H211479   0.293   0.755  13.955  1.7767 -0.9623 -0.3734
  774MPD2    H311480   0.444   0.943  13.893  0.7318 -0.9137  0.7078
  774MPD2     N11481   0.299   0.925  13.459 -0.7724  0.3444  0.4449
  774MPD2    H511482   0.243   0.864  13.400  0.0422 -0.0370  0.0788
  774MPD2    N111483   0.130   0.623  13.801 -0.8138  0.2043 -0.9729
  774MPD2    H711484   0.137   0.579  13.893 -0.6191 -0.9262 -1.5341
  775MPD2     C11485   1.138   1.463  15.601 -0.4509 -0.7529  0.2891
  775MPD2    C111486   1.138   1.590  15.648 -0.1718 -0.1014 -0.6229
  775MPD2    C211487   1.248   1.671  15.627  0.2629  0.0764  0.3536
  775MPD2    C311488   1.364   1.616  15.566 -0.1403 -0.0309 -0.2057
  775MPD2    C411489   1.363   1.493  15.511  0.4019  1.0328 -0.3039
  775MPD2    C511490   1.249   1.417  15.531 -0.2385 -0.3293 -0.7925
  775MPD2     H11491   1.250   1.775  15.657  0.1632  0.1831 -0.0097
  775MPD2    H111492   1.439   1.435  15.460 -1.1093 -0.3805 -0.9553
  775MPD2    H211493   1.064   1.383  15.604 -0.5103 -0.6263  2.4234
  775MPD2    H311494   1.239   1.322  15.479 -0.8200 -0.2986 -0.7402
  775MPD2     N11495   1.476   1.694  15.543 -0.4659 -0.1384  0.1682
  775MPD2    H511496   1.544   1.663  15.474  0.1303  1.6481 -0.0421
  775MPD2    N111497   1.008   1.629  15.707 -0.4127  0.1156  0.6446
  775MPD2    H711498   0.944   1.551  15.718  0.0943 -0.2921  0.7395
  776MPD2     C11499   0.243   1.426  11.719  0.1254 -0.6986 -0.1452
  776MPD2    C111500   0.141   1.497  11.660 -0.9875  0.4095  0.2506
  776MPD2    C211501   0.164   1.627  11.641 -0.2301  0.0113  0.5581
  776MPD2    C311502   0.285   1.691  11.668  0.0050 -0.2121  0.1313
  776MPD2    C411503   0.380   1.626  11.742  0.0267  1.1108 -0.1016
  776MPD2    C511504   0.344   1.498  11.771 -0.1418 -0.4528 -0.0660
  776MPD2     H11505   0.076   1.676  11.600 -1.3570 -2.7844 -0.3469
  776MPD2    H111506   0.473   1.678  11.762 -1.7415  4.0329  0.5835
  776MPD2    H211507   0.231   1.321  11.742 -0.6585 -1.0324 -2.1522
  776MPD2    H311508   0.412   1.440  11.831  0.9441  0.5131 -0.3680
  776MPD2     N11509   0.318   1.828  11.620  0.2067  0.1658  0.9814
  776MPD2    H511510   0.417   1.849  11.618  0.1620  0.2839 -0.0420
  776MPD2    N111511   0.022   1.424  11.627 -0.0317  0.6036 -0.7470
  776MPD2    H711512   0.022   1.323  11.637  2.3134  0.4410 -2.3073
  777MPD2     C11513   1.037   4.493   0.397  0.3774  0.0411  0.0063
  777MPD2    C111514   1.031   4.393   0.499  0.5047  0.7177 -0.0438
  777MPD2    C211515   1.022   4.263   0.463 -0.6395 -0.4888  0.3671
  777MPD2    C311516   1.019   4.228   0.332  0.2614 -0.8753  0.3197
  777MPD2    C411517   1.025   4.319   0.227  0.4907  0.1420 -0.0661
  777MPD2    C511518   1.027   4.452   0.265 -0.0805 -0.1058 -0.3661
  777MPD2     H11519   1.029   4.182   0.535  3.2267  1.8170  2.6011
  777MPD2    H111520   1.013   4.283   0.125  0.2203  0.8359 -0.2748
  777MPD2    H211521   1.049   4.599   0.419  3.9039 -0.5882  1.0940
  777MPD2    H311522   1.007   4.528   0.190 -0.9866  1.4712  1.4731
  777MPD2     N11523   1.002   4.088   0.317 -0.1041  0.5050 -0.1462
  777MPD2    H511524   0.995   4.035   0.403  1.2242  0.0283 -0.3356
  777MPD2    N111525   1.034   4.446   0.633  0.0488  0.6193 -0.5617
  777MPD2    H711526   1.028   4.547   0.647 -1.4326  0.1286  2.2109
  778MPD2     C11527   1.948   4.569  14.562 -0.2334 -0.0838 -0.3040
  778MPD2    C111528   1.946   4.461  14.470 -0.2339 -0.9745 -0.2931
  778MPD2    C211529   2.015   4.466  14.352  0.4775 -0.0409  0.6579
  778MPD2    C311530   2.089   4.580  14.314 -0.2182  0.5040  0.4949
  778MPD2    C411531   2.072   4.689  14.395  0.1150 -0.4109  0.4638
  778MPD2    C511532   2.008   4.682  14.512  0.6093 -0.8055  0.4179
  778MPD2     H11533   2.029   4.377  14.293 -1.9957 -0.3140  0.4624
  778MPD2    H111534   2.098   0.055  14.367  2.2671 -0.8115  0.9673
  778MPD2    H211535   1.905   4.569  14.662  0.2722 -0.3398 -0.0903
  778MPD2    H311536   2.001   0.042  14.563 -1.8861 -1.0298  0.4874
  778MPD2     N11537   2.155   4.593  14.196  0.5960 -0.2071  0.4563
  778MPD2    H511538   2.150   4.510  14.138 -3.3505  0.1796  0.2560
  778MPD2    N111539   1.888   4.336  14.494  0.4282  0.0529  0.0841
  778MPD2    H711540   1.906   4.272  14.418 -0.2207  0.8965 -0.7835
  779MPD2     C11541   1.945   3.023  13.905  0.7164  0.1697  0.3868
  779MPD2    C111542   1.921   3.083  14.025  0.2374 -0.7165  0.2192
  779MPD2    C211543   1.892   3.222  14.036  0.0867 -0.2243 -0.9752
  779MPD2    C311544   1.892   3.299  13.923 -0.3130 -0.2633  0.0263
  779MPD2    C411545   1.912   3.244  13.797  0.3490 -0.1482 -0.1955
  779MPD2    C511546   1.935   3.104  13.793 -0.1977  0.8096  0.0458
  779MPD2     H11547   1.885   3.276  14.130 -0.4692 -0.1304 -1.0700
  779MPD2    H111548   1.925   3.296  13.703  0.2924  1.1464  0.5033
  779MPD2    H211549   1.965   2.917  13.895  0.6073  0.1913 -0.0921
  779MPD2    H311550   1.941   3.063  13.692  0.6165 -1.3129  0.9626
  779MPD2     N11551   1.895   3.440  13.944  0.8021  0.7287  0.7320
  779MPD2    H511552   1.911   3.467  14.040 -1.2054 -0.0740  1.3126
  779MPD2    N111553   1.944   3.013  14.147 -0.2102 -0.2141 -0.2133
  779MPD2    H711554   1.925   3.067  14.230 -1.6907 -1.0567 -0.0091
  780MPD2     C11555   1.733   3.141   1.219  0.0495  1.1478  0.1413
  780MPD2    C111556   1.635   3.141   1.121 -0.1995  0.6662 -0.2329
  780MPD2    C211557   1.665   3.198   0.999  0.5725  0.1794 -1.1582
  780MPD2    C311558   1.793   3.237   0.961  0.0938 -0.3324  0.4110
  780MPD2    C411559   1.893   3.229   1.060 -0.3140 -0.1500  0.7039
  780MPD2    C511560   1.857   3.196   1.190  0.0600 -0.1332  0.2516
  780MPD2     H11561   1.603   3.195   0.910  2.6377  3.8232 -2.7492
  780MPD2    H111562   1.993   3.265   1.044 -1.1050  1.7818  0.1347
  780MPD2    H211563   1.714   3.102   1.318 -0.3674  1.1664  0.0718
  780MPD2    H311564   1.933   3.201   1.267  0.2753  1.3411 -0.0708
  780MPD2     N11565   1.810   3.305   0.835  0.1558 -0.0241 -0.4803
  780MPD2    H511566   1.733   3.310   0.769  0.8668  1.6716 -1.1765
  780MPD2    N111567   1.511   3.091   1.148  0.1336  0.1673  0.0315
  780MPD2    H711568   1.495   3.064   1.245  2.5282  1.3899  0.7734
  781MPD2     C11569   2.606   4.375  12.111  0.0293 -0.3762 -0.3166
  781MPD2    C111570   2.740   4.405  12.120  0.1140 -0.8732  0.2811
  781MPD2    C211571   2.830   4.316  12.065  0.0248  0.0424  0.2892
  781MPD2    C311572   2.787   4.212  11.986 -0.6856 -0.1131  0.2684
  781MPD2    C411573   2.657   4.196  11.967  0.0793  0.2770 -0.5377
  781MPD2    C511574   2.563   4.273  12.029 -0.1756  0.8428  0.4238
  781MPD2     H11575   2.937   4.331  12.071 -0.3414  2.5151  0.8605
  781MPD2    H111576   2.613   4.128  11.896 -2.7210 -0.6913  2.1401
  781MPD2    H211577   2.523   4.439  12.138  0.4246  0.0057 -0.0246
  781MPD2    H311578   2.456   4.258  12.025 -0.0963  0.4617 -0.3160
  781MPD2     N11579   2.871   4.125  11.907 -0.1083 -0.1787 -0.1542
  781MPD2    H511580   2.832   4.074  11.829  3.2838 -4.1514  0.7075
  781MPD2    N111581   2.781   4.519  12.192  0.2023 -0.2494  0.2484
  781MPD2    H711582   2.881   4.535  12.192  0.1319  0.1956  0.1769
  782MPD2     C11583   4.649   0.641  10.138  0.3541  0.5384 -0.2548
  782MPD2    C111584   0.044   0.596  10.137 -0.4911 -0.3491  0.6997
  782MPD2    C211585   0.131   0.670  10.214  0.1316  0.5248 -0.0718
  782MPD2    C311586   0.089   0.769  10.293  0.4894 -0.1167 -0.5036
  782MPD2    C411587   4.693   0.808  10.298 -0.2154 -0.8273  0.7332
  782MPD2    C511588   4.607   0.745  10.219  0.4487  0.8105  0.4182
  782MPD2     H11589   0.234   0.642  10.198  0.8456  2.1742  1.7466
  782MPD2    H111590   4.650   0.884  10.362 -1.9644 -1.2009  0.0067
  782MPD2    H211591   4.570   0.584  10.089  1.2584  0.3122 -1.4444
  782MPD2    H311592   4.500   0.757  10.231  0.0324 -2.0171 -0.6270
  782MPD2     N11593   0.187   0.839  10.368 -0.4753  0.2125 -0.3783
  782MPD2    H511594   0.282   0.815  10.342 -0.6523 -0.8659  0.0021
  782MPD2    N111595   0.095   0.481  10.071 -0.0506  0.2120 -0.0484
  782MPD2    H711596   0.196   0.466  10.075  0.4103  2.3692 -3.1119
  783MPD2     C11597   4.593   4.669  10.652 -0.2114  0.7962 -0.1060
  783MPD2    C111598   4.649   0.061  10.658 -0.4820 -0.0910  0.1338
  783MPD2    C211599   4.715   0.104  10.545 -0.4370  0.6180  0.6785
  783MPD2    C311600   4.720   0.024  10.433  0.5972 -0.9911  0.1785
  783MPD2    C411601   4.667   4.632  10.434 -0.0433  0.3938 -0.8015
  783MPD2    C511602   4.600   4.586  10.542  0.6315  0.1980 -0.2580
  783MPD2     H11603   0.025   0.203  10.548  1.9353 -0.3499 -2.4127
  783MPD2    H111604   4.694   4.557  10.361 -0.6876 -0.6348  0.0271
  783MPD2    H211605   4.533   4.643  10.739 -0.4206 -1.3216 -0.8674
  783MPD2    H311606   4.555   4.487  10.547  3.0781 -0.8802  0.0024
  783MPD2     N11607   0.045   0.090  10.322  0.2674  0.3318 -0.3842
  783MPD2    H511608   0.093   0.178  10.337  2.5346 -1.1183  0.9259
  783MPD2    N111609   4.617   0.140  10.773  0.7640  0.0838  0.3695
  783MPD2    H711610   4.544   0.108  10.836 -1.6846  0.6962 -2.1636
  784MPD2     C11611   3.345   1.572   0.437 -0.1209  0.2597 -0.5657
  784MPD2    C111612   3.358   1.674   0.531 -0.4301 -0.6180  0.2365
  784MPD2    C211613   3.260   1.774   0.527  0.0726  0.0424  0.0359
  784MPD2    C311614   3.150   1.778   0.434  0.4296 -0.2815  0.3306
  784MPD2    C411615   3.143   1.665   0.348 -0.2104 -0.0112 -1.0155
  784MPD2    C511616   3.240   1.571   0.345  0.7947 -0.4262  0.0156
  784MPD2     H11617   3.265   1.862   0.590 -1.4814 -0.6394  1.1216
  784MPD2    H111618   3.073   1.663   0.265 -1.1562  0.0605 -0.2234
  784MPD2    H211619   3.422   1.496   0.431 -0.0858  0.3201 -0.9290
  784MPD2    H311620   3.235   1.484   0.281  2.2940 -1.0526  0.7444
  784MPD2     N11621   3.061   1.883   0.427 -0.1675 -0.5182  0.3006
  784MPD2    H511622   3.087   1.967   0.479 -0.7435 -0.2830  0.2118
  784MPD2    N111623   3.465   1.678   0.615 -0.2434 -0.4817 -0.3034
  784MPD2    H711624   3.468   1.762   0.672  1.4951  0.2122 -1.4125
  785MPD2     C11625   3.261   4.445  11.397 -0.0883  0.6082  0.6211
  785MPD2    C111626   3.136   4.451  11.345  0.1808  0.1770 -0.6221
  785MPD2    C211627   3.081   4.338  11.286  0.2813 -0.1086 -0.1430
  785MPD2    C311628   3.152   4.219  11.264 -0.2840 -0.6223  0.3360
  785MPD2    C411629   3.285   4.220  11.304  0.0048  0.7966  0.0041
  785MPD2    C511630   3.334   4.333  11.369 -0.6103  0.9893  0.3377
  785MPD2     H11631   2.984   4.352  11.239  0.3291 -1.7096 -0.7296
  785MPD2    H111632   3.346   4.131  11.288 -1.0407  0.3449 -1.5561
  785MPD2    H211633   3.309   4.529  11.448  0.5226 -0.1964  1.3781
  785MPD2    H311634   3.435   4.329  11.409  0.7461  1.3479 -3.0991
  785MPD2     N11635   3.092   4.114  11.191  0.0477  0.1556 -0.3476
  785MPD2    H511636   2.997   4.136  11.162  0.0830 -0.3736 -0.8550
  785MPD2    N111637   3.060   4.567  11.341 -0.2440  0.1102 -0.1115
  785MPD2    H711638   2.971   4.546  11.297 -0.6262  1.8815 -0.1799
  786MPD2     C11639   2.711   2.692  14.344  0.3659 -0.5382  0.1474
  786MPD2    C111640   2.671   2.597  14.434 -0.9452  0.1006  0.5998
  786MPD2    C211641   2.681   2.617  14.568 -0.4925 -0.2092  0.1475
  786MPD2    C311642   2.726   2.741  14.618  0.0449 -0.1476  0.4458
  786MPD2    C411643   2.766   2.839  14.529 -0.4709 -1.2237  0.0531
  786MPD2    C511644   2.756   2.811  14.396  0.8304 -0.7250 -0.2818
  786MPD2     H11645   2.634   2.542  14.630  0.2829 -0.4771  0.4091
  786MPD2    H111646   2.801   2.940  14.552  0.6638 -1.6330  0.1429
  786MPD2    H211647   2.693   2.695  14.237  1.0936 -0.5041  0.0198
  786MPD2    H311648   2.784   2.894  14.332  0.5384 -0.9792 -0.7380
  786MPD2     N11649   2.740   2.776  14.751  0.0925 -0.0207  0.0618
  786MPD2    H511650   2.788   2.861  14.778  0.0236 -0.1391  0.5590
  786MPD2    N111651   2.591   2.481  14.392 -0.2165 -0.1919 -0.0963
  786MPD2    H711652   2.575   2.415  14.467  0.3799  0.0136  0.2165
  787MPD2     C11653   2.347   2.070  14.790 -0.7276  0.2172 -0.4139
  787MPD2    C111654   2.360   2.006  14.669  0.1419  0.6965 -0.6419
  787MPD2    C211655   2.381   1.870  14.679 -0.4997  0.4411  1.2041
  787MPD2    C311656   2.375   1.798  14.794 -0.0297 -0.1792  0.0508
  787MPD2    C411657   2.353   1.865  14.912 -0.4583 -0.8927 -0.3076
  787MPD2    C511658   2.343   2.004  14.911 -0.5141 -0.3857  1.4660
  787MPD2     H11659   2.406   1.818  14.587  0.4571  0.1832  1.6066
  787MPD2    H111660   2.358   1.819  15.010 -2.7571  2.6333  1.4725
  787MPD2    H211661   2.318   2.174  14.779 -3.0203 -0.4394 -0.5607
  787MPD2    H311662   2.332   2.063  15.001  2.4223 -0.5128  1.9054
  787MPD2     N11663   2.401   1.661  14.782 -0.2372  0.4121  0.2576
  787MPD2    H511664   2.425   1.625  14.690  0.4359  1.3737  0.0548
  787MPD2    N111665   2.351   2.088  14.551  0.5750 -0.2847 -0.0577
  787MPD2    H711666   2.346   2.188  14.563  1.5037 -0.2354 -0.0310
  788MPD2     C11667   4.461   1.496   0.995  0.1361  0.0618 -0.3550
  788MPD2    C111668   4.470   1.444   0.865  0.0708  0.1901  0.0606
  788MPD2    C211669   4.509   1.522   0.761 -0.1050 -0.2198 -0.3559
  788MPD2    C311670   4.527   1.660   0.792 -0.0485 -0.6901  0.7933
  788MPD2    C411671   4.511   1.715   0.916 -0.4647  0.7170  1.0625
  788MPD2    C511672   4.471   1.628   1.018 -0.1658 -0.2702 -0.0729
  788MPD2     H11673   4.508   1.481   0.661 -0.8021  0.5888 -0.6795
  788MPD2    H111674   4.528   1.821   0.930 -0.0658  0.6293  1.2303
  788MPD2    H211675   4.419   1.439   1.078  0.8703 -0.2493 -0.1975
  788MPD2    H311676   4.461   1.674   1.115  0.8851 -1.5423  0.6504
  788MPD2     N11677   4.553   1.749   0.687  0.0885  0.1730 -0.3737
  788MPD2    H511678   4.536   1.846   0.709 -3.9031 -0.6714  0.1702
  788MPD2    N111679   4.426   1.313   0.827 -0.0404 -0.3108 -0.8482
  788MPD2    H711680   4.444   1.287   0.731 -0.0366 -1.1581 -0.6238
  789MPD2     C11681   4.408   0.761  16.827 -0.8495  0.0636  0.1244
  789MPD2    C111682   4.370   0.816  16.710 -0.5637  0.2374 -0.0175
  789MPD2    C211683   4.296   0.937  16.708 -0.2339 -0.0264  0.0044
  789MPD2    C311684   4.241   0.986  16.832 -0.1617 -0.3103 -0.3158
  789MPD2    C411685   4.270   0.925  16.953 -0.2756 -0.5779  0.0122
  789MPD2    C511686   4.365   0.818  16.943  0.0743  0.8513 -0.5464
  789MPD2     H11687   4.273   0.976  16.610  1.1671  0.1309 -0.2582
  789MPD2    H111688   4.238   0.962  17.050  0.1659 -1.0621  0.3464
  789MPD2    H211689   4.468   0.671  16.835  0.1010  0.6242 -0.8885
  789MPD2    H311690   4.395   0.764  17.032 -0.8303  0.2739 -0.5933
  789MPD2     N11691   4.143   1.088  16.831  0.1952  0.9003  0.1667
  789MPD2    H511692   4.093   1.096  16.918 -0.2261 -0.1320  0.0195
  789MPD2    N111693   4.401   0.766  16.583  0.0462 -0.1433 -0.8691
  789MPD2    H711694   4.348   0.810  16.508 -1.4566  0.0530  0.3067
  790MPD2     C11695   0.696   2.708  13.160  0.4461 -0.4414  0.3644
  790MPD2    C111696   0.750   2.586  13.193  0.6478  0.2011 -0.3225
  790MPD2    C211697   0.680   2.476  13.149 -0.0580  0.2764  0.3899
  790MPD2    C311698   0.570   2.480  13.066 -0.1328  0.7367 -0.2755
  790MPD2    C411699   0.522   2.596  13.026  0.2242  0.0831  0.2236
  790MPD2    C511700   0.586   2.710  13.070  0.4842 -0.5558  0.4010
  790MPD2     H11701   0.712   2.375  13.173 -0.0152 -0.1752 -1.5295
  790MPD2    H111702   0.435   2.609  12.963 -0.8389 -0.5080  1.5702
  790MPD2    H211703   0.735   2.800  13.203  0.2355 -0.4788  0.6323
  790MPD2    H311704   0.551   2.806  13.036 -3.0659 -2.1875 -0.5350
  790MPD2     N11705   0.506   2.360  13.035  0.5783 -0.3385  0.5840
  790MPD2    H511706   0.549   2.272  13.060  0.7382 -0.6077 -0.6180
  790MPD2    N111707   0.869   2.588  13.271  0.3001 -0.3777  0.2673
  790MPD2    H711708   0.910   2.679  13.290  0.9639 -0.8384  1.0980
  791MPD2     C11709   4.618   2.287  12.562 -0.2502 -0.3097  0.5425
  791MPD2    C111710   4.648   2.164  12.620  0.3744  0.3001 -0.3493
  791MPD2    C211711   4.551   2.064  12.619 -0.1639  0.1227 -0.0442
  791MPD2    C311712   4.432   2.065  12.543  0.1348  0.8194 -0.1230
  791MPD2    C411713   4.400   2.191  12.484 -0.6532  0.1122 -0.4856
  791MPD2    C511714   4.498   2.292  12.493  0.3984  0.0691 -0.1962
  791MPD2     H11715   4.571   1.970  12.669 -1.2032 -1.7050 -3.0697
  791MPD2    H111716   4.319   2.209  12.414 -1.0830  0.3320  0.0620
  791MPD2    H211717   4.677   2.378  12.569 -1.3925  0.3751  1.4023
  791MPD2    H311718   4.476   2.384  12.441  0.6121  1.2563  1.7998
  791MPD2     N11719   4.338   1.957  12.549 -0.0360  0.6544  0.2593
  791MPD2    H511720   4.376   1.871  12.587 -1.6035 -1.6192 -3.3357
  791MPD2    N111721   0.028   2.156  12.702  1.0166 -0.1557  0.0754
  791MPD2    H711722   0.089   2.238  12.701  0.6849  0.0814 -1.8648
  792MPD2     C11723   0.446   1.722  11.293 -0.1914  0.3150 -0.7093
  792MPD2    C111724   0.440   1.771  11.167 -0.4170  0.4656 -0.4165
  792MPD2    C211725   0.373   1.706  11.070  0.4996  0.0712 -0.1288
  792MPD2    C311726   0.318   1.579  11.096  0.0465 -0.1421 -0.0894
  792MPD2    C411727   0.318   1.537  11.225 -0.3388 -0.3743  0.1332
  792MPD2    C511728   0.393   1.603  11.322 -0.4177 -0.4901  1.0632
  792MPD2     H11729   0.357   1.759  10.977 -1.4843 -1.5723 -0.7269
  792MPD2    H111730   0.259   1.449  11.249 -1.3414  0.1111 -0.5302
  792MPD2    H211731   0.501   1.784  11.363  0.1495 -2.8518  1.8476
  792MPD2    H311732   0.395   1.568  11.424  1.2051  2.7318  2.1417
  792MPD2     N11733   0.250   1.500  11.006 -1.0087 -0.4613 -0.0441
  792MPD2    H511734   0.215   1.411  11.041 -0.6268 -0.3083  0.7266
  792MPD2    N111735   0.498   1.899  11.146  0.0978 -0.9141  0.1316
  792MPD2    H711736   0.546   1.942  11.224 -2.1222 -0.4790  1.2654
  793MPD2     C11737   4.657   1.231   9.995 -0.7784  0.0195  0.6544
  793MPD2    C111738   4.651   1.354  10.048 -0.4516 -0.6027  0.1078
  793MPD2    C211739   4.705   1.372  10.181  0.4768  0.0570  0.3467
  793MPD2    C311740   0.021   1.261  10.252  0.2950  0.1821 -0.0665
  793MPD2    C411741   0.029   1.142  10.191  0.7981 -0.9172  0.2417
  793MPD2    C511742   4.716   1.125  10.062 -1.1524 -0.1175 -0.2211
  793MPD2     H11743   4.700   1.468  10.233  1.9276  0.3456 -0.0410
  793MPD2    H111744   0.063   1.052  10.241 -1.0252 -1.2734  0.8693
  793MPD2    H211745   4.614   1.212   9.897  0.6105 -1.8581  0.4249
  793MPD2    H311746   4.703   1.026  10.020  0.7793  0.0403 -1.1849
  793MPD2     N11747   0.054   1.262  10.389  0.0721  0.3321 -0.3000
  793MPD2    H511748   0.068   1.171  10.431 -0.2018  0.1811 -0.5387
  793MPD2    N111749   4.585   1.462   9.988 -0.0540  0.4826  0.3730
  793MPD2    H711750   4.588   1.553  10.032  1.3008 -0.6297  2.5646
  794MPD2     C11751   0.211   1.883  17.270  0.2733 -0.1982  0.3031
  794MPD2    C111752   0.185   1.754  17.226 -0.5406  0.1321  0.3469
  794MPD2    C211753   0.113   1.730  17.110 -0.2918 -0.4184  0.5843
  794MPD2    C311754   0.066   1.846  17.039 -0.2457  0.4054 -0.4450
  794MPD2    C411755   0.109   1.969  17.081  0.8143  0.1702 -0.5926
  794MPD2    C511756   0.176   1.989  17.197 -0.4719 -0.6703  0.3911
  794MPD2     H11757   0.092   1.633  17.067 -0.9938  0.3471 -0.8141
  794MPD2    H111758   0.085   2.051  17.014 -0.6594  0.5511  0.3925
  794MPD2    H211759   0.275   1.901  17.356  2.1360 -0.8004 -0.9573
  794MPD2    H311760   0.221   2.085  17.220  1.4865 -1.8157  1.3179
  794MPD2     N11761   4.723   1.846  16.926  0.6461  0.0415 -0.0372
  794MPD2    H511762   4.685   1.938  16.906  0.6949 -0.3906 -2.0795
  794MPD2    N111763   0.220   1.638  17.290 -0.4864  0.6706 -0.2178
  794MPD2    H711764   0.200   1.554  17.237 -0.7750 -0.3526  1.4834
  795MPD2     C11765   2.847   3.514  13.945 -0.0483  0.2357 -0.3639
  795MPD2    C111766   2.861   3.418  13.852 -0.2335  0.0114  0.2549
  795MPD2    C211767   2.964   3.326  13.861 -0.3510  0.2046  0.0557
  795MPD2    C311768   3.053   3.326  13.966  0.2788  0.0868  0.0692
  795MPD2    C411769   3.032   3.418  14.063  0.0795  0.0316 -0.1308
  795MPD2    C511770   2.933   3.514  14.047 -0.0450  0.7286 -0.8110
  795MPD2     H11771   2.979   3.258  13.778 -1.6191 -0.3121  0.2450
  795MPD2    H111772   3.104   3.435  14.142 -0.6575  1.1532  0.3062
  795MPD2    H211773   2.784   3.601  13.938 -0.7334 -0.1823  0.6491
  795MPD2    H311774   2.925   3.593  14.121 -3.6187 -0.9799  0.6195
  795MPD2     N11775   3.164   3.238  13.961  0.5473 -0.2877  0.0226
  795MPD2    H511776   3.179   3.203  13.867  0.6643  5.2216 -2.0205
  795MPD2    N111777   2.777   3.400  13.738  0.1618 -0.1471 -0.2584
  795MPD2    H711778   2.787   3.334  13.662 -0.1306  0.1966 -0.5944
  796MPD2     C11779   2.261   0.353  15.638  0.4731  0.0079  0.2232
  796MPD2    C111780   2.324   0.432  15.734  0.0377  0.0185  0.9149
  796MPD2    C211781   2.324   0.571  15.716 -0.4056  1.0298 -0.1821
  796MPD2    C311782   2.264   0.625  15.597 -0.2742  0.4253 -0.3432
  796MPD2    C411783   2.191   0.543  15.513 -0.5117  0.4774  0.6998
  796MPD2    C511784   2.194   0.410  15.534  0.0938 -0.0870 -0.0370
  796MPD2     H11785   2.361   0.637  15.793  1.7754 -0.6099  0.1643
  796MPD2    H111786   2.129   0.577  15.431  1.9221 -0.7051 -1.6342
  796MPD2    H211787   2.265   0.245  15.643  1.7622  0.0870  0.8555
  796MPD2    H311788   2.144   0.352  15.458 -1.2472  3.1469 -1.6119
  796MPD2     N11789   2.279   0.765  15.566  0.5289 -0.0469 -0.1427
  796MPD2    H511790   2.342   0.819  15.625 -1.8367 -0.2440  2.5201
  796MPD2    N111791   2.375   0.367  15.846  0.0713 -0.4652  0.2667
  796MPD2    H711792   2.365   0.266  15.849  1.5264 -0.6128  0.0120
  797MPD2     C11793   3.306   0.225  17.658  0.0331  0.0739 -0.3859
  797MPD2    C111794   3.294   0.366  17.653  0.0190 -0.1304 -0.3530
  797MPD2    C211795   3.234   0.419  17.550 -0.8966 -0.2491  0.8121
  797MPD2    C311796   3.165   0.347  17.453  0.1414  0.3151 -0.6700
  797MPD2    C411797   3.168   0.212  17.460  0.1982 -0.6486  0.0877
  797MPD2    C511798   3.249   0.152  17.555  0.0536  0.5995  0.8520
  797MPD2     H11799   3.241   0.527  17.543  0.0135 -0.4564 -1.3767
  797MPD2    H111800   3.109   0.157  17.388 -1.0374  1.8705 -0.8275
  797MPD2    H211801   3.359   0.176  17.739 -1.9001 -1.7414 -0.2141
  797MPD2    H311802   3.254   0.044  17.551  1.3576  0.5850  2.4600
  797MPD2     N11803   3.104   0.415  17.341  0.3060  0.1222  0.0013
  797MPD2    H511804   3.111   0.515  17.352  1.7089  0.1060 -0.6422
  797MPD2    N111805   3.342   0.457   0.014  0.4849 -0.5006  0.5700
  797MPD2    H711806   3.309   0.553   0.004  1.8931 -0.0496  0.3370
  798MPD2     C11807   3.451   0.961  17.252  0.1830  0.1184  0.3464
  798MPD2    C111808   3.363   0.866  17.299  0.1031  0.1053  1.0484
  798MPD2    C211809   3.384   0.818  17.428  0.4477 -0.5525  0.0977
  798MPD2    C311810   3.490   0.849  17.501 -0.2154 -0.5414 -0.0738
  798MPD2    C411811   3.571   0.953  17.457 -0.2052 -0.1422  0.5444
  798MPD2    C511812   3.548   1.005  17.333 -0.1066  0.5101  0.3805
  798MPD2     H11813   3.308   0.759  17.478  0.7860 -0.0949  1.1449
  798MPD2    H111814   3.651   0.989  17.520  0.4805 -0.3876 -0.1947
  798MPD2    H211815   3.443   1.004  17.153 -0.7705  1.2119  0.9115
  798MPD2    H311816   3.613   1.087  17.304  0.9386 -1.0916 -1.8058
  798MPD2     N11817   3.491   0.801  17.632 -0.0149  0.0581  0.4842
  798MPD2    H511818   3.408   0.753  17.662  0.5959 -0.1848  1.7787
  798MPD2    N111819   3.244   0.833  17.223 -0.3235 -0.2623  0.3650
  798MPD2    H711820   3.233   0.881  17.134  2.4242 -1.2537 -0.5250
  799MPD2     C11821   2.081   1.574  14.706 -0.1192  0.2288 -0.1971
  799MPD2    C111822   2.064   1.480  14.607 -0.2352  0.0957 -0.0040
  799MPD2    C211823   2.066   1.522  14.477 -0.7159  0.7115 -0.6032
  799MPD2    C311824   2.090   1.658  14.439  0.1275  0.1518 -0.3551
  799MPD2    C411825   2.095   1.748  14.538  0.0222  0.1849 -0.2494
  799MPD2    C511826   2.087   1.712  14.671 -0.0256 -0.1160  0.2649
  799MPD2     H11827   2.056   1.440  14.407 -0.4776  0.8713 -0.8264
  799MPD2    H111828   2.108   1.850  14.505  2.8863  0.2532  1.1096
  799MPD2    H211829   2.079   1.549  14.812  0.4235  0.6534 -0.0885
  799MPD2    H311830   2.089   1.786  14.751  1.7021  1.9055 -1.6244
  799MPD2     N11831   2.111   1.702  14.306 -0.1683 -0.2699  0.6612
  799MPD2    H511832   2.151   1.795  14.292 -2.1015  0.2744 -1.3940
  799MPD2    N111833   2.070   1.342  14.630 -1.1684  0.7438  0.1842
  799MPD2    H711834   2.075   1.279  14.551 -3.4449  0.0631  0.5887
  800MPD2     C11835   2.767   2.385  13.946 -0.6106  0.0988  0.0072
  800MPD2    C111836   2.892   2.439  13.948  0.1089 -0.5299 -0.0381
  800MPD2    C211837   2.989   2.398  13.856  0.7148  0.2156 -0.2433
  800MPD2    C311838   2.961   2.293  13.768  0.2356  0.2657  0.3542
  800MPD2    C411839   2.841   2.231  13.773 -0.1307 -0.0443 -0.3058
  800MPD2    C511840   2.745   2.283  13.855  0.2339 -0.0903 -0.9985
  800MPD2     H11841   3.083   2.451  13.856 -1.0536  3.4102 -1.6216
  800MPD2    H111842   2.829   2.144  13.709 -0.9173  0.6571 -1.1115
  800MPD2    H211843   2.693   2.412  14.021 -0.4741 -0.5014  0.3551
  800MPD2    H311844   2.652   2.227  13.855  1.0969 -1.5258  1.5964
  800MPD2     N11845   3.062   2.258  13.673  1.3389 -0.1771 -0.3325
  800MPD2    H511846   3.149   2.307  13.690 -0.2721  2.0962  1.2804
  800MPD2    N111847   2.930   2.529  14.051  0.0742  0.2114  0.5813
  800MPD2    H711848   2.857   2.576  14.103  1.7588  2.7585  0.6366
  801MPD2     C11849   2.743   3.256  14.156 -0.2412  0.3950  0.1272
  801MPD2    C111850   2.817   3.196  14.259 -0.6105  0.5690 -0.2256
  801MPD2    C211851   2.784   3.231  14.385 -0.1249 -0.1600  0.5167
  801MPD2    C311852   2.679   3.312  14.413  0.0481  0.6343  0.2076
  801MPD2    C411853   2.606   3.362  14.310  0.2625  0.2455 -1.3065
  801MPD2    C511854   2.641   3.342  14.183 -0.8379 -0.5508  0.9030
  801MPD2     H11855   2.856   3.186  14.453  1.0589  1.0234  0.0424
  801MPD2    H111856   2.527   3.436  14.314  0.9798  0.9551 -0.1120
  801MPD2    H211857   2.743   3.217  14.055 -1.2986  0.0464  0.2603
  801MPD2    H311858   2.585   3.387  14.102  1.5828  0.6258 -0.1222
  801MPD2     N11859   2.627   3.335  14.542 -0.0428  0.0985  0.0937
  801MPD2    H511860   2.535   3.377  14.537  0.4239  0.8744 -1.9165
  801MPD2    N111861   2.911   3.096  14.247  0.0337 -0.9676 -0.2578
  801MPD2    H711862   2.974   3.080  14.325 -2.0289  1.1181  1.8380
  802MPD2     C11863   1.620   3.653  17.117 -0.5187  0.7009 -0.1334
  802MPD2    C111864   1.741   3.660  17.184  0.3158  0.8956  0.3566
  802MPD2    C211865   1.830   3.552  17.188  0.1380  0.6289 -0.4893
  802MPD2    C311866   1.798   3.429  17.128  0.4824  0.7151  0.5360
  802MPD2    C411867   1.672   3.421  17.070  0.5854  0.1437 -0.7350
  802MPD2    C511868   1.586   3.530  17.075 -0.9066 -0.3708 -0.1121
  802MPD2     H11869   1.923   3.558  17.243 -0.6027 -0.6223  0.8952
  802MPD2    H111870   1.625   3.333  17.027 -2.1341  1.7943 -1.0947
  802MPD2    H211871   1.547   3.732  17.132 -2.4607 -1.0925 -0.0902
  802MPD2    H311872   1.482   3.513  17.047 -0.2196 -0.0382 -2.8627
  802MPD2     N11873   1.893   3.334  17.134 -0.0970 -0.0823 -0.0683
  802MPD2    H511874   1.984   3.345  17.178  0.2088 -1.2355 -0.4075
  802MPD2    N111875   1.786   3.775  17.255  0.2770  0.1964  0.1598
  802MPD2    H711876   1.877   3.765  17.298  0.2060 -1.0296  0.0231
  803MPD2     C11877   3.074   2.117  11.730  0.0481  0.6574 -0.0116
  803MPD2    C111878   3.181   2.091  11.814  0.3925 -0.7087  0.9950
  803MPD2    C211879   3.167   2.019  11.927 -0.2602 -1.2038 -0.2120
  803MPD2    C311880   3.039   1.970  11.966  0.2888 -0.2910 -0.1898
  803MPD2    C411881   2.934   2.000  11.884  0.4438 -0.3765 -0.5869
  803MPD2    C511882   2.947   2.076  11.761 -0.4638 -0.3477  0.5112
  803MPD2     H11883   3.259   2.004  11.981 -1.2479 -0.9896  1.5289
  803MPD2    H111884   2.835   1.965  11.910  1.4389 -1.5171  1.6346
  803MPD2    H211885   3.084   2.162  11.632 -0.9236 -0.0036 -0.4216
  803MPD2    H311886   2.867   2.104  11.694  0.9664  3.2692  0.2814
  803MPD2     N11887   3.020   1.899  12.090 -0.1874 -0.2861  0.0927
  803MPD2    H511888   2.922   1.892  12.115 -0.3169 -0.3856 -0.4315
  803MPD2    N111889   3.313   2.128  11.783  0.6993  0.2121 -0.4416
  803MPD2    H711890   3.386   2.114  11.852 -0.5599 -0.3761  0.7479
  804MPD2     C11891   2.898   3.580  16.704  0.6525  0.3079 -0.3991
  804MPD2    C111892   2.878   3.586  16.843 -0.4788 -0.7823  0.1264
  804MPD2    C211893   2.919   3.701  16.911 -0.8217  0.0368 -0.1933
  804MPD2    C311894   2.978   3.811  16.849 -0.4856 -0.6518 -1.0122
  804MPD2    C411895   3.004   3.794  16.713 -0.1029 -0.0865 -0.9342
  804MPD2    C511896   2.966   3.684  16.643  0.2682  0.1384  0.3230
  804MPD2     H11897   2.899   3.698  17.018  0.8189  1.0986  0.1471
  804MPD2    H111898   3.064   3.868  16.661  2.2416 -0.2208  1.6119
  804MPD2    H211899   2.867   3.500  16.638 -2.5175  1.0542  0.1813
  804MPD2    H311900   2.977   3.675  16.535 -1.4127 -1.7796  0.3079
  804MPD2     N11901   3.016   3.925  16.915 -0.3869 -0.0221 -0.2922
  804MPD2    H511902   3.080   3.987  16.867 -1.4696  1.7401  0.5327
  804MPD2    N111903   2.842   3.480  16.923  0.1719 -0.0582  0.0310
  804MPD2    H711904   2.844   3.486  17.025 -0.3322  0.6992 -0.0052
  805MPD2     C11905   1.923   1.712  15.427  0.4855  0.0590  0.0357
  805MPD2    C111906   1.963   1.595  15.366  0.1234  0.1738 -0.0056
  805MPD2    C211907   2.097   1.571  15.343 -0.0163  0.3026 -0.2839
  805MPD2    C311908   2.193   1.667  15.368 -0.2447 -0.2248 -0.3868
  805MPD2    C411909   2.148   1.784  15.426 -0.2573 -0.0652  0.1407
  805MPD2    C511910   2.014   1.807  15.457 -0.2174 -0.1551  0.2202
  805MPD2     H11911   2.137   1.480  15.300 -0.2327  0.2446 -0.3633
  805MPD2    H111912   2.209   1.872  15.439  1.3504 -1.3290  1.1732
  805MPD2    H211913   1.819   1.725  15.456  0.8209  1.9857  0.3636
  805MPD2    H311914   1.989   1.904  15.498 -0.3850 -0.6334  1.2314
  805MPD2     N11915   2.327   1.666  15.318 -0.0768 -0.3315 -0.3867
  805MPD2    H511916   2.385   1.747  15.338 -0.0056 -0.6198  0.6000
  805MPD2    N111917   1.869   1.495  15.321  0.5698 -0.1468 -0.6413
  805MPD2    H711918   1.902   1.413  15.271  0.3692  0.2939 -1.5142
  806MPD2     C11919   2.266   1.291  17.694 -0.4096  0.2799 -0.0277
  806MPD2    C111920   2.255   1.394   0.045 -0.0553 -0.7262  0.3543
  806MPD2    C211921   2.300   1.519   0.006  0.2675  0.0706  0.5233
  806MPD2    C311922   2.387   1.525  17.636  0.2187  0.2745  0.1227
  806MPD2    C411923   2.417   1.415  17.564 -0.1992 -0.0270  0.6236
  806MPD2    C511924   2.354   1.296  17.587 -0.4428  0.0786 -0.1712
  806MPD2     H11925   2.276   1.608   0.063  1.0382 -0.7276  2.0899
  806MPD2    H111926   2.485   1.426  17.480 -2.9046  0.9887 -1.4392
  806MPD2    H211927   2.207   1.202  17.709  1.5404 -0.9264  0.5629
  806MPD2    H311928   2.371   1.219  17.513 -0.7538  0.5187 -0.6972
  806MPD2     N11929   2.447   1.651  17.618 -0.2774 -0.5028 -0.7663
  806MPD2    H511930   2.401   1.728  17.665  2.5933  0.6004  0.2594
  806MPD2    N111931   2.189   1.362   0.168  0.6818 -0.1611 -0.7616
  806MPD2    H711932   2.166   1.265   0.183  0.9708  0.1432  1.6629
  807MPD2     C11933   2.272   0.883   0.557 -0.4871  0.4758 -0.6265
  807MPD2    C111934   2.184   0.924   0.661 -0.3240  0.3927 -0.2878
  807MPD2    C211935   2.201   0.880   0.790  0.2110  0.0563  0.3831
  807MPD2    C311936   2.305   0.797   0.823 -0.6971  0.3089 -0.2996
  807MPD2    C411937   2.385   0.750   0.723  0.4036 -0.3511 -0.0329
  807MPD2    C511938   2.359   0.785   0.589  0.6705  0.2497 -0.1595
  807MPD2     H11939   2.145   0.916   0.876 -0.9996  0.5161 -0.5991
  807MPD2    H111940   2.475   0.690   0.733  1.2323  1.0492  0.9047
  807MPD2    H211941   2.263   0.913   0.453  0.3542 -0.6300 -1.0199
  807MPD2    H311942   2.424   0.749   0.511  1.0780 -3.0038  1.7005
  807MPD2     N11943   2.330   0.769   0.962 -0.1704 -0.2227 -0.4075
  807MPD2    H511944   2.274   0.806   1.038  1.8250 -1.2179  1.5572
  807MPD2    N111945   2.093   1.032   0.640  0.5058  0.1460  0.2385
  807MPD2    H711946   2.044   1.076   0.717 -0.7041  0.5064 -0.7452
  808MPD2     C11947   2.235   2.837   9.812  0.1962 -0.2532  0.1308
  808MPD2    C111948   2.335   2.783   9.740  0.7833  0.2114 -0.1645
  808MPD2    C211949   2.451   2.850   9.727 -0.6772  0.1231 -0.4388
  808MPD2    C311950   2.477   2.960   9.809 -0.3063 -0.6285 -0.5982
  808MPD2    C411951   2.381   3.000   9.899 -1.1647 -0.7344 -0.0827
  808MPD2    C511952   2.261   2.940   9.904 -0.3896 -0.1580  0.5209
  808MPD2     H11953   2.524   2.820   9.653  0.0287  0.6395  0.0528
  808MPD2    H111954   2.404   3.085   9.962 -0.0323 -1.9975  1.2144
  808MPD2    H211955   2.134   2.796   9.807 -1.2187  3.4244 -1.3814
  808MPD2    H311956   2.180   2.960   9.973 -0.9083  1.7294 -0.6399
  808MPD2     N11957   2.604   3.023   9.812  0.0580 -0.3134  0.1466
  808MPD2    H511958   2.611   3.095   9.883  0.3640  0.1028 -0.3101
  808MPD2    N111959   2.319   2.668   9.658  0.9869  0.4903 -0.3841
  808MPD2    H711960   2.398   2.657   9.595 -0.0606  1.4531 -1.8791
  809MPD2     C11961   3.417   2.439   9.803 -0.3101  0.1354  0.2241
  809MPD2    C111962   3.389   2.479   9.932 -0.2093 -0.7873 -0.3868
  809MPD2    C211963   3.287   2.572   9.954 -0.1611 -0.5161  0.3446
  809MPD2    C311964   3.223   2.629   9.843  1.4889 -0.0434 -0.3141
  809MPD2    C411965   3.244   2.587   9.717 -0.2112 -0.5319  0.1628
  809MPD2    C511966   3.340   2.491   9.697  0.3686 -0.0908 -0.2716
  809MPD2     H11967   3.264   2.599  10.056  2.2752 -2.5486  1.4461
  809MPD2    H111968   3.199   2.636   9.631 -0.2195 -0.1147  0.4015
  809MPD2    H211969   3.499   2.370   9.788 -0.4520 -0.0862  0.4729
  809MPD2    H311970   3.354   2.462   9.594 -1.1247 -1.3588 -0.1174
  809MPD2     N11971   3.119   2.731   9.853  0.2941 -0.4485  0.5441
  809MPD2    H511972   3.080   2.761   9.764 -0.7945  1.0499  1.5386
  809MPD2    N111973   3.466   2.435  10.047 -0.1119  0.9477  0.6052
  809MPD2    H711974   3.465   2.485  10.136  1.1610  0.2565  1.0036
  810MPD2     C11975   1.676   1.779   9.769 -0.3944 -0.2387  0.8271
  810MPD2    C111976   1.636   1.722   9.888 -0.2401  0.2961  0.8108
  810MPD2    C211977   1.684   1.788   9.999 -0.4105 -0.5459  0.5986
  810MPD2    C311978   1.766   1.901   9.995 -0.4425  0.5047  1.2033
  810MPD2    C411979   1.810   1.946   9.872 -0.0662 -0.2710  0.5256
  810MPD2    C511980   1.759   1.889   9.762  1.1606  0.1120  0.5753
  810MPD2     H11981   1.665   1.742  10.095  1.0736 -1.0248  0.6658
  810MPD2    H111982   1.877   2.030   9.867  1.7648 -1.6855  1.2157
  810MPD2    H211983   1.642   1.734   9.676  1.1781  0.5324 -0.0997
  810MPD2    H311984   1.784   1.933   9.666 -1.3256  0.1172 -0.0647
  810MPD2     N11985   1.811   1.981  10.106  0.3909  0.5663  0.1068
  810MPD2    H511986   1.850   2.073  10.088 -0.9788  1.2730  0.7867
  810MPD2    N111987   1.540   1.620   9.899  0.4980  0.2810  0.0171
  810MPD2    H711988   1.492   1.596   9.813 -0.3941 -1.8463  1.1199
  811MPD2     C11989   0.837   1.739   9.808  0.0684  1.5453 -0.1156
  811MPD2    C111990   0.956   1.777   9.859 -0.2398  0.7375 -0.2105
  811MPD2    C211991   0.986   1.912   9.861  0.2881 -0.1372  0.4665
  811MPD2    C311992   0.890   2.011   9.830  0.0919  0.2668  0.4717
  811MPD2    C411993   0.769   1.973   9.790  0.0431  0.1773 -0.0158
  811MPD2    C511994   0.745   1.835   9.777  0.8614  0.2329  0.5943
  811MPD2     H11995   1.085   1.935   9.901 -0.7940  2.1466  1.8147
  811MPD2    H111996   0.700   2.054   9.768  0.6672  0.2167 -1.8638
  811MPD2    H211997   0.797   1.641   9.784  1.0120  0.9275  0.8568
  811MPD2    H311998   0.653   1.796   9.734  0.3627  2.0130  0.0550
  811MPD2     N11999   0.926   2.149   9.842  0.9525 -0.3124  0.3136
  811MPD2    H512000   1.025   2.163   9.860  0.4344  1.1206  1.9889
  811MPD2    N112001   1.055   1.681   9.894 -0.2005 -0.8644 -0.0966
  811MPD2    H712002   1.142   1.725   9.923 -1.1811  0.4360  0.8800
  812MPD2     C12003   0.844   1.592  12.272 -0.0138 -0.7123  0.4013
  812MPD2    C112004   0.914   1.679  12.359  0.0664 -0.3940  0.5816
  812MPD2    C212005   1.002   1.631  12.454 -0.5178  0.3115 -0.4404
  812MPD2    C312006   1.022   1.494  12.468  0.1817 -0.0372 -0.2852
  812MPD2    C412007   0.958   1.407  12.375 -0.3611 -0.5470  0.7647
  812MPD2    C512008   0.873   1.458  12.281 -0.6648 -0.0115  0.1062
  812MPD2     H12009   1.058   1.701  12.516 -1.3053  1.9859 -1.6059
  812MPD2    H112010   0.980   1.302  12.383 -0.5979 -0.5793  1.0126
  812MPD2    H212011   0.767   1.620  12.201  0.1679 -0.7977  0.1703
  812MPD2    H312012   0.815   1.391  12.218 -0.2733 -1.7640  1.6320
  812MPD2     N12013   1.109   1.447  12.573  0.0646 -0.3010  0.2822
  812MPD2    H512014   1.141   1.517  12.639 -0.2653  0.9756 -0.9209
  812MPD2    N112015   0.890   1.819  12.338 -0.2098  0.0264  0.0819
  812MPD2    H712016   0.828   1.846  12.263  1.2411 -0.4187 -1.2628
  813MPD2     C12017   4.331   4.206  13.077  0.2073 -0.3029 -0.4025
  813MPD2    C112018   4.431   4.213  13.174  0.1795  0.0839  0.0331
  813MPD2    C212019   4.408   4.280  13.294 -0.0434 -0.3381  0.3980
  813MPD2    C312020   4.289   4.348  13.309  0.5348  0.1550 -0.5062
  813MPD2    C412021   4.183   4.320  13.227  0.6311 -0.1113 -0.0452
  813MPD2    C512022   4.203   4.248  13.117  0.3878  0.0085  0.4437
  813MPD2     H12023   4.478   4.287  13.377  1.4208 -0.7713 -0.7967
  813MPD2    H112024   4.085   4.360  13.248  0.7020 -0.4151  0.9005
  813MPD2    H212025   4.343   4.157  12.981 -2.7629  0.2945 -1.0802
  813MPD2    H312026   4.111   4.230  13.062  1.4926 -0.1966 -1.3315
  813MPD2     N12027   4.283   4.427  13.426  0.1181  0.3197 -0.4155
  813MPD2    H512028   4.369   4.436  13.479  0.0139 -0.7518 -0.0545
  813MPD2    N112029   4.552   4.156  13.136  0.0955  0.3802  0.2398
  813MPD2    H712030   4.574   4.136  13.039  1.1914  2.6499 -0.0035
  814MPD2     C12031   0.424   0.242  12.239  0.5731  0.3887  0.2057
  814MPD2    C112032   0.418   0.304  12.115 -0.0300  0.0843  0.3157
  814MPD2    C212033   0.483   0.427  12.098  0.0613 -0.4945 -0.2047
  814MPD2    C312034   0.553   0.485  12.200 -0.3991  0.5608  0.3957
  814MPD2    C412035   0.556   0.430  12.319 -0.0797  0.2159  0.1527
  814MPD2    C512036   0.492   0.309  12.345  0.0936 -0.2007  0.0198
  814MPD2     H12037   0.456   0.488  12.013  0.8707  1.1215  0.7161
  814MPD2    H112038   0.628   0.473  12.388 -0.9654 -0.0223  1.2308
  814MPD2    H212039   0.363   0.157  12.264  2.4374 -1.1365 -0.4373
  814MPD2    H312040   0.489   0.256  12.439  2.4377 -1.2132 -0.4802
  814MPD2     N12041   0.643   0.593  12.173  0.2181 -0.2584 -0.0238
  814MPD2    H512042   0.684   0.635  12.256  1.6425 -1.0615 -0.3093
  814MPD2    N112043   0.365   0.256  11.991  0.2626 -0.3878  0.2058
  814MPD2    H712044   0.381   0.312  11.908 -2.4970 -0.9394 -0.6828
  815MPD2     C12045   1.110   3.192  12.064 -0.0401  1.0825 -0.2049
  815MPD2    C112046   1.065   3.080  12.001  0.1134 -0.5780 -0.6547
  815MPD2    C212047   0.940   3.033  12.047 -0.0984 -0.5603 -0.5800
  815MPD2    C312048   0.865   3.103  12.144 -0.0487  0.2360  0.5166
  815MPD2    C412049   0.930   3.214  12.208 -0.6478 -0.1060  0.7961
  815MPD2    C512050   1.055   3.258  12.167 -0.6090  0.2649  0.5628
  815MPD2     H12051   0.896   2.940  12.013 -1.3421 -0.7298  1.5003
  815MPD2    H112052   0.895   3.259  12.300  0.5209  0.6070  0.8986
  815MPD2    H212053   1.197   3.238  12.018 -0.8869  0.9064 -1.9854
  815MPD2    H312054   1.098   3.354  12.194 -0.2078  0.1157  0.4522
  815MPD2     N12055   0.739   3.043  12.176 -0.6656  0.4319 -0.4539
  815MPD2    H512056   0.711   2.960  12.124 -0.9183  0.0297  0.3148
  815MPD2    N112057   1.151   3.009  11.912 -0.6034 -0.5226 -0.1648
  815MPD2    H712058   1.243   3.048  11.890 -1.1969  0.6354 -0.6339
  816MPD2     C12059   1.203   3.163  17.291 -0.3008 -0.0477  0.4157
  816MPD2    C112060   1.323   3.225  17.302  0.2694  0.6278  0.1600
  816MPD2    C212061   1.418   3.168  17.223  0.4832 -0.4230  0.2628
  816MPD2    C312062   1.396   3.066  17.133 -0.1934 -0.4981  0.1754
  816MPD2    C412063   1.276   3.014  17.120 -0.7273  0.4586  0.0126
  816MPD2    C512064   1.183   3.060  17.206  0.4033 -0.7370 -1.0166
  816MPD2     H12065   1.517   3.213  17.222  1.3560 -2.3440  0.3284
  816MPD2    H112066   1.257   2.928  17.057 -1.2193 -0.5188  1.5148
  816MPD2    H212067   1.111   3.190  17.342 -0.5310  1.1012 -0.6035
  816MPD2    H312068   1.083   3.018  17.205 -0.6829  1.8399 -0.9440
  816MPD2     N12069   1.502   3.031  17.044  0.7979 -0.0330  0.2909
  816MPD2    H512070   1.578   3.097  17.035 -0.5208  1.4142 -0.1552
  816MPD2    N112071   1.333   3.339  17.384 -0.1022  0.3550 -0.5496
  816MPD2    H712072   1.255   3.386  17.428  1.0436  0.9919  0.8265
  817MPD2     C12073   1.299   4.544   9.668  0.0542  0.0275  0.0438
  817MPD2    C112074   1.240   4.434   9.738  0.1725  0.7124  0.4988
  817MPD2    C212075   1.111   4.392   9.701 -0.0717 -0.0022  0.0226
  817MPD2    C312076   1.042   4.459   9.603  0.4014  0.2039  0.6402
  817MPD2    C412077   1.105   4.557   9.527 -0.0405 -0.6554 -0.5495
  817MPD2    C512078   1.225   4.608   9.576  0.1022  0.0395 -0.5548
  817MPD2     H12079   1.057   4.323   9.765  0.6718  0.2858  0.9756
  817MPD2    H112080   1.061   4.592   9.434 -1.5038 -0.2740  0.2810
  817MPD2    H212081   1.399   4.579   9.692 -0.3725  1.3140 -0.0482
  817MPD2    H312082   1.267   4.692   9.522  1.2959 -1.2106 -1.5750
  817MPD2     N12083   0.908   4.413   9.577 -0.2765  0.1954 -1.0654
  817MPD2    H512084   0.878   4.332   9.631 -0.2786  2.3918  2.1686
  817MPD2    N112085   1.292   4.379   9.856 -0.5108 -0.2189  0.1558
  817MPD2    H712086   1.232   4.312   9.904 -0.4383  0.3105  0.9937
  818MPD2     C12087   3.750   4.391   9.990 -0.4726 -0.5151 -0.3164
  818MPD2    C112088   3.857   4.316  10.043  0.3884  0.3702  0.1733
  818MPD2    C212089   3.921   4.226   9.956 -0.1508 -0.9330 -0.0777
  818MPD2    C312090   3.880   4.212   9.826 -0.3846 -0.2688  0.5905
  818MPD2    C412091   3.769   4.279   9.787 -0.6341 -0.3171 -0.6619
  818MPD2    C512092   3.704   4.364   9.866 -0.0245 -0.8524 -0.3358
  818MPD2     H12093   4.001   4.163   9.994  0.6073 -0.1853 -0.4387
  818MPD2    H112094   3.734   4.256   9.687  1.6123  0.7653 -1.6933
  818MPD2    H212095   3.687   4.456  10.050  1.0367  0.2833  0.4140
  818MPD2    H312096   3.621   4.421   9.825 -0.0958  1.5290  3.1157
  818MPD2     N12097   3.937   4.120   9.733 -0.0252 -0.1931  0.3358
  818MPD2    H512098   3.874   4.106   9.655  1.0282 -2.2736 -0.1383
  818MPD2    N112099   3.881   4.304  10.182 -0.2032 -0.2083  0.2159
  818MPD2    H712100   3.945   4.237  10.223  0.0397  0.1447  0.4090
  819MPD2     C12101   2.831   1.151  15.288  0.2457 -0.1314  0.6739
  819MPD2    C112102   2.796   1.045  15.370 -0.3778  0.2526 -0.2973
  819MPD2    C212103   2.855   1.031  15.498  0.1579  0.1661 -0.2704
  819MPD2    C312104   2.949   1.129  15.541  0.4691  0.3333  0.5109
  819MPD2    C412105   2.991   1.225  15.457  0.1016 -0.0250  0.9773
  819MPD2    C512106   2.929   1.239  15.331  0.1848 -0.3528 -0.5766
  819MPD2     H12107   2.848   0.944  15.562  0.6942  1.1864  1.1613
  819MPD2    H112108   3.063   1.298  15.495 -1.5774  1.0239  2.1355
  819MPD2    H212109   2.775   1.154  15.195  1.0915  0.6956  0.1966
  819MPD2    H312110   2.957   1.310  15.254  0.1135  0.9648  0.5985
  819MPD2     N12111   3.001   1.113  15.673  0.1633 -0.2587 -0.1638
  819MPD2    H512112   2.954   1.035  15.718  1.4961 -0.2757  1.1919
  819MPD2    N112113   2.705   0.953  15.311 -0.2981 -0.7660  0.1129
  819MPD2    H712114   2.663   0.974  15.221  0.7809  0.6740 -0.0445
  820MPD2     C12115   1.858   0.871  14.818  0.1764  0.7717  0.4924
  820MPD2    C112116   1.901   0.934  14.933 -0.3977 -0.0703  0.0874
  820MPD2    C212117   2.003   0.887  15.001  0.4637 -0.2017 -1.2137
  820MPD2    C312118   2.073   0.777  14.960 -0.4444  0.6782  0.3797
  820MPD2    C412119   2.031   0.710  14.851  0.1485 -0.1433  0.2703
  820MPD2    C512120   1.925   0.759  14.774  0.1883 -0.0679 -0.0974
  820MPD2     H12121   2.039   0.940  15.089 -2.5887 -1.0182  0.5233
  820MPD2    H112122   2.079   0.619  14.816 -0.7182 -1.3758  2.2968
  820MPD2    H212123   1.773   0.905  14.759 -0.8553  0.5335  1.8455
  820MPD2    H312124   1.914   0.715  14.676 -2.1165 -0.6189  0.4196
  820MPD2     N12125   2.182   0.730  15.036 -0.3110 -0.3828 -0.0226
  820MPD2    H512126   2.208   0.634  15.017 -0.3209 -0.0596 -1.6811
  820MPD2    N112127   1.832   1.052  14.969  0.0564 -0.6829  0.3600
  820MPD2    H712128   1.763   1.080  14.900 -2.2398 -0.8005  2.6052
  821MPD2     C12129   3.508   2.134  13.035  0.7740 -0.7924  0.5707
  821MPD2    C112130   3.581   2.117  13.152 -0.2009  0.1727  0.4444
  821MPD2    C212131   3.713   2.159  13.142  0.1855  1.0802  0.2521
  821MPD2    C312132   3.774   2.211  13.033  0.7270  0.3585 -0.2658
  821MPD2    C412133   3.695   2.215  12.921  0.0482  0.1593 -0.2202
  821MPD2    C512134   3.567   2.174  12.921  0.1997  0.4736 -0.5093
  821MPD2     H12135   3.774   2.142  13.230  2.9694  1.0151 -1.6815
  821MPD2    H112136   3.733   2.244  12.823 -1.3424  0.1804 -0.7588
  821MPD2    H212137   3.403   2.107  13.028  0.5220  0.4522 -0.3140
  821MPD2    H312138   3.500   2.173  12.837 -2.7725 -2.0704  1.8924
  821MPD2     N12139   3.914   2.243  13.027  0.1062 -0.4645 -0.4111
  821MPD2    H512140   3.945   2.302  12.950 -2.0160  0.4148 -0.5778
  821MPD2    N112141   3.535   2.064  13.274  0.1448 -0.0308  0.3332
  821MPD2    H712142   3.610   2.061  13.342 -0.9660 -0.1844  1.5415
  822MPD2     C12143   3.876   2.935  15.742  0.0645 -0.1316  0.1340
  822MPD2    C112144   3.823   2.882  15.857  0.2723  0.2052 -0.1070
  822MPD2    C212145   3.739   2.969  15.927  0.6261 -0.1506 -0.4012
  822MPD2    C312146   3.703   3.092  15.884 -0.2724 -0.3861 -0.3930
  822MPD2    C412147   3.738   3.130  15.756  0.4930 -0.5916  0.6240
  822MPD2    C512148   3.829   3.052  15.695  0.3819 -0.5578  0.2952
  822MPD2     H12149   3.696   2.934  16.020  2.3903 -0.5594  0.2600
  822MPD2    H112150   3.693   3.217  15.708  1.1515 -0.3017  0.5326
  822MPD2    H212151   3.958   2.885  15.691  0.1001  0.0417  0.0237
  822MPD2    H312152   3.869   3.089  15.601 -0.3728  0.8411  0.5176
  822MPD2     N12153   3.630   3.173  15.968 -0.3970 -0.0203 -0.1935
  822MPD2    H512154   3.608   3.138  16.061 -0.1882  0.9645  0.2210
  822MPD2    N112155   3.845   2.752  15.909  0.0360  0.5816 -0.5830
  822MPD2    H712156   3.806   2.733  16.001 -0.5567 -2.4583 -1.4777
  823MPD2     C12157   3.168   3.371  16.651  0.0022  0.1084  0.3195
  823MPD2    C112158   3.209   3.278  16.557  0.9088 -0.2599  0.0323
  823MPD2    C212159   3.236   3.150  16.596 -0.4077 -0.2098  0.3025
  823MPD2    C312160   3.214   3.112  16.727  0.3882  0.3430  0.7193
  823MPD2    C412161   3.164   3.202  16.820  0.4576 -0.1175  0.2300
  823MPD2    C512162   3.145   3.334  16.777  1.1066  0.4882  0.7502
  823MPD2     H12163   3.283   3.081  16.527 -0.1791 -2.0951  2.3265
  823MPD2    H112164   3.152   3.179  16.925  1.2174  3.0188  1.0148
  823MPD2    H212165   3.143   3.474  16.629 -1.5889 -0.4280 -0.3974
  823MPD2    H312166   3.133   3.414  16.849 -1.1386 -1.9682  3.1207
  823MPD2     N12167   3.238   2.985  16.773  0.5826  0.2265 -0.0116
  823MPD2    H512168   3.225   2.966  16.871 -2.2997  1.1906 -0.2373
  823MPD2    N112169   3.240   3.329  16.424  0.6681 -0.5477  0.0640
  823MPD2    H712170   3.230   3.430  16.415  0.6857 -0.3891  1.8569
  824MPD2     C12171   4.300   2.018  15.862 -0.0453 -0.4112 -0.1436
  824MPD2    C112172   4.212   2.094  15.792 -0.6060 -0.1400 -0.1612
  824MPD2    C212173   4.205   2.078  15.654  0.1901 -0.8335  0.5135
  824MPD2    C312174   4.272   1.968  15.594 -0.3643 -0.2868 -0.2811
  824MPD2    C412175   4.348   1.887  15.671  0.1540 -0.1889  0.0038
  824MPD2    C512176   4.361   1.912  15.803 -0.3032  0.2931  0.3216
  824MPD2     H12177   4.147   2.150  15.598  1.6535 -0.8541 -1.0566
  824MPD2    H112178   4.397   1.795  15.642  1.1500 -0.4058  2.4147
  824MPD2    H212179   4.336   2.028  15.964  1.4769  0.3622 -0.7567
  824MPD2    H312180   4.429   1.853  15.862 -0.2722 -0.1407 -0.1515
  824MPD2     N12181   4.264   1.946  15.456  0.6135 -0.5088  0.2787
  824MPD2    H512182   4.206   2.011  15.402  0.0110 -0.6158  0.7954
  824MPD2    N112183   4.138   2.196  15.855 -0.0143 -0.8583 -0.5700
  824MPD2    H712184   4.067   2.245  15.801 -0.1279 -0.0329  0.3065
  825MPD2     C12185   0.124   2.149  15.479 -0.0375 -0.6290 -0.6580
  825MPD2    C112186   0.025   2.220  15.406  0.0379 -0.5621  0.6520
  825MPD2    C212187   4.735   2.356  15.439  0.7780  0.5287  0.2119
  825MPD2    C312188   0.060   2.412  15.554  0.0524  0.0524  0.8211
  825MPD2    C412189   0.151   2.335  15.619  0.4669 -0.0455 -0.1509
  825MPD2    C512190   0.193   2.211  15.577 -0.3733  0.1368 -0.3473
  825MPD2     H12191   4.669   2.417  15.378 -2.2985 -2.7558  0.3100
  825MPD2    H112192   0.196   2.375  15.710 -0.4352  2.3591 -0.7700
  825MPD2    H212193   0.144   2.044  15.462  1.9053 -0.3242 -0.2323
  825MPD2    H312194   0.264   2.156  15.638 -0.9968  1.4421  1.5743
  825MPD2     N12195   0.038   2.548  15.595 -0.4283  0.0078  0.7103
  825MPD2    H512196   0.095   2.586  15.670 -1.6109  1.5307  0.8498
  825MPD2    N112197   4.692   2.140  15.314 -0.1337  0.3122 -0.4047
  825MPD2    H712198   4.708   2.040  15.323  2.5262  0.8525  0.9508
  826MPD2     C12199   4.157   1.571  13.677 -0.4205 -0.0106  0.3152
  826MPD2    C112200   4.115   1.621  13.559 -0.2879  0.3929  0.5910
  826MPD2    C212201   4.069   1.746  13.556 -0.3354 -0.5080 -0.6892
  826MPD2    C312202   4.059   1.823  13.671 -0.5072  0.5636  0.6552
  826MPD2    C412203   4.098   1.769  13.788 -0.6495 -0.1640 -0.1526
  826MPD2    C512204   4.145   1.644  13.793 -0.1810 -0.5429  0.5356
  826MPD2     H12205   4.058   1.795  13.460  0.6453  1.1896  0.0574
  826MPD2    H112206   4.091   1.834  13.874 -2.6823  0.3461 -0.7038
  826MPD2    H212207   4.186   1.468  13.693 -1.1531  0.1363  2.6826
  826MPD2    H312208   4.164   1.596  13.888 -0.4121 -0.8040  0.4511
  826MPD2     N12209   4.036   1.963  13.672  0.4106 -0.0851 -0.1869
  826MPD2    H512210   4.042   2.012  13.761 -1.3683 -0.1538 -0.0415
  826MPD2    N112211   4.113   1.536  13.444 -0.2523  0.0768  0.0449
  826MPD2    H712212   4.161   1.447  13.447 -0.5145 -0.0734 -0.3061
  827MPD2     C12213   0.198   3.224  10.090  0.3868  0.5873 -0.0440
  827MPD2    C112214   0.167   3.121  10.174 -0.4350 -0.1407  0.1302
  827MPD2    C212215   0.100   3.010  10.128  0.5350  0.7309 -0.8578
  827MPD2    C312216   0.053   3.005  10.003 -0.0388 -0.9166 -0.2297
  827MPD2    C412217   0.092   3.104   9.912 -0.2363  0.0440 -0.0972
  827MPD2    C512218   0.165   3.211   9.954  0.0377 -0.3910 -0.4549
  827MPD2     H12219   0.056   2.938  10.197  0.8263  0.8702 -0.5264
  827MPD2    H112220   0.086   3.101   9.804  0.6152  1.5959 -0.1884
  827MPD2    H212221   0.260   3.311  10.111  1.0872  0.3442 -1.1023
  827MPD2    H312222   0.191   3.281   9.876 -1.0093  1.2103  0.6472
  827MPD2     N12223   4.701   2.904   9.960 -0.1188  0.0493  0.2066
  827MPD2    H512224   4.690   2.824  10.022 -1.7653  0.2472  0.1650
  827MPD2    N112225   0.209   3.134  10.312  0.3522 -0.4323 -0.1366
  827MPD2    H712226   0.268   3.208  10.348  0.9861 -0.8526 -0.3241
  828MPD2     C12227   4.051   2.622  12.476  0.3080 -0.4735 -0.3435
  828MPD2    C112228   3.959   2.660  12.390 -0.5133 -0.4286  0.2632
  828MPD2    C212229   3.977   2.620  12.260 -0.9275  0.3665 -0.2265
  828MPD2    C312230   4.087   2.547  12.218  0.1256 -0.1609  0.8464
  828MPD2    C412231   4.177   2.519  12.314 -0.0286  0.0985 -0.2109
  828MPD2    C512232   4.165   2.557  12.439  0.1165 -0.1268  0.1798
  828MPD2     H12233   3.903   2.635  12.183 -0.9109  1.2902 -0.0520
  828MPD2    H112234   4.268   2.466  12.288  0.0549  1.5402 -2.8145
  828MPD2    H212235   4.045   2.650  12.580 -1.5483  1.2583 -0.9197
  828MPD2    H312236   4.240   2.532  12.513 -2.2985 -1.9326  2.0164
  828MPD2     N12237   4.107   2.492  12.088 -0.4528 -0.4136 -0.3234
  828MPD2    H512238   4.183   2.425  12.078  1.0637  0.9812  1.8201
  828MPD2    N112239   3.836   2.735  12.412  0.1813 -0.3454  0.2265
  828MPD2    H712240   3.786   2.768  12.331  0.8337 -2.0072 -0.8701
  829MPD2     C12241   3.355   2.982  11.806 -0.2232 -0.8043 -0.0021
  829MPD2    C112242   3.319   3.093  11.881 -0.0097  0.2270  0.3784
  829MPD2    C212243   3.357   3.096  12.018 -0.1272  0.5177  0.3087
  829MPD2    C312244   3.457   3.012  12.064  0.5316  0.5008  0.0037
  829MPD2    C412245   3.484   2.900  11.980 -0.1738  0.2156  0.0078
  829MPD2    C512246   3.425   2.883  11.860  0.5158  0.3746 -0.1119
  829MPD2     H12247   3.326   3.177  12.083 -1.6487  1.4932 -1.6245
  829MPD2    H112248   3.541   2.816  12.018  0.7689  0.4576 -0.8794
  829MPD2    H212249   3.331   2.971  11.701  0.3756  1.9136 -0.4281
  829MPD2    H312250   3.439   2.796  11.796 -1.1527 -0.2176  0.3164
  829MPD2     N12251   3.520   3.006  12.190  0.2018  0.3995 -0.1942
  829MPD2    H512252   3.592   2.936  12.199 -0.5926 -0.5401 -1.1283
  829MPD2    N112253   3.241   3.186  11.816  0.4198  0.4268  0.3190
  829MPD2    H712254   3.225   3.168  11.717 -3.2169  4.5658  0.1153
  830MPD2     C12255   3.554   0.932  16.248 -0.0649  0.4912 -0.1465
  830MPD2    C112256   3.498   0.922  16.126 -0.1974  0.3609  0.6967
  830MPD2    C212257   3.573   0.961  16.015 -0.3564  0.0042 -0.8444
  830MPD2    C312258   3.701   0.997  16.029 -0.4780 -0.3925  0.6429
  830MPD2    C412259   3.760   1.009  16.154 -0.3816 -0.7668 -0.5841
  830MPD2    C512260   3.681   0.984  16.261  0.4663  0.4562  0.3266
  830MPD2     H12261   3.531   0.967  15.915 -1.0889  0.8483 -0.4913
  830MPD2    H112262   3.861   1.046  16.158 -1.0071  0.8079  1.0114
  830MPD2    H212263   3.491   0.922  16.336  0.8781 -0.9088  0.3543
  830MPD2    H312264   3.725   0.995  16.360  3.4532  0.0144 -0.9626
  830MPD2     N12265   3.779   1.038  15.916 -0.3989 -0.1542  0.0540
  830MPD2    H512266   3.863   1.093  15.934 -0.6309  0.0153  0.6121
  830MPD2    N112267   3.359   0.903  16.121  0.3021 -0.4185 -0.3142
  830MPD2    H712268   3.308   0.899  16.209  0.1568  3.1032 -0.2505
  831MPD2     C12269   3.806   3.231  16.318 -0.1467  0.8264 -0.3841
  831MPD2    C112270   3.835   3.108  16.259 -0.1932 -0.0871 -0.4471
  831MPD2    C212271   3.740   3.010  16.274 -0.3939  0.2016 -0.4726
  831MPD2    C312272   3.613   3.039  16.322 -1.0360  0.1072 -0.0546
  831MPD2    C412273   3.590   3.159  16.383  0.2055 -0.3611 -0.4875
  831MPD2    C512274   3.694   3.252  16.384  0.1630  0.4427  0.5526
  831MPD2     H12275   3.760   2.912  16.232 -3.6658 -0.2631 -0.9472
  831MPD2    H112276   3.500   3.190  16.433  0.9706 -0.0386  0.6898
  831MPD2    H212277   3.879   3.311  16.329  0.7362  0.0817 -0.8133
  831MPD2    H312278   3.674   3.350  16.425 -2.0735  0.3224 -0.2476
  831MPD2     N12279   3.499   2.957  16.298  0.0483  0.1268  0.5466
  831MPD2    H512280   3.408   2.980  16.335 -0.8726 -1.7071 -0.5989
  831MPD2    N112281   3.959   3.092  16.198  0.5851 -0.5798  0.2174
  831MPD2    H712282   4.004   3.179  16.172 -1.3274  0.1607 -0.6653
  832MPD2     C12283   2.257   4.152  17.332 -0.5682 -0.0740  0.2847
  832MPD2    C112284   2.276   4.280  17.273 -0.1391  1.0154  0.0070
  832MPD2    C212285   2.229   4.299  17.145 -0.4098  0.1987 -0.0980
  832MPD2    C312286   2.145   4.208  17.078 -0.2424 -0.0168 -0.1189
  832MPD2    C412287   2.133   4.081  17.140 -0.4423  0.3140 -0.2753
  832MPD2    C512288   2.192   4.054  17.261  0.4629 -0.6919  0.4480
  832MPD2     H12289   2.249   4.398  17.106 -2.0079  0.3821 -0.4613
  832MPD2    H112290   2.088   3.996  17.090  1.2625 -0.6669 -0.1434
  832MPD2    H212291   2.318   4.137  17.421  2.9666  1.5427 -1.8494
  832MPD2    H312292   2.183   3.950  17.289 -3.7175 -0.6492 -0.7130
  832MPD2     N12293   2.071   4.233  16.964 -0.1764  0.7710 -0.5138
  832MPD2    H512294   2.005   4.161  16.937 -1.7091  1.4528  1.3864
  832MPD2    N112295   2.332   4.387  17.343  0.2697  0.0210 -0.0206
  832MPD2    H712296   2.317   4.385  17.443  0.3093 -0.8707 -0.0329
  833MPD2     C12297   3.441   1.016  12.768 -0.3263 -0.5738  0.0622
  833MPD2    C112298   3.550   1.036  12.683  0.2106 -0.5432 -0.2693
  833MPD2    C212299   3.639   0.926  12.664  0.1364  0.5723  0.1584
  833MPD2    C312300   3.617   0.800  12.719  0.0072 -0.3548  0.0426
  833MPD2    C412301   3.518   0.795  12.820  0.1472 -0.6176  0.4376
  833MPD2    C512302   3.439   0.905  12.846 -1.0339  0.6521  0.3194
  833MPD2     H12303   3.712   0.930  12.584 -0.8601  1.4402 -0.7083
  833MPD2    H112304   3.497   0.702  12.873 -2.7789 -0.2594 -0.0936
  833MPD2    H212305   3.368   1.093  12.791 -0.0735 -0.0208 -1.0020
  833MPD2    H312306   3.363   0.898  12.923 -1.8445  0.0442 -0.5339
  833MPD2     N12307   3.699   0.692  12.681  0.1125  0.2342  0.6325
  833MPD2    H512308   3.656   0.600  12.692 -0.9047  0.5711 -0.4607
  833MPD2    N112309   3.551   1.154  12.609  0.4776  0.4797 -0.3644
  833MPD2    H712310   3.467   1.211  12.613  0.3108  0.2137 -0.0734
  834MPD2     C12311   3.558   4.617  12.146 -0.6594  0.1354 -0.0788
  834MPD2    C112312   3.618   4.679  12.040  0.5578  0.1481  0.1241
  834MPD2    C212313   3.641   0.081  12.060  0.3055 -0.4489 -0.5342
  834MPD2    C312314   3.626   0.146  12.186  0.0464 -0.0657 -0.0410
  834MPD2    C412315   3.558   0.080  12.280 -0.1345 -0.0551 -0.3580
  834MPD2    C512316   3.518   4.683  12.257 -0.0888  0.4745 -0.6723
  834MPD2     H12317   3.669   0.150  11.980  2.0088  0.6975  1.0466
  834MPD2    H112318   3.519   0.110  12.376  0.8235  0.5729 -0.1675
  834MPD2    H212319   3.520   4.515  12.138  2.2113 -0.8460 -1.3180
  834MPD2    H312320   3.458   4.625  12.326  0.2232  1.3018  0.2775
  834MPD2     N12321   3.686   0.273  12.206 -0.1330  0.0658  0.4016
  834MPD2    H512322   3.726   0.318  12.124  0.6100 -1.5617 -0.1262
  834MPD2    N112323   3.640   4.605  11.922 -0.0475 -0.5268 -0.3880
  834MPD2    H712324   3.628   4.505  11.929 -0.7454 -0.3442  1.1826
  835MPD2     C12325   4.258   2.278  10.951 -0.4485 -0.3956 -0.4093
  835MPD2    C112326   4.233   2.395  11.015 -0.2315 -0.0271  0.0606
  835MPD2    C212327   4.322   2.434  11.115  0.0294 -0.0740  0.5074
  835MPD2    C312328   4.440   2.364  11.143  0.1686 -0.0839  0.0622
  835MPD2    C412329   4.470   2.256  11.075 -0.3280 -0.2521 -0.0575
  835MPD2    C512330   4.376   2.208  10.982  0.1559  0.2034 -0.2411
  835MPD2     H12331   4.288   2.517  11.176 -1.1397 -1.0886  1.2395
  835MPD2    H112332   4.567   2.210  11.087 -1.4739 -2.8660 -0.9765
  835MPD2    H212333   4.191   2.248  10.870 -1.4749 -1.4555  0.8311
  835MPD2    H312334   4.403   2.120  10.925  1.2897  0.8362 -0.6894
  835MPD2     N12335   4.539   2.401  11.235 -0.4736 -0.3233  0.4433
  835MPD2    H512336   4.625   2.347  11.240  0.6172  1.1962 -1.5000
  835MPD2    N112337   4.112   2.467  11.010 -0.1461  0.5804 -0.8968
  835MPD2    H712338   4.109   2.550  11.069  0.3706  0.8217 -1.2029
  836MPD2     C12339   4.250   2.744  11.599 -0.4840 -0.5360 -0.3186
  836MPD2    C112340   4.367   2.767  11.664 -0.1258  0.1693  0.0595
  836MPD2    C212341   4.354   2.812  11.795  0.3739 -0.2391  0.5068
  836MPD2    C312342   4.226   2.835  11.850 -0.2159 -0.0006  0.2072
  836MPD2    C412343   4.113   2.815  11.776 -0.2193 -0.1349 -0.1735
  836MPD2    C512344   4.128   2.777  11.649  0.7031  0.6658  0.1866
  836MPD2     H12345   4.444   2.822  11.853  0.3107 -1.1911  0.7748
  836MPD2    H112346   4.015   2.845  11.812  0.1836 -0.0027  0.8142
  836MPD2    H212347   4.253   2.687  11.507 -1.8823  0.0294 -0.7072
  836MPD2    H312348   4.044   2.746  11.587  1.4939  1.2974 -1.2026
  836MPD2     N12349   4.198   2.867  11.987  0.3599 -0.3837  0.5798
  836MPD2    H512350   4.102   2.885  12.015 -0.1419  0.1831 -1.4660
  836MPD2    N112351   4.490   2.734  11.600 -0.4201  0.0664 -0.4775
  836MPD2    H712352   4.489   2.702  11.504  0.8397 -1.4402  0.0106
  837MPD2     C12353   1.411   2.750  10.128  0.0547 -0.4807 -0.4571
  837MPD2    C112354   1.358   2.769  10.007  0.4500  0.5775 -0.1212
  837MPD2    C212355   1.408   2.873   9.926 -0.5232 -0.1221  0.0637
  837MPD2    C312356   1.473   2.977   9.990 -0.6103 -0.7826  0.5593
  837MPD2    C412357   1.508   2.961  10.117 -0.3143 -0.2981 -0.6077
  837MPD2    C512358   1.494   2.843  10.183  0.0346  0.4654 -0.2299
  837MPD2     H12359   1.366   2.879   9.826 -0.4603 -0.9456 -0.0152
  837MPD2    H112360   1.578   3.031  10.160 -2.1933  1.6466 -0.7341
  837MPD2    H212361   1.376   2.671  10.194  0.0199  0.6785  0.9033
  837MPD2    H312362   1.544   2.843  10.279  0.6058 -2.3671 -0.5457
  837MPD2     N12363   1.493   3.102   9.919 -0.3672 -0.1305  0.4153
  837MPD2    H512364   1.453   3.098   9.826 -0.1793  0.6136  0.3042
  837MPD2    N112365   1.264   2.677   9.950  0.4435  0.3132 -0.3033
  837MPD2    H712366   1.234   2.691   9.854 -2.1468 -1.1422  0.3123
  838MPD2     C12367   4.703   0.796  11.458 -0.1635 -0.5930 -0.6293
  838MPD2    C112368   4.640   0.840  11.574 -0.0478  0.0094 -0.7502
  838MPD2    C212369   4.537   0.766  11.634 -0.4637 -0.3642  0.1545
  838MPD2    C312370   4.502   0.641  11.587 -0.0924  0.3698 -0.0684
  838MPD2    C412371   4.571   0.592  11.472  0.3243  0.2673  0.8880
  838MPD2    C512372   4.666   0.674  11.407  0.1066  0.2268  0.7760
  838MPD2     H12373   4.491   0.799  11.726  1.2173 -0.1879  0.9458
  838MPD2    H112374   4.556   0.488  11.447  0.5139  0.1490  1.2757
  838MPD2    H212375   0.044   0.854  11.408  2.8686 -0.2947  4.4060
  838MPD2    H312376   4.713   0.644  11.314  0.1940 -0.4355  1.0336
  838MPD2     N12377   4.387   0.569  11.634 -0.2903 -0.7664 -0.1470
  838MPD2    H512378   4.349   0.605  11.721 -1.2543 -0.1418 -0.8249
  838MPD2    N112379   4.671   0.957  11.639 -0.2352  0.6334  0.0585
  838MPD2    H712380   4.605   1.005  11.701 -0.3607 -0.8232  1.0447
  839MPD2     C12381   4.666   0.241  11.783 -0.3145  0.0836  0.3037
  839MPD2    C112382   4.708   0.274  11.659 -0.0033  0.0390 -0.2370
  839MPD2    C212383   0.062   0.384  11.643 -0.1947 -0.5025 -0.2682
  839MPD2    C312384   0.110   0.454  11.759 -0.4114 -0.1831 -0.3523
  839MPD2    C412385   0.057   0.418  11.883 -0.1983  0.9231  0.1064
  839MPD2    C512386   4.704   0.313  11.893 -0.6504 -0.0881 -0.4469
  839MPD2     H12387   0.105   0.387  11.544  2.5948 -0.8266  0.9390
  839MPD2    H112388   0.091   0.465  11.975 -0.7910  3.5464 -1.0008
  839MPD2    H212389   4.591   0.166  11.805  0.1239 -0.7964 -1.2233
  839MPD2    H312390   4.670   0.292  11.993  2.1510 -3.2916 -0.1575
  839MPD2     N12391   0.196   0.564  11.751 -0.0575  0.4747  0.1458
  839MPD2    H512392   0.224   0.608  11.838  0.6019  0.7534 -0.2064
  839MPD2    N112393   4.679   0.197  11.541 -0.4080 -0.6113 -0.1643
  839MPD2    H712394   4.734   0.221  11.460 -2.3335  0.5215 -1.1446
  840MPD2     C12395   0.672   3.521  10.496  0.3687 -0.1308 -0.2816
  840MPD2    C112396   0.690   3.416  10.585  0.0104  0.6544  0.5017
  840MPD2    C212397   0.793   3.419  10.671  0.6153  0.5295 -0.0821
  840MPD2    C312398   0.868   3.533  10.678 -0.4977 -0.0717 -0.3830
  840MPD2    C412399   0.865   3.637  10.588  0.5009  0.9069  0.1961
  840MPD2    C512400   0.764   3.624  10.494 -0.0470  0.4694 -0.0262
  840MPD2     H12401   0.804   3.343  10.748 -0.1506  0.5561  0.0536
  840MPD2    H112402   0.927   3.726  10.587  1.2383  0.4017  1.4775
  840MPD2    H212403   0.582   3.515  10.436  0.8437 -3.2364 -0.6881
  840MPD2    H312404   0.745   3.707  10.426  0.7497 -0.3371 -1.2425
  840MPD2     N12405   0.976   3.548  10.771 -0.4895 -0.5637 -0.8624
  840MPD2    H512406   1.032   3.632  10.775  1.2290 -1.7330 -0.1567
  840MPD2    N112407   0.589   3.318  10.584 -0.0618 -0.2078  0.4823
  840MPD2    H712408   0.511   3.338  10.522  0.7669  1.6347  0.0208
  841MPD2     C12409   0.682   2.802  14.246 -0.2801  0.2355 -0.7175
  841MPD2    C112410   0.741   2.923  14.210 -0.0144  0.6480 -0.2583
  841MPD2    C212411   0.880   2.933  14.217  0.3954 -0.3771 -0.3751
  841MPD2    C312412   0.955   2.833  14.278  0.6033  0.2187  0.0603
  841MPD2    C412413   0.891   2.718  14.319  1.0820 -0.0861  0.1538
  841MPD2    C512414   0.754   2.702  14.305 -0.1549  0.1057  0.0950
  841MPD2     H12415   0.929   3.026  14.190  0.7407 -0.2236  0.7455
  841MPD2    H112416   0.950   2.647  14.376  2.0744  0.2160 -0.4967
  841MPD2    H212417   0.580   2.779  14.221 -0.9182  0.4377  1.6559
  841MPD2    H312418   0.706   2.614  14.345  2.0991 -0.8959  0.6373
  841MPD2     N12419   1.095   2.849  14.293 -0.0456 -0.1083 -0.6085
  841MPD2    H512420   1.145   2.769  14.331  0.7306 -0.2156 -1.8815
  841MPD2    N112421   0.677   3.032  14.154  0.7924  0.1980  0.0602
  841MPD2    H712422   0.733   3.109  14.118 -1.9259  1.7194 -0.8788
  842MPD2     C12423   1.600   0.038  16.653  0.7335 -1.1188 -0.4340
  842MPD2    C112424   1.483   4.696  16.650 -0.1172  1.1926  0.3145
  842MPD2    C212425   1.456   4.623  16.764  0.2616  0.1342 -0.3310
  842MPD2    C312426   1.551   4.607  16.861  0.2997 -0.0603 -0.0324
  842MPD2    C412427   1.670   4.680  16.857 -0.3761 -0.2298 -0.0533
  842MPD2    C512428   1.693   0.032  16.756  0.2355  0.1921  0.3479
  842MPD2     H12429   1.356   4.586  16.780  0.4575 -0.4493 -0.4394
  842MPD2    H112430   1.747   4.685  16.932 -0.3307 -1.9490  0.0139
  842MPD2    H212431   1.634   0.099  16.570  1.2567 -0.0781  0.5423
  842MPD2    H312432   1.789   0.083  16.757  0.1692  0.3490 -0.9047
  842MPD2     N12433   1.521   4.531  16.975  0.0599  0.1046  0.2983
  842MPD2    H512434   1.599   4.517  17.039 -0.4378 -3.7161  0.0770
  842MPD2    N112435   1.395   4.720  16.539  0.2869  0.2144 -0.3388
  842MPD2    H712436   1.422   0.060  16.477  2.5831 -1.5456 -1.5284
  843MPD2     C12437   3.131   1.068  17.492  0.7910  0.4411  0.0681
  843MPD2    C112438   3.100   1.012  17.614  0.7588 -0.3746 -0.3631
  843MPD2    C212439   3.185   1.037  17.721 -0.2313 -0.1014 -0.4004
  843MPD2    C312440   3.305   1.120  17.715 -1.0530 -0.3197  0.7677
  843MPD2    C412441   3.318   1.176  17.589  0.0826  0.5315 -0.5434
  843MPD2    C512442   3.236   1.153  17.483  0.6183 -0.2401 -0.0404
  843MPD2     H12443   3.162   0.999   0.080  0.9682 -0.6157 -0.3070
  843MPD2    H112444   3.400   1.245  17.577  1.8454 -1.3557  0.6199
  843MPD2    H212445   3.066   1.049  17.408  1.1045 -2.8295  0.5616
  843MPD2    H312446   3.274   1.199  17.392 -3.3577  0.7888 -1.1595
  843MPD2     N12447   3.408   1.140   0.064 -0.4203  0.2402 -0.4196
  843MPD2    H512448   3.488   1.193   0.029 -1.3006  0.3233 -2.2469
  843MPD2    N112449   2.972   0.951  17.633  0.4547 -0.0784 -0.0473
  843MPD2    H712450   2.913   0.953  17.551  0.2644  2.2945  0.1301
  844MPD2     C12451   1.653   3.973  16.269  0.0572  0.0196  0.3946
  844MPD2    C112452   1.722   3.859  16.302 -0.5755 -0.0772  0.3048
  844MPD2    C212453   1.827   3.861  16.396  0.4433 -0.3463  0.1919
  844MPD2    C312454   1.871   3.983  16.450  0.5383  0.0279  0.1694
  844MPD2    C412455   1.810   4.098  16.406 -1.0151 -0.0226  0.2947
  844MPD2    C512456   1.695   4.096  16.320 -0.6437 -0.3538  0.5863
  844MPD2     H12457   1.859   3.763  16.429  1.5720 -0.0361  0.0346
  844MPD2    H112458   1.831   4.198  16.444  0.3977 -1.1986  2.6061
  844MPD2    H212459   1.568   3.974  16.201  0.2794  0.0054  0.1161
  844MPD2    H312460   1.640   4.189  16.307 -0.7314 -0.7708 -2.0380
  844MPD2     N12461   1.995   3.982  16.524  0.4614 -0.1720  0.6225
  844MPD2    H512462   2.033   3.894  16.559 -0.2703 -0.0445  1.7566
  844MPD2    N112463   1.687   3.733  16.254  0.0657  0.6544  0.6531
  844MPD2    H712464   1.737   3.654  16.293  1.0884  1.0872  0.2310
  845MPD2     C12465   2.508   0.054  16.817  0.2438  0.4384  0.5778
  845MPD2    C112466   2.408   0.024  16.902 -0.3185  0.4692  0.3836
  845MPD2    C212467   2.367   4.631  16.920 -0.1096  0.4233 -0.1171
  845MPD2    C312468   2.428   4.531  16.837 -0.1007 -0.4507 -0.7476
  845MPD2    C412469   2.533   4.566  16.753  0.6574  0.5246  0.9721
  845MPD2    C512470   2.574   4.695  16.754  0.8891 -0.2203 -1.1651
  845MPD2     H12471   2.288   4.590  16.981 -0.2998  0.9964  0.0205
  845MPD2    H112472   2.585   4.503  16.682 -1.2741 -0.1664  0.1815
  845MPD2    H212473   2.530   0.158  16.801  0.9888  0.3790  1.2034
  845MPD2    H312474   2.665   4.718  16.699  1.6226 -0.0822  0.1068
  845MPD2     N12475   2.373   4.394  16.837  0.0451  0.2343 -0.4764
  845MPD2    H512476   2.279   4.384  16.872 -0.0664  0.9358 -0.5816
  845MPD2    N112477   2.364   0.129  16.982  0.3081 -0.2648  0.5781
  845MPD2    H712478   2.392   0.222  16.954  0.8366 -0.5764  0.0627
  846MPD2     C12479   3.673   0.305  13.766  0.6274 -0.3273  0.3210
  846MPD2    C112480   3.537   0.301  13.801 -0.1016 -0.6802 -0.0314
  846MPD2    C212481   3.494   0.356  13.922  0.0872  0.4588  0.1074
  846MPD2    C312482   3.584   0.364  14.025 -0.2590 -0.9996  0.2046
  846MPD2    C412483   3.714   0.353  13.999  0.9409  0.1114 -0.3840
  846MPD2    C512484   3.763   0.324  13.875  0.1520  0.3978 -0.2718
  846MPD2     H12485   3.387   0.365  13.939  0.1672 -0.5275  1.1186
  846MPD2    H112486   3.789   0.362  14.077 -1.0158 -0.2556  1.5163
  846MPD2    H212487   3.725   0.288  13.673 -2.6712 -0.8330 -1.4268
  846MPD2    H312488   3.869   0.332  13.855  0.0700  1.8382 -0.1543
  846MPD2     N12489   3.529   0.387  14.158 -0.1761 -0.3139  0.6895
  846MPD2    H512490   3.434   0.420  14.161  0.4150  1.3145  1.4649
  846MPD2    N112491   3.440   0.261  13.703  0.1186 -0.3650 -0.5590
  846MPD2    H712492   3.341   0.274  13.721 -0.0455 -1.2510 -0.8524
  847MPD2     C12493   3.586   0.937  15.080  0.4392 -0.4361 -0.5954
  847MPD2    C112494   3.671   1.047  15.065  0.1771 -0.0834 -0.4649
  847MPD2    C212495   3.790   1.054  15.138 -0.2103 -0.2529 -0.7462
  847MPD2    C312496   3.823   0.952  15.226 -0.5133  0.2013  0.5437
  847MPD2    C412497   3.739   0.836  15.233 -0.6061 -0.4624  0.6116
  847MPD2    C512498   3.627   0.828  15.154 -0.0907  0.1108  0.2336
  847MPD2     H12499   3.856   1.140  15.132  1.1703 -1.0841  2.3378
  847MPD2    H112500   3.772   0.752  15.294  2.1377  1.1972  1.3986
  847MPD2    H212501   3.488   0.941  15.034  0.7026 -0.1362 -1.1266
  847MPD2    H312502   3.573   0.734  15.151  0.0910  0.0227 -0.5641
  847MPD2     N12503   3.944   0.976  15.298 -0.5496  0.3568  0.0051
  847MPD2    H512504   3.997   1.056  15.265  0.6338 -0.1207  0.7449
  847MPD2    N112505   3.635   1.169  15.008  0.3823  0.5021 -0.1654
  847MPD2    H712506   3.698   1.246  15.028  0.7111  0.2906 -0.3860
  848MPD2     C12507   1.787   4.618  16.271 -0.4598  0.1524  0.3407
  848MPD2    C112508   1.855   4.670  16.379 -0.2741 -0.1429 -0.1269
  848MPD2    C212509   1.917   0.054  16.377  0.1070 -0.7033  0.1742
  848MPD2    C312510   1.906   0.126  16.257 -0.4066  0.4524  0.5357
  848MPD2    C412511   1.840   0.076  16.148  0.2712  0.1540  1.0143
  848MPD2    C512512   1.783   4.688  16.154  0.0569  0.1550 -0.9600
  848MPD2     H12513   1.955   0.100  16.467  2.6821  0.2528 -1.3862
  848MPD2    H112514   1.835   0.126  16.052 -0.6535 -0.5494  0.6853
  848MPD2    H212515   1.743   4.519  16.267 -0.2160 -0.0358  2.2403
  848MPD2    H312516   1.741   4.644  16.065 -1.7345  1.4064 -0.7489
  848MPD2     N12517   1.968   0.250  16.236  0.3254  0.6116 -0.3497
  848MPD2    H512518   1.968   0.288  16.142  0.6036  1.8756  0.1643
  848MPD2    N112519   1.859   4.588  16.498 -1.1053 -0.0462  0.9079
  848MPD2    H712520   1.910   4.614  16.581 -2.0301  0.4382  1.3205
  849MPD2     C12521   0.989   3.827  14.572 -0.1292  0.3451 -0.0766
  849MPD2    C112522   0.912   3.738  14.495 -0.5679 -0.2236  0.1458
  849MPD2    C212523   0.871   3.615  14.545 -1.2578 -0.5558 -0.9966
  849MPD2    C312524   0.910   3.573  14.674  0.4883  0.1084  0.4414
  849MPD2    C412525   0.988   3.657  14.745 -0.3036 -0.1569 -0.2119
  849MPD2    C512526   1.022   3.780  14.695 -0.2025 -0.1906 -0.0831
  849MPD2     H12527   0.799   3.549  14.498 -1.1463 -0.7646 -0.8766
  849MPD2    H112528   1.027   3.630  14.843 -1.6455 -1.5121 -0.0708
  849MPD2    H212529   1.019   3.925  14.538  0.9674 -0.7869 -2.4221
  849MPD2    H312530   1.081   3.840  14.763 -0.2039 -1.6365  1.1862
  849MPD2     N12531   0.881   3.439  14.703  0.2917 -0.3727 -0.1022
  849MPD2    H512532   0.825   3.399  14.629 -0.3655 -1.5737  1.0356
  849MPD2    N112533   0.877   3.770  14.363  0.0281 -0.0180  0.0552
  849MPD2    H712534   0.840   3.701  14.299  3.5455 -1.9238  0.0528
  850MPD2     C12535   3.995   1.912  15.016 -0.1413  0.3741 -0.2202
  850MPD2    C112536   3.928   2.031  15.000  0.2206  0.0823  0.5207
  850MPD2    C212537   3.995   2.141  14.956  0.0190 -0.5473  0.2999
  850MPD2    C312538   4.134   2.139  14.945 -0.5143 -0.2850 -0.0157
  850MPD2    C412539   4.199   2.020  14.959 -0.6511  0.1424 -0.1638
  850MPD2    C512540   4.129   1.907  14.991 -0.6324  0.1625 -0.6735
  850MPD2     H12541   3.941   2.234  14.946  0.8322 -0.1335 -0.2220
  850MPD2    H112542   4.305   2.003  14.944 -0.5288  1.3687 -0.6211
  850MPD2    H212543   3.940   1.821  15.036  0.9917 -0.5872 -1.4204
  850MPD2    H312544   4.181   1.812  15.000 -1.6358 -0.2205  1.1827
  850MPD2     N12545   4.217   2.248  14.924 -0.2166 -0.3809 -0.1689
  850MPD2    H512546   4.317   2.233  14.926  0.1412  2.0753  1.4678
  850MPD2    N112547   3.794   2.030  15.053  0.3202 -0.0313 -0.4863
  850MPD2    H712548   3.757   1.948  15.099 -0.2719  0.8363  0.5870
  851MPD2     C12549   3.852   1.968  15.776 -0.1582 -0.3398  0.0178
  851MPD2    C112550   3.803   1.918  15.657 -0.2385 -0.7932 -0.1533
  851MPD2    C212551   3.822   1.787  15.625 -0.0022  0.0914 -0.0508
  851MPD2    C312552   3.891   1.705  15.713  0.5134  0.9710 -0.9112
  851MPD2    C412553   3.940   1.748  15.831  0.2423 -0.1326  0.1857
  851MPD2    C512554   3.920   1.883  15.862  0.1827 -0.1803 -0.4893
  851MPD2     H12555   3.782   1.746  15.533 -0.4510  2.0981 -0.7421
  851MPD2    H112556   3.989   1.689  15.907  0.2029  1.5260  1.5178
  851MPD2    H212557   3.830   2.071  15.801  2.5741  0.5907 -1.4201
  851MPD2    H312558   3.957   1.915  15.959 -3.0717  2.0847 -0.0074
  851MPD2     N12559   3.896   1.569  15.672 -0.3331  0.0926  0.0200
  851MPD2    H512560   3.840   1.548  15.590 -0.0579 -0.6034  0.0044
  851MPD2    N112561   3.716   2.008  15.581  0.3200 -0.7016  0.3370
  851MPD2    H712562   3.716   2.105  15.612 -0.5742 -1.2240  1.9469
  852MPD2     C12563   2.880   3.994  10.388  0.2098 -0.6959  0.1923
  852MPD2    C112564   2.956   4.037  10.498 -0.1872  0.3132  0.0387
  852MPD2    C212565   3.011   4.159  10.480  0.1684  0.7331  0.0281
  852MPD2    C312566   3.007   4.228  10.360 -0.3633  0.1051 -0.0606
  852MPD2    C412567   2.938   4.178  10.258  0.1261  0.8182 -0.0787
  852MPD2    C512568   2.870   4.064  10.275 -0.7250 -0.5111 -0.0178
  852MPD2     H12569   3.059   4.209  10.563 -1.3713  0.4532  1.0854
  852MPD2    H112570   2.932   4.226  10.161  0.0569 -2.8908 -1.9078
  852MPD2    H212571   2.819   3.904  10.395  0.1574 -0.6183  0.8020
  852MPD2    H312572   2.811   4.022  10.195 -2.5495 -1.2287  1.6971
  852MPD2     N12573   3.082   4.346  10.348  1.3247  0.4483  0.1499
  852MPD2    H512574   3.137   4.364  10.432 -1.6096  2.7325  1.5853
  852MPD2    N112575   2.961   3.965  10.616 -0.0734 -0.1764 -0.5942
  852MPD2    H712576   2.893   3.890  10.623  1.2750 -1.5829 -2.6007
  853MPD2     C12577   0.301   4.333  12.442  0.0895 -0.5649 -0.6133
  853MPD2    C112578   0.201   4.240  12.442  0.5087  1.1383  0.0401
  853MPD2    C212579   0.213   4.132  12.364  0.2122  0.1395 -0.5056
  853MPD2    C312580   0.310   4.129  12.264  0.2842  1.1345 -0.2206
  853MPD2    C412581   0.397   4.232  12.254 -0.9577  0.2619 -0.7168
  853MPD2    C512582   0.402   4.322  12.352  0.3863  0.0921  0.4145
  853MPD2     H12583   0.148   4.046  12.378 -0.9811  1.0189 -0.5900
  853MPD2    H112584   0.471   4.246  12.175 -0.4187 -0.3891 -0.3251
  853MPD2    H212585   0.295   4.423  12.504  3.0649  0.6520 -2.0990
  853MPD2    H312586   0.473   4.403  12.337 -2.4494  2.0201 -2.3422
  853MPD2     N12587   0.318   4.036  12.155  0.1274  0.5968 -0.2458
  853MPD2    H512588   0.382   4.056  12.079  0.3443 -1.6579 -0.6589
  853MPD2    N112589   0.092   4.252  12.524  0.0708  0.5165 -0.2272
  853MPD2    H712590   0.091   4.329  12.591  0.9988  0.0374  0.3410
  854MPD2     C12591   1.504   0.019  13.256  0.5746 -0.1950 -0.6391
  854MPD2    C112592   1.624   0.028  13.182 -0.2355 -0.0697 -0.3635
  854MPD2    C212593   1.707   4.657  13.178  0.1935 -0.3883  0.0077
  854MPD2    C312594   1.676   4.542  13.241  0.4922  0.4285  0.6237
  854MPD2    C412595   1.555   4.530  13.312 -0.9633 -0.6633 -0.4748
  854MPD2    C512596   1.472   4.642  13.320  0.0250 -0.0242 -0.3640
  854MPD2     H12597   1.796   4.664  13.117 -0.2301 -2.0883 -0.8249
  854MPD2    H112598   1.516   4.435  13.348 -0.6044  0.1095  1.9812
  854MPD2    H212599   1.435   0.100  13.276 -0.4418 -0.2543 -3.8951
  854MPD2    H312600   1.372   4.631  13.361 -0.8246  1.7311 -1.9805
  854MPD2     N12601   1.762   4.438  13.210 -0.4598  0.2688 -0.1511
  854MPD2    H512602   1.855   4.465  13.179 -0.9539  0.9533 -1.0469
  854MPD2    N112603   1.643   0.151  13.115  0.4702  0.0252 -0.6540
  854MPD2    H712604   1.574   0.225  13.129 -0.6986 -1.7465  2.8669
  855MPD2     C12605   2.363   4.328  13.810 -0.2872  0.1535 -0.5259
  855MPD2    C112606   2.340   4.192  13.779 -0.1868  0.8847 -0.1368
  855MPD2    C212607   2.267   4.162  13.663  0.0973  0.1463 -0.0279
  855MPD2    C312608   2.225   4.266  13.577  0.1303  0.0149 -0.4419
  855MPD2    C412609   2.261   4.393  13.604 -0.3642 -0.0258  0.1918
  855MPD2    C512610   2.328   4.423  13.718  0.3251  0.1664 -0.0209
  855MPD2     H12611   2.252   4.055  13.651  0.2531  0.1706 -0.4246
  855MPD2    H112612   2.242   4.481  13.543 -0.5572 -0.6333 -0.6193
  855MPD2    H212613   2.424   4.360  13.894 -0.5265 -1.9844  0.4491
  855MPD2    H312614   2.360   4.525  13.732  2.9685 -0.0821 -4.2127
  855MPD2     N12615   2.155   4.234  13.457 -0.3917 -0.4218 -0.3255
  855MPD2    H512616   2.113   4.318  13.418 -1.4726 -1.1609 -0.7328
  855MPD2    N112617   2.380   4.080  13.853 -0.1321 -0.1273  0.7363
  855MPD2    H712618   2.353   3.988  13.817 -1.3563 -0.1200  1.6534
  856MPD2     C12619   4.348   0.801  13.345 -0.1334  0.7015  0.1042
  856MPD2    C112620   4.330   0.893  13.450  0.3310  0.4324 -0.4910
  856MPD2    C212621   4.206   0.917  13.499 -0.1593  0.2596 -0.4547
  856MPD2    C312622   4.093   0.871  13.431  0.1831 -0.0852  0.5945
  856MPD2    C412623   4.110   0.774  13.330 -1.1166 -0.2265 -0.1480
  856MPD2    C512624   4.238   0.738  13.293  0.4545 -0.3247 -0.1001
  856MPD2     H12625   4.206   0.970  13.593 -0.1294 -0.2233 -0.1807
  856MPD2    H112626   4.030   0.726  13.276 -0.6241 -0.6715 -0.4898
  856MPD2    H212627   4.445   0.783  13.299 -0.5628 -1.1789 -0.0812
  856MPD2    H312628   4.248   0.670  13.209 -0.6693  0.5912 -0.9850
  856MPD2     N12629   3.960   0.898  13.464  0.4262  0.8389 -0.3220
  856MPD2    H512630   3.887   0.847  13.417 -0.3220  1.4688  0.1592
  856MPD2    N112631   4.441   0.955  13.515 -0.6818  0.8318  0.7786
  856MPD2    H712632   4.424   1.033  13.578  1.3016  0.1691  2.1087
  857MPD2     C12633   1.217   2.400  13.061 -0.0554  1.1729 -0.4972
  857MPD2    C112634   1.325   2.341  12.994  0.0812 -0.0160  0.2815
  857MPD2    C212635   1.434   2.424  12.990 -0.8167 -0.4792  0.2305
  857MPD2    C312636   1.446   2.552  13.042 -0.2443  0.1686  1.1708
  857MPD2    C412637   1.334   2.605  13.108 -0.0757  0.4472 -0.2375
  857MPD2    C512638   1.220   2.531  13.102  0.7537  0.3711  0.1045
  857MPD2     H12639   1.525   2.386  12.944  0.7009  2.3875  0.8974
  857MPD2    H112640   1.327   2.703  13.153 -1.4226  0.9300 -1.5395
  857MPD2    H212641   1.121   2.350  13.061 -1.4318  3.8672  2.3690
  857MPD2    H312642   1.126   2.574  13.136  1.8934  2.0288  1.1373
  857MPD2     N12643   1.565   2.624  13.034 -0.0777  0.2050  0.7043
  857MPD2    H512644   1.644   2.572  12.997  0.5005  1.5540  0.0515
  857MPD2    N112645   1.314   2.220  12.928  0.4047 -0.3986  1.1604
  857MPD2    H712646   1.233   2.162  12.949  0.3579 -0.3747  1.0503
  858MPD2     C12647   1.798   2.115  16.363  0.2457 -0.7655  0.1175
  858MPD2    C112648   1.881   2.025  16.429 -0.5230 -0.0467 -1.0002
  858MPD2    C212649   1.892   2.021  16.571 -0.3272  0.5667  0.4444
  858MPD2    C312650   1.792   2.093  16.638  0.3957  0.1292  0.3366
  858MPD2    C412651   1.717   2.189  16.572 -0.0282 -0.3476 -0.2331
  858MPD2    C512652   1.711   2.195  16.440  0.1611  0.2398 -0.8679
  858MPD2     H12653   1.960   1.957  16.626 -0.1498  0.1858 -0.2238
  858MPD2    H112654   1.644   2.237  16.637  1.4213 -1.1528  2.0111
  858MPD2    H212655   1.798   2.125  16.256  0.7943  1.2361  0.2996
  858MPD2    H312656   1.638   2.256  16.388 -0.1554  1.2419  0.7415
  858MPD2     N12657   1.782   2.091  16.781 -0.4954 -0.4278  0.1399
  858MPD2    H512658   1.732   2.166  16.828  2.0788  1.2917  0.1712
  858MPD2    N112659   1.953   1.937  16.352 -0.3401  0.1226  0.7405
  858MPD2    H712660   2.017   1.880  16.406  1.1665  4.6044  3.7067
  859MPD2     C12661   1.169   3.747  15.163  0.0504  0.8000 -0.3866
  859MPD2    C112662   1.062   3.666  15.177  0.5914  0.0939  0.1339
  859MPD2    C212663   1.086   3.542  15.238 -0.3334  0.2229 -0.2301
  859MPD2    C312664   1.209   3.500  15.287  0.4920  0.0758  0.0971
  859MPD2    C412665   1.312   3.590  15.271 -0.0609 -0.0252 -0.4816
  859MPD2    C512666   1.291   3.706  15.211 -0.4487  0.3523 -0.3651
  859MPD2     H12667   1.004   3.470  15.235  1.2414 -1.6075  0.3878
  859MPD2    H112668   1.408   3.565  15.315 -0.5779  0.6553  1.0496
  859MPD2    H212669   1.173   3.842  15.110  0.9216  2.3927  2.5371
  859MPD2    H312670   1.376   3.771  15.190 -1.4776  0.7849 -3.1356
  859MPD2     N12671   1.226   3.371  15.340 -0.3141  0.0079  0.7048
  859MPD2    H512672   1.322   3.346  15.357 -0.1533  0.0105 -0.2016
  859MPD2    N112673   0.941   3.715  15.118 -0.1330 -0.1655  0.4725
  859MPD2    H712674   0.948   3.811  15.086 -0.2796 -1.4292 -3.3230
  860MPD2     C12675   2.633   3.759  11.825  0.3981 -0.2317  0.1011
  860MPD2    C112676   2.628   3.794  11.958  0.2282  0.9638  0.1204
  860MPD2    C212677   2.520   3.871  12.003  0.4050  0.5864 -0.5071
  860MPD2    C312678   2.428   3.915  11.915 -0.5119 -1.3284 -0.3614
  860MPD2    C412679   2.435   3.878  11.778 -0.2439 -0.1316  0.6249
  860MPD2    C512680   2.542   3.801  11.738  0.0602  0.2330  0.7165
  860MPD2     H12681   2.525   3.908  12.105 -2.3805  0.4822 -0.3306
  860MPD2    H112682   2.357   3.901  11.707  0.1604 -1.1420 -0.1444
  860MPD2    H212683   2.714   3.701  11.782  1.3958  0.2120  1.3676
  860MPD2    H312684   2.553   3.783  11.631  3.1098 -1.9350  1.4075
  860MPD2     N12685   2.326   3.985  11.978 -0.3666  0.7351 -0.0693
  860MPD2    H512686   2.319   3.981  12.079  0.9245 -1.3043 -0.0586
  860MPD2    N112687   2.732   3.763  12.043 -0.7085 -0.1970 -0.0712
  860MPD2    H712688   2.731   3.803  12.137  4.4701 -0.1822  0.0250
  861MPD2     C12689   0.840   2.180  10.827  0.0266 -0.0073  0.0231
  861MPD2    C112690   0.930   2.254  10.902  0.2807  0.2646 -0.6554
  861MPD2    C212691   0.955   2.387  10.879  0.2775  0.3154  0.1179
  861MPD2    C312692   0.865   2.464  10.809  0.0310  0.6490 -0.3586
  861MPD2    C412693   0.765   2.396  10.745  0.5973 -0.3851 -0.3465
  861MPD2    C512694   0.756   2.259  10.759  0.2727  0.0930 -0.4431
  861MPD2     H12695   1.034   2.441  10.931  0.6185 -0.6790  0.6371
  861MPD2    H112696   0.683   2.443  10.693 -0.5278 -0.8685  0.9801
  861MPD2    H212697   0.820   2.074  10.819 -0.9113  0.3653 -2.2676
  861MPD2    H312698   0.680   2.200  10.709  0.2184 -0.7399  0.6156
  861MPD2     N12699   0.859   2.603  10.800 -0.4334  0.2347 -0.0883
  861MPD2    H512700   0.778   2.643  10.754  0.0448  0.7956 -0.4450
  861MPD2    N112701   1.010   2.183  10.998 -0.2272  0.4727 -0.1799
  861MPD2    H712702   1.087   2.238  11.034 -0.2964  0.9486 -0.7527
  862MPD2     C12703   0.725   3.111  10.313  0.3480 -0.2891 -0.2975
  862MPD2    C112704   0.720   3.000  10.403  0.5722 -0.1137 -0.6504
  862MPD2    C212705   0.630   2.897  10.382 -0.2156  0.7512 -0.2690
  862MPD2    C312706   0.550   2.898  10.272  0.2836  0.5523  0.0477
  862MPD2    C412707   0.553   3.008  10.185  0.2501 -0.3440  0.3696
  862MPD2    C512708   0.639   3.112  10.207  0.1238 -0.2986  0.1734
  862MPD2     H12709   0.648   2.812  10.446  0.0884 -1.2889 -3.0361
  862MPD2    H112710   0.500   3.010  10.091  0.8069  0.5616  0.0720
  862MPD2    H212711   0.791   3.196  10.326  1.5087 -1.2032 -0.2646
  862MPD2    H312712   0.634   3.192  10.134  1.6056 -0.6350 -0.2862
  862MPD2     N12713   0.462   2.789  10.246 -0.4819 -0.4995  0.6738
  862MPD2    H512714   0.424   2.778  10.152 -1.5734 -0.1026  1.0710
  862MPD2    N112715   0.789   2.987  10.525 -0.5290  0.5100 -0.2332
  862MPD2    H712716   0.766   2.909  10.586  0.9121 -1.0806 -1.7379
  863MPD2     C12717   0.394   1.005  16.525 -0.2685  0.3042 -0.6526
  863MPD2    C112718   0.347   0.985  16.652  0.3830 -0.6989  0.6641
  863MPD2    C212719   0.436   0.958  16.752 -0.2007  0.2965  0.5906
  863MPD2    C312720   0.569   0.971  16.730 -0.0176 -0.1154 -0.3840
  863MPD2    C412721   0.614   1.016  16.609  0.1973 -0.2768 -0.8691
  863MPD2    C512722   0.523   1.034  16.501 -0.3193  0.1214 -0.0194
  863MPD2     H12723   0.412   0.926  16.853 -2.1643  0.3701  0.1422
  863MPD2    H112724   0.719   1.011  16.582  0.1037 -1.4977 -1.0294
  863MPD2    H212725   0.326   1.008  16.440 -0.9707  0.4667 -0.0884
  863MPD2    H312726   0.560   1.054  16.401  1.7956 -0.7581  0.5901
  863MPD2     N12727   0.650   0.924  16.835 -0.0081  0.5091 -1.0281
  863MPD2    H512728   0.608   0.859  16.901  0.8668  0.6853 -0.2990
  863MPD2    N112729   0.208   0.967  16.664 -0.1137  0.4806  0.3856
  863MPD2    H712730   0.162   0.972  16.573 -1.8154  1.1852  1.2866
  864MPD2     C12731   0.877   1.810  17.231 -0.4411  0.1839 -0.0506
  864MPD2    C112732   0.901   1.756  17.104 -0.3290 -0.5279 -0.2997
  864MPD2    C212733   0.944   1.836  17.000 -0.1383 -0.0720  0.3180
  864MPD2    C312734   0.975   1.967  17.022 -0.0778 -0.1407 -0.4755
  864MPD2    C412735   0.941   2.017  17.140 -0.1221 -1.3227 -0.5493
  864MPD2    C512736   0.888   1.943  17.243  0.1665  0.4414  0.1982
  864MPD2     H12737   0.966   1.792  16.904  0.2532  1.0947 -0.1272
  864MPD2    H112738   0.964   2.122  17.152  1.7756 -1.6049 -1.5800
  864MPD2    H212739   0.828   1.748  17.305 -0.7837  1.3873  0.7339
  864MPD2    H312740   0.872   1.993  17.337 -0.0141  0.4255  0.1757
  864MPD2     N12741   1.031   2.056  16.927 -0.7134  0.3441 -0.2995
  864MPD2    H512742   1.035   2.154  16.951  0.5201  0.6024 -1.6220
  864MPD2    N112743   0.871   1.619  17.095  0.3313 -0.9806  0.5297
  864MPD2    H712744   0.822   1.582  17.176 -1.1091 -0.7381 -0.2215
  865MPD2     C12745   0.811   2.372  16.029  0.2512 -0.0907 -0.5961
  865MPD2    C112746   0.823   2.259  16.107  0.1341 -0.2619  0.0123
  865MPD2    C212747   0.865   2.288  16.238 -0.1991 -0.1591  0.4131
  865MPD2    C312748   0.891   2.416  16.288 -0.0676  0.5295  0.0805
  865MPD2    C412749   0.882   2.525  16.207 -0.0129  0.0305  0.4035
  865MPD2    C512750   0.831   2.497  16.080 -0.1648 -0.6115 -0.2138
  865MPD2     H12751   0.874   2.203  16.304 -0.1747  1.4777  2.5473
  865MPD2    H112752   0.893   2.629  16.235  0.0242 -0.2855  1.5340
  865MPD2    H212753   0.805   2.369  15.920  1.1867  2.0875 -0.7113
  865MPD2    H312754   0.816   2.591  16.027 -0.6771  0.2990  1.5686
  865MPD2     N12755   0.941   2.424  16.426 -0.5724  1.1292 -0.0708
  865MPD2    H512756   0.991   2.508  16.455 -1.1025  0.8596  1.6136
  865MPD2    N112757   0.802   2.133  16.043 -0.3365  0.5138  0.5038
  865MPD2    H712758   0.783   2.138  15.943  2.6091  0.7931 -0.0637
  866MPD2     C12759   2.155   2.937  11.310  0.2684 -0.2107  0.1334
  866MPD2    C112760   2.139   2.944  11.176 -0.7796  0.3487  0.6349
  866MPD2    C212761   2.017   2.966  11.125  0.5400 -0.5939 -0.3774
  866MPD2    C312762   1.903   2.978  11.202  0.5204 -0.4880  0.0132
  866MPD2    C412763   1.919   2.976  11.342 -0.2022  0.0419 -0.7978
  866MPD2    C512764   2.043   2.964  11.394 -0.0260 -0.1406  0.5506
  866MPD2     H12765   2.010   2.971  11.017  0.9326 -2.1499 -0.4761
  866MPD2    H112766   1.839   2.998  11.411 -0.3155  0.9518 -1.2127
  866MPD2    H212767   2.255   2.933  11.353 -0.6867  1.4532  2.5236
  866MPD2    H312768   2.050   2.955  11.502 -1.5984  3.7536  0.9560
  866MPD2     N12769   1.770   2.976  11.153 -0.2351 -0.2531 -0.0205
  866MPD2    H512770   1.695   2.981  11.222 -0.4271  1.4350 -0.3562
  866MPD2    N112771   2.253   2.915  11.092  0.0460 -0.7243  0.4781
  866MPD2    H712772   2.336   2.889  11.144  0.9117  1.8489  0.3585
  867MPD2     C12773   4.358   2.290  16.305 -0.7091 -0.8994 -0.1325
  867MPD2    C112774   4.405   2.259  16.432 -0.2366  0.2373 -0.1131
  867MPD2    C212775   4.400   2.365  16.527  0.8326 -0.6617 -1.0909
  867MPD2    C312776   4.377   2.496  16.483 -0.3470  0.1290 -0.2883
  867MPD2    C412777   4.350   2.524  16.353 -0.5686  0.0346 -0.3959
  867MPD2    C512778   4.331   2.419  16.267  0.2529 -0.0905  0.1992
  867MPD2     H12779   4.428   2.335  16.628 -0.5274  0.5867 -0.3573
  867MPD2    H112780   4.314   2.622  16.323 -2.8375 -0.1502  1.6778
  867MPD2    H212781   4.363   2.209  16.232  2.1072 -1.3557  0.5578
  867MPD2    H312782   4.309   2.438  16.163 -1.3546  0.6398  0.6678
  867MPD2     N12783   4.380   2.608  16.564 -0.2071 -0.4468 -0.3010
  867MPD2    H512784   4.375   2.694  16.511  2.3952  0.3260  0.7165
  867MPD2    N112785   4.442   2.127  16.464  0.0500  0.3266  0.4230
  867MPD2    H712786   4.419   2.053  16.398 -2.6110  1.1981  0.3850
  868MPD2     C12787   1.291   0.983  13.105 -0.4270  0.2081  0.1411
  868MPD2    C112788   1.350   0.911  13.205  0.3595  0.2734  0.9712
  868MPD2    C212789   1.282   0.890  13.321 -0.2007  0.7253 -0.5280
  868MPD2    C312790   1.149   0.938  13.342  0.5188 -0.1799  0.1341
  868MPD2    C412791   1.091   1.014  13.240  0.4970  0.5625 -0.1436
  868MPD2    C512792   1.167   1.039  13.124  0.2318 -0.0751 -0.1140
  868MPD2     H12793   1.321   0.830  13.402  0.0190  0.5483 -0.7647
  868MPD2    H112794   0.991   1.057  13.251  0.5750  0.6978  0.0377
  868MPD2    H212795   1.344   1.000  13.012 -2.1817  0.5124 -0.8034
  868MPD2    H312796   1.132   1.103  13.044  0.7809 -1.0872 -1.1631
  868MPD2     N12797   1.084   0.933  13.470  0.1050 -0.0125 -0.3589
  868MPD2    H512798   1.121   0.867  13.538 -0.4264  1.7998  1.6849
  868MPD2    N112799   1.475   0.862  13.176 -0.3271 -0.5481  0.2986
  868MPD2    H712800   1.520   0.898  13.092 -0.2356 -2.2603 -0.3785
  869MPD2     C12801   2.572   3.986   0.550  0.4318  0.6390  0.1812
  869MPD2    C112802   2.614   4.013   0.421 -0.3263  0.4094 -0.5992
  869MPD2    C212803   2.704   4.120   0.401 -0.1903  0.3393 -0.6936
  869MPD2    C312804   2.746   4.193   0.513  0.1106 -0.2629  0.0391
  869MPD2    C412805   2.683   4.170   0.630 -0.6628 -0.4331  0.4718
  869MPD2    C512806   2.591   4.074   0.653  0.6521 -0.3039  0.3672
  869MPD2     H12807   2.725   4.163   0.303 -0.7557  1.0392 -0.5078
  869MPD2    H112808   2.704   4.226   0.721  1.3395  1.2221 -1.0433
  869MPD2    H212809   2.498   3.908   0.566 -0.3500  1.1391 -0.9932
  869MPD2    H312810   2.540   4.058   0.747  1.1648  0.0233  0.7028
  869MPD2     N12811   2.842   4.296   0.504 -0.0435  0.1378 -0.1116
  869MPD2    H512812   2.846   4.362   0.582  0.5116  0.6270 -0.5533
  869MPD2    N112813   2.571   3.927   0.318  0.5622 -0.1604  0.0138
  869MPD2    H712814   2.506   3.856   0.350  0.5147 -0.5665 -0.9887
  870MPD2     C12815   2.826   2.385   1.482 -0.6071  0.5067  0.2398
  870MPD2    C112816   2.881   2.463   1.375 -0.1734  0.1928 -0.0950
  870MPD2    C212817   2.830   2.592   1.350  0.3573  0.3399  0.2812
  870MPD2    C312818   2.739   2.648   1.436  0.1512 -0.1432 -0.0553
  870MPD2    C412819   2.699   2.576   1.543  0.6301  0.2901  0.4001
  870MPD2    C512820   2.746   2.452   1.572  1.2908 -0.1402 -0.6423
  870MPD2     H12821   2.874   2.659   1.277 -0.3306  1.8530  1.2636
  870MPD2    H112822   2.613   2.617   1.594 -0.3656 -1.0832 -0.1568
  870MPD2    H212823   2.849   2.280   1.494  2.3998  1.1689  0.0973
  870MPD2    H312824   2.694   2.385   1.639 -1.2760  3.1396  0.6401
  870MPD2     N12825   2.700   2.780   1.417 -0.6627 -0.3209 -0.2846
  870MPD2    H512826   2.741   2.823   1.334 -0.0424 -1.8145 -0.7550
  870MPD2    N112827   2.985   2.411   1.299  0.2208  0.3628  0.5817
  870MPD2    H712828   3.022   2.319   1.321 -3.5594 -1.4536 -0.7826
  871MPD2     C12829   3.494   2.491  16.284  1.1604  0.3764 -0.2785
  871MPD2    C112830   3.476   2.409  16.392  0.5126  0.6668 -0.2812
  871MPD2    C212831   3.510   2.277  16.382  0.1922  0.1366 -0.6541
  871MPD2    C312832   3.556   2.235  16.262 -0.6022 -0.1962 -0.6420
  871MPD2    C412833   3.556   2.318  16.146  0.4701  0.1668  0.4531
  871MPD2    C512834   3.525   2.446  16.162  0.1385  0.0536  0.1048
  871MPD2     H12835   3.503   2.203  16.460  1.0389  1.8918  1.0959
  871MPD2    H112836   3.603   2.289  16.053  0.2088  2.5485 -0.4058
  871MPD2    H212837   3.484   2.597  16.304 -1.3690 -0.0489  0.7638
  871MPD2    H312838   3.533   2.520  16.083  0.3084 -0.5213 -0.4179
  871MPD2     N12839   3.587   2.097  16.259  0.1375 -0.0911  0.5132
  871MPD2    H512840   3.575   2.044  16.344 -1.5174  2.6041  1.9530
  871MPD2    N112841   3.458   2.483  16.511 -0.4346  0.0483 -0.4392
  871MPD2    H712842   3.471   2.584  16.510 -0.9645  0.1077 -1.3459
  872MPD2     C12843   4.195   0.292  13.565 -0.7006 -0.2177 -0.3005
  872MPD2    C112844   4.221   0.251  13.687  0.1655 -0.0373 -0.8047
  872MPD2    C212845   4.129   0.178  13.761  0.0330  0.2633 -0.9046
  872MPD2    C312846   4.008   0.130  13.703  0.6200  0.0791 -0.0628
  872MPD2    C412847   3.977   0.175  13.575  0.2317  0.2468 -0.0632
  872MPD2    C512848   4.080   0.246  13.502 -0.3687 -0.1196  0.2525
  872MPD2     H12849   4.138   0.160  13.868  1.6193  0.8961 -0.9313
  872MPD2    H112850   3.887   0.145  13.524  0.4363  1.6884 -1.2510
  872MPD2    H212851   4.257   0.346  13.495  0.8776 -0.7387  0.6875
  872MPD2    H312852   4.049   0.277  13.404  3.3586 -0.7147 -1.1430
  872MPD2     N12853   3.915   0.047  13.766 -0.0405  0.0731  0.8382
  872MPD2    H512854   3.840   0.009  13.709 -0.5825  0.5736  1.2219
  872MPD2    N112855   4.348   0.289  13.737 -0.1890 -0.5875 -0.9757
  872MPD2    H712856   4.401   0.354  13.681  1.6654  1.4913  3.1509
  873MPD2     C12857   1.350   4.666   0.282  0.0390 -0.0541  0.0200
  873MPD2    C112858   1.374   4.614   0.404 -0.1500 -0.1357  0.5617
  873MPD2    C212859   1.383   4.475   0.414  0.2564 -0.7172  0.0560
  873MPD2    C312860   1.379   4.396   0.298  0.8372  0.1183  0.8616
  873MPD2    C412861   1.361   4.453   0.177  0.8546  0.2304  0.4914
  873MPD2    C512862   1.334   4.589   0.176 -0.6735 -0.0101  0.1023
  873MPD2     H12863   1.379   4.421   0.508  0.4027 -1.2916 -0.2694
  873MPD2    H112864   1.337   4.389   0.092 -1.9746  0.7253  0.8965
  873MPD2    H212865   1.324   0.036   0.277  0.6086  0.1363  0.9872
  873MPD2    H312866   1.306   4.632   0.081  3.7870 -0.3858 -1.3779
  873MPD2     N12867   1.381   4.255   0.300  0.1709  0.7272  0.6612
  873MPD2    H512868   1.377   4.202   0.214  1.1724 -0.5576  1.4036
  873MPD2    N112869   1.377   4.700   0.519  0.4506 -0.5751  0.2483
  873MPD2    H712870   1.332   0.056   0.514  1.8784  0.2175  1.7161
  874MPD2     C12871   1.206   0.634  16.168 -0.2350  0.6664  0.1252
  874MPD2    C112872   1.277   0.524  16.209 -0.4996  0.1594  0.0034
  874MPD2    C212873   1.412   0.537  16.225 -0.1593 -0.3410 -0.1792
  874MPD2    C312874   1.478   0.657  16.202  0.0253  0.1297  0.1613
  874MPD2    C412875   1.406   0.776  16.168 -0.7601 -0.1905 -0.7152
  874MPD2    C512876   1.263   0.762  16.154 -0.6420 -0.3642 -0.6212
  874MPD2     H12877   1.474   0.451  16.249 -1.8729 -1.4144  0.4934
  874MPD2    H112878   1.451   0.871  16.143  0.8433 -0.2625  1.9348
  874MPD2    H212879   1.100   0.625  16.148 -0.1638 -2.3914  1.1968
  874MPD2    H312880   1.202   0.845  16.120  1.8503  1.8428  0.3258
  874MPD2     N12881   1.616   0.671  16.224  0.3229 -0.0829 -0.0014
  874MPD2    H512882   1.656   0.763  16.237  0.0011  0.0902 -0.2399
  874MPD2    N112883   1.216   0.396  16.215 -0.0742 -0.2096  0.3448
  874MPD2    H712884   1.124   0.381  16.173 -0.8638  0.1497  1.9326
  875MPD2     C12885   2.151   3.206  14.801 -0.5367 -0.5568  0.0028
  875MPD2    C112886   2.119   3.077  14.836 -0.1040 -0.0574 -0.0232
  875MPD2    C212887   2.157   3.024  14.956  0.4384 -0.1433 -0.1028
  875MPD2    C312888   2.226   3.107  15.045  0.6075 -0.3042  0.3275
  875MPD2    C412889   2.272   3.227  14.993 -0.1439  0.1010 -0.7064
  875MPD2    C512890   2.242   3.272  14.873 -0.2757 -0.2360 -0.3198
  875MPD2     H12891   2.138   2.920  14.983 -0.2413  0.3940  1.4992
  875MPD2    H112892   2.299   3.299  15.069  0.2987  0.0570 -0.8213
  875MPD2    H212893   2.113   3.252  14.710  0.7894 -1.6946 -1.1380
  875MPD2    H312894   2.263   3.377  14.861  0.6497 -0.2240  1.4040
  875MPD2     N12895   2.267   3.074  15.174  0.0204  0.6796  0.0243
  875MPD2    H512896   2.311   3.147  15.229  1.0797  0.1156 -0.0775
  875MPD2    N112897   2.060   2.995  14.742  0.0575 -0.0723  0.1641
  875MPD2    H712898   2.012   2.910  14.772 -0.4489  1.6573  4.3124
  876MPD2     C12899   1.322   4.185  16.005 -0.1595 -0.2186  0.6839
  876MPD2    C112900   1.260   4.056  15.969 -0.1518  0.5361  0.0265
  876MPD2    C212901   1.244   3.961  16.069 -0.0340  0.7833  0.3359
  876MPD2    C312902   1.287   3.990  16.199 -1.1162  0.3089 -0.1360
  876MPD2    C412903   1.341   4.110  16.232 -0.7498  0.1723  0.0404
  876MPD2    C512904   1.367   4.208  16.135  0.5967 -0.2773 -0.6634
  876MPD2     H12905   1.194   3.866  16.048  3.7460 -1.3976  1.1632
  876MPD2    H112906   1.367   4.133  16.335 -1.3933  0.8733  0.0504
  876MPD2    H212907   1.313   4.267  15.935  2.3449 -1.1113 -0.7025
  876MPD2    H312908   1.401   4.303  16.174  0.9272 -0.3151 -0.8666
  876MPD2     N12909   1.255   3.897  16.297  0.2250  0.1252 -0.3469
  876MPD2    H512910   1.206   3.816  16.262  0.4404 -0.7484  1.3870
  876MPD2    N112911   1.234   4.033  15.829  0.1813 -0.2525 -0.2379
  876MPD2    H712912   1.244   4.118  15.775 -1.4649  0.5643  0.7292
  877MPD2     C12913   1.306   4.391  15.171  0.3738  0.7365  0.2925
  877MPD2    C112914   1.307   4.252  15.157 -0.6322  1.2975 -0.0514
  877MPD2    C212915   1.346   4.199  15.033  0.5378  0.7601  0.5045
  877MPD2    C312916   1.367   4.282  14.932  0.3452 -0.5019  0.3705
  877MPD2    C412917   1.363   4.422  14.945  0.1402  0.2776  0.2253
  877MPD2    C512918   1.344   4.479  15.068  0.5213 -0.3244 -0.1594
  877MPD2     H12919   1.347   4.090  15.030 -0.9263  0.8260 -1.9041
  877MPD2    H112920   1.392   4.491  14.867 -1.1328 -1.0025 -1.3615
  877MPD2    H212921   1.287   4.434  15.269  1.1635  1.9052 -0.0593
  877MPD2    H312922   1.345   4.588  15.073  0.8976 -0.1049 -4.5766
  877MPD2     N12923   1.393   4.228  14.796  0.1846  1.0048 -0.5132
  877MPD2    H512924   1.396   4.294  14.719  0.6655  0.0052 -1.3411
  877MPD2    N112925   1.263   4.158  15.254  0.3644 -0.3366 -0.5406
  877MPD2    H712926   1.281   4.062  15.226  0.3226 -0.7325  0.8228
  878MPD2     C12927   0.140   4.117  13.701 -0.5710  0.3373  0.1933
  878MPD2    C112928   0.255   4.089  13.622 -0.5138 -0.3220  0.4531
  878MPD2    C212929   0.369   4.035  13.683 -0.9109  0.4186  0.6581
  878MPD2    C312930   0.380   4.038  13.820  0.2081 -0.0982  0.5345
  878MPD2    C412931   0.264   4.075  13.890 -0.3103 -0.1027  0.2075
  878MPD2    C512932   0.150   4.107  13.830  0.5416 -0.1922 -0.2490
  878MPD2     H12933   0.446   4.002  13.615  0.7449 -0.2365  2.8371
  878MPD2    H112934   0.256   4.068  13.998 -1.5636 -3.1915 -0.0992
  878MPD2    H212935   0.052   4.162  13.657 -0.9408 -1.2212 -0.6739
  878MPD2    H312936   0.070   4.142  13.894  1.6677  0.0747  1.0289
  878MPD2     N12937   0.495   3.990  13.885 -0.1566  0.1512 -0.4011
  878MPD2    H512938   0.562   3.943  13.825 -0.8681  1.0588 -1.9241
  878MPD2    N112939   0.238   4.108  13.485  0.6083  0.2252  0.0094
  878MPD2    H712940   0.150   4.143  13.449 -0.2340 -1.0749  0.8149
  879MPD2     C12941   1.829   0.381  16.639  0.0751  0.6214 -0.6285
  879MPD2    C112942   1.762   0.472  16.721  0.6763  0.2215 -0.2490
  879MPD2    C212943   1.639   0.514  16.680 -0.7319  0.5192  0.9243
  879MPD2    C312944   1.575   0.465  16.568 -0.2620  0.4986  0.4035
  879MPD2    C412945   1.641   0.370  16.490 -0.6915  0.2721  0.5535
  879MPD2    C512946   1.766   0.330  16.530 -0.5844 -0.3788 -0.0320
  879MPD2     H12947   1.586   0.589  16.736 -2.8632 -0.3899  0.1560
  879MPD2    H112948   1.604   0.328  16.397  0.1077  0.9350 -0.0752
  879MPD2    H212949   1.929   0.346  16.662  0.4187  0.7039 -2.0054
  879MPD2    H312950   1.821   0.262  16.466  0.5990  0.2556  0.3244
  879MPD2     N12951   1.434   0.476  16.557 -0.3074  0.3976  0.4035
  879MPD2    H512952   1.395   0.428  16.477  0.1818  1.3150 -0.3808
  879MPD2    N112953   1.804   0.517  16.848  0.5238  0.3963  0.3895
  879MPD2    H712954   1.744   0.583  16.897 -2.3925 -1.2529 -0.9997
  880MPD2     C12955   2.283   2.533   0.068 -0.8629  0.5063 -0.4162
  880MPD2    C112956   2.356   2.581   0.178  0.2740  0.0560  0.2200
  880MPD2    C212957   2.443   2.495   0.244  0.8022  0.0075 -0.1609
  880MPD2    C312958   2.446   2.362   0.205 -0.4250 -0.6001  0.1248
  880MPD2    C412959   2.374   2.315   0.101  0.2357 -0.3375 -0.1440
  880MPD2    C512960   2.291   2.403   0.036  0.1677  0.7246  0.5471
  880MPD2     H12961   2.505   2.530   0.327 -0.2002  0.8724  0.2154
  880MPD2    H112962   2.363   2.212   0.071  0.4474 -0.6941  0.9848
  880MPD2    H212963   2.227   2.599   0.003 -2.1437  1.4158  1.6142
  880MPD2    H312964   2.227   2.360  17.700  0.4045  0.5125  0.4695
  880MPD2     N12965   2.528   2.269   0.278 -0.1675 -0.0841 -0.1104
  880MPD2    H512966   2.577   2.314   0.355 -0.7909  0.2411  0.0979
  880MPD2    N112967   2.342   2.713   0.216 -0.2092  0.3278 -0.2895
  880MPD2    H712968   2.296   2.770   0.146 -0.8782  0.1855  0.0353
  881MPD2     C12969   2.749   3.516  17.526  0.0222 -0.3117 -0.0830
  881MPD2    C112970   2.709   3.388  17.502  0.4666 -0.0359 -0.0933
  881MPD2    C212971   2.663   3.308  17.606 -0.7122  0.4868 -0.2722
  881MPD2    C312972   2.675   3.355  17.740  0.0975 -0.1399  0.5204
  881MPD2    C412973   2.715   3.482   0.025 -1.0806  0.3661 -0.7183
  881MPD2    C512974   2.749   3.563  17.658 -0.0885 -0.2396  1.0472
  881MPD2     H12975   2.647   3.202  17.590  0.1518  0.3815 -0.4196
  881MPD2    H112976   2.729   3.511   0.129  0.0188 -0.3339 -0.6718
  881MPD2    H212977   2.814   3.564  17.455  3.0267 -0.6246  2.4576
  881MPD2    H312978   2.786   3.662  17.681  2.0573 -0.7522 -0.1581
  881MPD2     N12979   2.634   3.282   0.111 -0.2108  0.0657  0.1725
  881MPD2    H512980   2.639   3.330   0.201  0.5535  0.0979  0.1119
  881MPD2    N112981   2.736   3.335  17.374  0.1796  0.5500  0.0922
  881MPD2    H712982   2.770   3.404  17.307  1.3506  0.3416  0.4608
  882MPD2     C12983   1.097   4.079  14.018 -0.7413  0.5484  0.0492
  882MPD2    C112984   1.111   4.162  14.125 -0.1790  0.2004  0.1117
  882MPD2    C212985   1.021   4.260  14.141  0.5081  0.0655 -0.0997
  882MPD2    C312986   0.914   4.266  14.047  1.2850  0.6864 -0.3848
  882MPD2    C412987   0.893   4.176  13.944 -0.2933 -0.1201 -0.4154
  882MPD2    C512988   0.997   4.087  13.928  0.1370 -0.4777 -0.2053
  882MPD2     H12989   1.019   4.327  14.226  2.4032  0.5305 -0.4312
  882MPD2    H112990   0.804   4.159  13.884 -0.1787 -0.3897 -0.5060
  882MPD2    H212991   1.171   4.001  14.005 -1.5879 -0.4143  0.9850
  882MPD2    H312992   0.986   4.013  13.850  0.6891 -0.4531 -0.3063
  882MPD2     N12993   0.804   4.353  14.071 -0.3712 -0.6389 -0.3797
  882MPD2    H512994   0.719   4.330  14.021 -1.7255  2.6352  0.4154
  882MPD2    N112995   1.215   4.132  14.213  0.4339 -0.0782  0.2282
  882MPD2    H712996   1.271   4.054  14.180  0.1688  0.5757 -1.7806
  883MPD2     C12997   2.919   0.022  16.189  0.5248  0.2150 -0.8450
  883MPD2    C112998   3.002   0.082  16.096 -0.0065  0.4530 -0.5891
  883MPD2    C212999   3.095   0.176  16.141  0.0957  0.2863 -0.3510
  883MPD2    C313000   3.116   0.197  16.276 -0.1414  0.0460  0.2205
  883MPD2    C413001   3.028   0.138  16.369 -0.1581  0.3972 -0.3111
  883MPD2    C513002   2.935   0.054  16.320  0.2811 -0.2456  0.6315
  883MPD2     H13003   3.158   0.236  16.076  0.4866  0.4707  0.1917
  883MPD2    H113004   3.041   0.160  16.474 -1.0594  0.9793 -0.3209
  883MPD2    H213005   2.838   4.688  16.169 -0.7411  1.5517 -0.3024
  883MPD2    H313006   2.869   0.004  16.390  1.3491 -0.7691  1.2526
  883MPD2     N13007   3.224   0.281  16.307  0.3431 -0.0124  0.3447
  883MPD2    H513008   3.280   0.319  16.231 -0.0976  0.8503  0.4499
  883MPD2    N113009   2.978   0.064  15.952  0.4214  0.0675  0.3563
  883MPD2    H713010   3.001   0.138  15.887 -0.9566 -3.3228 -3.9986
  884MPD2     C13011   0.380   0.926  15.130 -0.1377  0.1317 -0.4374
  884MPD2    C113012   0.351   1.045  15.066 -0.4750 -0.3977 -0.2182
  884MPD2    C213013   0.225   1.083  15.051  0.3823  0.2754  0.9257
  884MPD2    C313014   0.120   1.008  15.109  0.5735  0.0800  0.5272
  884MPD2    C413015   0.153   0.892  15.178  0.5405 -0.2067 -0.5852
  884MPD2    C513016   0.280   0.841  15.165  1.3835 -0.6570 -0.3503
  884MPD2     H13017   0.216   1.173  14.991 -0.5141  1.1083  2.2837
  884MPD2    H113018   0.071   0.828  15.210  0.5556 -0.5857 -1.3024
  884MPD2    H213019   0.482   0.890  15.132 -0.4595 -0.7850 -0.2589
  884MPD2    H313020   0.300   0.746  15.213 -0.3058 -0.7501  0.1654
  884MPD2     N13021   4.724   1.059  15.085 -0.6067 -0.4219 -0.0886
  884MPD2    H513022   4.713   1.153  15.050  0.0550 -0.4806 -0.4569
  884MPD2    N113023   0.448   1.126  14.994 -0.0746  0.4765 -0.0159
  884MPD2    H713024   0.423   1.220  14.966 -0.1882 -0.4416 -2.9370
  885MPD2     C13025   2.712   1.161   0.185 -0.3412  0.6331 -0.5943
  885MPD2    C113026   2.833   1.222   0.179  0.7874  0.0552 -0.9500
  885MPD2    C213027   2.868   1.259   0.048  0.6867 -0.4358  0.2169
  885MPD2    C313028   2.798   1.228  17.678  0.1678  0.6351 -0.9891
  885MPD2    C413029   2.679   1.165  17.694  0.1735 -0.0783 -0.2226
  885MPD2    C513030   2.632   1.129   0.080  0.5904  0.1313 -0.3619
  885MPD2     H13031   2.961   1.312   0.028 -1.5000  3.4308  0.2476
  885MPD2    H113032   2.604   1.153  17.617  0.6281  1.7272 -0.9258
  885MPD2    H213033   2.677   1.121   0.280 -0.1051  4.2811  1.0305
  885MPD2    H313034   2.529   1.095   0.091  0.9989 -0.7955  0.5490
  885MPD2     N13035   2.827   1.286  17.550  0.4185 -0.0068 -0.3043
  885MPD2    H513036   2.905   1.352  17.548 -1.3058  2.0200 -0.2463
  885MPD2    N113037   2.916   1.235   0.294  0.1426  0.0781 -0.2970
  885MPD2    H713038   2.862   1.209   0.376 -0.3091  0.7568 -0.3830
  886MPD2     C13039   4.511   4.265  15.507 -0.6376 -0.5904  0.1856
  886MPD2    C113040   4.641   4.253  15.458 -0.9430  0.1471  0.2243
  886MPD2    C213041   4.673   4.326  15.346  0.1566 -0.5769 -0.9232
  886MPD2    C313042   4.588   4.401  15.279  0.6585  0.4160  0.1380
  886MPD2    C413043   4.461   4.420  15.337 -0.3398 -0.4755  0.0297
  886MPD2    C513044   4.422   4.344  15.443  0.2598  1.1895 -0.6738
  886MPD2     H13045   0.041   4.321  15.312 -0.0307 -1.2157 -1.3980
  886MPD2    H113046   4.387   4.484  15.290  0.2686 -0.5214 -0.9992
  886MPD2    H213047   4.474   4.194  15.580 -1.1891 -1.5026 -0.9851
  886MPD2    H313048   4.316   4.345  15.465  0.6213 -0.3852  1.1607
  886MPD2     N13049   4.633   4.464  15.164  0.5106  0.0924  0.2740
  886MPD2    H513050   4.725   4.440  15.128  1.1518  0.1382  1.9019
  886MPD2    N113051   0.006   4.172  15.511 -0.2420 -0.2284 -0.4809
  886MPD2    H713052   0.096   4.179  15.465 -1.5235  1.1014 -2.7521
  887MPD2     C13053   0.736   4.144  15.615  0.3953  0.5028  0.7548
  887MPD2    C113054   0.616   4.209  15.613  0.2087  0.1802  0.0071
  887MPD2    C213055   0.604   4.347  15.609  0.4944  0.2271 -0.0127
  887MPD2    C313056   0.719   4.422  15.607  0.1946  0.7612  0.6120
  887MPD2    C413057   0.839   4.359  15.620 -0.5561 -0.7692 -1.4084
  887MPD2    C513058   0.845   4.222  15.618 -0.1524  0.1546  0.0792
  887MPD2     H13059   0.511   4.401  15.601 -0.2130 -0.8022  1.2154
  887MPD2    H113060   0.934   4.408  15.639 -0.0119 -2.1133 -0.7274
  887MPD2    H213061   0.746   4.036  15.613  1.0160  0.5363  2.3899
  887MPD2    H313062   0.941   4.171  15.615 -0.2434  0.1119 -1.7592
  887MPD2     N13063   0.711   4.561  15.616  0.1224  0.5551 -0.3465
  887MPD2    H513064   0.617   4.595  15.603 -0.3308 -0.6930 -0.3495
  887MPD2    N113065   0.492   4.141  15.598  0.4652  0.1484 -0.0998
  887MPD2    H713066   0.410   4.200  15.592  0.8416  0.4545 -2.1996
  888MPD2     C13067   2.194   4.232  14.804 -0.2977 -0.8034  0.3438
  888MPD2    C113068   2.260   4.245  14.921  0.6437 -0.2057 -0.0711
  888MPD2    C213069   2.325   4.362  14.949  0.2981  0.5328 -0.6250
  888MPD2    C313070   2.314   4.467  14.860  0.2396  0.4414  0.9417
  888MPD2    C413071   2.254   4.450  14.738  0.0929 -0.4393 -0.1249
  888MPD2    C513072   2.195   4.329  14.708  0.2339 -0.2100 -1.5328
  888MPD2     H13073   2.381   4.371  15.041  0.2834  2.2752 -0.7903
  888MPD2    H113074   2.261   4.521  14.657 -0.1639  0.7808  0.9227
  888MPD2    H213075   2.153   4.136  14.773 -0.1637 -1.3091  1.7505
  888MPD2    H313076   2.148   4.314  14.612  1.0286 -0.2816 -1.9080
  888MPD2     N13077   2.363   4.592  14.908  0.0012 -0.2111  0.4478
  888MPD2    H513078   2.401   4.597  15.002  0.1435 -0.4335  0.4025
  888MPD2    N113079   2.260   4.138  15.015  0.5162 -0.2644  0.3380
  888MPD2    H713080   2.315   4.162  15.097  0.3140  0.9617  0.1174
  889MPD2     C13081   1.713   3.191  12.558  0.1567  0.3345  0.1059
  889MPD2    C113082   1.717   3.210  12.692 -0.1377  0.3351  0.2404
  889MPD2    C213083   1.640   3.313  12.748  0.2706  0.6758  0.0792
  889MPD2    C313084   1.604   3.421  12.670 -1.4273 -0.4146  0.2638
  889MPD2    C413085   1.622   3.410  12.535  0.5759  0.9845 -0.5000
  889MPD2    C513086   1.663   3.289  12.478 -0.3549  0.1072  0.1354
  889MPD2     H13087   1.648   3.323  12.856  1.9425  1.1366 -0.0828
  889MPD2    H113088   1.592   3.486  12.464 -1.9510 -0.7495 -1.2981
  889MPD2    H213089   1.759   3.102  12.518 -4.2199 -0.3581 -3.4332
  889MPD2    H313090   1.680   3.282  12.371 -0.0281  1.3093  0.1012
  889MPD2     N13091   1.547   3.531  12.737  0.0183 -0.1125  0.1402
  889MPD2    H513092   1.556   3.541  12.838  0.1891 -2.2576  0.3365
  889MPD2    N113093   1.748   3.112  12.780  0.1641  0.3659  0.3670
  889MPD2    H713094   1.701   3.118  12.869  2.1100  1.2298  1.3293
  890MPD2     C13095   1.528   0.734  14.362  0.2631 -0.4292  0.6181
  890MPD2    C113096   1.427   0.734  14.453  0.4827 -0.4126  0.2890
  890MPD2    C213097   1.454   0.662  14.572  0.5763  0.1560  0.1157
  890MPD2    C313098   1.577   0.597  14.591  0.0326  0.3589 -0.0128
  890MPD2    C413099   1.680   0.625  14.501  0.3870  0.2099  0.4021
  890MPD2    C513100   1.655   0.693  14.388 -0.7656 -0.2504  0.8084
  890MPD2     H13101   1.378   0.653  14.648 -2.4647  2.0317 -2.7313
  890MPD2    H113102   1.780   0.584  14.512  0.2828 -0.4962 -1.3241
  890MPD2    H213103   1.510   0.776  14.264  0.5386  0.7021  1.0495
  890MPD2    H313104   1.727   0.713  14.310 -2.9982 -0.9487 -1.4524
  890MPD2     N13105   1.590   0.524  14.708  0.2606 -1.0833 -0.2176
  890MPD2    H513106   1.511   0.508  14.769  0.9249 -2.3862  0.2897
  890MPD2    N113107   1.310   0.799  14.423 -0.6901 -1.0006 -0.2067
  890MPD2    H713108   1.308   0.855  14.338 -0.7872  0.4209  0.7287
  891MPD2     C13109   3.857   4.383  16.163  0.0576 -0.6160 -0.1393
  891MPD2    C113110   3.804   4.466  16.255 -0.8554  0.0501 -0.2123
  891MPD2    C213111   3.862   4.480  16.378  0.3748  0.0305 -0.7972
  891MPD2    C313112   3.959   4.387  16.415 -0.8444  0.5798 -0.4438
  891MPD2    C413113   4.025   4.308  16.319 -0.5442 -0.4722 -0.7667
  891MPD2    C513114   3.967   4.309  16.198 -0.3592  0.1297 -0.0736
  891MPD2     H13115   3.835   4.554  16.452 -0.3987 -0.3187 -0.7230
  891MPD2    H113116   4.099   4.237  16.353 -1.1548 -0.1379  1.2499
  891MPD2    H213117   3.819   4.386  16.062  0.2075 -0.6114 -0.1955
  891MPD2    H313118   4.020   4.251  16.124  0.5414  1.3576 -0.3843
  891MPD2     N13119   3.999   4.396  16.553  0.3297 -0.2550 -0.2224
  891MPD2    H513120   3.938   4.450  16.613 -1.0943 -0.4931 -1.4593
  891MPD2    N113121   3.699   4.548  16.215 -0.4951  1.0699 -0.1069
  891MPD2    H713122   3.660   4.537  16.122  1.2195  1.1635 -0.8537
  892MPD2     C13123   0.429   0.493  14.322  0.8945 -0.4140  0.0386
  892MPD2    C113124   0.359   0.416  14.401 -0.0875  0.5173 -0.0158
  892MPD2    C213125   0.392   0.279  14.395  0.0362 -0.3635 -0.0479
  892MPD2    C313126   0.486   0.237  14.310 -0.8514 -0.3516 -0.2384
  892MPD2    C413127   0.552   0.324  14.226  0.4733  0.0967 -0.0219
  892MPD2    C513128   0.526   0.453  14.236 -0.3396 -0.2521  0.1776
  892MPD2     H13129   0.348   0.217  14.472  0.9612  2.1538  2.5194
  892MPD2    H113130   0.631   0.289  14.160  0.9869  0.4298  0.4218
  892MPD2    H213131   0.424   0.601  14.327 -2.4525 -0.4797 -1.3571
  892MPD2    H313132   0.573   0.531  14.177  0.7983 -0.9713  0.1337
  892MPD2     N13133   0.542   0.105  14.311  0.5143  0.1473 -0.0064
  892MPD2    H513134   0.612   0.092  14.239 -0.5985 -0.4075 -0.9764
  892MPD2    N113135   0.244   0.461  14.469  0.8864  0.0751  0.2440
  892MPD2    H713136   0.205   0.403  14.542 -2.0859 -0.8342 -2.0343
  893MPD2     C13137   2.443   2.713   0.830  0.3838 -0.3435  0.2094
  893MPD2    C113138   2.408   2.768   0.949  0.4142 -0.0794  0.4153
  893MPD2    C213139   2.403   2.691   1.063  0.3170 -0.2865 -0.4906
  893MPD2    C313140   2.445   2.555   1.056  1.0318 -0.0915 -0.1955
  893MPD2    C413141   2.471   2.498   0.931  0.2183 -0.2106 -0.6189
  893MPD2    C513142   2.477   2.586   0.822  0.0763  0.5178 -0.2469
  893MPD2     H13143   2.375   2.737   1.157 -1.3536 -1.9203 -0.1970
  893MPD2    H113144   2.497   2.394   0.917 -1.0807 -0.8133  1.4396
  893MPD2    H213145   2.437   2.773   0.740  0.7121 -0.5082  0.0801
  893MPD2    H313146   2.521   2.542   0.732 -3.0410 -1.4989 -0.7849
  893MPD2     N13147   2.451   2.464   1.163 -0.2792 -0.7646 -1.1854
  893MPD2    H513148   2.486   2.371   1.141  2.2677  0.1939 -1.1736
  893MPD2    N113149   2.359   2.900   0.939  0.0411  0.8008  0.4550
  893MPD2    H713150   2.353   2.952   0.852 -3.5643 -0.7346 -0.2455
  894MPD2     C13151   0.005   1.033   0.819 -0.1775  0.1699 -0.2668
  894MPD2    C113152   0.003   1.112   0.935 -0.0974  0.1125  0.0123
  894MPD2    C213153   0.057   1.236   0.937 -0.3160  0.2971  0.2448
  894MPD2    C313154   0.122   1.290   0.827  0.3980  0.4708  0.2457
  894MPD2    C413155   0.132   1.213   0.714  0.5243 -0.9047  0.4681
  894MPD2    C513156   0.078   1.087   0.714  0.4374 -0.4646  0.6742
  894MPD2     H13157   0.034   1.303   1.019  0.7208 -0.4457  1.1543
  894MPD2    H113158   0.182   1.246   0.624 -3.7995  2.1643 -0.8018
  894MPD2    H213159   4.705   0.930   0.821  0.0399  0.0962 -0.2614
  894MPD2    H313160   0.087   1.031   0.621 -3.9689 -0.8327  0.4466
  894MPD2     N13161   0.182   1.417   0.846 -0.2198  1.0623 -0.1603
  894MPD2    H513162   0.174   1.462   0.936  0.3262 -0.1586  0.4900
  894MPD2    N113163   4.675   1.076   1.052  0.5234 -0.7693  0.0528
  894MPD2    H713164   4.693   1.147   1.123 -0.3129  0.1638 -0.6648
  895MPD2     C13165   3.377   4.443  14.149 -0.5126  0.5843 -0.4044
  895MPD2    C113166   3.323   4.391  14.033 -0.0610  0.2118  0.0268
  895MPD2    C213167   3.401   4.311  13.950  0.1559 -0.5362 -0.0954
  895MPD2    C313168   3.541   4.306  13.967 -0.7900  0.6841 -0.3486
  895MPD2    C413169   3.601   4.376  14.066 -0.7459  0.5420  0.5016
  895MPD2    C513170   3.515   4.422  14.163  0.5568  0.0736  0.2452
  895MPD2     H13171   3.351   4.275  13.861 -0.3141 -1.6328  0.6137
  895MPD2    H113172   3.708   4.376  14.082 -0.7202  5.1138  0.4938
  895MPD2    H213173   3.328   4.505  14.223  0.2049 -0.0361  0.5968
  895MPD2    H313174   3.557   4.455  14.258 -0.6812 -2.0705  1.5159
  895MPD2     N13175   3.625   4.239  13.873 -0.0643  0.6747 -0.8132
  895MPD2    H513176   3.724   4.259  13.881 -0.0214  1.2979 -3.0348
  895MPD2    N113177   3.191   4.408  13.992  0.2289 -0.2780  0.0318
  895MPD2    H713178   3.146   4.354  13.918 -0.4694 -1.0126  1.0013
  896MPD2     C13179   2.057   1.702   1.305 -0.0166 -0.4911 -0.1855
  896MPD2    C113180   2.028   1.691   1.173 -0.2446 -0.2598 -0.2943
  896MPD2    C213181   1.897   1.658   1.146 -0.3311  0.3368  0.2627
  896MPD2    C313182   1.805   1.636   1.244  0.0571 -0.3230  0.1123
  896MPD2    C413183   1.838   1.651   1.373 -0.4178  0.1962  0.2363
  896MPD2    C513184   1.963   1.679   1.406 -0.7104 -0.8488 -1.0855
  896MPD2     H13185   1.856   1.652   1.046 -0.5094 -0.8649  0.4099
  896MPD2    H113186   1.776   1.623   1.457 -1.0209 -1.0515 -0.6296
  896MPD2    H213187   2.157   1.726   1.338  1.1450 -3.3075 -1.6708
  896MPD2    H313188   1.995   1.685   1.509  4.1774 -2.4829 -2.5051
  896MPD2     N13189   1.676   1.593   1.203 -0.7085  0.6626  0.3497
  896MPD2    H513190   1.665   1.582   1.103 -0.3645  1.2489  0.2464
  896MPD2    N113191   2.135   1.707   1.077 -0.1359  0.3654  0.7793
  896MPD2    H713192   2.231   1.717   1.110  0.1590 -0.6532  0.2242
  897MPD2     C13193   2.559   3.356  10.542 -0.7197 -0.6776 -0.3149
  897MPD2    C113194   2.426   3.377  10.538  0.2584 -0.4139  0.3630
  897MPD2    C213195   2.349   3.338  10.643  0.1628 -0.5561 -0.9935
  897MPD2    C313196   2.408   3.297  10.762 -0.3364  0.2915 -0.1130
  897MPD2    C413197   2.539   3.257  10.761 -0.7920  0.2441 -0.1661
  897MPD2    C513198   2.614   3.290  10.645 -0.4412 -0.2611 -0.0370
  897MPD2     H13199   2.245   3.368  10.645  0.4492  0.3510  0.8637
  897MPD2    H113200   2.591   3.204  10.840 -2.7680 -1.2114  0.1516
  897MPD2    H213201   2.624   3.375  10.457 -1.0397  0.1071 -0.3834
  897MPD2    H313202   2.721   3.269  10.646 -0.0800  1.5446  0.2394
  897MPD2     N13203   2.322   3.291  10.873  0.2402  0.5716 -0.0880
  897MPD2    H513204   2.235   3.343  10.868 -0.2802 -0.1680  1.2045
  897MPD2    N113205   2.352   3.445  10.435  0.4315 -0.2150  0.0169
  897MPD2    H713206   2.251   3.440  10.434  0.4168  0.5528 -1.8788
  898MPD2     C13207   3.729   4.563  17.618  0.3185 -0.5311  0.9472
  898MPD2    C113208   3.849   4.613  17.568 -0.6428  0.5105 -0.4417
  898MPD2    C213209   3.858   0.011  17.542 -0.2483  0.1425 -0.6774
  898MPD2    C313210   3.747   0.093  17.554 -1.0341  0.2769  0.0237
  898MPD2    C413211   3.628   0.046  17.604  0.3461  0.2940  0.4218
  898MPD2    C513212   3.622   4.644  17.632 -0.2032  0.1610 -0.8423
  898MPD2     H13213   3.952   0.038  17.496 -0.3085  0.0492 -0.8519
  898MPD2    H113214   3.540   0.108  17.618 -0.2945 -1.1204  2.5592
  898MPD2    H213215   3.720   4.459  17.647 -0.1052 -0.3956  1.2978
  898MPD2    H313216   3.532   4.608  17.678  0.4822 -0.4301  0.0293
  898MPD2     N13217   3.759   0.228  17.511 -0.2966  0.4777 -0.1139
  898MPD2    H513218   3.853   0.265  17.496 -0.8915  1.3277 -1.6596
  898MPD2    N113219   3.954   4.530  17.528  0.0313 -0.2767 -0.6282
  898MPD2    H713220   4.040   4.573  17.494  0.4787  0.0146  0.8525
  899MPD2     C13221   0.616   0.361  17.154 -0.0371  0.1350 -0.3386
  899MPD2    C113222   0.693   0.449  17.229  0.0625 -0.7567 -0.3625
  899MPD2    C213223   0.679   0.447  17.370 -0.1345 -0.3326  0.2958
  899MPD2    C313224   0.587   0.361  17.430  0.1292  0.0951  0.4189
  899MPD2    C413225   0.510   0.281  17.346 -0.4850 -0.2533  0.0955
  899MPD2    C513226   0.529   0.280  17.216 -0.1922  0.1936  0.0248
  899MPD2     H13227   0.734   0.521  17.425  0.2544  0.2950 -0.9261
  899MPD2    H113228   0.435   0.215  17.388 -0.2703  0.0327  0.9290
  899MPD2    H213229   0.629   0.352  17.047  0.6281 -0.6895 -0.1928
  899MPD2    H313230   0.454   0.234  17.152  0.7072 -0.4050 -0.6023
  899MPD2     N13231   0.559   0.361  17.565  0.5779  0.7522 -0.6351
  899MPD2    H513232   0.477   0.304  17.584  0.9176  0.1954 -0.8535
  899MPD2    N113233   0.773   0.545  17.161  0.3486 -0.3112  0.1059
  899MPD2    H713234   0.749   0.553  17.063  1.0598  1.9195  0.1156
  900MPD2     C13235   0.168   1.833  12.526  0.3036 -0.1923  0.4337
  900MPD2    C113236   0.072   1.735  12.521  0.1511  0.3714  0.0199
  900MPD2    C213237   4.690   1.766  12.449 -0.4944  0.4635 -0.6468
  900MPD2    C313238   4.680   1.881  12.366  0.0734 -0.2327  0.6261
  900MPD2    C413239   0.048   1.972  12.370 -0.4883  0.3175  0.0850
  900MPD2    C513240   0.155   1.947  12.451  0.1216 -0.0493 -0.1155
  900MPD2     H13241   4.599   1.708  12.462  0.2859 -0.8410 -1.0148
  900MPD2    H113242   0.043   2.064  12.314  1.4540  0.4022  0.0318
  900MPD2    H213243   0.264   1.813  12.571  1.1375  2.2284 -0.2593
  900MPD2    H313244   0.226   2.028  12.459 -1.0316  1.0234 -0.7990
  900MPD2     N13245   4.574   1.899  12.272 -0.1625 -0.2106  0.1101
  900MPD2    H513246   4.583   1.982  12.213 -1.6774 -0.1759 -0.0884
  900MPD2    N113247   0.095   1.616  12.591  0.3169  0.8769 -0.0288
  900MPD2    H713248   0.183   1.611  12.640 -0.3556  0.3071  1.1222
  901MPD2     C13249   4.497   0.593  12.597  0.3855 -0.1437 -0.4399
  901MPD2    C113250   4.630   0.589  12.632  0.4273  0.0562  0.1382
  901MPD2    C213251   4.680   0.707  12.683 -0.0300 -0.1315 -1.2272
  901MPD2    C313252   4.605   0.822  12.687  0.3205  0.3599 -0.0977
  901MPD2    C413253   4.474   0.820  12.650  0.0283  0.1974  0.4380
  901MPD2    C513254   4.416   0.704  12.609  0.6645  0.3805  0.6430
  901MPD2     H13255   0.045   0.706  12.726 -1.1792 -1.9659  1.4691
  901MPD2    H113256   4.407   0.906  12.650 -1.4753 -0.9726 -1.2885
  901MPD2    H213257   4.452   0.497  12.576  1.4908 -0.5495 -0.9357
  901MPD2    H313258   4.312   0.690  12.580  1.0800 -0.6744 -0.3711
  901MPD2     N13259   4.669   0.946  12.728 -0.3340 -0.9146 -0.9184
  901MPD2    H513260   0.033   0.931  12.743 -0.4031 -2.6417 -2.1628
  901MPD2    N113261   4.697   0.465  12.623  0.0583  0.4815 -0.2507
  901MPD2    H713262   4.648   0.390  12.577 -1.0110  0.5219  0.8301
  902MPD2     C13263   3.958   4.530  12.904 -0.1409 -0.7881  0.5902
  902MPD2    C113264   3.849   4.505  12.821 -0.3628 -0.0856  0.1652
  902MPD2    C213265   3.851   4.401  12.720  0.2972 -0.4954 -0.8786
  902MPD2    C313266   3.970   4.329  12.704  0.0850  0.4288 -0.3117
  902MPD2    C413267   4.078   4.360  12.788 -0.1351 -0.2864  0.1790
  902MPD2    C513268   4.068   4.454  12.894 -0.4665 -0.7925 -0.3730
  902MPD2     H13269   3.759   4.369  12.672 -1.6927  1.1455  1.8171
  902MPD2    H113270   4.175   4.329  12.753 -0.6229 -1.3414 -0.2501
  902MPD2    H213271   3.955   4.612  12.974  2.4271 -0.5279  0.3921
  902MPD2    H313272   4.154   4.472  12.958 -1.1561 -0.0966  0.3636
  902MPD2     N13273   3.987   4.220  12.616 -0.3745 -0.1985 -0.1318
  902MPD2    H513274   4.074   4.169  12.623  0.5279  1.3182 -0.3911
  902MPD2    N113275   3.730   4.584  12.849 -0.3923  0.3940 -0.2063
  902MPD2    H713276   3.744   4.646  12.928 -0.3497  0.4657 -0.2695
  903MPD2     C13277   3.746   3.480  12.098  0.4032  0.9078 -0.8619
  903MPD2    C113278   3.694   3.595  12.153 -0.0784  0.3135 -0.4879
  903MPD2    C213279   3.553   3.601  12.167 -0.1558 -0.3553 -0.3208
  903MPD2    C313280   3.468   3.499  12.119  0.1149 -0.5773 -0.2472
  903MPD2    C413281   3.525   3.396  12.044  0.2620 -0.5614 -0.1216
  903MPD2    C513282   3.667   3.382  12.039  0.9557  0.6522  0.1581
  903MPD2     H13283   3.517   3.685  12.224  1.9818  0.6882 -0.5325
  903MPD2    H113284   3.463   3.326  11.990 -0.2103 -0.0202 -0.2729
  903MPD2    H213285   3.854   3.469  12.091  0.4221  0.3324  0.3279
  903MPD2    H313286   3.705   3.298  11.983  2.0012  2.0451 -1.2164
  903MPD2     N13287   3.327   3.497  12.143 -0.2954  0.8968  0.0830
  903MPD2    H513288   3.287   3.418  12.094 -0.0046 -0.0891  1.4278
  903MPD2    N113289   3.789   3.681  12.208 -0.0598  0.2508  0.0189
  903MPD2    H713290   3.885   3.649  12.209 -0.1834 -0.1775 -3.0648
  904MPD2     C13291   4.092   3.490  14.448 -0.3822  0.3107  0.5671
  904MPD2    C113292   4.059   3.625  14.450  0.2535  0.7551  0.3902
  904MPD2    C213293   4.159   3.716  14.439  0.0848  0.3583 -0.0506
  904MPD2    C313294   4.289   3.671  14.438  0.1250  0.7693 -0.1427
  904MPD2    C413295   4.323   3.541  14.437 -0.2492 -0.9793 -0.7281
  904MPD2    C513296   4.220   3.452  14.437  0.3716 -0.0727 -0.3004
  904MPD2     H13297   4.147   3.823  14.444  0.6310  0.3783  0.9398
  904MPD2    H113298   4.426   3.510  14.428  0.2916  0.6270  0.1343
  904MPD2    H213299   4.016   3.413  14.448  1.9168 -1.9729 -1.7659
  904MPD2    H313300   4.235   3.345  14.433  1.0481 -0.0340  1.2018
  904MPD2     N13301   4.390   3.772  14.460  0.0196 -0.4975 -0.1437
  904MPD2    H513302   4.366   3.870  14.460 -1.6419 -0.9042  0.1765
  904MPD2    N113303   3.925   3.680  14.466  0.3994  0.7741  0.5028
  904MPD2    H713304   3.925   3.781  14.473 -0.6842  0.8970 -1.3339
  905MPD2     C13305   3.375   3.555  13.949  0.0713  0.1024 -0.9230
  905MPD2    C113306   3.443   3.668  13.988 -0.6169 -0.4458 -0.7415
  905MPD2    C213307   3.492   3.757  13.894 -0.1277  0.5031 -0.4988
  905MPD2    C313308   3.486   3.729  13.764  0.0496  0.0449  0.1508
  905MPD2    C413309   3.431   3.610  13.722  0.7087  0.3302  0.1076
  905MPD2    C513310   3.373   3.517  13.815 -0.2368 -0.7120  0.0168
  905MPD2     H13311   3.529   3.855  13.923  0.1863  0.1998  0.1415
  905MPD2    H113312   3.426   3.593  13.615 -2.2247  2.1577 -0.0297
  905MPD2    H213313   3.331   3.493  14.027  2.5117 -0.3377  0.0917
  905MPD2    H313314   3.335   3.424  13.775 -1.0354 -0.2547 -0.2825
  905MPD2     N13315   3.519   3.834  13.677 -0.2597 -0.6871 -0.5275
  905MPD2    H513316   3.522   3.929  13.714 -2.2119 -1.2709  1.0848
  905MPD2    N113317   3.452   3.692  14.131  0.7861 -0.0482 -0.5389
  905MPD2    H713318   3.408   3.623  14.190  1.7511 -0.5148 -0.3716
  906MPD2     C13319   1.108   3.481  11.567 -1.1142  0.0114 -0.7599
  906MPD2    C113320   1.137   3.384  11.474 -0.7122 -0.0711  0.2517
  906MPD2    C213321   1.103   3.253  11.501  0.0635 -0.0197 -0.1440
  906MPD2    C313322   1.029   3.223  11.616  0.0300 -0.0498  0.0597
  906MPD2    C413323   1.004   3.313  11.713 -0.3154  0.0814 -0.2367
  906MPD2    C513324   1.056   3.437  11.687 -0.1245  1.0685  0.0755
  906MPD2     H13325   1.122   3.177  11.426  0.6667 -0.3757  0.3658
  906MPD2    H113326   0.957   3.286  11.808  0.3297  0.7243  0.2617
  906MPD2    H213327   1.115   3.588  11.555  1.3008 -0.5045 -3.9965
  906MPD2    H313328   1.040   3.514  11.762 -1.6784 -1.6517  2.5113
  906MPD2     N13329   0.961   3.098  11.635  0.4466  0.0924 -0.1504
  906MPD2    H513330   0.893   3.089  11.711 -0.7858  2.6041 -0.9476
  906MPD2    N113331   1.184   3.416  11.340  0.1167 -0.2819 -0.0957
  906MPD2    H713332   1.203   3.339  11.277 -3.6547 -1.7797  0.5935
  907MPD2     C13333   0.160   2.950  16.198 -0.2636 -0.5693 -0.4161
  907MPD2    C113334   0.185   2.844  16.110 -0.0489 -0.5046  0.2423
  907MPD2    C213335   0.249   2.731  16.157  0.2671 -0.0519 -0.6074
  907MPD2    C313336   0.291   2.722  16.288  0.0220  0.1179 -0.3387
  907MPD2    C413337   0.278   2.836  16.372  0.1529 -0.1227  0.6552
  907MPD2    C513338   0.220   2.949  16.322  0.5046 -0.3959  0.7539
  907MPD2     H13339   0.268   2.646  16.093 -4.0933 -0.8672 -0.8103
  907MPD2    H113340   0.323   2.847  16.470 -0.5530  0.5611  0.9084
  907MPD2    H213341   0.104   3.039  16.170 -0.3458 -1.3142 -2.6128
  907MPD2    H313342   0.222   3.036  16.387  0.4269 -0.2016  0.4970
  907MPD2     N13343   0.331   2.597  16.335  0.1797  0.3995  0.8596
  907MPD2    H513344   0.329   2.513  16.278 -0.8437  0.7094  0.4383
  907MPD2    N113345   0.129   2.835  15.979 -0.3207  0.2610  0.3532
  907MPD2    H713346   0.143   2.750  15.925 -0.6418  1.7689 -2.0858
  908MPD2     C13347   1.997   3.790   9.477  0.4190  0.0507  0.6749
  908MPD2    C113348   1.905   3.717   9.553  0.8484  0.0979  0.3073
  908MPD2    C213349   1.935   3.694   9.690  0.4624 -0.5752  0.1091
  908MPD2    C313350   2.052   3.746   9.747  0.2883 -0.4291 -0.3919
  908MPD2    C413351   2.143   3.813   9.668  0.0894  0.0878  0.2413
  908MPD2    C513352   2.113   3.837   9.537 -0.2772  0.4702  0.5438
  908MPD2     H13353   1.867   3.632   9.748 -0.2026  0.4014  0.3609
  908MPD2    H113354   2.237   3.850   9.707  0.0425  1.4407 -0.9039
  908MPD2    H213355   1.979   3.821   9.375  0.0739 -0.1392  0.6776
  908MPD2    H313356   2.189   3.891   9.482  1.0273 -0.6975  1.1941
  908MPD2     N13357   2.078   3.713   9.883 -0.2738 -0.1772  0.5265
  908MPD2    H513358   1.998   3.675   9.932 -0.7188  0.6189  0.4117
  908MPD2    N113359   1.799   3.663   9.484  0.4518 -0.2135  0.2960
  908MPD2    H713360   1.788   3.688   9.386 -1.9176  3.6206  1.5456
  909MPD2     C13361   2.556   1.250  11.689  0.0102 -0.5749  0.6263
  909MPD2    C113362   2.528   1.367  11.621 -0.4643 -0.1088 -0.6804
  909MPD2    C213363   2.408   1.427  11.639 -0.1268  0.3659 -0.2738
  909MPD2    C313364   2.322   1.400  11.746 -0.9247 -0.6203 -0.2514
  909MPD2    C413365   2.356   1.280  11.814 -0.0078  0.6375  0.5694
  909MPD2    C513366   2.462   1.203  11.779 -0.1236  0.1128 -0.8628
  909MPD2     H13367   2.386   1.518  11.585  0.0557  0.8866  0.5457
  909MPD2    H113368   2.289   1.246  11.892 -2.6378  2.8299 -0.7430
  909MPD2    H213369   2.637   1.182  11.667 -0.4291 -1.0570  0.4899
  909MPD2    H313370   2.473   1.104  11.823 -0.5668  0.8528  0.9265
  909MPD2     N13371   2.197   1.463  11.754 -0.3391 -0.4408  0.0465
  909MPD2    H513372   2.174   1.526  11.677  0.7507  1.5489  1.3517
  909MPD2    N113373   2.612   1.421  11.525 -0.3311  0.4634 -0.0594
  909MPD2    H713374   2.600   1.519  11.500  0.0492  0.8821  1.3834
  910MPD2     C13375   4.230   3.192  16.411 -0.0394  0.2351 -0.3401
  910MPD2    C113376   4.306   3.191  16.293 -0.4869 -0.0207 -0.0013
  910MPD2    C213377   4.296   3.295  16.199 -1.0423 -0.4491 -0.3614
  910MPD2    C313378   4.201   3.399  16.222  0.0701  0.3978  0.6061
  910MPD2    C413379   4.119   3.393  16.337  0.5527  0.3845 -0.0817
  910MPD2    C513380   4.139   3.295  16.428  0.0006  0.4044  0.9005
  910MPD2     H13381   4.369   3.292  16.119 -0.9400 -0.7314 -0.2603
  910MPD2    H113382   4.041   3.466  16.353 -1.7243 -1.6899 -1.6250
  910MPD2    H213383   4.235   3.117  16.489 -1.3848  2.0722  1.5275
  910MPD2    H313384   4.076   3.285  16.516 -1.4540 -0.3728 -0.2462
  910MPD2     N13385   4.166   3.496  16.123  0.2492 -0.0174  0.7918
  910MPD2    H513386   4.098   3.568  16.144  1.5856  1.3402  0.5256
  910MPD2    N113387   4.402   3.100  16.251 -0.3956 -0.3230  0.1889
  910MPD2    H713388   4.458   3.114  16.167  0.5642 -0.2113  0.8382
  911MPD2     C13389   2.169   3.819  16.210  0.2790  0.1185 -0.1620
  911MPD2    C113390   2.225   3.941  16.222  0.0381  0.3132 -0.0842
  911MPD2    C213391   2.148   4.055  16.191  0.6485 -0.4266  0.5255
  911MPD2    C313392   2.027   4.047  16.125 -0.3598 -0.1691  0.2923
  911MPD2    C413393   1.979   3.924  16.102  0.1166  0.3921  0.1703
  911MPD2    C513394   2.051   3.812  16.147 -0.1016  0.6868 -0.0648
  911MPD2     H13395   2.193   4.151  16.212  0.6606 -0.2410 -0.3652
  911MPD2    H113396   1.886   3.915  16.048 -1.4279 -0.6726  3.0205
  911MPD2    H213397   2.217   3.727  16.243 -0.2730  0.0964  0.5729
  911MPD2    H313398   2.001   3.716  16.134 -0.4033  0.8691 -0.2455
  911MPD2     N13399   1.953   4.155  16.076  0.1855  0.7235 -0.2114
  911MPD2    H513400   1.864   4.137  16.030  0.2796  0.9360 -0.4753
  911MPD2    N113401   2.356   3.949  16.278  0.6553 -0.3678 -0.0023
  911MPD2    H713402   2.414   3.866  16.287 -0.1626 -1.0006 -0.6354
  912MPD2     C13403   1.574   4.022  15.538  0.4822  0.2086 -0.6949
  912MPD2    C113404   1.583   4.031  15.673  0.5794  0.3364  0.2060
  912MPD2    C213405   1.558   3.921  15.748  0.0316 -0.1168 -0.0538
  912MPD2    C313406   1.531   3.795  15.691  0.3602 -0.7151 -0.4520
  912MPD2    C413407   1.540   3.784  15.555 -0.5459  0.2191  0.0357
  912MPD2    C513408   1.555   3.895  15.483  0.5350 -0.3706  0.0189
  912MPD2     H13409   1.558   3.925  15.857  0.4814 -0.9195 -0.0245
  912MPD2    H113410   1.515   3.692  15.504 -1.7478  1.2211 -1.1674
  912MPD2    H213411   1.582   4.106  15.469  2.3878  0.9356  0.4177
  912MPD2    H313412   1.555   3.896  15.375  1.2684 -0.6572  0.0194
  912MPD2     N13413   1.532   3.687  15.782  0.5635  0.0578  0.1966
  912MPD2    H513414   1.525   3.717  15.879  0.4926 -0.1173  0.2446
  912MPD2    N113415   1.603   4.155  15.740 -0.2428  0.1123 -0.5727
  912MPD2    H713416   1.591   4.238  15.684 -0.4087  0.2551 -0.3236
  913MPD2     C13417   1.678   0.395  10.846  0.5530 -0.2789  0.6156
  913MPD2    C113418   1.653   0.383  10.714 -0.3362  0.0111  0.3238
  913MPD2    C213419   1.664   0.494  10.640  0.2246  0.4431 -0.0196
  913MPD2    C313420   1.696   0.617  10.691 -0.1392 -0.0719  0.5859
  913MPD2    C413421   1.725   0.633  10.826 -0.3065  0.4774 -0.1025
  913MPD2    C513422   1.702   0.520  10.900  0.9937  0.0928  0.3154
  913MPD2     H13423   1.643   0.474  10.536 -0.4221  0.2860  0.1470
  913MPD2    H113424   1.740   0.726  10.879  2.1249  1.3765 -2.4093
  913MPD2    H213425   1.683   0.302  10.902  0.0153 -1.7326 -1.7327
  913MPD2    H313426   1.723   0.520  11.006 -0.1694  0.1455  0.5488
  913MPD2     N13427   1.712   0.731  10.611 -0.1008  0.0593 -0.2526
  913MPD2    H513428   1.747   0.815  10.657  0.2313 -0.9080  1.2563
  913MPD2    N113429   1.623   0.257  10.654 -0.2659  0.0937 -0.2105
  913MPD2    H713430   1.619   0.185  10.725 -0.5390 -0.5747 -0.9099
  914MPD2     C13431   4.427   4.660  12.045 -0.3095  0.4111 -0.6582
  914MPD2    C113432   4.445   0.062  12.063  0.5431 -0.1591  0.0265
  914MPD2    C213433   4.532   0.099  12.165  0.5169 -0.3126 -0.0382
  914MPD2    C313434   4.604   0.011  12.240 -0.4473 -0.5152 -0.0367
  914MPD2    C413435   4.586   4.614  12.225 -0.4868  0.1910  0.3151
  914MPD2    C513436   4.493   4.571  12.131  0.7858 -0.0006 -0.5553
  914MPD2     H13437   4.546   0.205  12.185  1.3974 -0.5069  0.3682
  914MPD2    H113438   4.632   4.539  12.288  1.7244 -0.3638 -1.9547
  914MPD2    H213439   4.362   4.625  11.966 -0.4664  0.5258 -0.5799
  914MPD2    H313440   4.461   4.468  12.119 -0.6533  0.4416 -0.5593
  914MPD2     N13441   4.690   0.066  12.337  0.1457 -0.5331 -0.1209
  914MPD2    H513442   4.683   0.167  12.348  0.3245 -0.4104 -1.1583
  914MPD2    N113443   4.365   0.148  11.983  0.1995 -0.0520  0.2168
  914MPD2    H713444   4.299   0.112  11.914  3.2056 -1.8790 -1.7025
  915MPD2     C13445   2.761   0.324  15.517 -0.1102 -0.2265 -0.4076
  915MPD2    C113446   2.845   0.425  15.505 -0.3498 -0.4316  0.8407
  915MPD2    C213447   2.863   0.516  15.605 -0.5310 -0.1982 -0.3340
  915MPD2    C313448   2.793   0.493  15.720  0.5402  0.1703 -0.0992
  915MPD2    C413449   2.718   0.381  15.742 -0.3880 -0.0080 -0.7451
  915MPD2    C513450   2.691   0.303  15.632  0.6189 -0.2269 -0.9219
  915MPD2     H13451   2.936   0.596  15.600  1.5736 -2.0988  0.2565
  915MPD2    H113452   2.657   0.375  15.832  1.6554  0.7145  0.6913
  915MPD2    H213453   2.739   0.262  15.430 -0.4881 -0.1506 -0.3659
  915MPD2    H313454   2.628   0.215  15.641 -0.1982  0.6343  1.7676
  915MPD2     N13455   2.795   0.604  15.809 -0.9729 -0.6469  0.5956
  915MPD2    H513456   2.829   0.689  15.764 -1.6265 -0.9479 -0.4625
  915MPD2    N113457   2.900   0.451  15.382 -0.3443  0.2377 -0.1170
  915MPD2    H713458   2.876   0.392  15.304 -1.7784 -0.3578  0.7679
  916MPD2     C13459   1.201   3.509  15.968 -0.2998 -0.1532 -0.5547
  916MPD2    C113460   1.237   3.428  16.072  0.2857  0.3325  0.1989
  916MPD2    C213461   1.307   3.312  16.036 -0.1913  0.3762 -0.1581
  916MPD2    C313462   1.333   3.275  15.900  0.0918  0.3938  0.0801
  916MPD2    C413463   1.286   3.360  15.802 -0.5029  0.0752 -0.5910
  916MPD2    C513464   1.229   3.472  15.840 -0.4426 -0.2732  0.2201
  916MPD2     H13465   1.349   3.252  16.116 -0.6264 -0.3990 -0.5067
  916MPD2    H113466   1.309   3.348  15.697  0.5396 -1.2251 -0.2116
  916MPD2    H213467   1.155   3.606  15.984  0.0329  0.1995 -1.7562
  916MPD2    H313468   1.207   3.558  15.777 -0.2952 -0.2535  0.1942
  916MPD2     N13469   1.408   3.164  15.872  0.2519  0.5128 -0.1028
  916MPD2    H513470   1.437   3.107  15.951 -1.2904 -0.1615 -0.0410
  916MPD2    N113471   1.221   3.481  16.201  0.6356  0.1359 -0.1628
  916MPD2    H713472   1.167   3.566  16.208  0.5291 -0.0967  1.9677
  917MPD2     C13473   0.835   1.010  10.870 -0.1651  0.5605 -0.6185
  917MPD2    C113474   0.872   1.092  10.967  0.0564  0.2536 -0.1580
  917MPD2    C213475   0.895   1.227  10.940 -0.6216  0.9192  0.3899
  917MPD2    C313476   0.875   1.276  10.815 -0.6054  0.6979 -0.3584
  917MPD2    C413477   0.831   1.194  10.716 -0.1476 -0.3401  0.1162
  917MPD2    C513478   0.806   1.062  10.743  0.2096 -0.1413 -0.8442
  917MPD2     H13479   0.914   1.296  11.022  0.7386  1.1896 -0.1468
  917MPD2    H113480   0.805   1.238  10.620 -1.0048 -1.8703 -0.3676
  917MPD2    H213481   0.807   0.910  10.900  1.6320  0.5041  0.8454
  917MPD2    H313482   0.752   1.012  10.663  1.7114 -2.2284 -0.5653
  917MPD2     N13483   0.885   1.413  10.784  0.0627 -0.2253 -0.6915
  917MPD2    H513484   0.864   1.437  10.688  0.9804 -3.9007 -1.8200
  917MPD2    N113485   0.855   1.042  11.099 -0.2768 -0.2891 -0.0861
  917MPD2    H713486   0.836   0.944  11.112  1.4505 -0.5573  0.4004
  918MPD2     C13487   1.206   1.232  12.103 -0.1177 -0.0922 -1.2683
  918MPD2    C113488   1.295   1.216  11.996 -0.7801 -0.0192 -0.7147
  918MPD2    C213489   1.254   1.192  11.876 -0.6625 -0.2566  0.6877
  918MPD2    C313490   1.117   1.179  11.842  0.5454  0.7234 -0.3344
  918MPD2    C413491   1.028   1.205  11.947  0.5143  0.2010 -0.1196
  918MPD2    C513492   1.073   1.232  12.069 -0.2283 -0.2083 -0.0853
  918MPD2     H13493   1.331   1.166  11.804 -1.1133  0.3319 -0.0156
  918MPD2    H113494   0.922   1.214  11.926  0.5304 -1.6234 -1.0059
  918MPD2    H213495   1.229   1.236  12.209 -0.9641  1.0956 -1.1337
  918MPD2    H313496   0.995   1.253  12.142  1.2669 -0.0990  1.5056
  918MPD2     N13497   1.074   1.129  11.714  0.4869  0.2262  0.2152
  918MPD2    H513498   1.140   1.104  11.641  1.5966 -0.6445  1.5023
  918MPD2    N113499   1.425   1.199  12.023  0.9962 -0.0926 -0.5777
  918MPD2    H713500   1.473   1.167  11.940  2.1390  2.1635 -0.7903
  919MPD2     C13501   1.546   0.326  11.746  0.6839  0.0366  0.1200
  919MPD2    C113502   1.579   0.192  11.736 -0.0464 -1.1119  0.3736
  919MPD2    C213503   1.528   0.123  11.630 -0.5525 -0.1660 -0.2262
  919MPD2    C313504   1.459   0.195  11.523 -0.0988  0.5224  0.8797
  919MPD2    C413505   1.437   0.329  11.539  0.2980 -0.1212  0.5364
  919MPD2    C513506   1.473   0.395  11.654 -0.4045  0.2134 -0.3128
  919MPD2     H13507   1.553   0.017  11.624 -1.2994 -0.5305  2.9206
  919MPD2    H113508   1.397   0.396  11.463  0.3728  0.1069  0.6970
  919MPD2    H213509   1.578   0.386  11.831 -0.4843  1.4174 -0.4093
  919MPD2    H313510   1.463   0.503  11.664 -2.0564 -0.2392  2.9249
  919MPD2     N13511   1.401   0.140  11.407 -0.2917 -0.3386  0.2921
  919MPD2    H513512   1.354   0.202  11.341  1.8614  0.9133 -0.0455
  919MPD2    N113513   1.632   0.118  11.837  0.2081 -0.4496  0.5888
  919MPD2    H713514   1.631   0.016  11.836 -0.9614 -0.4256 -0.3736
  920MPD2     C13515   1.216   0.395  10.465 -0.1507  0.3032 -0.3803
  920MPD2    C113516   1.141   0.285  10.477 -0.0128 -0.2945 -0.6849
  920MPD2    C213517   1.150   0.218  10.597 -0.2019 -0.5349  0.0466
  920MPD2    C313518   1.233   0.251  10.695  0.1915  0.7653 -0.4104
  920MPD2    C413519   1.309   0.366  10.684 -0.9729 -0.3291 -0.2353
  920MPD2    C513520   1.296   0.437  10.569  0.6990  0.3268  0.4607
  920MPD2     H13521   1.095   0.126  10.609  1.5077 -1.5704 -0.0291
  920MPD2    H113522   1.387   0.400  10.752 -0.4899  0.8496 -1.3787
  920MPD2    H213523   1.208   0.452  10.372  0.5556  0.4079 -0.3822
  920MPD2    H313524   1.362   0.523  10.559  1.5123 -0.3124  0.2724
  920MPD2     N13525   1.234   0.159  10.811 -0.1166  0.5602  0.5497
  920MPD2    H513526   1.180   0.074  10.799  0.1409  0.6931 -1.6264
  920MPD2    N113527   1.051   0.238  10.377 -0.3131  0.4065 -0.1907
  920MPD2    H713528   0.999   0.153  10.398 -1.0502  1.1125  0.8589
  921MPD2     C13529   3.062   4.605  16.672  0.1884  0.1452  0.8116
  921MPD2    C113530   3.062   4.538  16.546  0.2276 -0.1692  0.1878
  921MPD2    C213531   2.968   4.439  16.528  0.0104 -0.5332  0.0513
  921MPD2    C313532   2.882   4.398  16.628  0.3706  0.4399  0.7154
  921MPD2    C413533   2.869   4.472  16.745 -0.0078 -0.6012 -1.0189
  921MPD2    C513534   2.959   4.572  16.763  0.1816 -0.2767 -0.1459
  921MPD2     H13535   2.984   4.386  16.435 -0.5452  0.4348 -0.6010
  921MPD2    H113536   2.797   4.454  16.824  1.5241  0.5867  0.6744
  921MPD2    H213537   3.136   4.680  16.697 -1.0546  1.9307 -0.8467
  921MPD2    H313538   2.956   4.631  16.854  0.7978  0.1742 -0.4199
  921MPD2     N13539   2.796   4.293  16.606 -0.5905 -0.6069 -0.1119
  921MPD2    H513540   2.719   4.274  16.669 -0.4270  1.8302  0.8146
  921MPD2    N113541   3.156   4.577  16.446 -0.6724 -0.2638 -0.4299
  921MPD2    H713542   3.222   4.648  16.476 -1.0060 -0.9328  1.9168
  922MPD2     C13543   3.766   2.376  17.205 -0.2017  0.2311 -0.3618
  922MPD2    C113544   3.670   2.369  17.299 -0.4124  0.6399  1.2055
  922MPD2    C213545   3.604   2.252  17.323 -0.3286  0.7378  0.1228
  922MPD2    C313546   3.653   2.135  17.271 -0.2327 -0.3458  0.5165
  922MPD2    C413547   3.744   2.141  17.168 -0.0479  0.2853  0.1591
  922MPD2    C513548   3.800   2.262  17.141  0.0892  0.0341 -0.2023
  922MPD2     H13549   3.525   2.251  17.398  0.2257 -2.6142  0.6799
  922MPD2    H113550   3.764   2.053  17.107  0.4119  1.1021 -0.8631
  922MPD2    H213551   3.828   2.463  17.185  0.2454 -0.3566 -1.5108
  922MPD2    H313552   3.867   2.261  17.056  1.1523  0.2686  0.6389
  922MPD2     N13553   3.596   2.012  17.305  0.8403 -0.3338 -0.1103
  922MPD2    H513554   3.526   2.025  17.377  1.6830 -0.6355  0.7588
  922MPD2    N113555   3.631   2.473  17.387  0.2771 -0.0409 -0.1043
  922MPD2    H713556   3.549   2.457  17.445 -0.3290 -3.3390 -1.9160
  923MPD2     C13557   4.070   3.818   8.655 -0.7661  0.1672 -0.4926
  923MPD2    C113558   4.088   3.785   8.790 -0.7068  0.4207  0.4849
  923MPD2    C213559   4.201   3.708   8.830 -0.1815 -0.0463 -0.1872
  923MPD2    C313560   4.296   3.679   8.731  0.3726 -0.7192  0.6993
  923MPD2    C413561   4.279   3.722   8.599 -0.2075  1.0880  0.5051
  923MPD2    C513562   4.159   3.785   8.563  0.4360  0.1490  0.0075
  923MPD2     H13563   4.197   3.671   8.932 -1.4968  1.7092  0.3894
  923MPD2    H113564   4.348   3.681   8.527  0.7638  2.0053  0.9207
  923MPD2    H213565   3.981   3.876   8.630 -2.2484 -2.5255 -1.4639
  923MPD2    H313566   4.130   3.805   8.460 -0.5120  1.2675  0.4917
  923MPD2     N13567   4.408   3.592   8.748 -0.2704 -0.2307  0.2574
  923MPD2    H513568   4.459   3.566   8.664 -1.8028 -0.2734 -0.6620
  923MPD2    N113569   4.001   3.835   8.883  0.1951 -0.2560 -0.3023
  923MPD2    H713570   3.923   3.893   8.855 -0.4724 -2.2588 -2.5830
  924MPD2     C13571   0.363   1.976  15.863 -1.0312  0.1518  0.0161
  924MPD2    C113572   0.347   1.920  15.987  0.2417 -0.1086 -0.4317
  924MPD2    C213573   0.394   1.987  16.100  1.0584  0.7330  0.1848
  924MPD2    C313574   0.454   2.116  16.086 -0.1716  0.0379 -0.0659
  924MPD2    C413575   0.464   2.172  15.958 -0.0330 -0.1246 -0.6717
  924MPD2    C513576   0.424   2.099  15.848 -0.5720 -0.0492 -0.0869
  924MPD2     H13577   0.370   1.949  16.198 -0.3004  0.2009 -0.3590
  924MPD2    H113578   0.498   2.274  15.944 -1.5088  0.6574  1.3861
  924MPD2    H213579   0.329   1.920  15.776  0.6484 -2.5401  1.0779
  924MPD2    H313580   0.439   2.150  15.754 -0.1327 -0.7286 -0.3859
  924MPD2     N13581   0.484   2.196  16.199  0.2060 -1.1694  0.4868
  924MPD2    H513582   0.505   2.295  16.190 -0.5689 -1.1335 -0.9713
  924MPD2    N113583   0.288   1.784  15.992 -0.5729 -0.1344  0.2331
  924MPD2    H713584   0.238   1.763  15.906  0.4808  2.1794 -0.9429
  925MPD2     C13585   3.284   0.057  14.317  0.8444 -0.3175 -0.4225
  925MPD2    C113586   3.418   0.047  14.327 -0.4898  0.4548  0.0197
  925MPD2    C213587   3.481   0.057  14.452  0.0408  0.4341  0.2656
  925MPD2    C313588   3.402   0.072  14.566  0.8275  0.3486  0.4321
  925MPD2    C413589   3.266   0.081  14.549  0.3533  0.5116  0.6472
  925MPD2    C513590   3.203   0.070  14.428  0.3374  0.6161 -0.2455
  925MPD2     H13591   3.588   0.045  14.454  0.2358  1.9319 -0.6583
  925MPD2    H113592   3.199   0.089  14.634  1.3656  0.4227  1.4406
  925MPD2    H213593   3.228   0.041  14.225  0.8875  2.4064 -0.9435
  925MPD2    H313594   3.097   0.061  14.413 -0.1775 -0.6567  4.1049
  925MPD2     N13595   3.463   0.067  14.696  0.5706  0.0053 -0.3007
  925MPD2    H513596   3.393   0.061  14.769 -0.2306  0.0295 -1.0656
  925MPD2    N113597   3.510   0.037  14.219 -0.3494  0.2140  0.6612
  925MPD2    H713598   3.605   0.010  14.243  0.1534  0.4529 -1.0185
  926MPD2     C13599   2.792   2.562  13.560 -0.1725  0.4466  0.1806
  926MPD2    C113600   2.735   2.690  13.539 -0.3703 -0.1482 -0.5365
  926MPD2    C213601   2.795   2.773  13.454  0.5463  0.0640  0.3447
  926MPD2    C313602   2.921   2.753  13.401  0.2183  0.6182  0.1151
  926MPD2    C413603   2.989   2.640  13.440  0.5446 -0.4823  0.1205
  926MPD2    C513604   2.920   2.541  13.515 -0.2085 -0.7240 -0.3713
  926MPD2     H13605   2.748   2.871  13.447 -0.5517 -0.5742 -1.1432
  926MPD2    H113606   3.092   2.612  13.423  0.9257 -0.5019  2.3603
  926MPD2    H213607   2.753   2.481  13.621 -1.9438  1.4104  0.3133
  926MPD2    H313608   2.969   2.444  13.523  3.6269  1.1958 -0.6614
  926MPD2     N13609   2.986   2.843  13.322 -0.2216 -0.1930 -0.8535
  926MPD2    H513610   3.081   2.819  13.296 -1.3572 -3.0549 -2.3081
  926MPD2    N113611   2.616   2.728  13.594 -0.4545  0.1423  0.3726
  926MPD2    H713612   2.590   2.825  13.578 -0.8639  0.1821  1.2307
  927MPD2     C13613   1.950   1.017  17.421  0.3601 -0.4875 -0.0679
  927MPD2    C113614   2.044   0.934  17.475 -0.0746  0.1277 -0.2329
  927MPD2    C213615   2.175   0.926  17.427 -0.3220 -0.6992 -0.1197
  927MPD2    C313616   2.205   1.005  17.318 -0.3198  0.2288 -0.2252
  927MPD2    C413617   2.111   1.086  17.259  0.7673 -0.1738  0.1409
  927MPD2    C513618   1.989   1.095  17.315  0.7465 -0.1163  0.1481
  927MPD2     H13619   2.248   0.854  17.464 -0.8321 -1.5624 -0.7731
  927MPD2    H113620   2.132   1.139  17.167 -0.5587 -0.9695 -0.6251
  927MPD2    H213621   1.847   1.020  17.453 -0.2384 -0.9903 -1.9321
  927MPD2    H313622   1.915   1.154  17.261 -0.1080 -0.5744  0.8148
  927MPD2     N13623   2.341   0.993  17.273 -0.1296  0.0665  0.0383
  927MPD2    H513624   2.385   0.905  17.297  1.6449  1.4569  1.8782
  927MPD2    N113625   2.003   0.864  17.594  0.2735 -1.2916  0.2452
  927MPD2    H713626   1.903   0.861  17.615 -0.2701 -0.3222 -2.2768
  928MPD2     C13627   0.213   4.172   0.692  0.3602 -0.6712  0.4727
  928MPD2    C113628   0.340   4.215   0.701 -0.7651  0.0129 -0.1316
  928MPD2    C213629   0.432   4.164   0.612 -0.1937 -0.5771  0.2206
  928MPD2    C313630   0.391   4.077   0.509  0.0533  0.7394 -0.2167
  928MPD2    C413631   0.256   4.050   0.497 -0.1598  0.2745  0.6075
  928MPD2    C513632   0.169   4.096   0.583 -0.0150  0.2966  0.2992
  928MPD2     H13633   0.536   4.195   0.618 -0.3908 -0.0390  0.8228
  928MPD2    H113634   0.218   3.983   0.421  1.9545 -0.5733  0.2967
  928MPD2    H213635   0.135   4.205   0.759  1.5481  1.7944  0.6777
  928MPD2    H313636   0.065   4.075   0.562  0.8222 -1.3554 -2.1361
  928MPD2     N13637   0.473   4.018   0.411 -0.5218  0.3360  0.0210
  928MPD2    H513638   0.432   3.947   0.351 -0.3264 -0.3613  0.7128
  928MPD2    N113639   0.376   4.304   0.809  0.0153  0.6128 -0.4274
  928MPD2    H713640   0.298   4.347   0.857  0.9450  0.6032  1.0625
  929MPD2     C13641   4.548   3.256   9.501 -0.8971  0.1662  0.2244
  929MPD2    C113642   4.532   3.334   9.613 -0.0355  0.3134 -0.1375
  929MPD2    C213643   4.460   3.452   9.605  0.2373 -1.1610  0.0396
  929MPD2    C313644   4.425   3.502   9.481  0.2725 -0.1559 -0.1767
  929MPD2    C413645   4.436   3.423   9.365 -0.1028  0.1752  0.0781
  929MPD2    C513646   4.495   3.300   9.385 -0.5750 -0.3142 -0.6601
  929MPD2     H13647   4.433   3.506   9.694  1.0737  2.2772 -1.8044
  929MPD2    H113648   4.401   3.456   9.268 -1.1593 -1.3526 -0.0687
  929MPD2    H213649   4.595   3.159   9.501  0.4037  0.8096 -0.6305
  929MPD2    H313650   4.501   3.229   9.302  1.5969 -1.8413  0.8076
  929MPD2     N13651   4.355   3.620   9.457  0.1239  0.4576  1.2651
  929MPD2    H513652   4.303   3.631   9.371  3.5863  0.0246 -0.8304
  929MPD2    N113653   4.569   3.274   9.739  0.5179  0.2330 -0.1920
  929MPD2    H713654   4.593   3.177   9.757  0.8890  0.7956  2.4248
  930MPD2     C13655   2.415   0.787  14.344  0.6125 -0.1583  0.0821
  930MPD2    C113656   2.379   0.899  14.267 -0.0468  0.4165  0.4171
  930MPD2    C213657   2.315   0.873  14.144  0.3687 -0.4182  0.8922
  930MPD2    C313658   2.276   0.749  14.103 -0.1268 -0.8927  0.4902
  930MPD2    C413659   2.318   0.641  14.180 -0.1571  0.1372  0.3270
  930MPD2    C513660   2.378   0.661  14.301  0.9475  0.7081  0.1138
  930MPD2     H13661   2.302   0.958  14.078 -0.6624 -0.3275  1.2187
  930MPD2    H113662   2.292   0.542  14.144 -1.0955  0.9348 -1.1846
  930MPD2    H213663   2.456   0.799  14.444 -0.4449  2.5676  0.1944
  930MPD2    H313664   2.399   0.577  14.366 -2.2478  1.6212  2.3272
  930MPD2     N13665   2.220   0.723  13.980  0.0727 -0.4071  0.8219
  930MPD2    H513666   2.221   0.624  13.958  1.5359 -0.8713  3.0027
  930MPD2    N113667   2.408   1.029  14.316 -0.2366 -0.0211 -0.6954
  930MPD2    H713668   2.442   1.035  14.411 -2.6961  0.0924  0.1712
  931MPD2     C13669   2.491   0.500   0.327 -0.3241  0.0652 -0.6504
  931MPD2    C113670   2.370   0.512   0.392 -0.5738  1.0501 -0.2657
  931MPD2    C213671   2.359   0.471   0.527 -1.0272  0.3888 -0.2032
  931MPD2    C313672   2.470   0.422   0.596 -0.2728 -0.6197 -0.0699
  931MPD2    C413673   2.587   0.417   0.529 -0.1467  0.0156  0.6038
  931MPD2    C513674   2.600   0.462   0.396 -0.4484 -0.4577  0.1741
  931MPD2     H13675   2.267   0.483   0.583  0.1884 -1.6283  2.2295
  931MPD2    H113676   2.683   0.382   0.566 -0.0219  0.8472  1.0612
  931MPD2    H213677   2.502   0.542   0.228 -0.2400  1.4842 -0.0375
  931MPD2    H313678   2.698   0.459   0.349 -1.0253  1.5010 -1.1346
  931MPD2     N13679   2.467   0.396   0.733  0.2167  0.2219  0.1852
  931MPD2    H513680   2.557   0.367   0.770  0.5835  1.2174  0.0837
  931MPD2    N113681   2.259   0.556   0.314 -0.0414  0.1481 -0.4772
  931MPD2    H713682   2.282   0.559   0.215  1.2444  0.4364 -0.1749
  932MPD2     C13683   3.709   3.902  11.809  0.3333 -0.1759 -0.2764
  932MPD2    C113684   3.791   3.948  11.708  0.4559  0.3469 -0.0204
  932MPD2    C213685   3.869   3.854  11.642  0.5391 -0.3445  1.1853
  932MPD2    C313686   3.859   3.716  11.659 -0.4083  0.6659  0.2442
  932MPD2    C413687   3.770   3.676  11.758 -0.9852  0.1411 -0.5792
  932MPD2    C513688   3.705   3.769  11.841 -0.0126  0.0796  0.0749
  932MPD2     H13689   3.941   3.897  11.574  0.2260  1.0270  1.6971
  932MPD2    H113690   3.748   3.571  11.773  2.4381 -0.2227  1.7780
  932MPD2    H213691   3.650   3.974  11.864  2.5797  0.6917  1.0011
  932MPD2    H313692   3.639   3.734  11.919 -1.2351 -1.1521 -1.5001
  932MPD2     N13693   3.933   3.621  11.597 -0.4279 -0.6732 -0.4257
  932MPD2    H513694   3.916   3.525  11.625 -1.2541 -0.4395 -0.1380
  932MPD2    N113695   3.800   4.087  11.669  0.4134 -0.6843 -0.0923
  932MPD2    H713696   3.853   4.117  11.588  0.0126 -2.2822 -0.9615
  933MPD2     C13697   0.261   0.074   1.515  0.6568  0.0922 -0.3053
  933MPD2    C113698   0.226   0.024   1.387 -0.2928 -0.4281 -0.3014
  933MPD2    C213699   0.114   0.081   1.330  0.2725 -0.0819  0.6861
  933MPD2    C313700   0.029   0.160   1.396  0.4333  0.0585  0.0267
  933MPD2    C413701   0.054   0.202   1.522 -0.0297  0.1646  0.3281
  933MPD2    C513702   0.172   0.155   1.577 -0.5419  0.3282  0.1571
  933MPD2     H13703   0.077   0.037   1.239 -0.2543  1.3019  0.2345
  933MPD2    H113704   0.000   0.279   1.576  0.1268 -0.3897  1.2834
  933MPD2    H213705   0.357   0.059   1.564  0.3785 -2.1129 -0.4478
  933MPD2    H313706   0.208   0.201   1.668 -0.8689 -1.1461  1.0422
  933MPD2     N13707   4.648   0.191   1.329 -0.2802 -0.2901 -1.1846
  933MPD2    H513708   4.638   0.165   1.231 -1.6764 -0.6734 -0.9438
  933MPD2    N113709   0.303   4.660   1.323  0.2510 -0.0109 -0.0965
  933MPD2    H713710   0.384   4.636   1.380  0.1241 -0.8380 -0.2567
  934MPD2     C13711   1.343   1.617   2.090 -0.6681 -0.1730  0.3502
  934MPD2    C113712   1.424   1.525   2.024 -0.3800 -0.3393 -0.3226
  934MPD2    C213713   1.377   1.468   1.906 -0.6963 -0.0000  0.1776
  934MPD2    C313714   1.247   1.495   1.859  0.6158 -0.5911 -0.5084
  934MPD2    C413715   1.164   1.573   1.934 -0.0075 -0.1406 -0.8916
  934MPD2    C513716   1.213   1.640   2.042  0.5278  1.0302 -0.7935
  934MPD2     H13717   1.436   1.389   1.861 -1.2539 -0.1347 -0.3045
  934MPD2    H113718   1.066   1.590   1.891 -0.5034  0.9795  0.6952
  934MPD2    H213719   1.381   1.675   2.174 -1.0649 -2.1820  1.9185
  934MPD2    H313720   1.149   1.711   2.094  1.1990 -0.2151  1.7493
  934MPD2     N13721   1.192   1.431   1.747  0.5889 -0.0182  0.0734
  934MPD2    H513722   1.093   1.448   1.732  0.0330 -2.9219  0.3227
  934MPD2    N113723   1.549   1.487   2.077  0.0037  0.4808 -0.1539
  934MPD2    H713724   1.614   1.438   2.017  0.4713  0.5241  0.3101
  935MPD2     C13725   1.314   0.504   1.356 -0.4915  0.3601 -0.2601
  935MPD2    C113726   1.280   0.588   1.249 -0.1154  0.0671  1.4498
  935MPD2    C213727   1.232   0.715   1.280 -0.3869 -0.0981  0.2959
  935MPD2    C313728   1.246   0.770   1.406  0.5508 -0.2146  0.5205
  935MPD2    C413729   1.289   0.690   1.511 -0.1335  0.5585  0.0832
  935MPD2    C513730   1.331   0.563   1.479  0.6490 -0.7763 -0.1451
  935MPD2     H13731   1.199   0.772   1.193  2.3191  0.5038 -0.3135
  935MPD2    H113732   1.304   0.718   1.615  4.2832 -3.1469  0.4016
  935MPD2    H213733   1.337   0.399   1.340 -1.7401  0.1704 -0.8055
  935MPD2    H313734   1.358   0.491   1.556  1.6383 -2.3440 -1.9765
  935MPD2     N13735   1.218   0.906   1.430  0.3600 -0.6337  0.4093
  935MPD2    H513736   1.263   0.939   1.514  1.8855 -1.0482 -0.2505
  935MPD2    N113737   1.278   0.553   1.111  0.3662  0.2380 -0.9702
  935MPD2    H713738   1.243   0.616   1.039 -0.7168  0.0860 -0.5702
  936MPD2     C13739   0.133   2.644  13.177  0.3876 -0.2255  0.0203
  936MPD2    C113740   0.084   2.718  13.278  0.3407  0.7181  0.4125
  936MPD2    C213741   4.731   2.821  13.254  0.2180  0.2799 -0.3301
  936MPD2    C313742   4.690   2.859  13.128  0.1342 -0.3410  0.2821
  936MPD2    C413743   0.001   2.779  13.022  0.0411 -0.4917  0.2420
  936MPD2    C513744   0.094   2.679  13.050 -0.8779 -0.0284 -0.8010
  936MPD2     H13745   4.702   2.884  13.337 -1.8717  1.4499 -1.9761
  936MPD2    H113746   4.705   2.801  12.920  0.6106  1.0804  0.3932
  936MPD2    H213747   0.205   2.565  13.194 -0.4110 -1.0043 -0.2581
  936MPD2    H313748   0.125   2.616  12.967  1.3842  3.7453 -2.8113
  936MPD2     N13749   4.609   2.974  13.099 -0.4268  0.8111  0.2053
  936MPD2    H513750   4.597   3.001  13.002  0.8467  0.4319 -0.0645
  936MPD2    N113751   0.113   2.694  13.412 -0.8382  0.0710  0.5394
  936MPD2    H713752   0.050   2.738  13.478 -0.1509  0.8797  0.6638
  937MPD2     C13753   1.805   4.176  12.016  0.3709 -0.6160  0.7115
  937MPD2    C113754   1.849   4.282  11.940  0.0332 -0.5795 -0.0283
  937MPD2    C213755   1.868   4.253  11.805 -0.7864  0.4234  0.1530
  937MPD2    C313756   1.886   4.116  11.760  0.6989 -0.0344  0.1640
  937MPD2    C413757   1.863   4.017  11.855  0.5596  0.4404 -0.2466
  937MPD2    C513758   1.807   4.048  11.972  0.5030 -0.0081  0.1622
  937MPD2     H13759   1.873   4.332  11.731  1.7634  0.8956  0.8080
  937MPD2    H113760   1.869   3.911  11.836  0.2207  0.3802 -0.0064
  937MPD2    H213761   1.765   4.190  12.116 -0.9804 -0.6376  0.1641
  937MPD2    H313762   1.789   3.970  12.045  0.5171 -1.2327 -1.1537
  937MPD2     N13763   1.930   4.074  11.635 -0.2241 -0.0496 -0.8992
  937MPD2    H513764   1.960   3.977  11.637 -3.3498 -0.9675  0.8252
  937MPD2    N113765   1.828   4.412  11.972 -0.0240 -0.0789 -0.3579
  937MPD2    H713766   1.819   4.486  11.902 -1.6818 -0.7991 -0.8968
  938MPD2     C13767   0.187   0.861   0.383 -0.3999 -0.5822 -0.1299
  938MPD2    C113768   0.266   0.900   0.493 -0.5423 -1.0954 -0.1125
  938MPD2    C213769   0.255   0.831   0.615  1.0623 -0.1550 -0.4415
  938MPD2    C313770   0.170   0.716   0.626  0.4180  0.2274 -0.8090
  938MPD2    C413771   0.091   0.681   0.518 -0.0227 -0.5700  0.2115
  938MPD2    C513772   0.099   0.753   0.397 -0.0023  0.4252  0.3666
  938MPD2     H13773   0.306   0.870   0.703 -1.0130  0.6712  0.3968
  938MPD2    H113774   0.026   0.595   0.531  0.4417 -0.6687  1.9169
  938MPD2    H213775   0.166   0.903   0.286 -1.2577 -3.0414 -1.0023
  938MPD2    H313776   0.039   0.712   0.316  2.1013  0.5880 -1.2652
  938MPD2     N13777   0.160   0.632   0.743 -0.6922 -0.0913 -0.3558
  938MPD2    H513778   0.083   0.569   0.761 -1.4473  1.3818  1.5708
  938MPD2    N113779   0.352   1.011   0.488 -0.0477 -0.4291 -0.6047
  938MPD2    H713780   0.407   1.028   0.572  0.3160 -1.0111 -0.7238
  939MPD2     C13781   1.350   1.880   1.089  0.0154  0.1134 -0.4599
  939MPD2    C113782   1.453   1.909   1.009 -0.0404 -0.2290  0.2687
  939MPD2    C213783   1.435   1.906   0.872 -0.1516 -0.6938 -0.0278
  939MPD2    C313784   1.310   1.887   0.819  0.1717  0.0920  0.6494
  939MPD2    C413785   1.203   1.864   0.898 -0.5880  0.0734  0.1142
  939MPD2    C513786   1.225   1.866   1.034  0.1492  0.3593  0.6542
  939MPD2     H13787   1.517   1.917   0.802  1.2150  0.6249  1.8011
  939MPD2    H113788   1.103   1.849   0.859 -1.2274  1.5930  1.1716
  939MPD2    H213789   1.360   1.871   1.196  0.2104 -2.9711 -0.7424
  939MPD2    H313790   1.142   1.845   1.100 -1.7688  3.1999 -0.8851
  939MPD2     N13791   1.302   1.904   0.675 -0.3232  0.2017 -0.6388
  939MPD2    H513792   1.388   1.899   0.621  0.2715 -0.0468  0.3195
  939MPD2    N113793   1.573   1.927   1.081 -0.1499 -0.1415 -0.0564
  939MPD2    H713794   1.572   1.901   1.179 -1.1495  1.5450  0.3810
  940MPD2     C13795   0.726   2.989  12.582  0.1423  0.1918  0.3646
  940MPD2    C113796   0.613   2.938  12.641 -0.1685  0.6138  0.0730
  940MPD2    C213797   0.605   2.802  12.658 -0.3356  0.0927 -0.2312
  940MPD2    C313798   0.699   2.710  12.613  0.0549  0.2195  0.4266
  940MPD2    C413799   0.806   2.762  12.541  0.2023 -0.6067 -0.4464
  940MPD2    C513800   0.815   2.903  12.524 -0.0357  0.2031 -0.5616
  940MPD2     H13801   0.517   2.762  12.707 -0.5291  1.3718  0.4466
  940MPD2    H113802   0.880   2.693  12.502 -0.4786 -1.2020 -0.7082
  940MPD2    H213803   0.745   3.094  12.566  4.0539 -0.6665 -0.6608
  940MPD2    H313804   0.895   2.952  12.470 -0.7004  1.8317 -0.0873
  940MPD2     N13805   0.703   2.576  12.655 -0.1403 -0.0545  0.2481
  940MPD2    H513806   0.798   2.541  12.645 -0.6467 -1.7210  1.3992
  940MPD2    N113807   0.515   3.016  12.701  0.1750 -0.3301  0.2443
  940MPD2    H713808   0.445   2.967  12.756 -0.8741  1.2066  0.2871
  941MPD2     C13809   3.356   1.820  10.118 -0.8823  0.2230 -0.3859
  941MPD2    C113810   3.461   1.734  10.129  0.1056 -0.2576 -0.2452
  941MPD2    C213811   3.451   1.618  10.198 -0.5309  0.6553  1.0344
  941MPD2    C313812   3.347   1.597  10.279  0.6379 -0.1547 -0.0762
  941MPD2    C413813   3.241   1.681  10.273 -0.4915  0.4738 -0.5825
  941MPD2    C513814   3.249   1.788  10.195  0.2514  0.1439 -0.1018
  941MPD2     H13815   3.534   1.549  10.183 -0.1062  0.9899  1.8692
  941MPD2    H113816   3.145   1.669  10.322 -0.5072  0.3807 -0.6371
  941MPD2    H213817   3.362   1.917  10.070  2.1024  1.2380  2.0674
  941MPD2    H313818   3.162   1.853  10.195  1.4785  1.7845 -0.1895
  941MPD2     N13819   3.340   1.476  10.359 -0.0009  0.0424 -0.5604
  941MPD2    H513820   3.257   1.470  10.418 -0.4592  1.1619 -1.0866
  941MPD2    N113821   3.579   1.765  10.062  0.1501 -0.0481 -0.1248
  941MPD2    H713822   3.661   1.712  10.089 -0.0585 -0.3451 -0.0743
  942MPD2     C13823   3.535   3.916  10.010 -0.0162  0.1621 -0.2971
  942MPD2    C113824   3.494   3.787   9.987  0.2995 -0.5367 -0.5201
  942MPD2    C213825   3.496   3.740   9.863 -0.6102 -0.5490  0.3528
  942MPD2    C313826   3.548   3.816   9.756  0.6107  0.0880 -0.6868
  942MPD2    C413827   3.585   3.945   9.787  0.0419  0.3688 -0.0522
  942MPD2    C513828   3.584   3.995   9.915 -0.5311  0.5776  0.6248
  942MPD2     H13829   3.468   3.637   9.846  1.0002 -1.2215  1.7423
  942MPD2    H113830   3.639   4.002   9.712 -1.1231 -1.2157 -2.1199
  942MPD2    H213831   3.535   3.946  10.115  2.7227 -0.8713  0.0031
  942MPD2    H313832   3.618   4.097   9.931 -1.6237  1.3712 -2.1737
  942MPD2     N13833   3.549   3.762   9.622 -0.1428 -0.3624  0.1454
  942MPD2    H513834   3.500   3.679   9.590 -2.4669  0.9733  0.2480
  942MPD2    N113835   3.447   3.702  10.095  0.2148 -0.5695 -1.1584
  942MPD2    H713836   3.389   3.623  10.068  0.9193 -1.1396 -1.0324
  943MPD2     C13837   2.566   2.235   9.708  0.0558 -0.2151  0.1181
  943MPD2    C113838   2.515   2.166   9.809  0.0966 -0.2244  0.1263
  943MPD2    C213839   2.476   2.240   9.920  0.1447  0.0948 -0.0057
  943MPD2    C313840   2.490   2.379   9.925  0.4981 -0.3929 -0.3094
  943MPD2    C413841   2.532   2.445   9.815 -0.8196  0.0124 -0.3977
  943MPD2    C513842   2.572   2.370   9.706  0.2919  0.3095 -0.4721
  943MPD2     H13843   2.452   2.186  10.011  3.0717  0.3908  0.9415
  943MPD2    H113844   2.539   2.553   9.809  0.4457 -0.0707 -0.3394
  943MPD2    H213845   2.594   2.183   9.617  2.9646 -1.1623  1.5603
  943MPD2    H313846   2.615   2.424   9.622  1.2443 -0.7104 -0.6323
  943MPD2     N13847   2.465   2.460  10.041 -0.6486  0.0175 -0.2771
  943MPD2    H513848   2.461   2.560  10.024  1.0822 -0.0039 -0.7785
  943MPD2    N113849   2.520   2.025   9.809 -0.6526  0.3110 -0.2285
  943MPD2    H713850   2.574   1.991   9.730  0.4514  0.7597  0.3360
  944MPD2     C13851   2.921   1.267  10.971 -0.0835 -0.4981 -0.0582
  944MPD2    C113852   2.838   1.163  10.995 -0.5466  0.5237  0.4668
  944MPD2    C213853   2.713   1.182  11.046 -1.2928 -0.0966 -0.6648
  944MPD2    C313854   2.669   1.310  11.081  0.3846 -0.6806  0.2378
  944MPD2    C413855   2.756   1.422  11.064 -0.5522  0.2905  0.0201
  944MPD2    C513856   2.875   1.392  11.002 -0.0290 -0.0366 -0.2454
  944MPD2     H13857   2.640   1.103  11.033  0.3490 -1.8643  0.8136
  944MPD2    H113858   2.739   1.523  11.099  0.7982  0.1908  0.9557
  944MPD2    H213859   3.023   1.246  10.939 -0.2554 -1.1638 -0.1636
  944MPD2    H313860   2.953   1.468  10.997 -2.8914  2.9042  0.2995
  944MPD2     N13861   2.543   1.323  11.142  0.7113 -0.4207  0.9474
  944MPD2    H513862   2.487   1.238  11.145 -0.3552  0.1949 -0.9265
  944MPD2    N113863   2.887   1.039  10.947  0.2049 -0.0906  0.2769
  944MPD2    H713864   2.982   1.039  10.913  1.0723 -0.2690  2.7119
    1TMC1    C113865   1.231   1.715  14.125  0.6972 -0.2720 -0.0154
    1TMC1    C213866   1.201   1.716  13.996  0.1063  0.3935 -0.3696
    1TMC1    C313867   1.192   1.596  13.929 -0.0770 -0.6420  0.1452
    1TMC1    C413868   1.261   1.602  14.193  0.5559  0.0186 -0.3470
    1TMC1    C513869   1.259   1.486  14.122 -0.1636  0.1366  0.2307
    1TMC1    C613870   1.228   1.480  13.989 -0.7752  0.4053 -0.0775
    1TMC1     C13871   1.210   1.839  14.218  0.1730  0.3135 -0.5635
    1TMC1     O13872   1.231   1.821  14.333  0.7398  0.2196 -0.9184
    1TMC1     H13873   1.172   1.800  13.934 -0.2003  0.3037 -0.3492
    1TMC1    H113874   1.293   1.605  14.297 -0.6403 -1.8684  0.0927
    1TMC1    H213875   1.221   1.385  13.936 -1.4499  1.2936 -1.5784
    1TMC1    C713876   1.317   1.369  14.194 -0.3579 -0.5009 -0.4113
    1TMC1    C813877   1.125   1.595  13.800 -0.2237  0.2738 -0.2287
    1TMC1    O113878   1.359   1.281  14.121  0.1612 -0.3470 -0.5646
    1TMC1    O213879   1.151   1.684  13.719 -0.0768 -0.0303  0.5364
    1TMC1    O313880   1.243   1.363  14.303  0.2300  0.3928  0.0417
    1TMC1    H313881   1.214   1.448  14.342 -0.1802 -1.6236  4.0997
    1TMC1    O513882   0.995   1.569  13.829  0.3038 -0.1592 -0.3496
    1TMC1    H513883   0.978   1.515  13.910  0.9963  0.3068  0.0993
    2MPD2     C13884   1.190   2.341  14.342 -0.2452  0.2355 -0.1215
    2MPD2    C113885   1.153   2.327  14.213  0.2306  0.1160 -0.4470
    2MPD2    C213886   1.147   2.201  14.148 -0.5540 -0.0418 -0.8327
    2MPD2    C313887   1.183   2.087  14.221  0.5300 -0.7152  0.0806
    2MPD2    C413888   1.219   2.109  14.352  0.3479 -0.0803 -0.1182
    2MPD2    C513889   1.221   2.229  14.415 -0.4491  0.0915  0.2712
    2MPD2     H13890   1.110   2.191  14.047  0.8420  2.3924 -1.5683
    2MPD2    H113891   1.234   2.024  14.418 -1.6411  0.5660  1.1580
    2MPD2    H213892   1.181   2.432  14.401 -1.2437 -0.6817  1.1560
    2MPD2    H313893   1.255   2.237  14.518 -0.9768  0.4628  0.4163
    2MPD2     N13894   1.178   1.957  14.161  0.1723  0.1890 -0.1624
    2MPD2    H513895   1.163   1.956  14.061 -0.9439 -2.8129  0.0356
    2MPD2    N113896   1.121   2.450  14.148  0.0140 -0.0747 -0.4583
    2MPD2    H713897   1.157   2.533  14.194  0.0159  0.0779 -0.7363
    3TMC2    C113898   1.012   2.586  13.975 -0.3704  0.0668  0.6207
    3TMC2    C213899   0.886   2.603  13.936 -0.1778  0.4102  0.2344
    3TMC2    C313900   0.851   2.723  13.877 -0.2133 -0.1253 -0.3673
    3TMC2    C413901   1.098   2.687  13.975  0.7287 -0.4889  0.3118
    3TMC2    C513902   1.058   2.813  13.934 -0.1947 -0.4988  0.3825
    3TMC2    C613903   0.936   2.832  13.887  0.7436  0.3698  0.3870
    3TMC2     C13904   1.045   2.455  14.030 -0.3721 -0.0596  0.5622
    3TMC2     O13905   0.975   2.368  13.985  0.5594  0.4518  0.1013
    3TMC2     H13906   0.818   2.518  13.937  0.6963 -0.2659  1.6566
    3TMC2    H113907   1.200   2.676  14.009  0.5416  1.2383  1.4409
    3TMC2    H213908   0.899   2.931  13.860 -2.8964 -0.9935  0.3440
    3TMC2    C713909   1.165   2.898  13.891 -1.0939 -0.7706 -0.2427
    3TMC2    C813910   0.715   2.754  13.843  0.3879 -0.1285 -0.8038
    3TMC2    O113911   1.251   2.836  13.829  0.5286 -0.4567  0.2957
    3TMC2    O213912   0.670   2.867  13.846  0.0208 -0.4797  0.2116
    3TMC2    O513913   0.660   2.647  13.785  0.1212 -0.0912  0.6095
    3TMC2    H513914   0.714   2.565  13.789  1.1016  0.5254 -0.0081
    4TMC2    C113915   0.535   3.630  13.671 -0.5356  0.0308 -0.2526
    4TMC2    C213916   0.567   3.688  13.558 -0.3096 -0.1612 -0.1544
    4TMC2    C313917   0.683   3.654  13.508  0.4627 -1.0703  0.3270
    4TMC2    C413918   0.620   3.538  13.727  0.2448  0.0608  0.4964
    4TMC2    C513919   0.747   3.511  13.676  0.0245  0.7017  0.2733
    4TMC2    C613920   0.784   3.578  13.562  0.9854 -0.1576  0.6272
    4TMC2     C13921   0.408   3.652  13.737 -0.0440  0.0707 -0.1244
    4TMC2     O13922   0.405   3.619  13.858 -0.2818  0.2334  0.0179
    4TMC2     H13923   0.503   3.756  13.504  0.5010  0.2000 -0.6757
    4TMC2    H113924   0.590   3.491  13.820  1.2606  0.0711  0.8369
    4TMC2    H213925   0.872   3.559  13.501 -0.1359  0.0050 -1.0280
    4TMC2    C713926   0.830   3.405  13.726 -0.1850 -0.0316  0.6642
    4TMC2    C813927   0.721   3.723  13.385  0.1639  0.3467 -0.4126
    4TMC2    O113928   0.774   3.325  13.803  0.5100  0.4573 -0.3094
    4TMC2    O213929   0.837   3.733  13.353  0.8568  0.6979 -0.3072
    4TMC2    O513930   0.621   3.788  13.319 -0.4884 -0.7201 -0.1814
    4TMC2    H513931   0.530   3.752  13.328 -0.2835 -1.5998 -1.6984
    5MPD2     C13932   4.652   3.791  13.728 -0.6846  0.5240 -0.1541
    5MPD2    C113933   4.692   3.785  13.599 -0.1890  0.5958 -0.3692
    5MPD2    C213934   0.086   3.760  13.579 -0.1675  0.3770  0.2027
    5MPD2    C313935   0.174   3.729  13.678 -0.0363 -0.3370 -0.0083
    5MPD2    C413936   0.132   3.746  13.810 -0.1140 -0.2633  0.2593
    5MPD2    C513937   0.002   3.787  13.837  0.6332  0.1556 -0.3535
    5MPD2     H13938   0.135   3.762  13.482 -0.2626 -2.3661  0.0780
    5MPD2    H113939   0.191   3.722  13.898  3.6142  2.6869 -1.4673
    5MPD2    H213940   4.549   3.818  13.749 -1.8241 -1.2477 -3.3686
    5MPD2    H313941   4.706   3.800  13.940  0.4509  0.8167 -0.4954
    5MPD2     N13942   0.312   3.691  13.650 -0.9069  0.6512  0.9016
    5MPD2    H513943   0.338   3.699  13.552  0.5554  0.2663  1.2579
    5MPD2    N113944   4.604   3.820  13.494 -0.7276 -0.4535  0.5269
    5MPD2    H713945   4.513   3.841  13.534 -0.2000  0.2675  1.3449
    6MPD1     C13946   2.992   3.716  13.098 -0.1765  0.3056 -0.0987
    6MPD1    C113947   3.008   3.836  13.164 -0.0082 -0.9032 -0.0143
    6MPD1    C213948   3.123   3.905  13.133 -0.7350 -0.0270  0.0474
    6MPD1    C313949   3.206   3.871  13.027  0.2539  0.4365 -0.2270
    6MPD1    C413950   3.181   3.755  12.953  0.2312 -1.3846 -0.1821
    6MPD1    C513951   3.074   3.679  12.999  0.2633 -0.2438  0.1503
    6MPD1     H13952   3.150   3.988  13.197 -1.2383 -0.4020  0.7421
    6MPD1    H113953   3.249   3.723  12.874  1.4821  0.0672  0.3148
    6MPD1    H213954   2.906   3.651  13.111  0.1312 -0.0116  0.3244
    6MPD1    H313955   3.055   3.583  12.952  0.9475  0.6590 -1.9945
    6MPD1     N13956   3.328   3.942  12.991 -0.3883 -0.4213 -0.4063
    6MPD1    H513957   3.397   3.903  12.927  0.8460 -0.8827  1.2093
    6MPD1    N113958   2.937   3.856  13.281  0.2532 -0.8870 -0.1627
    6MPD1    H613959   2.932   3.952  13.314  2.4893 -0.3956 -1.2952
    6MPD1    H713960   2.841   3.821  13.277 -0.3720  1.0203 -1.3339
    7MPD2     C13961   3.893   4.297  13.462 -0.1306 -0.8615 -0.6990
    7MPD2    C113962   3.891   4.213  13.354  0.0130  0.3337  0.2940
    7MPD2    C213963   3.985   4.116  13.336  0.5956  0.0385 -0.8545
    7MPD2    C313964   4.079   4.099  13.436 -1.0193  0.1498 -0.7625
    7MPD2    C413965   4.079   4.178  13.549 -0.5067  0.8236 -0.5355
    7MPD2    C513966   3.984   4.284  13.564 -0.8547 -0.6200 -0.0929
    7MPD2     H13967   3.999   4.067  13.240 -1.5996  0.1924 -1.2619
    7MPD2    H113968   4.152   4.171  13.629  0.1855 -1.1712 -1.3534
    7MPD2    H213969   3.808   4.364  13.464 -0.7026 -1.6339  0.3055
    7MPD2    H313970   3.974   4.356  13.644 -0.5745 -0.3529 -0.3003
    7MPD2     N13971   4.185   4.000  13.428  0.0388 -0.5650  0.0485
    7MPD2    H513972   4.241   3.994  13.513 -0.6562 -1.2408  0.4683
    7MPD2    N113973   3.797   4.240  13.254  0.6191  0.2266  0.3989
    7MPD2    H713974   3.723   4.308  13.265 -0.8040 -1.4316  1.0446
    8TMC3    C113975   4.283   3.802  13.349  0.5362 -0.1685  0.0613
    8TMC3    C213976   4.407   3.856  13.343 -0.4516 -0.4614  0.3423
    8TMC3    C313977   4.508   3.778  13.282  0.2125  0.0030 -0.2156
    8TMC3    C413978   4.251   3.692  13.281 -0.5422  0.1890 -0.2298
    8TMC3    C513979   4.347   3.629  13.204 -0.2901  0.5089 -0.1310
    8TMC3    C613980   4.477   3.664  13.203  0.2965  0.2773 -0.3789
    8TMC3     C13981   4.186   3.904  13.330  0.1932 -0.7384 -0.4395
    8TMC3     O13982   4.112   3.880  13.240 -0.0875  0.6052 -0.0057
    8TMC3     H13983   4.443   3.947  13.390 -1.1429  0.0230 -0.0550
    8TMC3    H113984   4.147   3.661  13.282  0.1837 -2.2872 -0.5420
    8TMC3    H213985   4.551   3.611  13.144  0.6064  0.2271  0.0600
    8TMC3    C713986   4.306   3.619  13.065  0.1305  0.4547  0.0446
    8TMC3    C813987   4.626   3.771  13.365  0.0083  0.2325 -0.0396
    8TMC3    O113988   4.370   3.558  12.978 -0.5668  0.1597 -0.3789
    8TMC3    O213989   4.719   3.718  13.305  0.2174 -0.8731 -0.5098
    9TMC3    C113990   3.483   4.117  12.990  0.2492 -0.0279 -0.1612
    9TMC3    C213991   3.537   4.066  12.873 -0.5903  0.1488 -0.8006
    9TMC3    C313992   3.662   4.107  12.837  0.6739  0.2076 -0.3894
    9TMC3    C413993   3.552   4.187  13.078  0.0107  0.1411 -0.0793
    9TMC3    C513994   3.685   4.218  13.043  0.6991 -0.3373 -0.9700
    9TMC3    C613995   3.737   4.180  12.928 -0.0668  0.1625 -0.3801
    9TMC3     C13996   3.361   4.058  13.038  0.2608 -0.4357  0.4109
    9TMC3     O13997   3.306   4.120  13.133 -0.6044  0.1356 -0.3909
    9TMC3     H13998   3.490   3.996  12.805  1.0101 -0.4368 -1.3158
    9TMC3    H113999   3.502   4.227  13.165  2.4587  0.3901  1.2124
    9TMC3    H214000   3.840   4.198  12.900  1.0252 -1.1278  2.8857
    9TMC3    C714001   3.776   4.164  13.143  0.0565  0.3186 -0.0144
    9TMC3    C814002   3.734   4.000  12.773  0.2590  0.8066 -0.3021
    9TMC3    O114003   3.822   4.053  13.118 -0.2401  0.2023 -0.0384
    9TMC3    O214004   3.702   3.968  12.659 -0.0051  0.1352  0.5574
   10MPD2     C14005   4.157   3.681  12.794  0.7459 -0.1268  0.0112
   10MPD2    C114006   4.130   3.740  12.921 -0.3242 -0.2286 -0.4868
   10MPD2    C214007   4.034   3.837  12.927  0.3633  0.3754  0.2846
   10MPD2    C314008   3.943   3.863  12.829  0.1137 -0.1039 -0.3855
   10MPD2    C414009   3.963   3.802  12.704 -0.1136 -0.0661 -0.3979
   10MPD2    C514010   4.070   3.721  12.692  0.0277  0.8283  0.0153
   10MPD2     H14011   4.020   3.873  13.029 -0.4860 -1.6280  0.8930
   10MPD2    H114012   3.896   3.816  12.620 -0.3299 -1.6237 -0.4846
   10MPD2    H214013   4.245   3.619  12.778  0.9588  0.1478  0.1147
   10MPD2    H314014   4.084   3.677  12.594 -2.3796 -1.2206  0.6218
   10MPD2     N14015   3.842   3.959  12.849  0.1899 -0.6701 -0.1819
   10MPD2    H514016   3.838   3.991  12.945  1.1652  3.2426 -1.4689
   10MPD2    N114017   4.208   3.711  13.044 -0.2969  0.2139  1.0876
   10MPD2    H714018   4.189   3.777  13.118 -0.0213  2.2477 -0.6403
   11MPD2     C14019   1.245   3.103  13.688  0.0309  0.0838  0.3216
   11MPD2    C114020   1.141   3.117  13.777 -0.1375 -0.0429  0.3812
   11MPD2    C214021   1.045   3.211  13.767 -0.3408 -0.4572  0.1023
   11MPD2    C314022   1.046   3.301  13.666 -0.6629  0.0188  0.5275
   11MPD2    C414023   1.154   3.291  13.584 -0.7234 -0.1343  0.6014
   11MPD2    C514024   1.243   3.192  13.588 -0.1713  0.3623  0.1071
   11MPD2     H14025   0.975   3.226  13.847  0.1943  0.2637  0.4318
   11MPD2    H114026   1.158   3.363  13.503 -1.3038 -1.3840 -0.5482
   11MPD2    H214027   1.322   3.027  13.695 -2.0946 -2.2556 -1.7567
   11MPD2    H314028   1.316   3.186  13.508 -0.9666 -0.7849 -0.5338
   11MPD2     N14029   0.944   3.392  13.651 -0.9309 -0.6688 -0.0204
   11MPD2    H514030   0.959   3.459  13.576 -0.0244  0.7862  1.4454
   11MPD2    N114031   1.117   3.026  13.876 -0.3308  0.7419 -0.3904
   11MPD2    H714032   1.062   3.054  13.956 -0.3109 -0.2093 -0.0443
    1MPD1     C14033   3.737   0.241  17.088 -0.5764  0.0613  0.1269
    1MPD1    C114034   3.706   0.141  16.999 -0.1249 -0.0098 -0.5164
    1MPD1    C214035   3.807   0.086  16.915  1.2264  0.3094 -0.1032
    1MPD1    C314036   3.939   0.135  16.923 -0.3644 -0.1417 -0.3963
    1MPD1    C414037   3.966   0.228  17.024 -0.0272  0.6705 -0.1292
    1MPD1    C514038   3.864   0.285  17.103 -0.3886 -0.2440  0.7045
    1MPD1     H14039   3.768   0.014  16.844  1.2390  2.2001 -2.0299
    1MPD1    H114040   4.070   0.252  17.047  0.0358  0.9197 -0.6811
    1MPD1    H214041   3.658   0.281  17.151 -0.9977 -1.3457  0.4893
    1MPD1    H314042   3.882   0.350  17.188  0.8081  1.7789 -1.0955
    1MPD1     N14043   4.040   0.090  16.838 -0.7946  0.1661  0.1350
    1MPD1    H514044   4.135   0.122  16.856 -1.2233  0.0906  2.5665
    1MPD1    N114045   3.572   0.086  16.995 -0.9066 -0.1544  0.0950
    1MPD1    H614046   3.520   0.098  17.082 -2.1709 -0.5886 -0.5959
    1MPD1    H714047   3.566   4.728  16.956  1.6536  1.0814 -3.2260
    2MPD1     C14048   0.213   4.410  16.701 -0.5262 -0.0305 -0.5879
    2MPD1    C114049   0.139   4.335  16.610  0.5625 -0.2097  0.0070
    2MPD1    C214050   0.012   4.379  16.576  0.0252 -0.3510  0.0409
    2MPD1    C314051   4.687   4.487  16.642  1.0139 -0.0856 -0.0636
    2MPD1    C414052   0.021   4.550  16.738  0.4098  0.0074  0.1750
    2MPD1    C514053   0.150   4.517  16.762  0.0143 -0.8175 -0.4583
    2MPD1     H14054   4.697   4.330  16.494 -0.0160 -0.7308  0.2941
    2MPD1    H114055   4.715   4.619  16.811 -1.6564 -2.0683  0.9395
    2MPD1    H214056   0.313   4.379  16.729 -0.9809 -1.3283 -0.3833
    2MPD1    H314057   0.205   4.570  16.840 -0.7326 -0.2428 -0.3223
    2MPD1     N14058   4.555   4.536  16.605  0.0243  0.1785  0.0065
    2MPD1    H514059   4.511   4.490  16.526  0.2328  0.7715 -0.4567
    2MPD1    N114060   0.204   4.236  16.544 -0.6761 -0.4031  0.2135
    2MPD1    H614061   0.283   4.189  16.587 -1.5612 -1.7398  0.3972
    2MPD1    H714062   0.151   4.153  16.518  1.4347 -1.2587 -1.3133
    3TMC3    C114063   4.361   4.664  16.619  0.3553 -0.9115 -0.3036
    3TMC3    C214064   4.346   4.644  16.480 -0.3514 -0.2889 -0.2872
    3TMC3    C314065   4.216   4.671  16.438  0.0157  0.4652  0.1411
    3TMC3    C414066   4.265   4.710  16.700 -0.6747  0.7422  0.4005
    3TMC3    C514067   4.144   0.009  16.639 -0.1616 -0.9439 -0.1397
    3TMC3    C614068   4.125   4.734  16.504 -0.3196 -0.1239 -0.1898
    3TMC3     C14069   4.473   4.618  16.685  0.3749  0.1716  1.3049
    3TMC3     O14070   4.488   4.658  16.800 -0.0714  0.3379  0.0234
    3TMC3     H14071   4.420   4.594  16.419 -0.1351  0.2893 -0.4940
    3TMC3    H114072   4.283   4.729  16.805  0.5393  0.3269  0.2679
    3TMC3    H214073   4.033   0.029  16.456 -1.9966 -1.9048  1.8283
    3TMC3    C714074   4.028   0.013  16.722  0.0920 -0.1531 -0.2360
    3TMC3    C814075   4.186   4.651  16.293  0.2210 -0.0355  0.4589
    3TMC3    O114076   3.930   4.686  16.677 -0.9542  0.1899 -0.2367
    3TMC3    O214077   4.090   4.712  16.244 -0.7160 -0.2838 -0.0889
    4MPD1     C14078   4.243   4.419  15.841 -0.0434  0.3884 -0.4465
    4MPD1    C114079   4.344   4.377  15.925 -0.5800 -0.2924 -0.0250
    4MPD1    C214080   4.343   4.418  16.055  0.5514  0.1298 -0.1598
    4MPD1    C314081   4.261   4.524  16.100  0.1125  0.1316  0.1806
    4MPD1    C414082   4.185   4.578  16.004  0.3467  0.5381 -0.5306
    4MPD1    C514083   4.178   4.526  15.881  0.0175 -0.3784 -0.2857
    4MPD1     H14084   4.408   4.372  16.128 -1.1748  1.7283  2.3741
    4MPD1    H114085   4.112   4.656  16.020 -0.4201 -0.3144  0.0998
    4MPD1    H214086   4.217   4.377  15.745  1.4801  1.6846 -1.4256
    4MPD1    H314087   4.094   4.553  15.820  0.4586  1.3175 -0.1447
    4MPD1     N14088   4.265   4.557  16.235 -0.2081  0.5450  0.0262
    4MPD1    H514089   4.332   4.507  16.292  1.9728  3.2593 -0.1132
    4MPD1    N114090   4.419   4.263  15.893  0.0069  0.5028  0.3744
    4MPD1    H614091   4.509   4.247  15.938  1.0470  2.8039 -0.8240
    4MPD1    H714092   4.440   4.253  15.793 -3.0121 -0.9024 -0.1032
    1TCq1    O114093   0.148   3.326  11.059 -0.3524  0.2752  0.2620
    1TCq1    C114094   0.094   3.203  11.057 -0.2204  0.1854 -0.1351
    1TCq1    O214095   0.022   3.153  10.973  0.2123  0.0191  0.5677
    1TCq1    C214096   0.091   3.147  11.191 -0.0248  0.1309  0.5510
    1TCq1    C314097   4.719   3.073  11.224  0.5615  0.4859 -0.1748
    1TCq1    C414098   4.673   3.062  11.351 -0.2021 -0.4619 -0.3734
    1TCq1    C514099   0.001   3.122  11.455 -0.2808 -0.2654 -0.3256
    1TCq1    C614100   0.118   3.193  11.428  0.7211  0.1434 -0.7699
    1TCq1    C714101   0.159   3.205  11.291  0.3135 -0.1044  0.2224
    1TCq1    C814102   0.182   3.279  11.526 -0.0564  0.5215 -0.1328
    1TCq1    O414103   0.275   3.346  11.485  0.0699 -0.3535 -0.1927
    1TCq1    C914104   4.528   3.071  11.360 -0.0233  0.6059 -0.1152
    1TCq1    O514105   4.458   3.001  11.287  0.9550 -0.4793  0.0722
    1TCq1    O614106   4.475   3.153  11.439  0.1571 -0.8141  0.0417
    1TCq1    H114107   0.218   3.328  11.128  0.5644  0.3412 -0.6776
    1TCq1    H214108   4.640   3.058  11.151  0.2119 -5.1925  1.3275
    1TCq1    H314109   4.677   3.128  11.545  0.0976 -0.3700 -0.0683
    1TCq1    H414110   0.251   3.259  11.269 -0.1346  1.2482  1.6262
    2MPD1     C14111   0.222   3.522  11.983  0.2095 -0.3123  0.4954
    2MPD1    C114112   0.138   3.420  12.008  0.0048  0.1650  0.1188
    2MPD1    C214113   0.107   3.343  11.893 -0.2680 -0.8757 -0.1223
    2MPD1    C314114   0.165   3.365  11.773  0.4408  0.2154  0.6324
    2MPD1    C414115   0.255   3.463  11.753 -0.2843  0.4114 -0.0512
    2MPD1    C514116   0.288   3.543  11.858 -0.2859  0.3729  0.5505
    2MPD1     H14117   0.047   3.254  11.908  1.2730 -1.9137  0.0171
    2MPD1    H114118   0.311   3.473  11.662 -0.7824 -2.8466 -0.7243
    2MPD1    H214119   0.240   3.587  12.068  0.1316 -1.2478  1.2307
    2MPD1    H314120   0.358   3.623  11.834  0.5299 -0.4311  0.2720
    2MPD1     N14121   0.122   3.279  11.659  0.2011 -0.0667 -0.5930
    2MPD1    H514122   0.039   3.224  11.678  0.0222  0.2812 -0.3598
    2MPD1    N114123   0.100   3.381  12.136 -0.2186  0.2400  0.4812
    2MPD1    H614124   0.108   3.457  12.204  0.7325 -1.5312  2.3435
    2MPD1    H714125   0.008   3.338  12.138 -0.1176  0.0768  1.6460
    1TMC1    C114126   3.186   0.055   1.081  0.1573  0.4062 -0.6524
    1TMC1    C214127   3.244   4.730   1.194 -0.3273 -0.2893  0.4248
    1TMC1    C314128   3.204   0.040   1.318  0.1796 -0.0128 -0.1774
    1TMC1    C414129   3.093   0.154   1.088 -0.2117  1.0614 -0.4556
    1TMC1    C514130   3.051   0.184   1.219 -0.1847  0.4725 -0.1684
    1TMC1    C614131   3.097   0.124   1.334  0.5368 -0.2454 -0.7400
    1TMC1     C14132   3.264   0.025   0.958 -0.2506  0.4765 -0.1780
    1TMC1     O14133   3.330   4.658   0.952 -0.2205 -0.0149 -0.2978
    1TMC1     H14134   3.324   4.658   1.183  1.5586  2.2910 -2.8214
    1TMC1    H114135   3.039   0.185   1.000  0.6162  0.3447 -1.2161
    1TMC1    H214136   3.054   0.157   1.428  1.6779 -0.5534 -0.1091
    1TMC1    C714137   2.956   0.302   1.227  0.3238 -0.2226  0.4718
    1TMC1    C814138   3.276   4.714   1.427 -0.3036  0.0559 -0.4397
    1TMC1    O114139   2.891   0.330   1.327  0.4457  1.0581 -0.2633
    1TMC1    O214140   3.396   4.689   1.425 -0.1185  0.2229 -0.0395
    1TMC1    O314141   2.999   0.400   1.144  0.2029  0.1297  0.2000
    1TMC1    H314142   3.078   0.375   1.090  0.7604 -1.1857  1.6308
    1TMC1    O514143   3.211   0.007   1.541 -0.3060 -0.1876 -0.5308
    1TMC1    H514144   3.113   4.734   1.538 -0.2316 -0.6750 -1.5869
    2MPD1     C14145   3.392   0.139   0.474  0.8596 -0.9002 -0.3762
    2MPD1    C114146   3.320   0.250   0.529  1.0292  0.0271  0.0740
    2MPD1    C214147   3.279   0.240   0.658  0.1361  0.6387 -0.2012
    2MPD1    C314148   3.300   0.130   0.732  0.3874 -0.1250 -0.4987
    2MPD1    C414149   3.370   0.026   0.681 -0.0096  1.2018  0.4449
    2MPD1    C514150   3.414   0.027   0.554 -0.9020 -1.0996 -0.1891
    2MPD1     H14151   3.232   0.332   0.689 -2.6846 -1.0443  0.5175
    2MPD1    H114152   3.386   4.670   0.738  0.3701  0.7645 -0.3610
    2MPD1    H214153   3.422   0.155   0.372  1.4225 -0.1286 -0.0872
    2MPD1    H314154   3.462   4.674   0.512 -1.6398  0.7577 -4.9653
    2MPD1     N14155   3.247   0.125   0.866 -0.1442 -0.0209  0.5659
    2MPD1    H514156   3.196   0.209   0.891  1.9893  1.4208  0.0660
    2MPD1    N114157   3.307   0.370   0.460  0.6388 -0.1373  0.2722
    2MPD1    H614158   3.241   0.430   0.509 -1.2450 -0.4044 -1.9425
    2MPD1    H714159   3.279   0.365   0.362 -0.6757  0.3247  0.6315
    1MPD1     C14160   0.693   3.468  11.861 -0.4044  0.3388 -0.1338
    1MPD1    C114161   0.638   3.405  11.970  0.3461  0.0051  0.6008
    1MPD1    C214162   0.687   3.425  12.101 -0.0565  0.1466  0.4919
    1MPD1    C314163   0.793   3.511  12.124 -0.1611  0.1716 -0.2641
    1MPD1    C414164   0.850   3.567  12.007 -0.5537  0.8915  0.5935
    1MPD1    C514165   0.801   3.551  11.880  0.3956 -0.1725  0.2451
    1MPD1     H14166   0.637   3.374  12.182  1.5231  0.6987  1.8055
    1MPD1    H114167   0.937   3.630  12.016  0.6523 -0.7063  0.1031
    1MPD1    H214168   0.661   3.442  11.761 -0.2773 -1.1934  0.2308
    1MPD1    H314169   0.849   3.603  11.798 -0.5649 -0.5610 -0.5756
    1MPD1     N14170   0.836   3.550  12.255 -0.3658 -0.0176 -0.3376
    1MPD1    H514171   0.789   3.516  12.338  2.2667 -0.2932  1.0484
    1MPD1    N114172   0.535   3.308  11.958 -0.0905 -0.3980  0.5893
    1MPD1    H614173   0.473   3.327  11.880  0.7106  0.2177  0.1078
    1MPD1    H714174   0.488   3.300  12.048  0.5604  2.0297  1.1334
    2MPD1     C14175   0.103   4.376  12.026  0.4522  0.2637  0.0456
    2MPD1    C114176   0.122   4.302  11.915 -0.9152  0.1614  1.0015
    2MPD1    C214177   0.253   4.302  11.871  1.0166 -0.3498  0.1941
    2MPD1    C314178   0.346   4.396  11.910  0.4721  0.2141 -0.0370
    2MPD1    C414179   0.322   4.477  12.021 -0.6398  0.5574  0.1993
    2MPD1    C514180   0.200   4.462  12.080  0.5225 -0.1251  0.0021
    2MPD1     H14181   0.283   4.226  11.800 -2.3085 -0.2082 -1.3900
    2MPD1    H114182   0.401   4.537  12.064 -1.2321  0.7536  1.0166
    2MPD1    H214183   0.006   4.372  12.075 -0.2713 -0.3664 -1.4575
    2MPD1    H314184   0.188   4.525  12.167  2.6996  1.4452 -0.8329
    2MPD1     N14185   0.476   4.393  11.853 -0.5618  0.1248 -0.5641
    2MPD1    H514186   0.537   4.460  11.900  0.0779 -0.1538 -1.0045
    2MPD1    N114187   0.028   4.203  11.883 -0.2602  0.0197 -0.1755
    2MPD1    H614188   4.669   4.234  11.906 -0.1605 -0.4749  0.9250
    2MPD1    H714189   0.022   4.173  11.786  0.0169 -1.9902  0.4249
    3MPD1     C14190   1.286   3.995  11.306  0.7095  0.5137 -1.0970
    3MPD1    C114191   1.336   4.069  11.409  0.5092  0.0055 -1.2494
    3MPD1    C214192   1.252   4.167  11.465  1.0621 -0.1468  0.0377
    3MPD1    C314193   1.118   4.182  11.421  0.8463 -0.6818  0.0988
    3MPD1    C414194   1.074   4.112  11.308 -0.1829 -0.1373 -0.7082
    3MPD1    C514195   1.157   4.013  11.256 -0.8267 -0.1043 -0.8610
    3MPD1     H14196   1.297   4.231  11.540  0.4697  0.1851  0.1139
    3MPD1    H114197   0.974   4.119  11.267 -0.8530 -1.6245  0.7109
    3MPD1    H214198   1.337   3.904  11.274  1.5171  0.6658 -0.2496
    3MPD1    H314199   1.120   3.952  11.174 -0.3404 -1.0810 -0.3503
    3MPD1     N14200   1.033   4.268  11.492 -0.9405  0.8100  0.0685
    3MPD1    H514201   1.070   4.301  11.580 -0.7551  1.8147 -0.3941
    3MPD1    N114202   1.459   4.035  11.459 -0.6601  0.3503 -0.0184
    3MPD1    H614203   1.507   4.116  11.498 -2.8422  1.0694  1.1505
    3MPD1    H714204   1.524   3.983  11.401  3.0767  0.2610  4.2701
    4MPD2     C14205   0.661   4.152  12.635 -0.0418 -0.0247 -0.2493
    4MPD2    C114206   0.790   4.117  12.672 -0.2110 -0.0379 -0.6189
    4MPD2    C214207   0.878   4.221  12.695 -0.5180 -0.3778 -0.1070
    4MPD2    C314208   0.846   4.354  12.676  0.0171  0.3974  0.3808
    4MPD2    C414209   0.723   4.391  12.645  0.3406 -0.1937 -0.0939
    4MPD2    C514210   0.627   4.288  12.624  0.1676 -0.4767  0.0881
    4MPD2     H14211   0.980   4.191  12.716 -0.6922 -1.3310 -0.6043
    4MPD2    H114212   0.696   4.493  12.621 -0.5975 -0.4059  0.0469
    4MPD2    H214213   0.591   4.072  12.615 -1.3840  0.7984  1.1809
    4MPD2    H314214   0.524   4.313  12.604  1.2645  1.7608 -2.8148
    4MPD2     N14215   0.938   4.467  12.674  0.8802  0.4877  0.1117
    4MPD2    H514216   0.904   4.563  12.680 -2.2109 -0.4844 -1.7431
    4MPD2    N114217   0.841   3.986  12.678 -0.1347  0.2996 -0.5420
    4MPD2    H714218   0.942   3.974  12.680 -0.2283 -0.4659 -0.2413
    5TMC3    C114219   0.873   3.776  12.605  0.6642 -0.1540 -0.2571
    5TMC3    C214220   0.855   3.707  12.491  0.2339 -0.6346 -0.2638
    5TMC3    C314221   0.966   3.658  12.424 -0.3316 -0.6623 -0.3868
    5TMC3    C414222   0.998   3.791  12.652  0.2937 -0.4498  0.9043
    5TMC3    C514223   1.110   3.767  12.582 -0.7592  0.0169  0.1213
    5TMC3    C614224   1.094   3.695  12.468 -0.1984 -0.4247  0.0457
    5TMC3     C14225   0.774   3.871  12.637 -0.0181 -0.6978  0.5703
    5TMC3     O14226   0.657   3.856  12.603  0.2623 -0.6576 -0.3771
    5TMC3     H14227   0.753   3.713  12.455  0.6244 -0.0700 -1.2897
    5TMC3    H114228   1.013   3.846  12.744  2.4145 -1.7046  1.2975
    5TMC3    H214229   1.186   3.664  12.421 -0.6337 -0.2217 -0.9700
    5TMC3    C714230   1.187   3.890  12.569 -0.2145  0.5951  0.5627
    5TMC3    C814231   0.955   3.624  12.285 -0.6691  0.4058 -0.2493
    5TMC3    O114232   1.144   3.987  12.631  0.3123  0.5910  0.5266
    5TMC3    O214233   1.052   3.654  12.211 -0.0415 -0.2737 -0.7839
    6TMC3    C114234   0.664   4.327  11.735 -0.5516 -0.1590 -0.2680
    6TMC3    C214235   0.716   4.308  11.610 -0.2179 -0.1245  0.2579
    6TMC3    C314236   0.837   4.359  11.578 -0.1906  0.2816  0.1949
    6TMC3    C414237   0.730   4.406  11.822  0.2839 -0.1872  0.3510
    6TMC3    C514238   0.853   4.462  11.781  0.6014 -0.4039  0.5908
    6TMC3    C614239   0.907   4.441  11.656  0.4352 -0.6411  0.5090
    6TMC3     C14240   0.522   4.300  11.763  0.4437 -0.2770  0.3599
    6TMC3     O14241   0.483   4.203  11.704 -0.4536  0.1366  0.3240
    6TMC3     H14242   0.666   4.254  11.531 -0.3425 -0.6027  0.6606
    6TMC3    H114243   0.699   4.430  11.923  0.1097  0.7456  0.0719
    6TMC3    H214244   0.995   4.487  11.614 -1.2790  1.7605 -0.4765
    6TMC3    C714245   0.928   4.532  11.880 -0.4406 -0.2691  0.1675
    6TMC3    C814246   0.904   4.293  11.461  0.7034  0.1563  0.2208
    6TMC3    O114247   0.901   4.508  11.995  0.3420 -0.7876 -0.3923
    6TMC3    O214248   0.838   4.265  11.361 -0.1445  0.2765 -0.2710
    7MPD2     C14249   1.533   4.213  12.369  0.0189  0.5678 -1.0600
    7MPD2    C114250   1.422   4.233  12.449  0.1457 -0.4428  0.3763
    7MPD2    C214251   1.344   4.126  12.486 -0.3123 -0.2787 -0.5107
    7MPD2    C314252   1.364   4.000  12.432  0.1378 -0.2850  0.0174
    7MPD2    C414253   1.471   3.975  12.349  0.1889 -0.3165  0.5735
    7MPD2    C514254   1.548   4.085  12.321 -0.1858  0.4648  0.0093
    7MPD2     H14255   1.255   4.152  12.542  1.2426  0.9290  1.3989
    7MPD2    H114256   1.476   3.877  12.303  2.1327  0.8218 -1.6240
    7MPD2    H214257   1.605   4.290  12.341  1.2469 -0.5038 -0.8192
    7MPD2    H314258   1.625   4.057  12.250  0.8494 -1.4425  1.8693
    7MPD2     N14259   1.281   3.887  12.467 -0.4359 -0.2122  0.5149
    7MPD2    H514260   1.302   3.793  12.433 -2.8729 -1.0551  1.3150
    7MPD2    N114261   1.384   4.359  12.503 -0.3136  0.1726 -0.2137
    7MPD2    H714262   1.308   4.348  12.569  0.5203  1.4121  0.9381
    8TMC3    C114263   1.360   4.580  12.540  0.5956  0.6034  0.2873
    8TMC3    C214264   1.310   4.668  12.454  0.0176 -0.2279  0.3228
    8TMC3    C314265   1.179   4.703  12.468 -0.2486 -0.2112  0.1100
    8TMC3    C414266   1.288   4.521  12.640  0.0141  0.7315 -0.1342
    8TMC3    C514267   1.154   4.562  12.649  0.6744 -0.0907  0.0859
    8TMC3    C614268   1.098   4.657  12.569  0.2758 -0.4262 -0.7677
    8TMC3     C14269   1.438   4.482  12.474 -0.3443  0.6697  0.2016
    8TMC3     O14270   1.518   4.508  12.387 -0.0357 -0.0341  0.2300
    8TMC3     H14271   1.367   4.684  12.363  1.2851  0.3369  1.2169
    8TMC3    H114272   1.328   4.446  12.708 -3.0495  2.4559  3.5700
    8TMC3    H214273   0.992   4.677  12.555  0.3169 -0.2707 -0.8549
    8TMC3    C714274   1.070   4.450  12.691 -0.1835  0.2094 -0.4569
    8TMC3    C814275   1.111   4.718  12.341 -0.4482 -0.5471  0.0784
    8TMC3    O114276   1.135   4.345  12.685  0.1535  0.0169 -0.7486
    8TMC3    O214277   1.022   4.637  12.321 -0.0987 -0.5729  0.2633
    9MPD2     C14278   1.242   0.173  12.055  0.1276  0.2680  0.1290
    9MPD2    C114279   1.164   0.083  12.127  0.5817  0.3083 -0.0733
    9MPD2    C214280   1.079   4.731  12.055  0.1873  0.3742  0.3388
    9MPD2    C314281   1.076   4.726  11.919  0.5754 -0.3079 -0.7284
    9MPD2    C414282   1.160   0.072  11.852 -0.3382  0.3315  0.0307
    9MPD2    C514283   1.244   0.159  11.919 -0.6519  0.2630 -0.3603
    9MPD2     H14284   1.005   4.665  12.097 -0.9002  1.2714 -0.1799
    9MPD2    H114285   1.146   0.077  11.744 -0.4908  3.7691  0.1837
    9MPD2    H214286   1.293   0.256  12.102 -1.3866  0.3363  1.6606
    9MPD2    H314287   1.307   0.228  11.864 -1.4387  2.2370  1.2142
    9MPD2     N14288   1.006   4.634  11.835 -0.4085 -0.5712 -0.0620
    9MPD2    H514289   1.008   4.649  11.734  1.9994 -0.3214  0.0418
    9MPD2    N114290   1.169   0.085  12.266  0.6269 -0.0421  0.1811
    9MPD2    H714291   1.237   0.148  12.305 -1.4763  3.1597 -1.3353
    1MPD1     C14292   1.421   3.687  16.773  0.4536  0.3211 -0.4599
    1MPD1    C114293   1.342   3.601  16.846 -0.3492 -0.4350 -0.0297
    1MPD1    C214294   1.335   3.467  16.810 -0.0136 -0.4798  0.1889
    1MPD1    C314295   1.405   3.418  16.701  0.2247  0.4253 -0.5945
    1MPD1    C414296   1.486   3.503  16.632  0.0661  0.3650  0.1674
    1MPD1    C514297   1.490   3.639  16.664 -0.0210 -0.0783  0.2329
    1MPD1     H14298   1.266   3.405  16.868 -0.0886  0.9894  1.6848
    1MPD1    H114299   1.531   3.476  16.537 -0.0636  2.1250 -0.4109
    1MPD1    H214300   1.417   3.795  16.788  0.1675  0.4064 -1.1637
    1MPD1    H314301   1.543   3.709  16.601 -0.7120  0.6473  0.4660
    1MPD1     N14302   1.403   3.288  16.651  0.0689 -0.7737  1.0322
    1MPD1    H514303   1.453   3.270  16.565  0.2692  1.0419  0.7807
    1MPD1    N114304   1.251   3.661  16.935  0.2731  0.0856 -0.1799
    1MPD1    H614305   1.302   3.733  16.985 -2.0710 -0.1660  2.6088
    1MPD1    H714306   1.214   3.592  17.001  2.7644  0.0515  1.1748
    2TMC2    C114307   1.418   2.939  16.454  0.1359 -0.0395 -0.2701
    2TMC2    C214308   1.338   2.836  16.479  0.6652 -0.0984  0.4676
    2TMC2    C314309   1.240   2.849  16.573  0.4125  0.2682 -0.9675
    2TMC2    C414310   1.422   3.047  16.528 -0.6693 -0.1623 -0.1724
    2TMC2    C514311   1.323   3.065  16.629 -0.1397 -1.0050 -0.3322
    2TMC2    C614312   1.234   2.961  16.654  0.2706  0.2801  0.2580
    2TMC2     C14313   1.534   2.928  16.374  0.7836 -0.1056  0.6908
    2TMC2     O14314   1.580   3.033  16.325 -0.3126  0.0185 -0.3565
    2TMC2     H14315   1.351   2.742  16.427  2.1475 -0.0131  0.6707
    2TMC2    H114316   1.502   3.119  16.519  1.0363 -1.9811  0.3210
    2TMC2    H214317   1.160   2.965  16.733  0.0169  0.3104  0.0181
    2TMC2    C714318   1.326   3.189  16.705  0.6030  0.3445  0.3620
    2TMC2    C814319   1.141   2.753  16.599 -0.3052  0.4935 -0.2756
    2TMC2    O114320   1.268   3.185  16.813 -0.4594 -0.3461  0.1634
    2TMC2    O214321   1.091   2.721  16.705 -0.1341  0.1083  0.1608
    2TMC2    O514322   1.130   2.678  16.481  0.0325 -0.1882 -0.0565
    2TMC2    H514323   1.155   2.724  16.399  0.6016  0.4038  0.4497
    3MPD1     C14324   1.960   2.683  16.249  0.5509  0.1246  0.2400
    3MPD1    C114325   1.889   2.602  16.340 -0.1617  0.6295 -0.6695
    3MPD1    C214326   1.764   2.642  16.384 -0.5620  0.1752  0.1874
    3MPD1    C314327   1.721   2.770  16.344 -0.3010 -0.3045 -0.2192
    3MPD1    C414328   1.793   2.845  16.245  0.5840 -0.1705  0.0288
    3MPD1    C514329   1.914   2.801  16.203 -0.3121  0.2714  0.0234
    3MPD1     H14330   1.702   2.589  16.456  1.8679 -0.9321  1.4587
    3MPD1    H114331   1.747   2.934  16.204  2.5482  1.3188  1.0737
    3MPD1    H214332   2.061   2.656  16.219  0.0546 -2.1052  0.5737
    3MPD1    H314333   1.962   2.851  16.120 -0.1707 -1.8386 -1.1517
    3MPD1     N14334   1.596   2.809  16.396  0.1303 -0.5572  0.1304
    3MPD1    H514335   1.550   2.750  16.464 -0.1409 -1.4003 -0.7756
    3MPD1    N114336   1.927   2.471  16.369 -0.1060 -0.4246  0.0788
    3MPD1    H614337   2.027   2.457  16.383 -0.2899 -1.3082  0.4972
    3MPD1    H714338   1.881   2.449  16.457 -2.4633 -0.1612 -1.0906
    1TMC1    C114339   3.796   1.842  13.001  0.3852 -0.2165 -0.4579
    1TMC1    C214340   3.788   1.823  13.139  0.3256  0.0087  0.8353
    1TMC1    C314341   3.672   1.776  13.189 -0.5641  0.2679 -0.9631
    1TMC1    C414342   3.689   1.816  12.919  0.3504 -0.1430 -0.8409
    1TMC1    C514343   3.571   1.786  12.978  1.1482 -0.2285 -0.0456
    1TMC1    C614344   3.559   1.764  13.110 -0.3507 -0.2128  0.7121
    1TMC1     C14345   3.922   1.884  12.942 -0.0692  0.2013  0.2651
    1TMC1     O14346   3.910   1.908  12.821  0.0315  0.5152 -0.2189
    1TMC1     H14347   3.875   1.846  13.201  2.1875 -0.5745 -1.5532
    1TMC1    H114348   3.695   1.842  12.814 -1.3691 -0.0893 -0.9412
    1TMC1    H214349   3.460   1.749  13.149 -0.8166  2.1995  0.4975
    1TMC1    C714350   3.445   1.801  12.908 -0.5342 -0.2667  0.2380
    1TMC1    C814351   3.659   1.736  13.328  0.5028  0.4690  0.0057
    1TMC1    O114352   3.341   1.757  12.955 -0.2820  0.5738  0.1298
    1TMC1    O214353   3.551   1.686  13.362  0.4088  0.4046  0.3940
    1TMC1    O314354   3.455   1.896  12.819  0.9489 -0.4064  0.0428
    1TMC1    H314355   3.545   1.929  12.798  0.8982 -0.2028  0.1438
    1TMC1    O514356   3.726   1.835  13.392 -0.2683  0.6681 -0.1718
    1TMC1    H514357   3.812   1.860  13.352  1.2530 -2.2195  1.2733
    2MPD2     C14358   4.190   1.990  12.884  0.6328  0.0660  0.1758
    2MPD2    C114359   4.168   1.920  12.995 -0.2302 -0.0685 -0.5621
    2MPD2    C214360   4.258   1.905  13.093  0.9618  0.9580  0.1843
    2MPD2    C314361   4.390   1.941  13.065  0.1179  0.0624 -0.5010
    2MPD2    C414362   4.414   2.019  12.950 -0.0050 -0.4182  0.1528
    2MPD2    C514363   4.311   2.040  12.862 -0.3134  0.1059 -0.2672
    2MPD2     H14364   4.242   1.846  13.182 -0.5101  0.6072 -0.3231
    2MPD2    H114365   4.512   2.060  12.929 -0.2935 -0.5110 -1.3898
    2MPD2    H214366   4.104   2.002  12.819  1.0389 -0.7224 -0.5101
    2MPD2    H314367   4.330   2.099  12.773  1.2157 -0.4346 -0.3070
    2MPD2     N14368   4.491   1.918  13.166 -0.2544  0.0448  0.1192
    2MPD2    H514369   4.460   1.863  13.246 -2.0855  0.6972 -0.1486
    2MPD2    N114370   4.040   1.863  13.021 -0.7082 -0.4096 -0.2291
    2MPD2    H714371   4.031   1.807  13.105  0.2376  1.1119  0.8797
    3TCq1    O114372   0.206   2.061  13.639 -0.3114 -0.2719  0.2941
    3TCq1    C114373   0.121   2.114  13.555 -0.0515  0.0301 -0.0341
    3TCq1    O214374   0.123   2.225  13.499  0.0828 -0.0266  0.3788
    3TCq1    C214375   0.064   2.000  13.485  0.1244  0.4593 -0.9589
    3TCq1    C314376   0.022   1.896  13.556 -0.4977  0.3438 -0.3125
    3TCq1    C414377   4.683   1.794  13.493 -0.1807 -0.2179 -1.1296
    3TCq1    C514378   4.645   1.810  13.358 -0.3704  0.2846  0.7571
    3TCq1    C614379   4.690   1.921  13.291 -0.2696  0.0877 -0.0508
    3TCq1    C714380   0.031   2.015  13.356 -0.2472  0.4281  0.6100
    3TCq1    C814381   4.627   1.963  13.168  0.0617  0.5973  0.7995
    3TCq1    O414382   4.683   2.051  13.109  0.6226  0.2120 -0.3025
    3TCq1    C914383   4.625   1.692  13.571 -0.9101 -0.5268  0.1105
    3TCq1    O514384   4.529   1.623  13.526 -0.0338 -0.5672  0.3509
    3TCq1    O614385   4.662   1.692  13.687  0.5707 -0.1936 -0.5739
    3TCq1    H114386   0.215   1.963  13.640 -0.0533 -0.2773 -1.1827
    3TCq1    H214387   0.021   1.912  13.663  2.5489 -1.4508 -0.0094
    3TCq1    H314388   4.593   1.728  13.308 -1.5171  1.4312  0.0761
    3TCq1    H414389   0.070   2.106  13.312  0.5870  0.9440  2.4124
    1MPD2     C14390   3.649   3.278  15.311  0.6370  0.6047  0.7796
    1MPD2    C114391   3.621   3.169  15.231  1.2088  1.0528 -0.0934
    1MPD2    C214392   3.716   3.067  15.213  0.1201 -0.3653  0.6271
    1MPD2    C314393   3.835   3.065  15.281 -0.2643  0.6856 -0.5402
    1MPD2    C414394   3.863   3.170  15.370 -0.0013 -0.1812 -0.0907
    1MPD2    C514395   3.769   3.275  15.380 -0.2198  0.9987  0.8572
    1MPD2     H14396   3.707   2.976  15.155 -2.4066 -0.1897  0.7376
    1MPD2    H114397   3.961   3.174  15.415  0.0571  2.4056 -0.4265
    1MPD2    H214398   3.581   3.362  15.314  0.5299  0.7465 -4.1812
    1MPD2    H314399   3.798   3.352  15.451 -0.4485  1.3459  0.5741
    1MPD2     N14400   3.923   2.962  15.251  0.1170  0.1193 -0.3526
    1MPD2    H514401   3.895   2.907  15.170 -0.9738  0.6646 -0.3458
    1MPD2    N114402   3.498   3.173  15.167  0.0828 -0.0348 -0.4199
    1MPD2    H714403   3.429   3.239  15.203 -0.1752 -0.4610 -0.1183
    2TMC3    C114404   3.342   3.122  15.002 -1.1065 -0.5986 -0.2264
    2TMC3    C214405   3.298   3.007  14.942 -0.6120  0.3855 -0.0168
    2TMC3    C314406   3.280   3.005  14.811 -0.4324 -0.1383 -0.2831
    2TMC3    C414407   3.364   3.235  14.930 -0.1305 -0.5610  0.1042
    2TMC3    C514408   3.348   3.236  14.800 -0.3911  0.2040 -0.4390
    2TMC3    C614409   3.301   3.124  14.733 -0.8004  0.0066  0.1091
    2TMC3     C14410   3.453   3.075  15.085  0.0152 -0.1221  0.3473
    2TMC3     O14411   3.510   2.984  15.032 -0.1610  0.8398  0.4173
    2TMC3     H14412   3.290   2.920  15.006  2.3386  0.3631  0.2804
    2TMC3    H114413   3.386   3.323  14.988  3.6774  1.2928 -4.1254
    2TMC3    H214414   3.297   3.118  14.624  0.1265 -1.1611  0.1406
    2TMC3    C714415   3.351   3.360  14.725  0.4480  0.1539 -0.2143
    2TMC3    C814416   3.333   2.888  14.747 -0.4635 -0.9052 -0.2649
    2TMC3    O114417   3.300   3.358  14.613  0.2971 -0.2247  0.0662
    2TMC3    O214418   3.289   2.838  14.642  0.0011 -0.1388 -0.3003
    3TCq1    O114419   3.775   4.466  15.216 -0.3969  0.2129 -0.0955
    3TCq1    C114420   3.679   4.426  15.135 -0.3678  0.1132 -0.3055
    3TCq1    O214421   3.606   4.504  15.073 -0.2883  0.4688 -0.0875
    3TCq1    C214422   3.703   4.294  15.095 -0.5861  0.1868 -0.1806
    3TCq1    C314423   3.827   4.238  15.116  0.2396 -0.1193 -0.4192
    3TCq1    C414424   3.850   4.108  15.069  0.3115 -0.1723  0.3341
    3TCq1    C514425   3.761   4.036  14.995  0.5045  0.0704 -0.9732
    3TCq1    C614426   3.638   4.094  14.981 -1.0259 -0.3003 -0.1006
    3TCq1    C714427   3.607   4.221  15.026  0.5972  0.4577  0.6177
    3TCq1    C814428   3.536   4.036  14.903  0.0749 -0.1838 -0.6886
    3TCq1    O414429   3.436   4.102  14.876 -0.1920  0.1642 -0.4391
    3TCq1    C914430   3.971   4.041  15.106 -0.0756 -0.5056 -0.6091
    3TCq1    O514431   4.015   3.957  15.026  0.3213  0.6650  0.2873
    3TCq1    O614432   3.997   4.044  15.230 -0.2374 -0.0328 -0.0941
    3TCq1    H114433   3.802   4.398  15.281  1.8524 -1.2380 -2.5347
    3TCq1    H214434   3.914   4.285  15.159 -0.0188 -1.8117  1.9546
    3TCq1    H314435   3.788   3.935  14.966  0.8637  0.2759 -1.3460
    3TCq1    H414436   3.510   4.265  15.004 -0.3593 -1.0318  1.9195
    4MPD2     C14437   3.393   3.868  14.706 -0.1150 -0.0634 -0.2233
    4MPD2    C114438   3.476   3.822  14.808  0.0573 -0.3931  0.3243
    4MPD2    C214439   3.481   3.685  14.832  0.4737  0.3685 -0.0546
    4MPD2    C314440   3.401   3.600  14.758  0.4473 -0.1412 -0.2665
    4MPD2    C414441   3.327   3.647  14.658  0.1853 -0.0442  0.0545
    4MPD2    C514442   3.321   3.780  14.634 -0.0881  0.3150  0.3824
    4MPD2     H14443   3.548   3.649  14.910  1.4166  0.3270 -0.8829
    4MPD2    H114444   3.255   3.590  14.600 -0.6435  0.0245  1.0128
    4MPD2    H214445   3.388   3.967  14.664 -0.8455  0.3894  0.9251
    4MPD2    H314446   3.249   3.814  14.561 -0.6379 -0.1723  0.6970
    4MPD2     N14447   3.407   3.465  14.792  0.7516  1.0476  0.3061
    4MPD2    H514448   3.461   3.438  14.874  0.2585 -1.4524 -0.1931
    4MPD2    N114449   3.558   3.902  14.890  0.3213  0.4149 -0.6194
    4MPD2    H714450   3.629   3.861  14.949 -0.8406 -0.8581 -0.1060
    5TMC2    C114451   3.983   2.638  15.121  0.0345  0.8935  0.2485
    5TMC2    C214452   3.958   2.536  15.209 -0.4327  0.0433 -0.1493
    5TMC2    C314453   3.985   2.565  15.337 -0.9300  0.0732 -0.6920
    5TMC2    C414454   4.039   2.757  15.159  0.2279 -0.0437  0.1738
    5TMC2    C514455   4.059   2.782  15.296  0.7607 -0.2524 -0.2663
    5TMC2    C614456   4.032   2.683  15.386 -0.9236  0.7365 -0.6229
    5TMC2     C14457   3.867   2.665  15.031  0.3166 -0.3338 -0.6053
    5TMC2     O14458   3.838   2.785  15.038 -0.9859  0.4040 -0.0153
    5TMC2     H14459   3.896   2.448  15.195 -2.0012  0.9195  1.2394
    5TMC2    H114460   4.055   2.827  15.078  2.5893 -1.6873 -0.7857
    5TMC2    H214461   4.067   2.698  15.487 -1.6532  1.0970 -0.4237
    5TMC2    C714462   4.020   2.918  15.337  0.7298 -0.3595 -0.2578
    5TMC2    C814463   3.979   2.446  15.422 -0.5635  0.4634  0.1850
    5TMC2    O114464   4.041   2.948  15.455 -0.0759  0.2138 -0.4658
    5TMC2    O214465   3.959   2.336  15.374 -0.2634 -0.7931 -0.1059
    5TMC2    O514466   3.999   2.470  15.552  0.1812  0.4312  0.0629
    5TMC2    H514467   4.000   2.564  15.582  0.3149  0.1607  0.9065
    6MPD2     C14468   3.471   2.608  14.717 -1.1172 -0.5699  0.5252
    6MPD2    C114469   3.506   2.702  14.809 -0.7877  0.3683  0.1747
    6MPD2    C214470   3.610   2.684  14.899 -0.6919 -0.0242 -0.3846
    6MPD2    C314471   3.690   2.571  14.888 -0.2268  0.5928  0.3597
    6MPD2    C414472   3.656   2.473  14.793 -0.8340 -0.9338  0.5514
    6MPD2    C514473   3.543   2.490  14.711  0.4199 -0.3587  0.3172
    6MPD2     H14474   3.628   2.758  14.976 -3.3216  2.2724 -1.9801
    6MPD2    H114475   3.711   2.380  14.786  0.3810 -0.3017  1.5780
    6MPD2    H214476   3.385   2.631  14.656  0.7414  0.0827 -1.8309
    6MPD2    H314477   3.524   2.415  14.634 -0.3333  1.9512 -1.7465
    6MPD2     N14478   3.813   2.558  14.969  0.2874 -1.1503 -0.0141
    6MPD2    H514479   3.859   2.468  14.965  0.5716 -0.9260 -1.5819
    6MPD2    N114480   3.441   2.833  14.824 -0.3378  0.9597 -0.1838
    6MPD2    H714481   3.474   2.892  14.899  1.5043 -0.4458  0.1195
  945NH4     N114482   2.951   3.690   2.180 -0.2128  0.7475 -0.4545
  945NH4     H214483   3.020   3.613   2.187 -0.2076  0.7008 -1.0037
  945NH4     H314484   2.875   3.649   2.123 -0.0011  1.8992 -1.5834
  945NH4     H414485   2.996   3.769   2.128  0.8310  1.1944  1.1303
  945NH4     H514486   2.910   3.721   2.270  1.1606  2.0166 -0.2511
  946SOD     NA14487   3.682   2.804  10.197  0.2964  0.0608  0.1391
  947SOD     NA14488   2.583   1.788  16.235 -0.0395 -0.7861 -0.1434
  948SOD     NA14489   3.892   3.242  12.707  0.1315  0.7428  0.2992
  949SOD     NA14490   0.675   1.805  16.648 -0.4251 -0.4589  0.2992
  950SOD     NA14491   2.953   1.634  12.973 -0.3519 -0.2518  0.4071
  951SOD     NA14492   4.376   1.980  11.422 -0.0202  0.0191  0.4743
  952SOD     NA14493   1.514   3.320  14.969  0.1750  0.5241  0.1217
  953SOL     OW14494   1.213   0.078  14.616  0.1131  0.1815 -0.0116
  953SOL    HW114495   1.257   0.144  14.562  0.3746 -0.9060 -1.1185
  953SOL    HW214496   1.169   0.024  14.550 -0.6793  1.1775 -0.3129
  954SOL     OW14497   4.415   3.668   6.057 -0.4580 -0.1694  0.4824
  954SOL    HW114498   4.466   3.734   6.103  0.1020  1.1456 -1.9882
  954SOL    HW214499   4.477   3.597   6.041  0.1739  0.6511 -0.7810
  955SOL     OW14500   2.493   2.137   8.692  0.3486 -0.0367  0.0055
  955SOL    HW114501   2.583   2.108   8.677 -0.2439 -1.7627 -0.2147
  955SOL    HW214502   2.443   2.058   8.673 -2.3022  1.1620  2.1021
  956SOL     OW14503   0.260   4.203   3.221  0.2832 -0.4540  0.7034
  956SOL    HW114504   0.266   4.148   3.143 -0.0317  0.6031 -0.0525
  956SOL    HW214505   0.198   4.151   3.273  0.8400 -2.9424 -1.1030
  957SOL     OW14506   1.140   2.683   8.931 -0.1939 -0.1694  0.3958
  957SOL    HW114507   1.191   2.758   8.960  0.6541 -0.7963  0.5055
  957SOL    HW214508   1.094   2.665   9.013 -0.6266 -1.2274 -0.0747
  958SOL     OW14509   4.567   3.294   0.984 -0.2035  0.5588 -0.1275
  958SOL    HW114510   4.644   3.315   0.931  1.6210 -0.1192  2.2773
  958SOL    HW214511   4.590   3.203   1.000  0.7027  0.7095 -0.5685
  959SOL     OW14512   0.320   2.365  12.338 -0.5291 -0.0137 -0.7705
  959SOL    HW114513   0.311   2.459  12.349 -0.0353 -0.0772  0.2558
  959SOL    HW214514   0.261   2.350  12.265 -0.1208 -0.5612 -0.9923
  960SOL     OW14515   2.041   1.140  14.114  0.2452  0.2608  0.3296
  960SOL    HW114516   2.048   1.062  14.059  0.8547  0.4982  0.0762
  960SOL    HW214517   1.996   1.100  14.188 -0.6022  1.3131  0.3813
  961SOL     OW14518   0.455   0.814  15.456 -0.4341 -0.5046  0.2686
  961SOL    HW114519   0.487   0.724  15.451 -1.5129 -0.7608 -2.0837
  961SOL    HW214520   0.383   0.801  15.518 -1.7362 -0.0582 -1.1411
  962SOL     OW14521   2.592   2.528   8.111 -0.2090 -0.3876 -0.3103
  962SOL    HW114522   2.663   2.522   8.175  0.3629 -3.0010 -1.1710
  962SOL    HW214523   2.551   2.443   8.125 -1.1190 -0.0369 -0.8551
  963SOL     OW14524   2.055   0.282  11.911 -0.3684 -0.1637 -0.0490
  963SOL    HW114525   2.019   0.212  11.856 -0.7786 -1.6009  2.0559
  963SOL    HW214526   2.056   0.236  11.995  1.2434 -0.5451 -0.2708
  964SOL     OW14527   3.044   4.235  15.798 -0.0894  0.2049  0.0411
  964SOL    HW114528   2.987   4.168  15.838  0.6789 -1.0304 -0.9160
  964SOL    HW214529   3.058   4.298  15.868 -1.0649 -0.8274  1.1722
  965SOL     OW14530   2.777   1.389  12.487  0.3229  0.1677 -0.3965
  965SOL    HW114531   2.702   1.435  12.449  0.6174  0.8602 -0.1356
  965SOL    HW214532   2.747   1.354  12.570 -1.6932 -1.6519 -1.8956
  966SOL     OW14533   3.218   2.059   2.919  0.2636  0.0489 -0.4912
  966SOL    HW114534   3.222   1.968   2.947 -2.3146 -0.9549 -3.4253
  966SOL    HW214535   3.128   2.078   2.944 -0.0142 -2.8532  0.7603
  967SOL     OW14536   2.130   0.596   3.212  0.2802  0.5132 -0.3195
  967SOL    HW114537   2.154   0.651   3.286  2.0031  0.1322 -0.5995
  967SOL    HW214538   2.121   0.514   3.261 -0.4534  0.6789 -0.1766
  968SOL     OW14539   1.928   1.940   4.624  0.7656 -0.1338 -0.6632
  968SOL    HW114540   1.855   1.912   4.680 -0.5797 -0.5248 -2.6130
  968SOL    HW214541   1.999   1.886   4.659 -0.2642 -0.5518  0.8138
  969SOL     OW14542   0.182   1.139   3.179 -0.5431 -0.4854 -0.4488
  969SOL    HW114543   0.200   1.131   3.273 -0.0853 -0.3177 -0.5211
  969SOL    HW214544   0.097   1.184   3.172 -0.8696 -1.0404 -0.0466
  970SOL     OW14545   1.063   0.195   7.909  0.3772  0.0941  0.0652
  970SOL    HW114546   0.981   0.243   7.897  0.8807  0.3597 -2.2707
  970SOL    HW214547   1.047   0.159   7.996  2.7879  1.7461  1.2074
  971SOL     OW14548   0.255   2.547   2.306  0.7209  0.5834 -0.2067
  971SOL    HW114549   0.255   2.637   2.339 -0.2505 -0.0497  1.5327
  971SOL    HW214550   0.178   2.546   2.248  1.8431 -1.0326 -1.6756
  972SOL     OW14551   1.285   0.914   4.040  0.2353  0.1822  0.1570
  972SOL    HW114552   1.378   0.914   4.063  0.6863 -0.6944 -1.7214
  972SOL    HW214553   1.256   0.870   4.120  0.7729  3.6116  2.2177
  973SOL     OW14554   3.702   3.224  11.750 -0.4040  0.4242 -0.2367
  973SOL    HW114555   3.631   3.225  11.686  0.8164 -1.2432 -1.6190
  973SOL    HW214556   3.755   3.289  11.702  0.2195  0.2055  0.1490
  974SOL     OW14557   4.513   3.266   7.824 -0.0734 -0.3184 -0.4905
  974SOL    HW114558   4.470   3.181   7.824 -0.8268  0.0652  1.5996
  974SOL    HW214559   4.489   3.285   7.914  0.4560  0.9975 -0.6306
  975SOL     OW14560   2.845   0.274   1.591  0.1293  0.2338  0.3508
  975SOL    HW114561   2.779   0.342   1.604  1.7625  2.3319 -2.4720
  975SOL    HW214562   2.866   0.285   1.499  0.3685 -3.7555 -0.0848
  976SOL     OW14563   2.402   4.652   7.868 -0.1356  0.4044 -0.2518
  976SOL    HW114564   2.396   4.618   7.957  0.6815  2.0534  0.4055
  976SOL    HW214565   2.310   4.646   7.840 -0.7047 -1.7598  2.0832
  977SOL     OW14566   3.074   1.563   6.123  0.0838 -0.0852  0.3668
  977SOL    HW114567   3.008   1.504   6.088 -0.7762  1.0292  0.1093
  977SOL    HW214568   3.086   1.607   6.039 -0.0189  0.9731  0.9052
  978SOL     OW14569   0.891   4.658   6.850  0.0608  0.0853 -0.7184
  978SOL    HW114570   0.867   4.633   6.939  1.7551  1.5010  0.1505
  978SOL    HW214571   0.811   4.666   6.798  0.0499  1.0706 -0.5406
  979SOL     OW14572   1.993   0.064   4.955  0.1178 -0.1102  0.9377
  979SOL    HW114573   2.030   0.035   4.872  1.8674  1.9002  1.0194
  979SOL    HW214574   1.973   0.156   4.938 -1.6851 -1.1464 -2.5830
  980SOL     OW14575   0.730   2.593   3.890  0.3195 -0.7199  0.1768
  980SOL    HW114576   0.793   2.650   3.844  1.0561 -1.0748  0.7437
  980SOL    HW214577   0.650   2.645   3.881  1.3983  0.9981  0.3848
  981SOL     OW14578   1.310   4.343   6.931 -0.7653 -0.2512 -0.1348
  981SOL    HW114579   1.332   4.365   7.021  2.3773 -2.1771 -0.4306
  981SOL    HW214580   1.272   4.428   6.909  2.7729  1.7945  1.6897
  982SOL     OW14581   3.376   4.208  12.261  0.6117 -0.3736 -0.4369
  982SOL    HW114582   3.315   4.282  12.253  0.0302 -0.6900  1.0723
  982SOL    HW214583   3.411   4.203  12.350 -1.8606  1.6866  0.6875
  983SOL     OW14584   3.396   1.933   5.585 -0.0793 -0.3709  0.2684
  983SOL    HW114585   3.311   1.944   5.541  0.2331 -3.1357 -1.0372
  983SOL    HW214586   3.418   2.026   5.585  0.4214 -0.4895  0.2356
  984SOL     OW14587   1.146   2.282   7.488 -0.3976  0.0881  0.2587
  984SOL    HW114588   1.223   2.338   7.494 -0.7202  0.3397  1.8494
  984SOL    HW214589   1.103   2.298   7.571  1.3871 -0.1663  1.2346
  985SOL     OW14590   3.400   4.402   6.681 -0.2215 -0.7820  0.6444
  985SOL    HW114591   3.464   4.331   6.678  0.8828  0.3123 -1.3216
  985SOL    HW214592   3.440   4.474   6.633 -2.3091 -0.6653 -0.8999
  986SOL     OW14593   1.503   3.222   6.562  0.2960 -0.1387  0.4270
  986SOL    HW114594   1.506   3.218   6.466  0.1141 -1.0367  0.4604
  986SOL    HW214595   1.517   3.317   6.571  0.6332 -0.1868  0.4108
  987SOL     OW14596   2.892   2.755  13.776  0.7030 -0.0816  0.5784
  987SOL    HW114597   2.873   2.687  13.711 -0.8977  1.9636 -1.0791
  987SOL    HW214598   2.985   2.776  13.761  0.2567  1.0097 -0.6669
  988SOL     OW14599   4.145   1.716  11.803 -0.3776 -0.1205  0.5183
  988SOL    HW114600   4.176   1.695  11.715 -0.9188  1.7905 -0.1097
  988SOL    HW214601   4.199   1.655  11.854 -0.5735 -2.1965 -1.7268
  989SOL     OW14602   0.818   0.982   4.986 -0.3891 -0.4055  0.0354
  989SOL    HW114603   0.859   0.977   4.900  1.2803 -3.0299  0.9585
  989SOL    HW214604   0.851   1.069   5.008 -0.5366  0.1987 -2.1368
  990SOL     OW14605   2.018   3.887  13.565 -0.5677  0.0358 -0.3565
  990SOL    HW114606   2.099   3.936  13.551 -0.6695  0.4486  0.5344
  990SOL    HW214607   1.941   3.945  13.573 -0.0748  0.5661  0.4885
  991SOL     OW14608   1.687   4.591   8.616 -0.0126 -0.1881 -0.3896
  991SOL    HW114609   1.759   4.528   8.614  0.0163 -0.2001  1.3309
  991SOL    HW214610   1.736   4.667   8.648 -1.3136  0.4958 -0.0326
  992SOL     OW14611   2.266   0.775   8.647  0.5106 -0.5296 -0.0273
  992SOL    HW114612   2.353   0.808   8.627  0.7130 -0.6895  0.5780
  992SOL    HW214613   2.242   0.742   8.561  1.6062  0.5500 -0.7319
  993SOL     OW14614   2.007   0.193   9.805  0.1103 -0.2937 -0.2341
  993SOL    HW114615   2.062   0.126   9.844  3.9005  2.2294 -1.2300
  993SOL    HW214616   1.945   0.201   9.877 -0.1676  1.3656 -0.6532
  994SOL     OW14617   2.614   2.287  16.283  0.3217 -0.0903 -0.1251
  994SOL    HW114618   2.602   2.341  16.205 -0.5386 -1.1633 -0.7261
  994SOL    HW214619   2.708   2.278  16.271 -0.0560  1.6530 -4.2295
  995SOL     OW14620   3.872   2.116  12.664  0.5078 -0.5141  0.2294
  995SOL    HW114621   3.930   2.047  12.694 -0.1640 -1.6092 -0.9611
  995SOL    HW214622   3.925   2.195  12.660 -1.2023  0.5673 -1.3475
  996SOL     OW14623   2.661   3.133  11.839  0.4515  0.0514  0.3225
  996SOL    HW114624   2.686   3.220  11.871 -2.0038  0.4884  1.0565
  996SOL    HW214625   2.645   3.072  11.910  0.9610  0.3351  0.6799
  997SOL     OW14626   0.109   3.734   4.480 -0.6184  0.1375  0.3615
  997SOL    HW114627   0.104   3.829   4.493  0.1991  0.3999 -1.2759
  997SOL    HW214628   0.166   3.716   4.555 -1.0715  1.8986  1.1355
  998SOL     OW14629   1.197   2.252   8.593  0.4913  0.4239  0.2902
  998SOL    HW114630   1.168   2.263   8.683  1.8486 -0.5086  0.8334
  998SOL    HW214631   1.281   2.297   8.582 -0.4428  1.9410 -0.7045
  999SOL     OW14632   3.449   0.843   5.440 -0.0864 -0.0776  0.0569
  999SOL    HW114633   3.375   0.849   5.500  0.4906  0.3817  0.7286
  999SOL    HW214634   3.486   0.762   5.477  1.6048  1.9416  2.8074
 1000SOL     OW14635   3.209   3.850  12.039 -0.0688 -0.3905  0.1227
 1000SOL    HW114636   3.156   3.887  12.110 -1.7282  1.2162 -1.9378
 1000SOL    HW214637   3.295   3.887  12.057  0.7385 -1.8956 -0.6612
 1001SOL     OW14638   0.962   2.641   6.729 -0.2089  0.2422  0.5960
 1001SOL    HW114639   0.902   2.580   6.771 -0.4397 -0.1636 -0.3285
 1001SOL    HW214640   0.931   2.640   6.638  1.1962 -0.8390  0.1307
 1002SOL     OW14641   0.699   2.909  16.287  0.6305 -0.1036  0.3853
 1002SOL    HW114642   0.744   2.993  16.303  2.9499 -1.2962  0.1576
 1002SOL    HW214643   0.632   2.916  16.355  0.4752  0.7172  0.1522
 1003SOL     OW14644   1.236   3.288   4.805 -0.4568  0.4704 -0.1695
 1003SOL    HW114645   1.208   3.217   4.748 -0.4693  1.7152 -1.7080
 1003SOL    HW214646   1.317   3.247   4.837 -1.0432 -2.1527 -2.0688
 1004SOL     OW14647   0.184   3.335   0.101 -0.1664  0.3976 -0.6084
 1004SOL    HW114648   0.244   3.406   0.079  1.2568 -0.1706  1.4131
 1004SOL    HW214649   0.179   3.305   0.010 -2.3660  0.5647 -0.5616
 1005SOL     OW14650   1.261   3.737   6.339 -0.3770  0.1305 -0.5867
 1005SOL    HW114651   1.244   3.770   6.427 -1.8106  0.4840 -0.9946
 1005SOL    HW214652   1.339   3.788   6.318  0.0414 -0.2744 -0.0254
 1006SOL     OW14653   0.146   1.717   8.603  0.9539  0.1069  0.2698
 1006SOL    HW114654   0.178   1.803   8.628 -0.0730  0.0058  1.9254
 1006SOL    HW214655   0.062   1.709   8.646  0.2242 -0.2358 -1.2028
 1007SOL     OW14656   0.116   2.140  16.346 -0.0968  0.2175 -0.3635
 1007SOL    HW114657   0.078   2.062  16.387 -0.5063  0.0429 -1.0753
 1007SOL    HW214658   0.204   2.138  16.384 -0.6835  4.1435  1.1486
 1008SOL     OW14659   4.018   3.395   8.389 -0.2887 -0.6915  0.0485
 1008SOL    HW114660   4.001   3.486   8.416 -1.1841 -0.6833 -0.5493
 1008SOL    HW214661   3.962   3.388   8.312 -0.6351  0.1085  0.2314
 1009SOL     OW14662   0.329   4.683   8.393 -0.4366  0.4878 -0.6094
 1009SOL    HW114663   0.351   4.595   8.424 -2.6984  0.3759  0.6821
 1009SOL    HW214664   0.358   4.733   8.469  1.3422 -2.0028  0.3517
 1010SOL     OW14665   1.160   2.795   3.813  0.3205 -0.6209 -0.3863
 1010SOL    HW114666   1.189   2.708   3.841 -1.3501 -1.0017  0.1621
 1010SOL    HW214667   1.068   2.799   3.839  0.8627  3.5130  1.0608
 1011SOL     OW14668   0.751   3.627   2.063 -0.1400 -0.1758  0.0640
 1011SOL    HW114669   0.771   3.709   2.108  2.3405 -1.4273  1.2380
 1011SOL    HW214670   0.789   3.647   1.978 -0.9463 -1.7314 -0.6650
 1012SOL     OW14671   4.589   2.117   8.966 -0.6243  0.1165 -0.2746
 1012SOL    HW114672   4.590   2.098   9.060  1.4410  2.6759  0.2021
 1012SOL    HW214673   4.557   2.207   8.969 -4.8698 -1.4245  1.7697
 1013SOL     OW14674   0.672   2.398   2.609  0.0667 -0.2820  0.0983
 1013SOL    HW114675   0.577   2.413   2.605 -0.2523 -2.0441  1.1518
 1013SOL    HW214676   0.673   2.332   2.678 -0.9763 -1.6804 -1.2308
 1014SOL     OW14677   0.711   1.978   2.603  0.0914 -0.1256 -0.3297
 1014SOL    HW114678   0.651   1.904   2.592 -0.5962  0.6359 -1.6441
 1014SOL    HW214679   0.684   2.026   2.682  0.4410 -0.8276  0.2111
 1015SOL     OW14680   1.081   0.010  16.746 -0.2158  0.2241  0.3437
 1015SOL    HW114681   1.071   4.709  16.834  0.1177  1.0808  0.7376
 1015SOL    HW214682   1.108   4.668  16.696  1.8503 -0.6558  2.8142
 1016SOL     OW14683   3.597   3.328   2.783  0.1532  0.2304 -0.1512
 1016SOL    HW114684   3.666   3.393   2.770 -0.1464  0.5257 -0.2827
 1016SOL    HW214685   3.521   3.372   2.745 -1.1364 -2.7521 -0.9480
 1017SOL     OW14686   2.358   4.303   7.023  0.7662  0.1942 -0.0427
 1017SOL    HW114687   2.411   4.342   6.954  2.0374 -0.0093  0.8154
 1017SOL    HW214688   2.281   4.360   7.020  0.7937  0.2553  0.4109
 1018SOL     OW14689   3.379   4.275  16.660  0.2362 -0.0746 -0.1291
 1018SOL    HW114690   3.425   4.350  16.623 -0.0835  0.2786  0.1838
 1018SOL    HW214691   3.350   4.317  16.742  0.9197  2.5415 -1.2116
 1019SOL     OW14692   0.472   0.281   4.388 -0.0035 -0.4786  0.1096
 1019SOL    HW114693   0.488   0.292   4.482 -2.5689 -3.0495  0.8340
 1019SOL    HW214694   0.527   0.353   4.357  0.9501 -1.7889 -1.2235
 1020SOL     OW14695   2.016   3.263   7.553  0.6780  0.4700 -0.2018
 1020SOL    HW114696   1.980   3.214   7.626 -0.1079  0.9583 -0.2603
 1020SOL    HW214697   1.967   3.345   7.554  0.6111  0.4379 -0.8539
 1021SOL     OW14698   1.602   2.188   4.496 -0.1635  0.0958  0.8929
 1021SOL    HW114699   1.554   2.260   4.535 -3.2011 -0.0709 -2.5167
 1021SOL    HW214700   1.523   2.134   4.486  1.5852 -1.6570 -3.8896
 1022SOL     OW14701   0.395   3.315  16.816 -0.4382 -0.2039 -0.2589
 1022SOL    HW114702   0.377   3.245  16.753  1.0393 -1.7815  1.0932
 1022SOL    HW214703   0.470   3.356  16.774 -0.1155 -0.7770 -0.2372
 1023SOL     OW14704   3.203   1.863   0.098  0.1489  0.6227 -0.4381
 1023SOL    HW114705   3.189   1.881   0.191  1.0116 -0.0044 -0.1856
 1023SOL    HW214706   3.298   1.857   0.101  0.2078  1.3458 -0.9637
 1024SOL     OW14707   0.116   3.817   1.938 -0.6454  0.2846  0.0111
 1024SOL    HW114708   0.131   3.722   1.941  0.7255  0.4701 -0.7196
 1024SOL    HW214709   0.022   3.811   1.922 -0.5119  1.8108 -1.4208
 1025SOL     OW14710   2.838   3.137   8.327  1.0335  0.1742 -0.0511
 1025SOL    HW114711   2.919   3.145   8.277 -0.5513  2.1645 -2.2857
 1025SOL    HW214712   2.860   3.107   8.415  2.8460  0.4731 -0.4209
 1026SOL     OW14713   2.724   4.516   0.697  0.1689 -0.4780  0.1672
 1026SOL    HW114714   2.663   4.511   0.771 -0.5719 -1.3243 -0.5028
 1026SOL    HW214715   2.759   4.604   0.706 -1.9584  0.4578 -0.6050
 1027SOL     OW14716   3.698   1.310   3.321  0.3802 -0.1867 -0.0521
 1027SOL    HW114717   3.791   1.301   3.303  0.3433 -0.6957  0.0121
 1027SOL    HW214718   3.659   1.295   3.235 -0.3164  1.3871 -0.0012
 1028SOL     OW14719   2.575   4.530   1.841  0.5263  0.7080  0.2193
 1028SOL    HW114720   2.560   4.441   1.810 -0.1916  0.5141  1.1276
 1028SOL    HW214721   2.498   4.553   1.894  1.3203 -1.2891  2.2225
 1029SOL     OW14722   4.171   2.818   4.830 -0.6760 -0.0685  0.2539
 1029SOL    HW114723   4.255   2.772   4.822 -0.2317  0.8962 -0.6679
 1029SOL    HW214724   4.118   2.746   4.863 -0.3781 -0.5885 -0.4041
 1030SOL     OW14725   4.542   3.006  10.692  0.0474  0.0281  0.3991
 1030SOL    HW114726   4.470   3.046  10.742 -1.3421 -0.2600 -1.3512
 1030SOL    HW214727   4.546   2.921  10.736 -0.4127 -1.0737 -1.6954
 1031SOL     OW14728   3.387   0.834   7.048 -0.3824  0.4067 -0.5608
 1031SOL    HW114729   3.408   0.897   6.980  0.6863  0.9397  0.2637
 1031SOL    HW214730   3.464   0.777   7.052 -0.5103  0.2946  0.3497
 1032SOL     OW14731   2.371   4.039   2.582 -0.6459 -0.0064  0.2434
 1032SOL    HW114732   2.401   4.075   2.666  0.6785  1.6295 -0.9198
 1032SOL    HW214733   2.433   3.968   2.569  0.4280  1.1987 -1.1364
 1033SOL     OW14734   0.428   1.576   2.148  0.0105 -0.8676  0.1105
 1033SOL    HW114735   0.479   1.649   2.112  0.8954 -0.8757  1.3389
 1033SOL    HW214736   0.449   1.503   2.091 -0.6497 -2.0276  1.3521
 1034SOL     OW14737   0.696   1.841   7.690  0.0224  0.4405 -0.2731
 1034SOL    HW114738   0.624   1.897   7.661  0.6406  0.2910 -2.1015
 1034SOL    HW214739   0.768   1.898   7.665  2.9077 -2.1835  2.1710
 1035SOL     OW14740   1.804   2.475  14.804  0.3936 -0.0949 -0.0069
 1035SOL    HW114741   1.882   2.483  14.748 -0.0937  0.5447 -0.5875
 1035SOL    HW214742   1.850   2.483  14.887  0.1226  0.1258  0.1201
 1036SOL     OW14743   1.220   1.564   4.451  0.2089 -1.1575 -0.1288
 1036SOL    HW114744   1.204   1.644   4.500 -1.3291 -2.0684  0.8856
 1036SOL    HW214745   1.132   1.544   4.418  0.1900 -0.1295 -0.6762
 1037SOL     OW14746   2.329   0.340   7.891  0.0778 -0.9521  0.1273
 1037SOL    HW114747   2.400   0.330   7.954 -1.2842 -0.4272  1.7532
 1037SOL    HW214748   2.285   0.415   7.932  1.7105  0.7568 -1.1953
 1038SOL     OW14749   2.943   0.264   5.927  0.2796 -0.3634  0.0571
 1038SOL    HW114750   2.968   0.197   5.991 -0.3922 -1.7027 -1.1052
 1038SOL    HW214751   2.871   0.222   5.880  0.3708 -2.5237  1.8612
 1039SOL     OW14752   2.955   0.836   4.463  0.5462  0.1824  0.0841
 1039SOL    HW114753   2.865   0.849   4.491 -0.0295 -0.8367 -1.2606
 1039SOL    HW214754   2.995   0.909   4.510 -0.1674 -0.3231  1.4822
 1040SOL     OW14755   4.059   0.591   8.704 -0.2856  0.5725  0.0433
 1040SOL    HW114756   4.008   0.513   8.683  2.0998 -0.7291 -0.9483
 1040SOL    HW214757   3.984   0.650   8.712 -1.7608 -1.3898  0.6581
 1041SOL     OW14758   4.107   1.458   9.309  0.1596 -0.2426  0.0859
 1041SOL    HW114759   4.178   1.414   9.263  1.6000  1.3703  0.7591
 1041SOL    HW214760   4.079   1.526   9.249 -0.8053 -0.6182  0.1131
 1042SOL     OW14761   3.924   3.600   0.383 -0.0567 -0.4872  0.0508
 1042SOL    HW114762   3.972   3.519   0.399  0.5237 -0.1660 -0.0827
 1042SOL    HW214763   3.982   3.655   0.435  1.6678 -0.6753 -1.6922
 1043SOL     OW14764   3.531   2.803   8.617  0.2031 -0.4393 -0.0792
 1043SOL    HW114765   3.534   2.875   8.680  0.0982 -1.2770  0.8894
 1043SOL    HW214766   3.456   2.753   8.648 -0.0384  0.4160  0.7231
 1044SOL     OW14767   1.753   3.342  14.950  0.1186 -0.2882  0.3615
 1044SOL    HW114768   1.806   3.275  14.992  0.3749  0.6457  1.5264
 1044SOL    HW214769   1.826   3.399  14.925  1.5793 -1.6533  1.5238
 1045SOL     OW14770   3.277   3.510   5.689 -0.2044  0.4129  0.8497
 1045SOL    HW114771   3.244   3.517   5.779 -0.2875  2.4133  0.6678
 1045SOL    HW214772   3.361   3.463   5.692 -1.2420 -1.4079  1.3795
 1046SOL     OW14773   3.913   2.894   8.134  0.2735  0.1621  0.0852
 1046SOL    HW114774   3.992   2.933   8.170  0.2535  1.2727 -1.0921
 1046SOL    HW214775   3.926   2.799   8.140  1.0550  0.2889  0.3199
 1047SOL     OW14776   0.288   2.271   0.507 -0.2851  0.4325  0.1946
 1047SOL    HW114777   0.330   2.348   0.470 -2.0546  0.8462 -0.9877
 1047SOL    HW214778   0.278   2.216   0.428 -1.1903  0.2927  0.4013
 1048SOL     OW14779   3.386   1.842   8.920  1.1357 -0.0197 -0.6176
 1048SOL    HW114780   3.446   1.791   8.866  0.8582 -1.9464  0.8809
 1048SOL    HW214781   3.351   1.775   8.980  2.2932 -2.0115 -2.1472
 1049SOL     OW14782   2.731   3.796   4.887  0.5468 -0.2794  0.2477
 1049SOL    HW114783   2.710   3.880   4.927  2.2951 -0.8525  2.3589
 1049SOL    HW214784   2.727   3.735   4.961  1.0218  1.1191  1.4269
 1050SOL     OW14785   2.373   3.485  16.565  0.5767 -0.3782  0.0933
 1050SOL    HW114786   2.281   3.459  16.578  0.3645  1.1850  1.7699
 1050SOL    HW214787   2.374   3.565  16.617  2.4722 -0.7081  0.5605
 1051SOL     OW14788   2.345   1.405   5.850 -1.0489  0.4462  0.1915
 1051SOL    HW114789   2.269   1.452   5.885 -1.7917  0.3235 -1.2474
 1051SOL    HW214790   2.318   1.346   5.779 -0.2437 -1.1713  1.2365
 1052SOL     OW14791   2.138   3.843   2.221  0.4530 -0.7282 -0.1839
 1052SOL    HW114792   2.080   3.917   2.239  1.2234 -0.7014  2.3408
 1052SOL    HW214793   2.082   3.789   2.166  0.1503  0.3759 -0.9458
 1053SOL     OW14794   2.970   3.300   5.456 -0.0792 -0.2533 -0.1829
 1053SOL    HW114795   3.025   3.222   5.443  1.7788  0.7316  1.7961
 1053SOL    HW214796   2.881   3.266   5.463  0.1471 -0.9275 -0.6201
 1054SOL     OW14797   0.074   3.426   1.717  0.7044  0.7109  0.2473
 1054SOL    HW114798   0.153   3.372   1.711 -0.1993 -0.5525 -0.2995
 1054SOL    HW214799   0.071   3.474   1.634 -1.9505  0.0608 -0.0405
 1055SOL     OW14800   4.697   1.563   1.984 -0.1334  0.6085  0.2553
 1055SOL    HW114801   4.629   1.587   2.048 -0.6040 -1.2487  0.4300
 1055SOL    HW214802   0.026   1.533   2.048 -0.9580 -2.0835 -0.2135
 1056SOL     OW14803   1.583   2.100   0.165  0.6322  0.4469  0.2889
 1056SOL    HW114804   1.513   2.090   0.101 -0.2135 -1.7370  1.5337
 1056SOL    HW214805   1.533   2.125   0.243 -1.6114  0.8972 -1.2755
 1057SOL     OW14806   2.318   2.923  12.346  0.0763 -0.0173 -0.2501
 1057SOL    HW114807   2.284   3.012  12.338 -1.5054 -0.5048  1.1496
 1057SOL    HW214808   2.401   2.946  12.388 -0.5359  0.2777  0.7854
 1058SOL     OW14809   4.085   3.802   8.050  0.1444 -0.3321 -0.2656
 1058SOL    HW114810   4.160   3.838   8.097 -1.9568  2.4676  0.8836
 1058SOL    HW214811   4.132   3.727   8.012 -2.6031 -2.3888  0.4291
 1059SOL     OW14812   1.655   1.445  12.861 -0.0629  0.3882 -0.5840
 1059SOL    HW114813   1.728   1.429  12.801 -0.4836  2.0188 -1.5179
 1059SOL    HW214814   1.597   1.505  12.814 -0.6218  1.9355  2.1191
 1060SOL     OW14815   3.500   2.396   4.152  0.2395  0.2471 -0.3845
 1060SOL    HW114816   3.466   2.431   4.070 -1.9487  0.3482  0.5800
 1060SOL    HW214817   3.510   2.483   4.190  1.4693 -1.1538  2.4989
 1061SOL     OW14818   1.399   2.330   1.035  0.7864  0.1484 -0.1597
 1061SOL    HW114819   1.375   2.266   1.102  2.9266  2.4534  2.8251
 1061SOL    HW214820   1.386   2.411   1.083 -0.2024 -0.0731 -0.0409
 1062SOL     OW14821   3.873   3.606   4.062 -0.0150 -0.4874  0.3950
 1062SOL    HW114822   3.895   3.515   4.079  2.4462 -0.2470 -1.4748
 1062SOL    HW214823   3.913   3.622   3.977  0.7622 -2.7167  0.3451
 1063SOL     OW14824   3.681   0.507   8.233  0.2826 -0.1983 -0.5411
 1063SOL    HW114825   3.648   0.594   8.208  0.0786  0.0001  0.4155
 1063SOL    HW214826   3.593   0.480   8.259  0.8068 -0.9035  0.4804
 1064SOL     OW14827   2.876   4.713   2.014 -0.1472  0.1371  0.1179
 1064SOL    HW114828   2.906   0.031   1.941  0.3797  0.4964  0.6015
 1064SOL    HW214829   2.817   0.040   2.056  0.5685  1.1550 -0.4050
 1065SOL     OW14830   4.177   2.318   9.236 -0.8278  0.9678 -0.3481
 1065SOL    HW114831   4.134   2.236   9.261 -2.4875  2.2719  1.1149
 1065SOL    HW214832   4.256   2.310   9.290 -0.5253  2.0913 -0.6257
 1066SOL     OW14833   2.064   1.141   8.352 -0.0265  0.0196 -0.1375
 1066SOL    HW114834   1.975   1.106   8.344 -0.1638  0.7911 -2.0214
 1066SOL    HW214835   2.085   1.147   8.445  1.3614  0.5274 -0.4772
 1067SOL     OW14836   0.480   0.874   4.499 -0.4260  0.1275 -0.0695
 1067SOL    HW114837   0.425   0.951   4.510 -2.0082 -0.9598 -0.3060
 1067SOL    HW214838   0.420   0.816   4.546 -0.1139 -0.7512 -0.7582
 1068SOL     OW14839   1.031   3.432   8.572  0.7876  0.2533  0.0311
 1068SOL    HW114840   1.090   3.502   8.543  1.8446  0.7733  3.4378
 1068SOL    HW214841   1.015   3.383   8.491 -0.5118  0.3263  0.2360
 1069SOL     OW14842   0.112   1.889   2.722 -0.6287 -0.4038 -0.2146
 1069SOL    HW114843   0.016   1.888   2.713 -0.5029 -0.2883 -1.5727
 1069SOL    HW214844   0.139   1.883   2.630  0.2498  2.1649 -0.1410
 1070SOL     OW14845   1.080   2.363  15.302  0.0091 -0.0637  0.1483
 1070SOL    HW114846   1.012   2.385  15.366  0.8949 -0.7759  1.3347
 1070SOL    HW214847   1.022   2.355  15.226  0.2450 -0.4035  0.0072
 1071SOL     OW14848   2.996   1.165   1.889 -0.2428  0.0839 -0.2463
 1071SOL    HW114849   2.978   1.258   1.898  1.0875  0.6807 -3.9144
 1071SOL    HW214850   3.090   1.156   1.878 -0.0953  0.1954  0.9251
 1072SOL     OW14851   3.928   1.686   0.058 -0.4346 -0.2500 -0.3824
 1072SOL    HW114852   4.011   1.699   0.104 -1.0515  0.6389  0.4955
 1072SOL    HW214853   3.876   1.751   0.106 -1.4790 -0.3655 -1.3511
 1073SOL     OW14854   0.695   3.580   0.311 -0.1584 -0.0067  0.2505
 1073SOL    HW114855   0.627   3.528   0.269  0.3648  0.3455 -1.0289
 1073SOL    HW214856   0.774   3.541   0.272 -1.4498 -0.6091 -1.7288
 1074SOL     OW14857   4.323   1.315   8.492 -0.3343  0.4612  0.0626
 1074SOL    HW114858   4.271   1.246   8.453 -0.6890  0.5675  0.3442
 1074SOL    HW214859   4.321   1.386   8.428  0.7262  0.3435 -0.1064
 1075SOL     OW14860   1.630   4.505   3.855  0.0951  0.1042  0.1286
 1075SOL    HW114861   1.699   4.460   3.806  1.4210  0.3137  1.7702
 1075SOL    HW214862   1.621   4.448   3.931  1.2854 -0.2829 -0.0085
 1076SOL     OW14863   1.980   3.883   0.683  0.0451 -0.2098  0.6331
 1076SOL    HW114864   2.003   3.968   0.646 -1.3943 -0.6184 -1.2529
 1076SOL    HW214865   2.056   3.827   0.666  0.5829  0.5420  0.5803
 1077SOL     OW14866   1.803   0.736   9.010  0.4906 -0.0757  0.7225
 1077SOL    HW114867   1.743   0.741   9.084 -0.9343 -2.0263 -0.3042
 1077SOL    HW214868   1.736   0.753   8.942  2.5708 -0.8790 -1.5323
 1078SOL     OW14869   2.148   1.139   4.254 -0.4537  0.3690 -0.0078
 1078SOL    HW114870   2.155   1.221   4.205 -3.0433  1.1711  0.9550
 1078SOL    HW214871   2.166   1.159   4.345  0.4722 -0.4549 -0.0160
 1079SOL     OW14872   4.016   4.670   6.761 -0.1198  0.0548  0.0338
 1079SOL    HW114873   4.002   4.591   6.813 -2.9868  0.6534  0.1647
 1079SOL    HW214874   4.107   4.677   6.731  0.5537  0.0729  2.0434
 1080SOL     OW14875   1.001   3.724   6.550  0.1667  0.3147  0.1164
 1080SOL    HW114876   0.928   3.782   6.530  0.7639  0.9955 -0.0600
 1080SOL    HW214877   1.076   3.775   6.583  0.1920 -1.9021  3.5201
 1081SOL     OW14878   0.682   3.825   3.171  0.3410 -0.2763  0.0462
 1081SOL    HW114879   0.636   3.894   3.218 -0.3868  1.6612 -3.5056
 1081SOL    HW214880   0.650   3.747   3.216 -0.0929  1.0177  2.0143
 1082SOL     OW14881   2.962   4.067   6.916 -0.1810 -0.0069  0.5441
 1082SOL    HW114882   2.921   4.081   6.831 -0.0622 -1.5414  0.2271
 1082SOL    HW214883   3.048   4.038   6.887 -0.9826 -2.5238  0.6942
 1083SOL     OW14884   1.954   2.533  11.073 -0.1387  0.4152 -0.2582
 1083SOL    HW114885   2.020   2.508  11.009  0.5932 -1.8590  1.3948
 1083SOL    HW214886   2.004   2.556  11.151 -0.9740  1.1578  0.0664
 1084SOL     OW14887   0.015   0.949  14.317  0.3389  0.0551  0.0045
 1084SOL    HW114888   0.105   0.946  14.350 -0.8546 -1.3687  3.1729
 1084SOL    HW214889   0.023   0.993  14.232  1.2636 -0.5876 -0.2396
 1085SOL     OW14890   2.470   4.213   2.799  0.5105  0.2165  0.1947
 1085SOL    HW114891   2.545   4.273   2.805  0.1163  0.6986  0.2336
 1085SOL    HW214892   2.491   4.146   2.865 -0.7744 -0.2088  0.1685
 1086SOL     OW14893   1.274   2.906  12.958  0.0386 -0.0584  0.2646
 1086SOL    HW114894   1.334   2.903  13.033 -1.5594 -0.0765  1.5389
 1086SOL    HW214895   1.340   2.899  12.889 -0.7584 -1.2142 -0.3828
 1087SOL     OW14896   4.334   4.690   3.379 -0.1272  0.5568  0.5792
 1087SOL    HW114897   4.412   4.689   3.435  0.9352  1.1303 -0.8807
 1087SOL    HW214898   4.344   4.607   3.332  1.8380 -1.1200  3.8980
 1088SOL     OW14899   1.690   3.221   3.731  0.2702 -0.6772 -0.2130
 1088SOL    HW114900   1.699   3.182   3.644 -2.9025 -1.2345 -0.2962
 1088SOL    HW214901   1.596   3.209   3.740  0.1810  0.1064 -0.1635
 1089SOL     OW14902   2.860   3.979   2.052 -0.5396 -0.3785  0.3641
 1089SOL    HW114903   2.885   4.011   1.966 -0.2194 -1.0233  0.2143
 1089SOL    HW214904   2.781   4.031   2.069 -0.5805 -0.6280  0.9477
 1090SOL     OW14905   1.020   0.683   3.939 -0.9995  0.5205 -0.7388
 1090SOL    HW114906   0.928   0.692   3.965 -0.6373 -1.3805  1.1751
 1090SOL    HW214907   1.030   0.589   3.956 -1.4964 -0.1601 -4.0514
 1091SOL     OW14908   0.507   4.642   7.472 -0.4041 -0.1696  0.2460
 1091SOL    HW114909   0.483   4.674   7.559 -3.5797  0.1715 -0.7505
 1091SOL    HW214910   0.418   4.639   7.436  0.2947 -0.1458 -1.4906
 1092SOL     OW14911   3.923   2.029   5.950 -0.0972  0.2635  0.0738
 1092SOL    HW114912   4.002   1.993   5.990 -0.1684  0.0883  0.0548
 1092SOL    HW214913   3.904   2.092   6.020  0.8228 -0.4305  0.9460
 1093SOL     OW14914   0.004   1.447  14.475 -0.3243 -0.3966 -0.1099
 1093SOL    HW114915   4.663   1.390  14.485 -1.3735  1.0518  0.1608
 1093SOL    HW214916   4.715   1.529  14.519  0.0154 -0.1842 -0.3197
 1094SOL     OW14917   0.056   1.581  14.850 -0.3677  0.5407 -0.2737
 1094SOL    HW114918   0.026   1.604  14.763  0.1234  0.2540 -0.5199
 1094SOL    HW214919   0.041   1.666  14.891 -3.4999  0.0375 -0.3935
 1095SOL     OW14920   1.875   3.337  14.690  0.8640  0.5508  0.2542
 1095SOL    HW114921   1.839   3.290  14.765  1.5667 -0.0338  0.2237
 1095SOL    HW214922   1.889   3.421  14.732 -0.2953 -0.0388  1.8334
 1096SOL     OW14923   0.003   1.119   0.376  0.5182 -0.6277 -0.1681
 1096SOL    HW114924   0.077   1.058   0.380  0.9375 -0.1851 -1.2938
 1096SOL    HW214925   0.045   1.197   0.340 -1.5468  0.4028 -0.3539
 1097SOL     OW14926   3.562   1.923   1.445 -0.4133 -0.6977 -0.3147
 1097SOL    HW114927   3.546   1.942   1.537  0.9518  0.6845 -0.3594
 1097SOL    HW214928   3.626   1.852   1.453  0.6798  0.2517 -0.4532
 1098SOL     OW14929   0.628   2.220   9.524 -0.0549  0.2010 -0.8127
 1098SOL    HW114930   0.683   2.252   9.595 -2.3471 -1.2494  1.6035
 1098SOL    HW214931   0.561   2.286   9.507 -1.6627 -1.1066  0.3517
 1099SOL     OW14932   0.679   0.309   8.770 -0.0305 -0.7097  0.0082
 1099SOL    HW114933   0.607   0.337   8.714  1.5187 -1.4271 -2.3587
 1099SOL    HW214934   0.758   0.323   8.717 -0.8604 -1.7723 -1.5015
 1100SOL     OW14935   0.368   1.334   9.068 -0.1435 -0.1653  0.2520
 1100SOL    HW114936   0.310   1.374   9.004  0.3671 -0.7141 -0.5623
 1100SOL    HW214937   0.363   1.397   9.140  0.7679 -0.8942  0.9647
 1101SOL     OW14938   3.081   3.457   4.073 -0.2894 -0.5662  0.0316
 1101SOL    HW114939   3.092   3.549   4.097 -0.1962 -0.0616 -1.9370
 1101SOL    HW214940   3.014   3.440   4.139  0.7106 -0.0249  1.1694
 1102SOL     OW14941   4.348   3.798   1.661  0.3030 -0.1191  0.2450
 1102SOL    HW114942   4.373   3.720   1.710  2.2970  0.4303  0.1063
 1102SOL    HW214943   4.400   3.780   1.583 -1.7265  1.6543 -1.5184
 1103SOL     OW14944   0.201   0.242   4.286 -0.0706 -0.0658 -0.2540
 1103SOL    HW114945   0.202   0.311   4.220 -1.0633 -0.7068 -0.9398
 1103SOL    HW214946   0.296   0.228   4.288  0.2803  2.3832  0.5339
 1104SOL     OW14947   0.699   4.346  10.891  0.2196 -0.1638  0.5396
 1104SOL    HW114948   0.623   4.296  10.919  0.1713 -0.5789 -0.3334
 1104SOL    HW214949   0.762   4.327  10.961  1.9178  2.0773 -0.3660
 1105SOL     OW14950   1.142   4.119   7.805 -0.2457  0.2568  0.1810
 1105SOL    HW114951   1.126   4.177   7.880 -0.3262 -0.8752  1.0480
 1105SOL    HW214952   1.207   4.168   7.755 -0.8319 -0.6022 -1.4383
 1106SOL     OW14953   3.969   1.430   7.866 -0.4846  0.3334 -0.6838
 1106SOL    HW114954   3.976   1.335   7.873  1.1645  0.3958 -1.3999
 1106SOL    HW214955   4.006   1.444   7.779 -1.1274 -1.2729 -1.2098
 1107SOL     OW14956   3.669   1.185   4.521 -0.2517  0.0890  0.4199
 1107SOL    HW114957   3.625   1.219   4.442  0.7480  1.1531  0.3197
 1107SOL    HW214958   3.625   1.100   4.527 -1.0839  0.5415  0.7144
 1108SOL     OW14959   1.137   0.742  16.861 -0.1770  0.0224 -0.0825
 1108SOL    HW114960   1.172   0.813  16.807  1.8598  1.4582  3.1271
 1108SOL    HW214961   1.178   0.666  16.821  0.8000  1.1031 -1.1498
 1109SOL     OW14962   4.369   2.675   9.059  0.1738 -0.2216 -0.0811
 1109SOL    HW114963   4.365   2.634   8.973 -1.5847 -1.5663  0.6571
 1109SOL    HW214964   4.285   2.643   9.089 -0.3374  1.4872  0.3313
 1110SOL     OW14965   2.970   0.186  14.241 -0.9283  0.4260  0.0279
 1110SOL    HW114966   3.018   0.174  14.159  1.3931  2.3345  1.1036
 1110SOL    HW214967   3.025   0.260  14.268  0.0305 -0.2524 -0.0519
 1111SOL     OW14968   1.139   0.007   2.086  0.0548  0.0690  0.2435
 1111SOL    HW114969   1.131   4.663   2.033  2.9674  0.7933 -1.2525
 1111SOL    HW214970   1.050   0.021   2.120  0.2220  2.6564 -0.3581
 1112SOL     OW14971   3.460   3.305   4.972 -0.1687  0.0314 -0.4542
 1112SOL    HW114972   3.499   3.323   5.058  1.5824 -1.7711 -0.8753
 1112SOL    HW214973   3.368   3.311   5.000  0.3088  2.4318  0.6162
 1113SOL     OW14974   0.041   3.195   1.154  0.3424  0.1726  0.0225
 1113SOL    HW114975   0.119   3.176   1.205  0.3693 -0.1681 -0.1474
 1113SOL    HW214976   4.715   3.227   1.221 -0.2399 -0.9485  0.0318
 1114SOL     OW14977   4.357   2.936   1.959 -0.3872 -0.4203  0.7451
 1114SOL    HW114978   4.349   3.027   1.934 -1.4272 -0.4943  0.8083
 1114SOL    HW214979   4.450   2.919   1.974 -0.9246 -1.8864  2.5563
 1115SOL     OW14980   2.090   3.537   5.559 -0.1528 -0.4894  0.6783
 1115SOL    HW114981   2.150   3.606   5.588 -1.1666  0.2730  0.9445
 1115SOL    HW214982   2.108   3.476   5.630 -1.0598 -0.1230  1.2223
 1116SOL     OW14983   3.946   1.615   4.473  0.2978  0.6152  1.0162
 1116SOL    HW114984   3.986   1.534   4.506 -0.0568 -0.3940 -1.0027
 1116SOL    HW214985   3.855   1.591   4.487  0.5589 -3.0910 -3.3918
 1117SOL     OW14986   3.768   1.952   7.015  0.2481 -0.1369  0.1008
 1117SOL    HW114987   3.688   1.997   7.044  0.7824 -0.1007  1.5371
 1117SOL    HW214988   3.817   2.034   7.010  1.1617 -0.6535  0.6474
 1118SOL     OW14989   1.845   3.197   9.448  0.3109  0.0057 -0.5932
 1118SOL    HW114990   1.882   3.212   9.361  0.2607 -0.2075 -0.6498
 1118SOL    HW214991   1.885   3.270   9.495 -2.0791  0.9073  0.0362
 1119SOL     OW14992   3.049   0.759  11.225  0.1900  0.5605  0.0282
 1119SOL    HW114993   3.134   0.723  11.249  0.3240  0.6371 -0.3280
 1119SOL    HW214994   2.989   0.698  11.268  1.4581 -0.2104  0.6926
 1120SOL     OW14995   4.524   3.389  15.747  0.1225  0.0939 -0.3372
 1120SOL    HW114996   4.591   3.335  15.703 -0.9075 -1.7128  0.2901
 1120SOL    HW214997   4.453   3.326  15.735  0.5077 -0.5010  0.5481
 1121SOL     OW14998   4.181   0.955   6.606 -0.0108  0.2598  0.5291
 1121SOL    HW114999   4.201   0.903   6.684 -0.4087 -0.7368 -0.0349
 1121SOL    HW215000   4.141   0.890   6.549  1.4384  0.9538 -1.2700
 1122SOL     OW15001   4.012   4.199   7.696 -0.0120  0.1470  0.3669
 1122SOL    HW115002   3.931   4.219   7.744 -0.7450 -2.8041  0.3152
 1122SOL    HW215003   4.067   4.170   7.769 -0.8977 -1.1777  0.4974
 1123SOL     OW15004   3.539   0.552  12.130  0.1655  0.0826  0.7236
 1123SOL    HW115005   3.586   0.497  12.067 -0.4660 -0.0332  0.3549
 1123SOL    HW215006   3.595   0.629  12.141 -0.5268  0.7625 -0.4763
 1124SOL     OW15007   3.061   3.668   8.890  0.0655 -0.5793 -0.4780
 1124SOL    HW115008   3.081   3.745   8.943 -0.7305 -1.0454  0.5100
 1124SOL    HW215009   3.032   3.710   8.809  0.5429 -0.0283 -0.3667
 1125SOL     OW15010   4.690   4.446   1.001  0.3030 -0.0028  0.0628
 1125SOL    HW115011   4.617   4.392   0.970 -0.1106  0.6022 -0.0236
 1125SOL    HW215012   0.028   4.385   1.002 -0.6162 -1.1148 -2.1876
 1126SOL     OW15013   1.737   0.153   7.610 -1.1274 -0.2458  0.2548
 1126SOL    HW115014   1.790   0.191   7.540 -0.3657 -1.5316  0.1357
 1126SOL    HW215015   1.707   0.231   7.657  0.4680  0.1810  0.5564
 1127SOL     OW15016   2.159   0.309   2.779 -0.2914  0.6722  0.1193
 1127SOL    HW115017   2.092   0.369   2.745 -0.5132  0.4922  0.2346
 1127SOL    HW215018   2.166   0.240   2.714 -1.1128  1.1250 -0.4577
 1128SOL     OW15019   4.226   2.233   2.598  0.0108  0.3407  0.1101
 1128SOL    HW115020   4.151   2.293   2.601 -1.0949 -0.9949 -1.0085
 1128SOL    HW215021   4.240   2.222   2.504 -0.0956  0.4893  0.0766
 1129SOL     OW15022   0.848   1.098   4.750 -0.0591 -0.4041  0.9707
 1129SOL    HW115023   0.822   1.027   4.691  0.6266  0.4069 -0.2962
 1129SOL    HW215024   0.784   1.166   4.729 -0.7150 -1.4766 -0.5016
 1130SOL     OW15025   0.011   1.745  10.402 -0.3743  0.0827  0.1997
 1130SOL    HW115026   0.060   1.664  10.414 -1.3371 -0.5421 -0.0614
 1130SOL    HW215027   0.037   1.812  10.466 -2.0539  1.1761 -0.2602
 1131SOL     OW15028   1.617   3.616  14.641 -0.7802  0.1129  0.1494
 1131SOL    HW115029   1.590   3.588  14.728 -3.0971 -2.3949 -1.3660
 1131SOL    HW215030   1.545   3.578  14.590  0.1382 -0.1965 -0.9306
 1132SOL     OW15031   0.042   0.905   4.481 -0.7454 -0.0024 -0.3760
 1132SOL    HW115032   0.015   0.900   4.389 -0.4190  1.8035 -0.5674
 1132SOL    HW215033   0.054   0.814   4.507 -0.3651 -0.0801 -0.8295
 1133SOL     OW15034   1.084   3.645   4.537  0.7457 -0.1295 -0.8252
 1133SOL    HW115035   1.137   3.585   4.485  3.6997  0.2945  1.6995
 1133SOL    HW215036   1.010   3.585   4.549 -0.8534  1.6074 -1.9454
 1134SOL     OW15037   0.651   4.675   6.692 -0.6911 -0.2222  0.2235
 1134SOL    HW115038   0.596   0.017   6.689 -1.9645 -1.0815  1.2128
 1134SOL    HW215039   0.630   4.637   6.607  0.1125 -0.6059  0.1958
 1135SOL     OW15040   3.220   1.117  10.984 -0.6727 -0.2699 -0.4010
 1135SOL    HW115041   3.310   1.092  11.002 -0.4236 -0.2123 -1.5894
 1135SOL    HW215042   3.174   1.073  11.056  0.1630 -0.7190 -0.1427
 1136SOL     OW15043   0.241   1.549   4.997 -0.1119  0.1258  0.2286
 1136SOL    HW115044   0.235   1.632   5.043 -1.0463 -0.6807  1.5824
 1136SOL    HW215045   0.312   1.511   5.049 -0.8409 -1.5652  0.0114
 1137SOL     OW15046   2.471   3.051   7.245  0.3800  0.5939  0.8931
 1137SOL    HW115047   2.427   2.966   7.245 -0.4519  1.0255 -2.1897
 1137SOL    HW215048   2.565   3.037   7.234  0.3869  0.2658  1.3645
 1138SOL     OW15049   1.810   3.209  11.514  0.0125  0.0587 -0.0376
 1138SOL    HW115050   1.776   3.292  11.481 -1.8976 -0.3119  1.0114
 1138SOL    HW215051   1.906   3.216  11.508  0.2096 -2.4439  0.2503
 1139SOL     OW15052   4.297   3.097   3.737  0.3180  0.1058  0.1619
 1139SOL    HW115053   4.254   3.140   3.664  0.7789  1.3604  0.6336
 1139SOL    HW215054   4.241   3.130   3.807 -0.5107 -1.5577  0.2757
 1140SOL     OW15055   1.465   3.832   3.959 -0.3568 -0.6239 -0.1420
 1140SOL    HW115056   1.419   3.830   4.043  2.0580  0.1624  1.2058
 1140SOL    HW215057   1.531   3.763   3.969  0.6104  0.1827 -0.9195
 1141SOL     OW15058   2.535   3.676   3.062 -0.4147  0.5713  0.1166
 1141SOL    HW115059   2.626   3.704   3.079  0.3985 -0.9441 -1.7475
 1141SOL    HW215060   2.495   3.675   3.149 -0.6662  0.8141 -0.0007
 1142SOL     OW15061   3.272   4.373   1.379  0.0792  0.2213  0.1331
 1142SOL    HW115062   3.304   4.294   1.422  2.0804 -0.7758 -3.1942
 1142SOL    HW215063   3.211   4.401   1.448  0.2056 -0.1193  0.3849
 1143SOL     OW15064   3.516   1.699   2.892  0.5466 -0.2726 -0.2005
 1143SOL    HW115065   3.471   1.770   2.845  1.5677  0.1962 -0.4597
 1143SOL    HW215066   3.588   1.693   2.830  1.1795 -2.0065  0.6964
 1144SOL     OW15067   1.390   1.253   4.869 -0.2483  0.0550  0.2691
 1144SOL    HW115068   1.308   1.264   4.916  1.5134  2.5890  2.7165
 1144SOL    HW215069   1.372   1.304   4.790 -0.5815  0.5383  0.6573
 1145SOL     OW15070   3.889   3.348   0.100  0.0498 -0.6577  0.3615
 1145SOL    HW115071   3.949   3.344   0.025  0.4779 -2.7191  0.7964
 1145SOL    HW215072   3.937   3.291   0.161 -0.4477 -1.3777  0.0750
 1146SOL     OW15073   1.348   0.326   4.404  0.0297 -0.3223  0.1079
 1146SOL    HW115074   1.394   0.307   4.323  1.8327  0.2813  0.9890
 1146SOL    HW215075   1.258   0.312   4.376 -0.2604  1.1524  0.3069
 1147SOL     OW15076   0.141   0.186   2.310 -0.5936 -0.1919 -0.3466
 1147SOL    HW115077   0.179   0.246   2.245 -1.4848 -1.3677 -1.9735
 1147SOL    HW215078   0.128   0.250   2.379 -2.0309  1.1437 -1.8432
 1148SOL     OW15079   1.090   2.070   3.362  0.1506  0.3525 -0.3534
 1148SOL    HW115080   1.049   1.988   3.333  0.0337 -0.1184  1.1426
 1148SOL    HW215081   1.073   2.075   3.456  1.0985 -0.3877 -0.1342
 1149SOL     OW15082   2.348   2.635   1.681 -0.2084 -0.9758  0.5072
 1149SOL    HW115083   2.380   2.718   1.716  0.8254 -2.3759  2.8687
 1149SOL    HW215084   2.401   2.575   1.734 -0.2678  0.4400  2.1594
 1150SOL     OW15085   0.958   3.518  15.596 -0.3614  0.0554  0.0987
 1150SOL    HW115086   0.948   3.453  15.527 -1.7232 -0.2756  0.5996
 1150SOL    HW215087   0.992   3.469  15.671  2.1703  1.1235 -0.3343
 1151SOL     OW15088   2.217   1.115   9.192  0.5858 -0.8981  0.4044
 1151SOL    HW115089   2.258   1.147   9.272  1.3833  0.4435 -0.5268
 1151SOL    HW215090   2.203   1.022   9.210  1.1850 -1.1882 -0.5828
 1152SOL     OW15091   2.868   2.473  11.729 -0.2286 -0.2976  0.5880
 1152SOL    HW115092   2.926   2.456  11.803  0.0279  1.1736  0.7101
 1152SOL    HW215093   2.803   2.527  11.773 -1.9692 -1.3585 -0.6849
 1153SOL     OW15094   2.558   2.937  12.484 -0.2963 -0.7092  0.3015
 1153SOL    HW115095   2.529   2.877  12.552  1.0983  0.4890  1.9613
 1153SOL    HW215096   2.645   2.961  12.518  0.1235 -1.3608 -0.3248
 1154SOL     OW15097   0.321   3.573   0.289  0.3001  0.3542 -0.1020
 1154SOL    HW115098   0.395   3.513   0.298 -0.6764 -0.9582 -0.9378
 1154SOL    HW215099   0.248   3.511   0.290  1.4977 -1.0650 -2.0222
 1155SOL     OW15100   0.458   0.096   5.834  0.2298 -0.1589  0.4744
 1155SOL    HW115101   0.441   0.002   5.833  1.6562 -0.4037 -0.4745
 1155SOL    HW215102   0.540   0.106   5.882  1.3891 -1.5810 -1.2140
 1156SOL     OW15103   3.879   3.127   1.434 -0.2638  0.0850  0.2856
 1156SOL    HW115104   3.809   3.090   1.487 -1.2267  0.7825 -0.5007
 1156SOL    HW215105   3.898   3.213   1.471 -0.9756  0.7396 -0.8690
 1157SOL     OW15106   1.882   0.726   2.376 -0.0984  0.5250 -0.2982
 1157SOL    HW115107   1.972   0.726   2.343  0.1554  1.3217  0.4047
 1157SOL    HW215108   1.861   0.633   2.368 -0.4733  0.5137  0.9464
 1158SOL     OW15109   4.061   1.210   4.376  0.0107  0.1365  0.0426
 1158SOL    HW115110   4.012   1.138   4.416  0.1750 -0.1842 -0.3309
 1158SOL    HW215111   4.150   1.187   4.403  0.1607  1.0826  0.3490
 1159SOL     OW15112   4.516   1.233   0.530 -0.2622  0.2536  0.4218
 1159SOL    HW115113   4.597   1.193   0.497  1.2730  0.4173  3.9166
 1159SOL    HW215114   4.457   1.179   0.478  0.7250 -1.7609  1.3561
 1160SOL     OW15115   3.218   4.181   2.219 -0.2976 -0.0814 -0.0296
 1160SOL    HW115116   3.300   4.181   2.268  0.1646  0.1459 -0.8006
 1160SOL    HW215117   3.171   4.107   2.256 -1.0400  0.6131  0.4172
 1161SOL     OW15118   3.576   3.288  11.058 -0.5104  0.0954 -0.2368
 1161SOL    HW115119   3.587   3.366  11.111 -0.7810 -0.1046  0.1153
 1161SOL    HW215120   3.603   3.216  11.115  0.0712 -0.2258 -0.9092
 1162SOL     OW15121   3.536   1.549   2.092  0.0262  0.1773  0.7023
 1162SOL    HW115122   3.501   1.539   2.180  1.0748  2.0853  1.3256
 1162SOL    HW215123   3.625   1.525   2.117 -0.2477 -0.0247  1.4641
 1163SOL     OW15124   1.280   2.606  12.718  0.5045 -0.2581  0.2103
 1163SOL    HW115125   1.271   2.578  12.809  1.7594  0.4711  0.5552
 1163SOL    HW215126   1.327   2.687  12.737 -1.8442  0.2472  3.8781
 1164SOL     OW15127   1.095   0.327   4.322  0.3575  0.0782  0.4230
 1164SOL    HW115128   1.043   0.405   4.302 -0.8566 -0.8215  0.0895
 1164SOL    HW215129   1.031   0.272   4.368  1.5659 -1.4380  0.2961
 1165SOL     OW15130   0.486   0.813  10.319  0.1462 -0.0579 -0.4166
 1165SOL    HW115131   0.487   0.785  10.410  0.2192 -0.4634 -0.5432
 1165SOL    HW215132   0.574   0.851  10.312  0.4417 -0.2702  2.3310
 1166SOL     OW15133   4.173   3.869  15.283  0.0778  0.5554  0.2588
 1166SOL    HW115134   4.102   3.930  15.262 -0.5188 -0.8486 -1.7735
 1166SOL    HW215135   4.239   3.938  15.287  0.3594  0.2648  0.5491
 1167SOL     OW15136   4.690   3.495   0.203  0.4952 -0.1479 -0.1358
 1167SOL    HW115137   4.643   3.517   0.123 -2.4453  0.6903  1.8523
 1167SOL    HW215138   0.019   3.432   0.171  0.6520  1.2735 -2.6582
 1168SOL     OW15139   2.120   1.000   9.908  0.1466  0.3452  0.1390
 1168SOL    HW115140   2.211   0.980   9.883  0.8875  1.5858  1.7777
 1168SOL    HW215141   2.098   1.069   9.846  0.6260  1.1542  0.8756
 1169SOL     OW15142   4.548   3.143   6.443  0.2022 -0.3646 -0.0804
 1169SOL    HW115143   4.458   3.112   6.436 -1.2549  4.0416 -0.6465
 1169SOL    HW215144   4.522   3.233   6.423  4.2937  0.7986 -0.2687
 1170SOL     OW15145   3.609   2.519  11.777  0.2798  0.0146 -0.1634
 1170SOL    HW115146   3.564   2.552  11.855  0.6107  1.5047 -0.6017
 1170SOL    HW215147   3.535   2.529  11.717  0.3389  2.0809  0.1125
 1171SOL     OW15148   3.496   2.368   6.009  0.0376  0.0105  0.2782
 1171SOL    HW115149   3.485   2.447   6.062  0.1211 -1.0097  1.8165
 1171SOL    HW215150   3.471   2.311   6.082  0.3721 -0.5397 -0.0397
 1172SOL     OW15151   1.537   0.723  17.365  0.3215  0.1314  0.5987
 1172SOL    HW115152   1.516   0.631  17.379 -0.2191  0.1468 -0.1025
 1172SOL    HW215153   1.449   0.757  17.380  0.3009  0.5522 -0.5198
 1173SOL     OW15154   1.338   1.445   5.139 -0.6291  0.2687 -0.2264
 1173SOL    HW115155   1.280   1.455   5.064 -2.5006  1.5057  1.3764
 1173SOL    HW215156   1.380   1.531   5.141  0.9507 -0.5180  0.8840
 1174SOL     OW15157   4.459   3.919   5.670  0.6197  0.2628  0.3041
 1174SOL    HW115158   4.393   3.909   5.601  1.0538  1.2467 -0.2481
 1174SOL    HW215159   4.537   3.899   5.618  0.8343  1.6937  0.0855
 1175SOL     OW15160   3.410   3.261   7.749 -0.5344  0.3728 -0.7903
 1175SOL    HW115161   3.323   3.234   7.718 -0.8034  1.0826 -0.6497
 1175SOL    HW215162   3.419   3.221   7.835 -0.8519  0.6458 -0.6316
 1176SOL     OW15163   1.268   0.425   3.258 -0.4997  0.0256  0.2789
 1176SOL    HW115164   1.356   0.408   3.291 -0.8895 -1.0874  0.7440
 1176SOL    HW215165   1.284   0.487   3.187  2.8448  0.1185  1.1248
 1177SOL     OW15166   3.021   4.352   3.327 -0.6446 -0.4323  0.1657
 1177SOL    HW115167   2.935   4.393   3.332 -0.0763  0.8717 -0.5728
 1177SOL    HW215168   3.078   4.428   3.313  1.3142 -1.9828 -0.4167
 1178SOL     OW15169   3.536   4.344   7.728 -0.2131  0.2113 -0.0903
 1178SOL    HW115170   3.481   4.270   7.754  0.5134  0.2243  1.5325
 1178SOL    HW215171   3.548   4.385   7.814  0.0572 -0.6257  0.2676
 1179SOL     OW15172   4.129   2.887   3.161  1.2104 -0.1674  0.8165
 1179SOL    HW115173   4.134   2.813   3.100 -0.7015 -0.0210  0.4607
 1179SOL    HW215174   4.100   2.953   3.099 -0.7794 -2.1257 -0.3543
 1180SOL     OW15175   0.586   0.327  14.615  0.4149  0.3763 -0.0642
 1180SOL    HW115176   0.626   0.241  14.598  0.1825  0.2271  0.1388
 1180SOL    HW215177   0.573   0.355  14.524  1.1977  0.6743 -0.0828
 1181SOL     OW15178   1.544   0.758  12.633 -0.2042 -0.3000  0.0105
 1181SOL    HW115179   1.559   0.847  12.666 -0.4364 -1.2293  2.6169
 1181SOL    HW215180   1.603   0.772  12.559 -1.5283  0.4032 -0.8895
 1182SOL     OW15181   1.254   2.165   1.856  0.4888  0.2102 -0.0234
 1182SOL    HW115182   1.219   2.119   1.932  0.9319 -0.2133 -0.0837
 1182SOL    HW215183   1.333   2.119   1.831 -0.5453 -0.0278 -2.8676
 1183SOL     OW15184   2.838   1.612   6.364  0.2298  0.5329 -0.6848
 1183SOL    HW115185   2.874   1.526   6.342 -0.9878 -0.2919  0.5322
 1183SOL    HW215186   2.748   1.584   6.349 -0.3056  0.8580  2.0668
 1184SOL     OW15187   4.497   0.497   6.470  0.4798 -0.1647  0.5396
 1184SOL    HW115188   4.477   0.454   6.553 -1.5442  1.7983  1.0831
 1184SOL    HW215189   4.423   0.472   6.415  1.2885  1.1799 -1.1588
 1185SOL     OW15190   0.339   1.062  15.456  0.1391 -0.7022 -0.0997
 1185SOL    HW115191   0.375   0.976  15.434  2.4060 -0.6380  3.2572
 1185SOL    HW215192   0.396   1.071  15.533 -0.6275  2.1840  0.1338
 1186SOL     OW15193   4.567   3.854   0.948  0.6686 -0.4882 -0.6544
 1186SOL    HW115194   4.570   3.767   0.909  0.9232 -0.6957 -0.1686
 1186SOL    HW215195   4.473   3.869   0.938  0.3635 -1.4439  0.8263
 1187SOL     OW15196   3.663   3.283  14.255  0.4206  0.5745  0.1168
 1187SOL    HW115197   3.598   3.329  14.308 -0.5752 -0.6148 -0.0452
 1187SOL    HW215198   3.732   3.301  14.318  0.8897 -2.8254  0.5737
 1188SOL     OW15199   2.534   3.904   5.738  0.0285  0.5944 -0.0009
 1188SOL    HW115200   2.490   3.872   5.817  1.0795  1.1183  0.7835
 1188SOL    HW215201   2.454   3.938   5.697 -0.1892  1.2364  0.9670
 1189SOL     OW15202   0.187   0.653  16.310  0.5859 -0.4584  0.2878
 1189SOL    HW115203   0.221   0.677  16.224 -1.1441 -1.5205 -0.6978
 1189SOL    HW215204   0.163   0.735  16.353  0.9949 -0.9277  1.3938
 1190SOL     OW15205   0.009   4.454   5.755  0.2100  0.1133  0.1534
 1190SOL    HW115206   0.037   4.371   5.794  2.2681  1.4193  1.4847
 1190SOL    HW215207   0.091   4.500   5.734 -0.1709  1.4618  1.6444
 1191SOL     OW15208   0.877   3.868   2.829 -0.0027 -0.6739 -0.6845
 1191SOL    HW115209   0.889   3.816   2.909 -0.7761 -0.5356 -0.4765
 1191SOL    HW215210   0.962   3.856   2.787  0.8170 -0.4587  0.9195
 1192SOL     OW15211   3.814   3.370  11.556 -0.6958  0.0732 -0.7141
 1192SOL    HW115212   3.835   3.334  11.470 -0.4336 -1.4234 -0.0240
 1192SOL    HW215213   3.733   3.415  11.528 -0.4392 -0.6101 -2.5679
 1193SOL     OW15214   2.102   2.378   7.657 -0.1592 -0.5306 -0.0757
 1193SOL    HW115215   2.069   2.395   7.745 -0.2877  0.2391 -0.2741
 1193SOL    HW215216   2.028   2.410   7.606 -0.1502  0.2259  0.3856
 1194SOL     OW15217   3.631   2.907   2.257  0.0904  0.3986 -0.3623
 1194SOL    HW115218   3.550   2.909   2.309  0.6369  1.1586  0.4521
 1194SOL    HW215219   3.583   2.932   2.178  0.6795  0.1133 -0.8146
 1195SOL     OW15220   3.139   3.478   0.631  0.1130 -0.0254 -0.5167
 1195SOL    HW115221   3.171   3.401   0.677  1.4596  1.9683  1.8960
 1195SOL    HW215222   3.167   3.457   0.542 -3.5193 -2.5541 -1.0652
 1196SOL     OW15223   3.394   2.904   1.327  0.2378  0.3756 -0.8324
 1196SOL    HW115224   3.334   2.851   1.275  0.3233 -1.0718  0.5179
 1196SOL    HW215225   3.420   2.971   1.264  1.6161  1.8643  1.2916
 1197SOL     OW15226   3.709   0.135  13.318  0.4997  0.1938 -0.2900
 1197SOL    HW115227   3.648   0.131  13.392 -0.9770  0.2780 -1.5097
 1197SOL    HW215228   3.754   0.053  13.339 -0.0910 -0.4104 -1.3902
 1198SOL     OW15229   2.680   2.307   2.622  0.0639 -0.5526  0.3384
 1198SOL    HW115230   2.599   2.357   2.616  0.9408  1.0264  1.7797
 1198SOL    HW215231   2.675   2.268   2.709  1.4289 -2.2971 -0.3669
 1199SOL     OW15232   1.249   4.329   5.428  0.6586 -0.1939 -0.0663
 1199SOL    HW115233   1.241   4.260   5.362 -0.7709 -2.0722  2.0986
 1199SOL    HW215234   1.158   4.336   5.457  0.7813  2.3714 -0.2687
 1200SOL     OW15235   3.623   4.260   8.258  0.2726 -0.3925 -0.5333
 1200SOL    HW115236   3.614   4.235   8.350 -0.4383 -2.1781 -1.0979
 1200SOL    HW215237   3.640   4.173   8.223 -2.0933 -1.2610  0.4566
 1201SOL     OW15238   0.305   2.836   5.295  0.6788 -0.4323  0.1138
 1201SOL    HW115239   0.262   2.844   5.209 -1.2045  0.3030  1.1237
 1201SOL    HW215240   0.364   2.911   5.287  0.9956 -0.7870 -0.9037
 1202SOL     OW15241   1.098   4.732   1.541  0.0207 -0.3710  0.4590
 1202SOL    HW115242   1.084   4.666   1.609 -0.6510 -0.5779  0.1200
 1202SOL    HW215243   1.194   4.732   1.542  0.0413 -0.8692 -1.0676
 1203SOL     OW15244   3.705   2.217   8.286 -0.7470  0.0436  0.5888
 1203SOL    HW115245   3.677   2.307   8.269 -1.0773  0.5995  4.0003
 1203SOL    HW215246   3.792   2.238   8.319 -0.9989  1.1264  0.5775
 1204SOL     OW15247   4.242   4.466  10.462 -0.4555 -0.0445 -0.4375
 1204SOL    HW115248   4.273   4.451  10.551 -1.6192 -1.9832 -0.3561
 1204SOL    HW215249   4.271   4.556  10.452 -1.3952  0.1892 -1.1184
 1205SOL     OW15250   0.777   2.309  14.192 -0.1180 -0.3864 -0.2300
 1205SOL    HW115251   0.756   2.228  14.145 -1.6477 -0.6353  0.8647
 1205SOL    HW215252   0.840   2.349  14.133  1.2053  2.9795  3.4960
 1206SOL     OW15253   0.680   4.161  15.291  0.1830  0.3183 -0.0146
 1206SOL    HW115254   0.713   4.078  15.325  2.1857  0.3541 -1.8748
 1206SOL    HW215255   0.762   4.209  15.306  0.4932 -0.3014  0.2644
 1207SOL     OW15256   4.012   0.319  17.458 -0.2332  0.5177  0.0836
 1207SOL    HW115257   4.071   0.353  17.391 -0.0419 -1.4864 -0.7510
 1207SOL    HW215258   4.071   0.249  17.487 -2.3364 -1.1417  0.3253
 1208SOL     OW15259   2.063   1.175   9.719  1.0202 -0.7330 -0.0891
 1208SOL    HW115260   2.008   1.210   9.649 -0.1031 -1.0113  0.6473
 1208SOL    HW215261   2.130   1.242   9.730 -0.1972  0.6193 -0.9494
 1209SOL     OW15262   3.315   4.105   5.284  0.2444  0.3509  0.9011
 1209SOL    HW115263   3.248   4.138   5.224  0.4929 -1.3292 -0.3277
 1209SOL    HW215264   3.263   4.034   5.321 -0.0565 -0.6791 -1.4701
 1210SOL     OW15265   3.701   3.723  17.621 -0.5180  0.7656  0.1001
 1210SOL    HW115266   3.620   3.716  17.570 -0.1752  1.6936 -0.5671
 1210SOL    HW215267   3.758   3.700  17.548 -1.0110 -1.0902  0.3091
 1211SOL     OW15268   2.963   0.477  10.075 -0.5037  0.1173  0.3752
 1211SOL    HW115269   2.909   0.551  10.049  0.9720  1.6853  1.8248
 1211SOL    HW215270   3.029   0.482  10.005  1.7715 -0.6860  2.4856
 1212SOL     OW15271   4.043   0.373   3.239  0.0405  0.6569 -0.0659
 1212SOL    HW115272   4.007   0.386   3.327  1.8820 -1.6871  1.0140
 1212SOL    HW215273   3.992   0.428   3.180  0.5616 -0.2044 -1.3166
 1213SOL     OW15274   3.008   1.591  16.254 -0.0941  0.9428 -0.3505
 1213SOL    HW115275   2.965   1.642  16.322 -1.3679 -1.0691  0.3328
 1213SOL    HW215276   3.026   1.658  16.188  2.3882 -0.3778 -1.0287
 1214SOL     OW15277   2.788   3.795   9.203 -0.5849  0.1455  0.3342
 1214SOL    HW115278   2.858   3.730   9.213 -1.8356 -1.5841 -2.1372
 1214SOL    HW215279   2.732   3.777   9.279  0.5026 -1.1927  0.8308
 1215SOL     OW15280   3.423   2.771   6.741  0.0002 -0.0791 -0.1693
 1215SOL    HW115281   3.469   2.788   6.823 -1.4980  1.6634  0.2875
 1215SOL    HW215282   3.401   2.678   6.745  1.2851 -0.4243 -0.8474
 1216SOL     OW15283   4.715   3.675   6.858 -0.3156 -0.2971 -0.2006
 1216SOL    HW115284   4.697   3.641   6.945  0.2522  0.5903  0.2650
 1216SOL    HW215285   0.057   3.729   6.874 -1.4083  0.4062  2.8020
 1217SOL     OW15286   1.588   0.535   5.703  0.7377 -0.5184  0.1252
 1217SOL    HW115287   1.541   0.457   5.672 -1.2848  0.7409 -0.0059
 1217SOL    HW215288   1.650   0.559   5.634  1.0502  2.3003  1.3932
 1218SOL     OW15289   2.516   4.576   7.474  0.4560 -0.5071 -0.3316
 1218SOL    HW115290   2.486   4.537   7.391 -1.5152 -0.2570  0.2469
 1218SOL    HW215291   2.610   4.558   7.476  0.1947 -1.8711 -0.3995
 1219SOL     OW15292   0.545   0.319   4.642 -0.0534 -0.1608  0.2932
 1219SOL    HW115293   0.576   0.409   4.641 -0.9868  0.1353 -1.1794
 1219SOL    HW215294   0.468   0.328   4.698 -0.9502 -1.6617 -0.7014
 1220SOL     OW15295   2.819   2.619   4.979 -0.2557  0.6625  0.1775
 1220SOL    HW115296   2.780   2.533   4.962 -0.4284  0.1985  2.8713
 1220SOL    HW215297   2.772   2.647   5.058 -1.9980  1.2738 -1.0701
 1221SOL     OW15298   1.044   4.468  14.786 -1.0134 -0.2236 -0.6246
 1221SOL    HW115299   1.094   4.440  14.710 -0.3120  0.4094 -0.3929
 1221SOL    HW215300   0.964   4.419  14.766 -2.7398  2.0563  0.6659
 1222SOL     OW15301   0.713   2.832   6.907 -0.8107  0.0966  0.3035
 1222SOL    HW115302   0.738   2.743   6.929  1.3616  1.0311  1.5354
 1222SOL    HW215303   0.637   2.857   6.960 -1.3906 -1.5144  0.2239
 1223SOL     OW15304   2.410   1.209   9.385  0.5705 -0.2240  0.1336
 1223SOL    HW115305   2.480   1.244   9.331  1.7792 -1.3676  0.9592
 1223SOL    HW215306   2.456   1.204   9.469 -0.2747 -0.1277  0.6077
 1224SOL     OW15307   3.954   2.982   5.186 -0.0284 -0.0802  0.0130
 1224SOL    HW115308   3.870   2.973   5.141  0.8643 -0.2565 -1.6291
 1224SOL    HW215309   3.959   2.917   5.256 -0.1603  1.7680  1.7533
 1225SOL     OW15310   0.243   0.183   0.726  0.5195 -0.0879 -0.0804
 1225SOL    HW115311   0.199   0.194   0.810 -0.6790  0.0728 -0.7244
 1225SOL    HW215312   0.195   0.109   0.688  2.8938 -2.3442  1.3296
 1226SOL     OW15313   1.661   4.426   4.118  0.2773 -0.2273 -0.0229
 1226SOL    HW115314   1.589   4.487   4.109 -1.7494 -2.2907  2.1167
 1226SOL    HW215315   1.645   4.387   4.205  1.2058  3.2102  1.6871
 1227SOL     OW15316   3.599   0.721  10.414 -0.3734 -0.5530  0.4713
 1227SOL    HW115317   3.623   0.740  10.505  0.9592  1.9812 -0.4318
 1227SOL    HW215318   3.644   0.637  10.405 -0.0596 -0.3723  0.3711
 1228SOL     OW15319   2.300   0.034  12.931 -0.2433  0.2625 -0.6855
 1228SOL    HW115320   2.285   0.119  12.972 -0.0237 -0.6683  1.3139
 1228SOL    HW215321   2.209   0.008  12.914 -0.1993 -0.4821  0.2043
 1229SOL     OW15322   4.644   4.316   6.687 -0.3755  1.1893  0.0936
 1229SOL    HW115323   4.700   4.321   6.764 -0.9941 -1.1107  0.7177
 1229SOL    HW215324   4.645   4.223   6.665  0.5077  1.3566 -0.5705
 1230SOL     OW15325   0.363   3.691  17.295  0.1500  0.3370  0.1249
 1230SOL    HW115326   0.442   3.649  17.326 -0.9402  0.0199  2.4808
 1230SOL    HW215327   0.298   3.635  17.338 -0.6188  0.9792 -0.1901
 1231SOL     OW15328   1.422   2.742   4.235  0.7435  0.3197 -0.0177
 1231SOL    HW115329   1.349   2.788   4.275 -0.3766 -1.7556  0.3221
 1231SOL    HW215330   1.485   2.814   4.228  0.0011  1.0254  0.6781
 1232SOL     OW15331   1.271   1.965   2.526  0.0366 -0.6877  0.1581
 1232SOL    HW115332   1.285   1.948   2.620 -1.1268 -0.4214  0.3790
 1232SOL    HW215333   1.180   1.994   2.530  1.2445  3.0373  0.8044
 1233SOL     OW15334   0.218   0.903   5.118  0.2379  0.3955 -0.5362
 1233SOL    HW115335   0.145   0.844   5.100 -0.5144  0.1852  3.2640
 1233SOL    HW215336   0.281   0.842   5.157 -2.6861 -2.4584 -0.2986
 1234SOL     OW15337   1.202   0.109   8.204  0.1081 -0.0606 -0.3349
 1234SOL    HW115338   1.223   0.020   8.232 -0.8257 -0.6654 -1.5776
 1234SOL    HW215339   1.250   0.116   8.122  0.0314  2.2546 -0.1775
 1235SOL     OW15340   2.670   1.175  13.281 -0.0554  0.1442  0.0773
 1235SOL    HW115341   2.729   1.246  13.305  0.2887 -0.6747  1.6329
 1235SOL    HW215342   2.672   1.186  13.186 -0.8150  1.5811  0.2275
 1236SOL     OW15343   1.439   1.378   3.121 -0.1680 -0.2737 -0.3093
 1236SOL    HW115344   1.531   1.394   3.096 -0.2669  2.9295  1.3881
 1236SOL    HW215345   1.404   1.457   3.163  2.0259  0.7135 -0.3042
 1237SOL     OW15346   3.374   3.948   1.004  0.1209 -0.5928  0.3283
 1237SOL    HW115347   3.453   3.895   0.996 -1.4084 -2.5873 -1.3303
 1237SOL    HW215348   3.380   3.996   0.921 -0.0602  0.0756  0.7014
 1238SOL     OW15349   1.120   4.216  16.462 -0.5306  0.1837 -1.0210
 1238SOL    HW115350   1.176   4.138  16.457  0.6671  0.7400  3.7420
 1238SOL    HW215351   1.043   4.190  16.411 -2.7237  1.4545  1.5965
 1239SOL     OW15352   4.714   0.637   8.169 -0.0362 -0.4314 -0.1245
 1239SOL    HW115353   4.731   0.578   8.096 -1.6999 -0.2514 -0.6577
 1239SOL    HW215354   0.049   0.613   8.229  1.1961 -0.7531 -1.6868
 1240SOL     OW15355   1.194   3.602   8.431 -0.4827  0.4283  0.2522
 1240SOL    HW115356   1.257   3.667   8.464  2.0432 -0.7765 -2.2501
 1240SOL    HW215357   1.119   3.661   8.428  0.9745  2.2271 -0.8847
 1241SOL     OW15358   1.969   3.401  12.849 -0.1504 -0.5604  0.1325
 1241SOL    HW115359   2.033   3.447  12.902  3.0022 -3.1370 -1.4352
 1241SOL    HW215360   1.919   3.347  12.910  1.8265 -2.2526  0.2547
 1242SOL     OW15361   3.713   2.967   5.066  0.2175 -0.5130 -0.1930
 1242SOL    HW115362   3.620   2.989   5.074  0.6043  0.0025  2.7118
 1242SOL    HW215363   3.714   2.930   4.978 -2.6337  0.7821 -0.7969
 1243SOL     OW15364   0.338   3.111   0.977  0.2016  0.4032 -0.1128
 1243SOL    HW115365   0.306   3.104   1.066  1.2717 -1.9591  0.0748
 1243SOL    HW215366   0.391   3.032   0.977  0.0606  0.3075 -0.2539
 1244SOL     OW15367   2.804   1.012  13.483 -0.4538  0.1775  0.2460
 1244SOL    HW115368   2.757   1.090  13.455  0.8579  1.7479  2.4500
 1244SOL    HW215369   2.770   0.998  13.571  1.1503 -0.4367  0.7845
 1245SOL     OW15370   1.604   2.554   9.895 -0.4391 -0.0654 -0.0081
 1245SOL    HW115371   1.567   2.498   9.827  0.4386 -0.7075  0.0467
 1245SOL    HW215372   1.594   2.637   9.849  1.3701  0.1557  0.0106
 1246SOL     OW15373   4.035   4.046   2.444 -0.2809  0.4620  0.0514
 1246SOL    HW115374   3.964   4.042   2.509 -0.2631 -0.6756 -0.0060
 1246SOL    HW215375   3.991   4.106   2.383  0.6222  1.6666  0.5779
 1247SOL     OW15376   2.096   2.638  15.179  0.1340  0.0408 -0.3068
 1247SOL    HW115377   2.172   2.649  15.122 -1.0581 -0.1799 -1.9548
 1247SOL    HW215378   2.101   2.723  15.223  0.3363  0.8978 -1.9689
 1248SOL     OW15379   1.364   0.718  11.436 -0.1360 -0.2285 -0.4707
 1248SOL    HW115380   1.350   0.738  11.343  1.6469  1.1704 -0.4459
 1248SOL    HW215381   1.282   0.681  11.470 -1.6068  2.5205 -1.0235
 1249SOL     OW15382   2.999   0.480  11.251 -0.4600  0.2609  0.1967
 1249SOL    HW115383   2.906   0.491  11.228 -0.4865  0.1305  0.2374
 1249SOL    HW215384   2.991   0.416  11.322 -1.0783 -0.5923 -0.6375
 1250SOL     OW15385   4.428   2.396  17.354  0.2369 -0.1151  0.6795
 1250SOL    HW115386   4.504   2.358  17.309 -2.6123 -0.9933 -3.4148
 1250SOL    HW215387   4.374   2.322  17.382  0.0668 -0.5525 -0.8041
 1251SOL     OW15388   0.601   3.267   4.369 -0.3355  0.3975 -0.1161
 1251SOL    HW115389   0.517   3.273   4.325  0.3370  0.2402 -1.4244
 1251SOL    HW215390   0.561   3.281   4.455 -2.1953 -0.2382 -0.8955
 1252SOL     OW15391   2.006   1.784   8.446 -0.5243 -0.0899 -0.4068
 1252SOL    HW115392   1.996   1.700   8.491 -3.3733  1.4964  1.9108
 1252SOL    HW215393   1.968   1.765   8.360 -1.2590 -1.2302  0.1670
 1253SOL     OW15394   3.161   3.310   9.444 -0.4036  0.4702 -1.2049
 1253SOL    HW115395   3.108   3.262   9.381 -0.4739 -0.2599 -0.5782
 1253SOL    HW215396   3.248   3.299   9.405  1.1571 -3.2827  3.4138
 1254SOL     OW15397   4.358   2.979   0.719 -0.1592 -0.7427 -0.0121
 1254SOL    HW115398   4.445   3.007   0.691 -1.6457  2.0353 -1.8998
 1254SOL    HW215399   4.376   2.967   0.812  2.3423 -1.8461 -0.6320
 1255SOL     OW15400   4.682   3.793   7.721 -0.2037  0.4240  0.1302
 1255SOL    HW115401   4.597   3.751   7.734  2.0077 -3.2882  2.7504
 1255SOL    HW215402   4.689   3.810   7.627 -3.3951 -1.1740 -0.3889
 1256SOL     OW15403   2.051   1.418  15.081  0.7487  0.2619 -1.0716
 1256SOL    HW115404   2.103   1.360  15.136 -1.1894  0.0461  0.5013
 1256SOL    HW215405   2.088   1.392  14.996  1.5640 -1.3607 -0.2113
 1257SOL     OW15406   0.846   2.585   8.121  0.1376 -0.0514  0.2445
 1257SOL    HW115407   0.763   2.538   8.128  0.7727 -1.2606 -0.3419
 1257SOL    HW215408   0.818   2.672   8.149  2.9094  1.1852 -0.7923
 1258SOL     OW15409   1.420   1.099   1.970  0.0006 -0.3582 -0.0851
 1258SOL    HW115410   1.478   1.024   1.983 -1.1658 -1.7868 -3.1369
 1258SOL    HW215411   1.463   1.148   2.039 -1.2830  2.2674 -1.1379
 1259SOL     OW15412   1.141   2.779   2.605  0.1940 -0.2028 -0.6187
 1259SOL    HW115413   1.130   2.872   2.625  0.9694  0.2993 -2.5427
 1259SOL    HW215414   1.197   2.782   2.527  0.0742 -2.7731 -0.7993
 1260SOL     OW15415   4.202   2.244   2.317 -0.3441  0.4707 -0.1363
 1260SOL    HW115416   4.215   2.328   2.272  2.8704  0.5693  0.9298
 1260SOL    HW215417   4.264   2.191   2.267  0.1772 -1.9382  3.0560
 1261SOL     OW15418   2.793   3.811   2.382 -0.1992  0.1654  0.0994
 1261SOL    HW115419   2.813   3.881   2.445 -1.6214 -1.3994  2.2892
 1261SOL    HW215420   2.698   3.810   2.392 -0.3655 -1.2342 -1.5862
 1262SOL     OW15421   1.856   3.780   8.228 -0.5582  0.3333 -0.2754
 1262SOL    HW115422   1.877   3.753   8.317 -4.9050  3.3403  1.6597
 1262SOL    HW215423   1.863   3.700   8.175 -0.5050  1.6888 -2.3324
 1263SOL     OW15424   3.510   0.411  11.080 -0.3568 -0.0654 -0.2297
 1263SOL    HW115425   3.568   0.406  11.004 -0.3885 -2.7050 -0.0934
 1263SOL    HW215426   3.537   0.497  11.112 -0.4249 -0.2030  0.2023
 1264SOL     OW15427   0.306   1.149  17.031  0.0605 -0.0973 -0.2723
 1264SOL    HW115428   0.247   1.084  16.992  1.8263 -1.7376 -0.1995
 1264SOL    HW215429   0.287   1.134  17.124 -0.8966 -3.6630 -1.0310
 1265SOL     OW15430   3.208   4.711   4.137 -0.9650  0.1536  0.4843
 1265SOL    HW115431   3.280   4.664   4.180 -0.6393  0.1039 -0.1202
 1265SOL    HW215432   3.146   4.642   4.113  0.6548 -0.8557 -0.7643
 1266SOL     OW15433   3.748   0.347  16.421  0.4848 -0.3748  0.6070
 1266SOL    HW115434   3.741   0.295  16.501  0.8383 -0.2758  0.7018
 1266SOL    HW215435   3.793   0.287  16.362  0.9143 -0.5489  1.1155
 1267SOL     OW15436   0.913   0.036   8.107  0.0266 -0.1039 -0.0765
 1267SOL    HW115437   0.968   4.693   8.114 -1.8883 -1.2494  2.2265
 1267SOL    HW215438   0.871   0.033   8.022 -2.8350  1.6343  1.2956
 1268SOL     OW15439   4.449   2.175   5.298  0.0603  0.3981  0.2455
 1268SOL    HW115440   4.531   2.129   5.318 -0.1166 -0.5092 -1.0948
 1268SOL    HW215441   4.405   2.110   5.242  0.5185 -0.4685  0.8803
 1269SOL     OW15442   2.071   0.820  16.194 -0.3598  0.0022  0.5613
 1269SOL    HW115443   1.985   0.828  16.152 -0.0673  1.4917  0.2451
 1269SOL    HW215444   2.065   0.894  16.254 -3.8733  0.5535 -0.5127
 1270SOL     OW15445   0.242   1.497   4.739  0.1017 -0.0770 -0.2334
 1270SOL    HW115446   0.249   1.506   4.834  1.0859  0.0862 -0.3242
 1270SOL    HW215447   0.166   1.553   4.727  0.1830  0.0503 -0.1566
 1271SOL     OW15448   3.893   4.459   3.058  0.1173  0.2778 -0.1824
 1271SOL    HW115449   3.874   4.551   3.073  2.5911  0.3650  2.4133
 1271SOL    HW215450   3.981   4.449   3.021 -0.6216 -2.7799 -1.1517
 1272SOL     OW15451   2.798   0.440   3.473  0.0670 -0.1266  0.8634
 1272SOL    HW115452   2.825   0.354   3.505 -0.8695 -1.4964 -2.0549
 1272SOL    HW215453   2.833   0.456   3.386 -1.6126 -0.7586  0.0801
 1273SOL     OW15454   2.020   2.846   6.601 -0.3030  0.2811 -0.2207
 1273SOL    HW115455   2.043   2.786   6.672 -0.5047 -3.7780 -3.5990
 1273SOL    HW215456   1.936   2.809   6.573 -0.3161 -0.0769  0.2974
 1274SOL     OW15457   2.887   3.519  17.214  0.1583  0.0081 -0.3157
 1274SOL    HW115458   2.979   3.512  17.239 -0.4341  0.8591  2.1251
 1274SOL    HW215459   2.865   3.608  17.241 -0.6224 -0.2092 -0.2502
 1275SOL     OW15460   1.596   1.186   5.158 -0.0197 -0.3194  0.2547
 1275SOL    HW115461   1.529   1.253   5.171 -0.5506 -0.9439  0.7624
 1275SOL    HW215462   1.595   1.175   5.063  0.0782 -3.0943  0.5710
 1276SOL     OW15463   3.197   4.553   3.300 -0.3311 -0.0015  0.3713
 1276SOL    HW115464   3.255   4.626   3.320 -0.4269  0.5247 -1.2780
 1276SOL    HW215465   3.241   4.485   3.351  0.4567 -0.4827 -0.9457
 1277SOL     OW15466   0.902   4.097  16.286  0.0258 -0.4193  0.8369
 1277SOL    HW115467   0.875   4.049  16.207  1.0445 -0.4611  0.5068
 1277SOL    HW215468   0.821   4.102  16.336 -1.4996  0.1930 -1.6926
 1278SOL     OW15469   3.665   3.227   4.315  0.2227  0.3832  0.5646
 1278SOL    HW115470   3.753   3.189   4.312  1.2462  2.8662 -1.2861
 1278SOL    HW215471   3.618   3.148   4.344 -0.2497  0.2763 -0.4736
 1279SOL     OW15472   3.684   1.546   5.377  0.0956 -0.3622 -0.2480
 1279SOL    HW115473   3.656   1.510   5.462 -2.8938 -0.3840 -1.2330
 1279SOL    HW215474   3.715   1.462   5.345 -1.4914 -1.4758  1.1379
 1280SOL     OW15475   2.909   0.579   3.746 -0.4308  0.0310 -0.1639
 1280SOL    HW115476   2.891   0.626   3.665 -2.6739  0.7074  0.7186
 1280SOL    HW215477   2.972   0.642   3.783 -0.8216  0.9254 -1.0249
 1281SOL     OW15478   4.553   1.095   4.193  0.7243  0.5605  0.3776
 1281SOL    HW115479   4.590   1.011   4.220  0.1163 -0.4486 -1.9359
 1281SOL    HW215480   4.624   1.112   4.131  0.5901  2.3536  0.6918
 1282SOL     OW15481   0.451   3.862  12.441 -0.0031 -0.6462 -0.6016
 1282SOL    HW115482   0.410   3.946  12.461 -0.9874 -0.8648 -1.6837
 1282SOL    HW215483   0.515   3.854  12.512 -1.2182 -0.1648  0.5415
 1283SOL     OW15484   1.000   3.627   9.452  0.1595  0.1226 -0.6311
 1283SOL    HW115485   0.982   3.559   9.516 -1.8601  0.3724 -0.9371
 1283SOL    HW215486   1.018   3.580   9.371 -0.6473 -3.3103  1.1860
 1284SOL     OW15487   0.552   2.551   4.870  0.9024  0.0186  0.1733
 1284SOL    HW115488   0.478   2.558   4.810  0.8995 -1.3295  0.0120
 1284SOL    HW215489   0.588   2.468   4.840 -0.1034 -0.0367 -0.8551
 1285SOL     OW15490   1.342   1.906   1.576 -0.0781  0.0131 -0.0028
 1285SOL    HW115491   1.378   1.848   1.643 -0.6258 -0.1833  0.1187
 1285SOL    HW215492   1.405   1.892   1.505 -0.1599  2.0834 -0.4886
 1286SOL     OW15493   1.440   0.407   8.288  0.1048  0.2457 -0.0688
 1286SOL    HW115494   1.408   0.323   8.254  2.6689 -0.1432 -1.5157
 1286SOL    HW215495   1.483   0.444   8.210 -1.7403  1.4040 -0.5429
 1287SOL     OW15496   1.964   2.636  11.869 -0.4915  0.0005  0.4310
 1287SOL    HW115497   2.041   2.622  11.814  0.9667 -1.2992  2.8099
 1287SOL    HW215498   1.966   2.731  11.854 -2.2517 -0.3873 -2.1391
 1288SOL     OW15499   1.515   2.408   0.752 -0.2291  0.4633 -0.3802
 1288SOL    HW115500   1.578   2.427   0.682  1.6292 -1.6489  0.7279
 1288SOL    HW215501   1.571   2.344   0.796 -2.2303 -0.4232  0.8682
 1289SOL     OW15502   3.399   4.150   6.304 -0.0708  0.1207 -0.7552
 1289SOL    HW115503   3.481   4.191   6.276 -0.1327  1.3269  0.8862
 1289SOL    HW215504   3.380   4.198   6.384  0.5128 -1.6265  0.4207
 1290SOL     OW15505   2.259   4.006  10.958  0.2395 -0.1861 -0.0210
 1290SOL    HW115506   2.242   4.059  10.881  0.6442  1.3113  0.9161
 1290SOL    HW215507   2.350   3.983  10.936  0.2976 -0.1230  0.1551
 1291SOL     OW15508   4.370   4.064   6.445 -0.6058  0.5550  0.5119
 1291SOL    HW115509   4.415   4.042   6.364 -0.4129 -0.9709  1.0333
 1291SOL    HW215510   4.342   4.153   6.424 -3.6781 -0.6777 -0.5706
 1292SOL     OW15511   1.535   2.749   9.688  0.1505  0.4683  0.2338
 1292SOL    HW115512   1.604   2.814   9.695  1.0712 -0.2589 -2.0231
 1292SOL    HW215513   1.549   2.720   9.598  2.6334 -0.0545  0.8103
 1293SOL     OW15514   3.779   2.832  12.113 -0.4091  0.3296 -0.1112
 1293SOL    HW115515   3.796   2.759  12.053  0.3896  2.1429 -2.1087
 1293SOL    HW215516   3.767   2.905  12.051  0.6560  0.3429 -0.2893
 1294SOL     OW15517   4.711   0.843   6.188 -0.0712  0.7183  0.0736
 1294SOL    HW115518   0.070   0.847   6.174 -0.2458 -0.6218 -1.4214
 1294SOL    HW215519   4.700   0.753   6.160  0.5812  0.5181  0.4682
 1295SOL     OW15520   0.903   4.296  11.081  0.3778  0.6305 -0.2415
 1295SOL    HW115521   0.879   4.287  11.173  0.2415  0.4128 -0.2990
 1295SOL    HW215522   0.998   4.280  11.083  0.6401  1.9322 -2.9017
 1296SOL     OW15523   1.533   1.814   6.736  0.4098 -0.0757 -0.4293
 1296SOL    HW115524   1.599   1.769   6.789  0.7211  0.2624 -0.5370
 1296SOL    HW215525   1.486   1.732   6.722 -0.1214  0.0748  0.4444
 1297SOL     OW15526   4.623   3.901   9.839  0.6153  0.4944 -0.2812
 1297SOL    HW115527   4.602   3.990   9.811  0.7168  0.5335 -0.2305
 1297SOL    HW215528   4.572   3.854   9.772  0.2688  1.0609 -0.4092
 1298SOL     OW15529   1.535   2.113   7.753 -0.3749 -0.4407 -0.2568
 1298SOL    HW115530   1.454   2.157   7.780  0.7138 -0.5095  3.0975
 1298SOL    HW215531   1.529   2.135   7.660  2.8310  1.0096 -0.0908
 1299SOL     OW15532   0.631   2.728  10.671 -0.5364 -0.3067 -0.0899
 1299SOL    HW115533   0.576   2.686  10.737 -0.9833  1.3196  0.5634
 1299SOL    HW215534   0.572   2.717  10.596  0.2050 -1.1944 -0.5478
 1300SOL     OW15535   1.104   4.720   2.755 -0.4424 -0.6170 -0.6534
 1300SOL    HW115536   1.113   0.058   2.694 -0.3084  0.4892  0.6829
 1300SOL    HW215537   1.188   4.674   2.754  1.5563  2.9822 -0.2466
 1301SOL     OW15538   3.053   2.957   6.061 -0.2367 -0.2289  0.0170
 1301SOL    HW115539   3.133   2.993   6.100 -1.1184  1.8469 -0.0484
 1301SOL    HW215540   2.990   2.983   6.128 -0.0082  1.2034 -0.3057
 1302SOL     OW15541   0.834   2.398  15.378 -0.8031 -0.2639  0.1308
 1302SOL    HW115542   0.784   2.344  15.439 -0.4178 -1.6495 -0.7863
 1302SOL    HW215543   0.773   2.464  15.343  0.8045  0.7504 -0.7830
 1303SOL     OW15544   0.946   2.116   3.009 -0.5563 -0.0187 -0.8811
 1303SOL    HW115545   1.006   2.044   2.990 -1.5456 -0.6724 -1.5576
 1303SOL    HW215546   0.879   2.061   3.050  1.9922 -1.5974  1.1932
 1304SOL     OW15547   1.810   0.351   5.781 -0.4330 -0.8841 -0.2234
 1304SOL    HW115548   1.727   0.369   5.825  0.4746 -1.0365  1.5878
 1304SOL    HW215549   1.851   0.437   5.769 -2.6178  0.1896  0.0258
 1305SOL     OW15550   1.536   3.142   8.580  0.1128  0.2240  0.0816
 1305SOL    HW115551   1.553   3.148   8.486 -1.3101 -0.2855 -0.2128
 1305SOL    HW215552   1.522   3.049   8.596 -2.0019  0.6626  0.7388
 1306SOL     OW15553   2.617   2.856   3.561  0.1557  0.6273 -0.3727
 1306SOL    HW115554   2.654   2.937   3.596  0.7538  0.5542 -0.8611
 1306SOL    HW215555   2.692   2.801   3.583  0.4382 -0.0051 -2.9484
 1307SOL     OW15556   2.098   1.727   6.582  0.2532 -0.0348  0.4038
 1307SOL    HW115557   2.021   1.781   6.560  1.4274  0.9931 -1.1942
 1307SOL    HW215558   2.061   1.640   6.597  0.0074 -0.1793 -0.9905
 1308SOL     OW15559   3.064   1.391   7.376 -0.4720  0.1838  0.6415
 1308SOL    HW115560   3.007   1.351   7.311  0.7189  0.7892 -0.7695
 1308SOL    HW215561   3.018   1.384   7.460 -2.3379  1.9673 -0.2237
 1309SOL     OW15562   1.556   1.707   2.849  0.3537 -0.1069  0.2810
 1309SOL    HW115563   1.613   1.703   2.925  0.2732  0.7174  0.3864
 1309SOL    HW215564   1.622   1.725   2.782 -0.7034  2.4125 -0.1119
 1310SOL     OW15565   0.825   2.805   8.311 -0.0703 -0.9406  0.4130
 1310SOL    HW115566   0.871   2.763   8.384 -0.9819  2.0357  2.6991
 1310SOL    HW215567   0.761   2.847   8.369  0.3418 -2.5111  2.0204
 1311SOL     OW15568   2.787   0.705  10.064  0.0747  0.5093 -0.0089
 1311SOL    HW115569   2.700   0.737  10.040 -0.4754 -0.0705  1.2278
 1311SOL    HW215570   2.787   0.731  10.156  1.0308  2.4474 -0.5652
 1312SOL     OW15571   2.233   4.156   2.359 -0.2765  0.5240  0.0661
 1312SOL    HW115572   2.265   4.102   2.287 -0.5698  0.5963 -0.1191
 1312SOL    HW215573   2.291   4.141   2.433 -2.2213 -2.2450  1.0361
 1313SOL     OW15574   0.727   2.141  13.087 -0.1503 -0.0904 -0.4393
 1313SOL    HW115575   0.716   2.087  13.165  3.9655  0.2844  0.4077
 1313SOL    HW215576   0.816   2.174  13.095  0.8851 -2.6471 -1.2727
 1314SOL     OW15577   4.253   0.730  15.698 -0.3948  0.1437  0.6845
 1314SOL    HW115578   4.191   0.662  15.723 -1.9632  0.9534 -0.9607
 1314SOL    HW215579   4.243   0.731  15.603  1.2093  0.2759  0.5109
 1315SOL     OW15580   2.538   2.890   7.790  0.0226  0.4466 -0.4269
 1315SOL    HW115581   2.509   2.981   7.789  0.2000  0.5147  0.6530
 1315SOL    HW215582   2.630   2.902   7.765  0.4065  0.3047  0.9432
 1316SOL     OW15583   4.036   4.549   2.088  0.0043 -0.4875  0.2549
 1316SOL    HW115584   4.013   4.494   2.013  1.5535 -3.2136  1.7777
 1316SOL    HW215585   4.098   4.605   2.041  1.6214 -1.5436  1.1306
 1317SOL     OW15586   0.644   2.220   1.914 -0.0053  0.4363 -0.0468
 1317SOL    HW115587   0.737   2.233   1.896 -0.5034  1.7855 -1.5702
 1317SOL    HW215588   0.639   2.239   2.008  2.1113  1.3038 -0.1153
 1318SOL     OW15589   2.640   3.936   7.570  0.3376 -0.5331  0.0490
 1318SOL    HW115590   2.698   3.911   7.642  0.2708 -1.8759 -0.3812
 1318SOL    HW215591   2.625   4.026   7.601 -0.3692  0.1445 -2.3049
 1319SOL     OW15592   2.827   3.558  10.894  0.0659  0.4665  0.5181
 1319SOL    HW115593   2.920   3.577  10.885 -0.3242  1.7562 -0.7710
 1319SOL    HW215594   2.830   3.462  10.896  2.9114  0.5954  2.9966
 1320SOL     OW15595   3.094   1.353   3.981 -0.1051  0.1386  0.3376
 1320SOL    HW115596   3.091   1.292   3.907 -0.1175 -1.7109  1.8833
 1320SOL    HW215597   3.035   1.426   3.963 -0.5848 -0.2830  0.2183
 1321SOL     OW15598   2.436   2.046   3.569  0.1863  0.2705 -0.1661
 1321SOL    HW115599   2.405   2.009   3.486  1.3467  1.0146 -0.9421
 1321SOL    HW215600   2.350   2.069   3.604  0.4387  0.8602  0.0764
 1322SOL     OW15601   2.951   0.578   4.046  0.1650 -0.3527 -0.2084
 1322SOL    HW115602   3.007   0.629   4.105  0.0660  0.6022 -0.9443
 1322SOL    HW215603   3.018   0.514   4.019  1.5703  1.2595 -0.5290
 1323SOL     OW15604   2.987   3.800   9.636  0.4981  0.1745  0.1365
 1323SOL    HW115605   2.993   3.710   9.604  0.4417  0.0591  0.4505
 1323SOL    HW215606   2.973   3.779   9.729  1.8778  1.1415  0.5696
 1324SOL     OW15607   0.340   0.065   3.588  0.3607  0.0276 -0.0495
 1324SOL    HW115608   0.368   4.727   3.533  2.2803  1.4624 -0.9740
 1324SOL    HW215609   0.386   0.134   3.541  1.3396 -0.6437 -0.1013
 1325SOL     OW15610   3.192   0.727   7.171  0.0188 -0.1275  0.1119
 1325SOL    HW115611   3.263   0.750   7.111 -1.9605  0.7673 -1.8717
 1325SOL    HW215612   3.186   0.807   7.223 -3.1624 -0.6606  0.6092
 1326SOL     OW15613   4.396   4.122  12.254 -0.0998 -0.5496 -0.8577
 1326SOL    HW115614   4.369   4.031  12.250 -2.2129  0.0384  0.3102
 1326SOL    HW215615   4.488   4.117  12.226  0.5702 -1.2256  1.4684
 1327SOL     OW15616   0.187   4.718   5.072 -0.3244  0.1089  0.3548
 1327SOL    HW115617   0.211   4.647   5.132 -4.6865 -0.3623  1.5265
 1327SOL    HW215618   0.146   4.661   5.007  0.5502 -1.1605  0.9176
 1328SOL     OW15619   3.770   4.058  14.057 -0.0027 -0.1997  0.6695
 1328SOL    HW115620   3.693   4.006  14.079 -0.4494  0.8097  1.4721
 1328SOL    HW215621   3.779   4.117  14.132 -3.4010 -3.0498  3.3172
 1329SOL     OW15622   2.706   1.960   9.567  0.4160  0.6559 -0.5797
 1329SOL    HW115623   2.800   1.952   9.552  0.5075 -2.9346  1.7095
 1329SOL    HW215624   2.674   1.915   9.489 -0.0164  1.2177 -0.7257
 1330SOL     OW15625   0.471   0.354  16.707  0.3062 -0.0128 -0.5957
 1330SOL    HW115626   0.457   0.259  16.711  3.1272 -0.4371 -0.6435
 1330SOL    HW215627   0.399   0.393  16.757 -0.0257 -1.6926  0.2674
 1331SOL     OW15628   2.693   2.675   2.508  0.8556  0.0807  0.1246
 1331SOL    HW115629   2.649   2.647   2.588 -0.7477  0.6397 -0.5735
 1331SOL    HW215630   2.664   2.767   2.511  1.0871  0.2015 -1.3015
 1332SOL     OW15631   2.794   2.023   3.172  0.2301 -0.5480 -0.2447
 1332SOL    HW115632   2.754   1.970   3.103 -2.3618 -0.6678  1.3409
 1332SOL    HW215633   2.784   1.966   3.248 -0.3800  1.6312  1.2935
 1333SOL     OW15634   1.818   1.283   5.622 -0.4604  0.0488  0.5950
 1333SOL    HW115635   1.874   1.315   5.551 -1.6919 -0.4509 -0.5950
 1333SOL    HW215636   1.738   1.327   5.594 -0.6334 -1.0237 -0.5731
 1334SOL     OW15637   0.649   3.082  13.251 -0.3527  0.7002  0.8291
 1334SOL    HW115638   0.584   3.016  13.275  1.0944 -0.9826  0.0436
 1334SOL    HW215639   0.682   3.110  13.337 -1.0770  0.0299  1.3309
 1335SOL     OW15640   2.713   3.689   8.787  0.7442  0.3120  0.2462
 1335SOL    HW115641   2.806   3.706   8.797  1.0426 -0.4061 -1.1916
 1335SOL    HW215642   2.684   3.719   8.873  0.5329 -2.3668  1.1163
 1336SOL     OW15643   0.580   3.346   3.401  0.1039 -0.6053  0.6539
 1336SOL    HW115644   0.529   3.316   3.476 -0.8624 -0.1624  0.1773
 1336SOL    HW215645   0.664   3.370   3.439  0.2940  0.4239 -0.3908
 1337SOL     OW15646   3.904   4.392   1.865  0.2664 -0.1104 -0.5901
 1337SOL    HW115647   3.825   4.341   1.883  0.0135  0.8803  1.1340
 1337SOL    HW215648   3.971   4.326   1.851  1.2608  0.9281 -0.6868
 1338SOL     OW15649   3.876   4.729   3.114  0.5874  0.0609 -0.4990
 1338SOL    HW115650   3.955   0.024   3.158  1.8973 -0.1489 -2.7012
 1338SOL    HW215651   3.808   0.049   3.152 -1.0120 -2.1916 -0.0948
 1339SOL     OW15652   0.755   3.447   7.558 -0.4781  0.2881 -0.3125
 1339SOL    HW115653   0.776   3.383   7.626 -0.1606  0.1183 -0.5677
 1339SOL    HW215654   0.832   3.436   7.502  0.6988  2.9626  0.7716
 1340SOL     OW15655   1.206   3.301   8.181 -0.1876  0.8119 -0.7924
 1340SOL    HW115656   1.145   3.278   8.251 -0.0781  0.3030 -0.8647
 1340SOL    HW215657   1.254   3.361   8.238  0.5625 -1.1888  0.6389
 1341SOL     OW15658   2.114   3.107   3.024  0.3527 -0.5194  0.4215
 1341SOL    HW115659   2.058   3.088   3.099 -1.3341  2.4749 -0.0476
 1341SOL    HW215660   2.199   3.076   3.055  0.1393 -0.9975  0.5233
 1342SOL     OW15661   4.645   3.997   9.080 -0.7187  0.7484  0.0472
 1342SOL    HW115662   4.687   3.940   9.144  0.3855 -0.0602 -1.3906
 1342SOL    HW215663   4.562   3.950   9.079 -0.3232  0.0272  1.4716
 1343SOL     OW15664   2.017   4.230   1.011 -0.0576  0.1962 -0.0999
 1343SOL    HW115665   2.079   4.208   1.080 -2.0226 -1.9971  0.9482
 1343SOL    HW215666   1.992   4.140   0.992  0.3783 -0.4500  2.4180
 1344SOL     OW15667   3.336   4.565   8.047  0.4967  0.0047 -0.2807
 1344SOL    HW115668   3.387   4.644   8.029  1.5907 -0.2898  1.5914
 1344SOL    HW215669   3.292   4.586   8.129  1.6518 -0.1483  0.3714
 1345SOL     OW15670   3.121   1.095   7.094 -0.0076  0.3048  0.3635
 1345SOL    HW115671   3.066   1.146   7.153  1.8215  1.6506  0.9139
 1345SOL    HW215672   3.162   1.029   7.151  0.4226 -0.2504 -0.5804
 1346SOL     OW15673   2.217   2.610   7.133  0.1105 -0.6627  0.0724
 1346SOL    HW115674   2.182   2.545   7.073 -0.5140 -0.3309  0.0817
 1346SOL    HW215675   2.236   2.544   7.200 -3.1118  0.1672  1.7888
 1347SOL     OW15676   4.169   3.350  10.084  0.3123 -0.1034  0.2031
 1347SOL    HW115677   4.242   3.412  10.090  0.7983 -0.7999  1.3877
 1347SOL    HW215678   4.096   3.396  10.126  0.2444  1.1303 -1.2319
 1348SOL     OW15679   1.996   3.097  10.745  0.4584  0.2716  0.6049
 1348SOL    HW115680   2.073   3.043  10.761  0.4357  0.3977  1.1345
 1348SOL    HW215681   1.937   3.065  10.813 -0.7544 -0.4926 -0.8033
 1349SOL     OW15682   4.007   3.053   7.666  0.0939  0.1059 -0.3477
 1349SOL    HW115683   3.956   3.023   7.742  1.0692 -1.3634 -0.2831
 1349SOL    HW215684   4.092   3.012   7.681 -0.0963  0.2914  1.1979
 1350SOL     OW15685   0.321   3.258   4.033  0.1161  0.0637 -0.0863
 1350SOL    HW115686   0.312   3.267   4.128 -0.5184 -1.8436  0.0319
 1350SOL    HW215687   0.326   3.349   4.002  1.2515 -0.0482 -0.2576
 1351SOL     OW15688   3.523   3.294   9.082 -0.2443 -0.1257 -0.3034
 1351SOL    HW115689   3.578   3.351   9.028 -1.4977  1.0140 -0.3869
 1351SOL    HW215690   3.562   3.209   9.065 -2.3675 -1.4741  1.4924
 1352SOL     OW15691   1.852   2.206   5.366 -0.4431  0.1452  0.6079
 1352SOL    HW115692   1.846   2.251   5.450 -1.3724 -0.5319  0.9052
 1352SOL    HW215693   1.914   2.138   5.391 -0.5455  0.7508  2.5177
 1353SOL     OW15694   0.439   2.011   3.686  0.4101  0.3720 -0.4187
 1353SOL    HW115695   0.402   2.026   3.599 -1.1629 -0.3584  0.1222
 1353SOL    HW215696   0.370   1.965   3.735  1.5958  0.0516  0.9658
 1354SOL     OW15697   4.371   1.170   7.547 -0.0003  0.3485  0.6501
 1354SOL    HW115698   4.284   1.135   7.535 -0.3659  0.7562  2.0219
 1354SOL    HW215699   4.419   1.138   7.471  0.3986  1.1213  0.5692
 1355SOL     OW15700   3.532   3.765  17.397 -0.2894  0.1453  0.0879
 1355SOL    HW115701   3.528   3.857  17.422 -0.2770  0.0628  0.3976
 1355SOL    HW215702   3.458   3.747  17.339  0.7766  0.6649 -1.4369
 1356SOL     OW15703   4.326   2.100   2.093  0.5873 -1.0070  0.3287
 1356SOL    HW115704   4.319   2.010   2.060  0.3527 -1.2596  1.0540
 1356SOL    HW215705   4.267   2.154   2.040  1.0256 -0.9150 -0.0660
 1357SOL     OW15706   4.304   1.372   3.648 -0.1221 -0.0384 -0.1648
 1357SOL    HW115707   4.282   1.368   3.741 -1.1018 -0.5301 -0.4091
 1357SOL    HW215708   4.399   1.361   3.658 -0.2507  0.1406  1.2556
 1358SOL     OW15709   2.698   1.709   1.463 -0.4503  0.1974  0.5657
 1358SOL    HW115710   2.684   1.797   1.497  2.7470  2.0979 -3.1168
 1358SOL    HW215711   2.677   1.719   1.371 -1.8023 -1.1282  0.7301
 1359SOL     OW15712   3.252   0.983   9.478  0.0163 -0.0366  0.1413
 1359SOL    HW115713   3.340   0.975   9.441 -0.2661 -0.9926 -0.3155
 1359SOL    HW215714   3.255   1.070   9.519  1.7104 -0.0854  0.0913
 1360SOL     OW15715   4.348   1.271   6.018  0.2986 -0.3342 -0.5726
 1360SOL    HW115716   4.392   1.186   6.008 -0.8156 -0.9993  0.1646
 1360SOL    HW215717   4.395   1.332   5.962 -0.9223  1.3790  0.2976
 1361SOL     OW15718   4.253   3.013  11.054 -0.2169  0.6669 -0.4597
 1361SOL    HW115719   4.225   3.073  11.123 -1.0245 -0.0600 -0.1603
 1361SOL    HW215720   4.320   2.958  11.095  1.6024  2.4326 -1.0468
 1362SOL     OW15721   4.476   1.188   3.243 -0.6213  0.3770 -0.4099
 1362SOL    HW115722   4.402   1.230   3.289 -0.7792 -0.8117  0.4123
 1362SOL    HW215723   4.430   1.112   3.207 -1.7982 -0.4456  2.8548
 1363SOL     OW15724   0.296   2.466   1.059 -0.2499  0.8393 -0.4859
 1363SOL    HW115725   0.375   2.436   1.014 -0.8453  0.1937 -1.1064
 1363SOL    HW215726   0.300   2.559   1.039 -0.5759  1.1254  0.7677
 1364SOL     OW15727   3.498   0.326   5.128  0.5784  0.2973 -0.2981
 1364SOL    HW115728   3.542   0.244   5.152 -0.2461 -0.3969 -1.1654
 1364SOL    HW215729   3.452   0.353   5.208 -1.7881 -0.4002 -1.4339
 1365SOL     OW15730   2.345   1.722   7.347 -0.3329 -0.2091 -0.1872
 1365SOL    HW115731   2.411   1.654   7.360 -0.6881 -0.9059 -2.0174
 1365SOL    HW215732   2.279   1.676   7.294  0.4172  0.2349 -1.4845
 1366SOL     OW15733   0.446   2.462   1.347 -0.0926  0.0859 -0.7843
 1366SOL    HW115734   0.477   2.458   1.257 -2.8605  1.6015 -1.8099
 1366SOL    HW215735   0.367   2.410   1.334  1.0457 -1.6501 -0.7983
 1367SOL     OW15736   2.186   4.666   4.765 -0.4008 -0.1430  0.1391
 1367SOL    HW115737   2.211   4.575   4.779 -0.9179  0.0124  1.9727
 1367SOL    HW215738   2.263   4.713   4.798 -0.8146  0.6879 -0.0864
 1368SOL     OW15739   0.066   2.987  12.734  0.0306 -0.3221  0.1098
 1368SOL    HW115740   0.091   3.037  12.656  1.4284 -0.0891  0.6923
 1368SOL    HW215741   0.041   3.054  12.798 -0.7486  1.3497 -1.9385
 1369SOL     OW15742   0.486   0.551   8.312 -0.0393 -0.0552 -0.5650
 1369SOL    HW115743   0.421   0.524   8.376 -0.2982  1.8164 -0.0255
 1369SOL    HW215744   0.437   0.521   8.235 -0.6827 -0.7586  0.1259
 1370SOL     OW15745   3.105   0.785   4.193 -0.2198 -0.1036  0.6019
 1370SOL    HW115746   3.068   0.779   4.281 -0.4481 -0.0491  0.5084
 1370SOL    HW215747   3.050   0.857   4.162 -1.6772  0.0680  3.6712
 1371SOL     OW15748   4.557   3.704   6.367  0.7004 -0.3025 -0.1742
 1371SOL    HW115749   4.491   3.638   6.390  0.4385 -0.1266 -0.4185
 1371SOL    HW215750   4.579   3.734   6.455  0.4174  2.3698 -1.0237
 1372SOL     OW15751   4.008   0.235   4.687  0.6059 -0.4325 -0.1825
 1372SOL    HW115752   3.993   0.326   4.714  2.4082  0.0906 -0.8980
 1372SOL    HW215753   4.071   0.243   4.615 -0.1822  1.0825 -0.7043
 1373SOL     OW15754   2.734   4.457   2.083 -0.4934  0.4192 -0.1574
 1373SOL    HW115755   2.706   4.401   2.011 -1.1070  0.7692 -0.1950
 1373SOL    HW215756   2.763   4.522   2.019 -0.3167  0.6982  0.2049
 1374SOL     OW15757   1.702   3.973   7.941 -0.2903 -0.3928  0.2303
 1374SOL    HW115758   1.729   3.884   7.918 -0.6985 -0.8882  1.6676
 1374SOL    HW215759   1.606   3.971   7.942 -0.2943 -0.0261  1.2105
 1375SOL     OW15760   2.172   4.406   8.741  0.1162  0.1248  0.6633
 1375SOL    HW115761   2.161   4.469   8.812  1.0211  1.6259 -0.5302
 1375SOL    HW215762   2.230   4.447   8.676 -0.0916 -0.2778  0.2259
 1376SOL     OW15763   3.491   1.271   7.797  0.9870 -0.0155 -0.0934
 1376SOL    HW115764   3.517   1.206   7.862  1.6794  2.2077  1.8603
 1376SOL    HW215765   3.574   1.318   7.793  1.7256 -1.4248 -1.2261
 1377SOL     OW15766   1.138   3.623  13.880  0.5440 -0.2750  0.1222
 1377SOL    HW115767   1.220   3.672  13.873  0.9528 -1.0737 -0.6429
 1377SOL    HW215768   1.160   3.531  13.894 -0.5530 -0.5506  0.0121
 1378SOL     OW15769   1.781   0.584   6.424 -0.4651 -0.5558  0.1485
 1378SOL    HW115770   1.785   0.497   6.385 -0.3659 -0.6185  0.2988
 1378SOL    HW215771   1.780   0.559   6.516 -0.2899 -1.7795 -0.1908
 1379SOL     OW15772   1.904   0.637   9.867 -0.4395 -0.3452  0.6043
 1379SOL    HW115773   1.870   0.571   9.807  0.2139  1.8215 -2.1570
 1379SOL    HW215774   1.870   0.605   9.951  0.4634 -1.8903  0.3739
 1380SOL     OW15775   1.018   2.893   2.296 -0.2901  0.0415 -0.3735
 1380SOL    HW115776   1.034   2.799   2.286 -3.4573 -0.4595 -0.5137
 1380SOL    HW215777   0.943   2.893   2.356 -0.9278 -1.7340 -1.1625
 1381SOL     OW15778   4.217   4.717  12.712 -0.2941  0.2443  0.3590
 1381SOL    HW115779   4.125   4.690  12.721 -1.1354  3.6516  2.0008
 1381SOL    HW215780   4.228   4.659  12.637 -1.2996 -2.5595  2.4097
 1382SOL     OW15781   2.761   3.401   7.080  0.9244 -0.2441 -0.2951
 1382SOL    HW115782   2.801   3.315   7.070  0.2074 -0.2669 -3.0029
 1382SOL    HW215783   2.823   3.453   7.131 -0.9415  0.3513  1.3459
 1383SOL     OW15784   2.944   3.046   6.279  0.5759  0.1643  0.1048
 1383SOL    HW115785   2.929   3.073   6.369  0.1991  0.1639  0.0456
 1383SOL    HW215786   2.949   2.955   6.306 -1.8104  0.4963  1.6265
 1384SOL     OW15787   0.475   1.030   7.830 -0.3905 -0.3970 -0.0011
 1384SOL    HW115788   0.515   1.099   7.777  0.3689 -1.1671 -0.4341
 1384SOL    HW215789   0.555   0.980   7.847  1.0801  1.6938 -0.6803
 1385SOL     OW15790   3.438   2.929   6.292  0.0512  0.1122  0.8719
 1385SOL    HW115791   3.514   2.950   6.239 -0.0891  1.4314  1.1957
 1385SOL    HW215792   3.461   2.960   6.380 -1.0629  0.3639  1.0731
 1386SOL     OW15793   4.618   2.747   5.417  0.1905  0.1832 -0.1710
 1386SOL    HW115794   4.686   2.684   5.395  0.0993  0.0170  0.0276
 1386SOL    HW215795   4.653   2.785   5.497  1.6308 -0.9758 -0.2471
 1387SOL     OW15796   0.537   0.825   3.832  0.2699 -0.3581 -0.1328
 1387SOL    HW115797   0.446   0.826   3.801  0.4461 -2.3854 -0.7145
 1387SOL    HW215798   0.538   0.908   3.881  0.9637 -1.2017  1.2733
 1388SOL     OW15799   2.160   3.053   1.883  0.3312  0.1171  0.4574
 1388SOL    HW115800   2.090   2.989   1.869 -0.1939  0.6816  0.5458
 1388SOL    HW215801   2.199   3.066   1.797 -3.5249 -2.8810 -1.7540
 1389SOL     OW15802   4.393   3.759  17.618 -0.7197 -0.0197 -0.4222
 1389SOL    HW115803   4.371   3.848  17.589  0.2568  0.4137  0.1736
 1389SOL    HW215804   4.443   3.776  17.698  1.2110 -1.0820 -1.4114
 1390SOL     OW15805   1.505   4.401   3.334 -0.1314 -0.4995  0.0448
 1390SOL    HW115806   1.498   4.469   3.401 -1.7117 -0.2076 -0.4117
 1390SOL    HW215807   1.574   4.349   3.374  0.4439 -1.2132 -1.9119
 1391SOL     OW15808   2.948   4.431  15.022  0.0178 -0.6486 -0.2062
 1391SOL    HW115809   2.949   4.430  15.117  1.2410  1.2284 -0.2079
 1391SOL    HW215810   2.855   4.424  14.999 -0.0406 -1.5191  0.2963
 1392SOL     OW15811   0.459   3.769   6.734 -0.0423  0.2355  0.5427
 1392SOL    HW115812   0.474   3.695   6.793 -1.9499  1.1008  2.1198
 1392SOL    HW215813   0.501   3.744   6.651  0.8963 -2.6779  1.9120
 1393SOL     OW15814   0.053   1.501   1.449  0.6580 -0.6620 -0.1167
 1393SOL    HW115815   0.131   1.539   1.409 -0.2573  3.1625  1.6740
 1393SOL    HW215816   0.069   1.519   1.542 -0.8335  1.7361 -0.2992
 1394SOL     OW15817   4.479   1.013   3.769 -0.4316  0.6104 -0.0194
 1394SOL    HW115818   4.552   1.051   3.818  1.5185 -1.9655 -0.9533
 1394SOL    HW215819   4.453   0.941   3.827  1.6064  1.3297  1.7686
 1395SOL     OW15820   0.458   0.231   0.881  0.0374  0.6973  0.8312
 1395SOL    HW115821   0.395   0.244   0.811 -0.9938 -2.4579  1.1721
 1395SOL    HW215822   0.500   0.148   0.857  0.8139  1.3297  0.0104
 1396SOL     OW15823   2.989   2.082   5.265  0.2310  0.2492  0.0174
 1396SOL    HW115824   2.895   2.071   5.278  0.0453  1.8711  0.0664
 1396SOL    HW215825   2.988   2.105   5.172  2.8935 -1.5090 -0.4393
 1397SOL     OW15826   4.352   0.938  16.368  0.4027 -0.6182  0.0796
 1397SOL    HW115827   4.349   1.032  16.382  0.1213 -0.5564 -0.3780
 1397SOL    HW215828   4.266   0.931  16.326  2.5490  0.0406 -4.4786
 1398SOL     OW15829   3.681   4.209   0.808 -0.0248  0.2686  0.4344
 1398SOL    HW115830   3.681   4.292   0.855 -0.2232  0.1511  0.6413
 1398SOL    HW215831   3.600   4.171   0.843 -1.5758  0.7933 -2.5504
 1399SOL     OW15832   3.347   2.126   9.894 -0.5773  0.0541  0.9335
 1399SOL    HW115833   3.376   2.038   9.870  1.0000  0.5165  1.1397
 1399SOL    HW215834   3.425   2.180   9.878 -0.3550 -0.1745  1.2503
 1400SOL     OW15835   2.432   1.419   7.442 -0.5361  0.2429  0.1181
 1400SOL    HW115836   2.519   1.388   7.413 -1.5266  0.4554 -3.0848
 1400SOL    HW215837   2.465   1.483   7.504 -1.3638  0.8672 -0.0975
 1401SOL     OW15838   2.463   1.796  10.269  0.3438  0.1920 -0.0987
 1401SOL    HW115839   2.414   1.872  10.237 -1.2566 -0.7345  0.1591
 1401SOL    HW215840   2.550   1.830  10.288  1.0462 -0.4257 -2.1848
 1402SOL     OW15841   0.064   1.760   8.151 -0.2088  0.1116 -0.1165
 1402SOL    HW115842   0.094   1.742   8.240  0.7479  0.6628 -0.3244
 1402SOL    HW215843   0.140   1.759   8.092  0.6577  0.7268  0.9911
 1403SOL     OW15844   0.847   0.783   8.999 -0.0038 -0.2990 -0.6854
 1403SOL    HW115845   0.852   0.706   8.942  1.1319  0.4009 -1.5348
 1403SOL    HW215846   0.856   0.760   9.092 -0.4218  2.8391  0.1266
 1404SOL     OW15847   3.813   3.474   2.744  0.0605  0.0773 -0.4033
 1404SOL    HW115848   3.834   3.505   2.656 -1.3377 -1.5054 -1.2820
 1404SOL    HW215849   3.863   3.538   2.795 -1.1479 -0.2901  1.2525
 1405SOL     OW15850   1.053   0.470  17.587  0.3798  0.5253 -0.1444
 1405SOL    HW115851   0.979   0.464  17.648  0.5342  1.0130  0.0910
 1405SOL    HW215852   1.123   0.421  17.629 -1.0550 -1.6777 -0.3211
 1406SOL     OW15853   2.219   0.482  10.061  0.3513 -0.0901 -0.4328
 1406SOL    HW115854   2.154   0.524  10.117 -0.4845 -1.2265 -0.5444
 1406SOL    HW215855   2.263   0.558  10.021  1.3832 -0.1149  0.6762
 1407SOL     OW15856   2.129   2.328   5.000 -0.1086  0.3300  0.5083
 1407SOL    HW115857   2.130   2.342   4.906 -2.1713  2.1710  0.7491
 1407SOL    HW215858   2.058   2.263   5.003  0.5077 -0.4698 -2.4970
 1408SOL     OW15859   3.536   3.175   9.610  0.0990  0.5276  0.0798
 1408SOL    HW115860   3.534   3.119   9.532 -2.6698 -0.5128  0.9175
 1408SOL    HW215861   3.450   3.149   9.643 -0.1368 -0.2446 -1.1380
 1409SOL     OW15862   2.341   2.569   5.633 -0.0647 -0.4692 -0.4911
 1409SOL    HW115863   2.349   2.479   5.662  0.5011 -0.0224  0.7507
 1409SOL    HW215864   2.312   2.624   5.705  2.5827  0.3541 -0.0356
 1410SOL     OW15865   2.545   4.724   1.641  0.3285  0.6177  0.2108
 1410SOL    HW115866   2.550   4.651   1.703  1.3567 -0.8868 -1.6469
 1410SOL    HW215867   2.537   0.056   1.709  0.0426  0.6703  0.1284
 1411SOL     OW15868   2.398   0.408   2.864  0.2749 -0.2181 -0.2090
 1411SOL    HW115869   2.308   0.376   2.855  0.3420 -0.2766 -0.6795
 1411SOL    HW215870   2.427   0.406   2.773 -0.8394 -1.8418 -0.5193
 1412SOL     OW15871   0.403   3.064   4.854 -0.2196  0.1444  0.1538
 1412SOL    HW115872   0.452   3.022   4.924 -1.2721  0.5103  1.1266
 1412SOL    HW215873   0.452   3.041   4.776  0.9825 -0.9307  1.2297
 1413SOL     OW15874   2.409   0.845   0.221 -0.2684 -0.2945  0.4557
 1413SOL    HW115875   2.492   0.806   0.248  0.4077  1.4988  0.9568
 1413SOL    HW215876   2.366   0.766   0.186 -1.0830  0.8219 -1.0602
 1414SOL     OW15877   3.428   4.104   7.809 -0.1313  0.2329 -0.7183
 1414SOL    HW115878   3.411   4.013   7.835 -1.9345 -0.0560 -2.9769
 1414SOL    HW215879   3.503   4.086   7.753  0.6186 -1.1126  0.6967
 1415SOL     OW15880   3.276   0.553   5.263 -0.1553  0.1073 -0.6626
 1415SOL    HW115881   3.270   0.573   5.356 -3.2670  1.3165 -1.1132
 1415SOL    HW215882   3.184   0.539   5.240 -0.8845  1.8769  1.2875
 1416SOL     OW15883   3.086   0.937  16.624  0.0916 -0.2191  0.1801
 1416SOL    HW115884   3.116   0.858  16.670 -3.0478 -1.2750  0.4347
 1416SOL    HW215885   2.997   0.907  16.606 -0.8667  4.6149 -3.1724
 1417SOL     OW15886   3.733   4.630   4.981  0.3093  0.3485  0.3931
 1417SOL    HW115887   3.765   4.673   4.901  1.4276 -1.3632 -0.0633
 1417SOL    HW215888   3.739   4.539   4.952 -0.6193 -0.2456  2.0746
 1418SOL     OW15889   4.642   2.443   9.266  0.4773  0.0137 -0.6489
 1418SOL    HW115890   4.686   2.511   9.214 -1.1192  0.4282 -1.4494
 1418SOL    HW215891   4.649   2.469   9.358  1.5357 -0.1378 -0.6820
 1419SOL     OW15892   2.474   2.951   1.847 -0.3222  0.2334  0.1397
 1419SOL    HW115893   2.402   2.977   1.790 -0.2636  1.0481  0.4307
 1419SOL    HW215894   2.539   2.919   1.784 -0.0667 -0.6856  0.8694
 1420SOL     OW15895   3.012   3.185   3.879 -0.7357  0.2714 -0.4219
 1420SOL    HW115896   3.093   3.218   3.918 -1.3270  2.4997 -1.0678
 1420SOL    HW215897   2.980   3.258   3.825 -0.0683  1.5668  0.9314
 1421SOL     OW15898   0.221   1.341   1.787 -1.2065  0.2801  0.1707
 1421SOL    HW115899   0.196   1.417   1.735 -0.6293 -0.2586 -0.8863
 1421SOL    HW215900   0.139   1.302   1.818 -0.1003 -0.9859  1.5257
 1422SOL     OW15901   3.486   2.110   1.258 -0.0113 -0.1966 -0.5183
 1422SOL    HW115902   3.560   2.124   1.200 -0.2332 -1.2222 -1.0598
 1422SOL    HW215903   3.527   2.068   1.333 -1.5392 -0.9381 -0.0923
 1423SOL     OW15904   4.542   3.954   3.863  0.1112  0.1345 -0.1346
 1423SOL    HW115905   4.480   3.987   3.798  0.2217 -3.1579 -1.8835
 1423SOL    HW215906   4.621   3.968   3.811 -0.0802 -1.2700 -0.7881
 1424SOL     OW15907   2.323   2.464  17.139 -0.6358  0.1647  0.0081
 1424SOL    HW115908   2.310   2.538  17.081  0.4447  0.0190 -0.4105
 1424SOL    HW215909   2.360   2.503  17.218  2.6443 -1.0406 -0.9326
 1425SOL     OW15910   3.683   3.732   6.786 -0.4335  0.5148  0.1311
 1425SOL    HW115911   3.737   3.655   6.770 -0.4657  1.1224 -2.8331
 1425SOL    HW215912   3.700   3.755   6.878  1.3555  0.4323 -0.1876
 1426SOL     OW15913   1.241   0.874   6.353 -0.2304 -0.9719 -0.2735
 1426SOL    HW115914   1.310   0.936   6.374 -0.6929 -0.9696  1.2423
 1426SOL    HW215915   1.243   0.807   6.422  0.8347  1.5867  2.1507
 1427SOL     OW15916   0.529   0.245   5.295 -0.1040 -0.0069 -0.0586
 1427SOL    HW115917   0.440   0.260   5.264 -0.1867  1.8016  1.0753
 1427SOL    HW215918   0.515   0.166   5.347 -1.4034  0.7993  0.8037
 1428SOL     OW15919   1.637   1.057   1.787  0.6385 -0.2444  0.3708
 1428SOL    HW115920   1.545   1.061   1.762  1.0819  0.8483 -1.1182
 1428SOL    HW215921   1.618   1.032   1.877  1.0013 -1.5146  0.0996
 1429SOL     OW15922   1.596   1.685   6.977  0.4392  0.3877 -0.8514
 1429SOL    HW115923   1.625   1.764   7.023 -0.7958  1.1872 -1.4132
 1429SOL    HW215924   1.674   1.631   6.964 -0.0734 -0.5998  0.2403
 1430SOL     OW15925   1.855   0.257   3.697 -0.0322 -0.2220 -0.2630
 1430SOL    HW115926   1.793   0.279   3.766 -0.6516 -0.0392 -0.8754
 1430SOL    HW215927   1.907   0.337   3.691  0.1012 -0.1614  1.9447
 1431SOL     OW15928   4.265   1.086   4.526 -0.1110 -0.1568  0.0028
 1431SOL    HW115929   4.358   1.075   4.505  0.6987  1.4697  2.6189
 1431SOL    HW215930   4.250   0.998   4.561  0.9805 -1.3557 -2.5846
 1432SOL     OW15931   1.939   4.524   4.992  0.8779 -0.4671 -0.0871
 1432SOL    HW115932   1.892   4.527   5.075 -1.1036 -1.4206 -1.1574
 1432SOL    HW215933   1.946   4.617   4.973  0.7786 -0.1885  1.3020
 1433SOL     OW15934   0.776   4.226   4.066  0.0031  0.4196  0.0973
 1433SOL    HW115935   0.685   4.202   4.047 -0.2044  1.8954 -0.8203
 1433SOL    HW215936   0.782   4.235   4.161 -2.2336 -0.3347  0.3200
 1434SOL     OW15937   0.705   0.437   6.298  0.1698 -0.5262 -0.1531
 1434SOL    HW115938   0.659   0.516   6.270 -0.9341 -0.8417  0.7678
 1434SOL    HW215939   0.739   0.466   6.383 -0.7675 -0.0347  0.0453
 1435SOL     OW15940   2.522   2.890  17.314 -0.0001 -0.1247 -0.5279
 1435SOL    HW115941   2.508   2.860  17.403 -0.6779  2.2052  0.1368
 1435SOL    HW215942   2.506   2.983  17.323  3.2197  0.4635 -0.6590
 1436SOL     OW15943   4.406   1.036   7.939 -0.0354  0.3431 -0.0813
 1436SOL    HW115944   4.477   1.028   7.875  1.1319  0.4196  1.1811
 1436SOL    HW215945   4.430   0.969   8.004  2.4667  0.9601 -0.3468
 1437SOL     OW15946   4.144   2.827  14.504 -0.2002 -0.0368  0.5590
 1437SOL    HW115947   4.213   2.800  14.564 -0.3340  1.9316  1.6105
 1437SOL    HW215948   4.067   2.822  14.561  0.7294 -0.2692  1.7811
 1438SOL     OW15949   3.189   3.896   5.388 -0.4304 -0.2594 -0.5811
 1438SOL    HW115950   3.241   3.815   5.385  1.1125  0.7564 -1.2436
 1438SOL    HW215951   3.100   3.868   5.366 -1.0196  1.2840 -0.1366
 1439SOL     OW15952   1.318   1.777  13.082  0.3208 -0.4280 -0.4767
 1439SOL    HW115953   1.233   1.756  13.121  0.4266  0.6599  0.3417
 1439SOL    HW215954   1.378   1.708  13.111  0.8052  0.4618  0.6717
 1440SOL     OW15955   2.899   0.878   2.949 -0.5536 -0.0431 -0.0739
 1440SOL    HW115956   2.867   0.948   2.893  0.8587  0.1920 -0.5981
 1440SOL    HW215957   2.873   0.920   3.031  0.0423  2.6309 -1.2624
 1441SOL     OW15958   2.892   3.155   6.978 -0.8017  0.1921 -0.3010
 1441SOL    HW115959   2.904   3.062   6.994 -0.3761  0.3203  0.1352
 1441SOL    HW215960   2.985   3.176   6.969 -0.1525 -1.8649  1.5941
 1442SOL     OW15961   3.332   4.406  15.094  0.2010  0.8133 -0.1177
 1442SOL    HW115962   3.388   4.372  15.163 -1.5154 -2.6205 -0.3926
 1442SOL    HW215963   3.327   4.500  15.110  0.2878  0.5769  1.2701
 1443SOL     OW15964   0.523   1.186   4.815  0.2546  0.1027 -0.0233
 1443SOL    HW115965   0.532   1.156   4.906  1.1475 -0.9894 -0.4755
 1443SOL    HW215966   0.472   1.113   4.781  1.0851 -1.2362  1.5987
 1444SOL     OW15967   2.407   2.539   6.501 -0.2084 -0.1490  0.6513
 1444SOL    HW115968   2.411   2.622   6.549 -1.2401 -0.6636  1.6527
 1444SOL    HW215969   2.318   2.512   6.526 -0.6293 -2.2725 -3.2438
 1445SOL     OW15970   2.929   2.485   3.076 -0.0351 -0.4255  1.4336
 1445SOL    HW115971   2.881   2.483   2.993 -1.4420 -3.0356  2.2993
 1445SOL    HW215972   2.912   2.576   3.101  1.1233  0.1729  0.0953
 1446SOL     OW15973   0.461   4.082   5.116 -0.1643  0.0379  0.1486
 1446SOL    HW115974   0.481   3.989   5.107  1.1983  0.3512 -0.0472
 1446SOL    HW215975   0.382   4.074   5.169 -0.4439 -0.8094 -0.4086
 1447SOL     OW15976   3.452   2.397   7.334 -0.0592  0.3785  0.1285
 1447SOL    HW115977   3.431   2.486   7.363 -0.4898  0.3689 -0.1577
 1447SOL    HW215978   3.363   2.363   7.324  0.3840 -0.9348  0.6794
 1448SOL     OW15979   2.140   0.700   2.251 -0.4643 -0.0597 -0.2416
 1448SOL    HW115980   2.100   0.623   2.210  0.6648 -0.3299 -0.8234
 1448SOL    HW215981   2.181   0.737   2.173  2.5484  0.3921  1.5587
 1449SOL     OW15982   4.611   3.333   8.347 -0.0788  0.5642  0.8031
 1449SOL    HW115983   4.612   3.288   8.432 -0.5057 -0.3105  0.3427
 1449SOL    HW215984   4.600   3.422   8.381  1.5507  0.6938  1.0297
 1450SOL     OW15985   3.280   2.134   4.822 -0.3807 -0.0307  0.0948
 1450SOL    HW115986   3.318   2.047   4.835  2.5575  1.5108  1.7422
 1450SOL    HW215987   3.338   2.169   4.755 -1.2820  0.2701 -0.5335
 1451SOL     OW15988   3.913   1.070  14.511  0.2903  0.1144 -0.3826
 1451SOL    HW115989   4.003   1.038  14.510 -0.3655 -1.7440 -1.6521
 1451SOL    HW215990   3.895   1.046  14.601 -0.3510 -0.4120 -0.6497
 1452SOL     OW15991   3.965   0.310   6.769  0.1996 -0.0642 -0.6002
 1452SOL    HW115992   3.938   0.242   6.830 -1.0140 -0.0703 -1.1442
 1452SOL    HW215993   3.917   0.381   6.813  1.2239  1.3517 -1.7410
 1453SOL     OW15994   0.993   1.794   3.288 -0.1034  0.0229 -0.0723
 1453SOL    HW115995   1.007   1.744   3.207  0.6592  1.3277 -0.7498
 1453SOL    HW215996   0.903   1.769   3.307  0.7368 -3.0158 -0.0737
 1454SOL     OW15997   2.460   1.931  10.947  0.1975 -0.1973 -0.1929
 1454SOL    HW115998   2.423   1.981  11.020  1.7393  2.4604 -1.2274
 1454SOL    HW215999   2.489   2.012  10.905 -0.2005  0.6883  1.2279
 1455SOL     OW16000   1.470   1.669   4.647 -0.5029  0.1086  0.4069
 1455SOL    HW116001   1.417   1.591   4.662 -1.1488  0.5097  0.2309
 1455SOL    HW216002   1.470   1.702   4.737 -3.2487 -1.2129  0.8955
 1456SOL     OW16003   1.897   2.290   4.280 -0.2243  0.2845 -0.4701
 1456SOL    HW116004   1.822   2.277   4.222  0.2229  0.9509 -1.2056
 1456SOL    HW216005   1.970   2.262   4.225 -1.1490 -0.6565 -1.2263
 1457SOL     OW16006   0.257   2.973   1.231 -0.5657 -0.1213  0.3372
 1457SOL    HW116007   0.313   2.910   1.277 -0.6243  0.1589  0.7978
 1457SOL    HW216008   0.184   2.919   1.203  0.4758 -0.9200 -0.8440
 1458SOL     OW16009   1.987   0.484   2.099 -0.1351  0.1866  0.2856
 1458SOL    HW116010   2.051   0.416   2.119 -1.1203 -0.3623  1.6275
 1458SOL    HW216011   1.936   0.480   2.180  1.1648  0.1807  1.0944
 1459SOL     OW16012   3.654   1.383   6.014  0.4186 -0.1582 -0.0404
 1459SOL    HW116013   3.623   1.395   6.104 -2.8879 -0.4236 -1.1267
 1459SOL    HW216014   3.687   1.471   5.996  0.5590 -0.0423  0.7729
 1460SOL     OW16015   2.648   2.658  12.207  0.7065  0.1874 -0.5267
 1460SOL    HW116016   2.652   2.702  12.292  1.0991 -0.7084 -0.0718
 1460SOL    HW216017   2.595   2.721  12.159  0.4092 -0.8516 -1.5507
 1461SOL     OW16018   0.149   3.924  12.631 -0.2699  0.4883 -0.3808
 1461SOL    HW116019   0.105   3.918  12.716 -1.5147 -0.8094 -1.1377
 1461SOL    HW216020   0.079   3.886  12.579 -0.6371  0.2528  0.2925
 1462SOL     OW16021   3.130   2.801   1.460 -0.3593  0.1144 -0.0542
 1462SOL    HW116022   3.108   2.749   1.382  0.9446 -1.1368  0.4136
 1462SOL    HW216023   3.202   2.757   1.504 -0.3475  1.0513  0.8467
 1463SOL     OW16024   0.364   4.413  16.367 -0.0040 -0.4488  0.1245
 1463SOL    HW116025   0.431   4.344  16.370  1.3157  0.8100 -0.3010
 1463SOL    HW216026   0.305   4.393  16.440 -0.4959  1.1431  0.1634
 1464SOL     OW16027   1.964   3.031   4.556 -0.5936 -1.1150  0.2000
 1464SOL    HW116028   2.033   3.097   4.563 -1.6121 -0.0825  0.7023
 1464SOL    HW216029   2.011   2.979   4.491  1.7175  1.5792 -0.3004
 1465SOL     OW16030   4.664   2.171   3.583 -0.4783  0.0998 -0.5623
 1465SOL    HW116031   4.652   2.171   3.488 -0.3110 -0.0373 -0.5829
 1465SOL    HW216032   4.583   2.130   3.612 -0.7026  2.7054  2.4292
 1466SOL     OW16033   0.566   4.308   6.705  0.0283 -0.4211  0.1824
 1466SOL    HW116034   0.637   4.370   6.690 -2.0508  2.3365  1.8187
 1466SOL    HW216035   0.614   4.226   6.689  0.2698 -0.6685  2.2359
 1467SOL     OW16036   1.690   1.889   7.138  0.0449  0.6884  0.3100
 1467SOL    HW116037   1.619   1.933   7.186  2.0801  4.4167 -0.0499
 1467SOL    HW216038   1.757   1.893   7.205 -1.1499  3.5748  1.3396
 1468SOL     OW16039   1.872   3.450   8.882  0.0661  0.2551  0.3026
 1468SOL    HW116040   1.949   3.398   8.905  0.4333  0.6521 -0.0290
 1468SOL    HW216041   1.839   3.384   8.821 -1.2740  2.4872 -1.3509
 1469SOL     OW16042   4.420   2.395  17.005  0.1838  0.2031  0.6312
 1469SOL    HW116043   4.407   2.435  16.919  0.0042  2.2260  1.6060
 1469SOL    HW216044   4.359   2.449  17.055 -0.7150 -2.3798  2.3293
 1470SOL     OW16045   0.261   3.394   2.022  0.0728  0.2282 -0.4675
 1470SOL    HW116046   0.243   3.326   1.957  0.3708  0.3208 -0.6412
 1470SOL    HW216047   0.176   3.439   2.016 -0.0248 -0.0218 -0.9289
 1471SOL     OW16048   3.636   2.980   9.397 -0.6496 -0.4869 -0.3709
 1471SOL    HW116049   3.633   3.019   9.309  1.4686 -0.9266 -0.6282
 1471SOL    HW216050   3.729   2.956   9.399 -0.3989  0.5856  1.0167
 1472SOL     OW16051   0.839   0.352   3.066 -0.4500 -0.2437 -0.2752
 1472SOL    HW116052   0.905   0.283   3.061  0.3262  0.5012 -0.3046
 1472SOL    HW216053   0.784   0.326   2.992  0.8645  1.1827 -1.7559
 1473SOL     OW16054   4.265   3.933   4.469  0.2241  1.1239  0.1214
 1473SOL    HW116055   4.266   3.993   4.543 -1.1610 -0.0869  1.1355
 1473SOL    HW216056   4.170   3.942   4.461  0.1728 -0.3621 -0.9415
 1474SOL     OW16057   2.443   0.833  10.981 -0.5991 -0.7684 -0.3055
 1474SOL    HW116058   2.446   0.755  10.926 -0.7626 -0.9629 -0.0351
 1474SOL    HW216059   2.537   0.846  10.993 -0.5555 -0.1254 -1.3233
 1475SOL     OW16060   2.910   4.033   1.228  0.5753 -0.1766 -0.4371
 1475SOL    HW116061   2.886   4.055   1.138 -0.8984  2.1020  0.5061
 1475SOL    HW216062   2.992   3.989   1.207  1.4288  0.7832  0.8457
 1476SOL     OW16063   2.223   0.861  12.909 -0.1683 -0.0809  0.2449
 1476SOL    HW116064   2.174   0.841  12.988  1.9131 -1.1259  1.2745
 1476SOL    HW216065   2.303   0.832  12.952 -0.2252  1.3312  1.2971
 1477SOL     OW16066   1.252   0.499   6.674  0.3298 -0.1611 -0.1969
 1477SOL    HW116067   1.186   0.559   6.639  1.1263  0.5377 -0.4715
 1477SOL    HW216068   1.328   0.544   6.638  0.1270 -0.3386 -0.8502
 1478SOL     OW16069   1.251   0.358  11.232  0.0551  0.8698 -0.1322
 1478SOL    HW116070   1.240   0.452  11.222 -1.4297  0.7220  0.1823
 1478SOL    HW216071   1.163   0.323  11.215 -0.2593  2.3044 -1.4982
 1479SOL     OW16072   0.715   1.411  11.710  0.2070 -0.4427 -0.5489
 1479SOL    HW116073   0.733   1.505  11.711  0.6189 -0.5139 -1.8996
 1479SOL    HW216074   0.770   1.383  11.636 -0.0931  0.8413 -1.2534
 1480SOL     OW16075   0.218   1.992   9.770 -0.3853  0.2511 -0.3284
 1480SOL    HW116076   0.133   1.965   9.805 -0.9088 -0.0144 -1.7874
 1480SOL    HW216077   0.205   1.965   9.679  0.4616  0.2242 -0.4413
 1481SOL     OW16078   1.568   2.305  14.801  0.3563 -0.5090  0.0190
 1481SOL    HW116079   1.637   2.369  14.784  1.5889 -1.5174  1.1979
 1481SOL    HW216080   1.567   2.307  14.897 -2.2529 -0.7052 -0.0044
 1482SOL     OW16081   2.599   1.896   4.929 -0.1349  0.3422  0.3377
 1482SOL    HW116082   2.632   1.986   4.928 -0.9517  0.6441 -0.3471
 1482SOL    HW216083   2.510   1.898   4.893 -0.0836 -1.8448  0.1112
 1483SOL     OW16084   0.864   2.074   8.895 -0.2218  0.4865 -0.8497
 1483SOL    HW116085   0.899   2.143   8.951 -0.1502 -1.6633  1.7653
 1483SOL    HW216086   0.941   2.017   8.897 -1.3704 -0.9725  1.6386
 1484SOL     OW16087   3.869   3.757   2.467  0.4402 -0.1573 -0.5944
 1484SOL    HW116088   3.838   3.812   2.539 -1.9984 -0.5315 -1.3661
 1484SOL    HW216089   3.938   3.705   2.508 -0.2600 -2.0225 -1.7778
 1485SOL     OW16090   3.208   0.166   4.829 -0.7540 -0.4036  0.5747
 1485SOL    HW116091   3.131   0.156   4.886 -0.1859 -2.4618  0.9743
 1485SOL    HW216092   3.194   0.095   4.767  0.5531 -0.3962  0.2839
 1486SOL     OW16093   0.064   2.148   4.542 -0.5107  0.1731 -0.3736
 1486SOL    HW116094   4.709   2.122   4.527 -0.7615 -0.7582  2.7916
 1486SOL    HW216095   0.074   2.193   4.458 -1.1478 -2.9693 -2.1028
 1487SOL     OW16096   0.563   2.755  16.120  0.1850 -0.6946 -0.3516
 1487SOL    HW116097   0.605   2.808  16.188 -0.9788 -0.6872  0.3581
 1487SOL    HW216098   0.505   2.817  16.077  0.2504 -0.2636  0.1766
 1488SOL     OW16099   3.262   3.697  17.331  0.0918 -0.0815  0.1475
 1488SOL    HW116100   3.210   3.618  17.347  0.9836 -0.9459 -1.1257
 1488SOL    HW216101   3.248   3.698  17.236  1.1843 -0.1836 -0.0240
 1489SOL     OW16102   0.336   0.306  14.714  0.1851 -0.6137  0.2280
 1489SOL    HW116103   0.429   0.305  14.694  0.1582  1.7911  0.0607
 1489SOL    HW216104   0.344   0.316  14.809 -0.0128 -1.0249  0.2931
 1490SOL     OW16105   0.242   3.709   5.493 -0.1332  0.3870  0.5576
 1490SOL    HW116106   0.160   3.697   5.445  0.8294 -0.8879 -0.7750
 1490SOL    HW216107   0.260   3.627   5.537  1.0391 -0.5954 -1.7467
 1491SOL     OW16108   3.699   1.440   8.809  0.4531 -0.3236 -0.1097
 1491SOL    HW116109   3.744   1.521   8.788  1.2182 -0.9775 -1.0109
 1491SOL    HW216110   3.673   1.412   8.721  0.6033 -3.5673  0.8740
 1492SOL     OW16111   4.274   4.070   1.627 -0.1005 -0.6265  0.8008
 1492SOL    HW116112   4.293   3.976   1.619  0.3395 -0.3152 -2.0578
 1492SOL    HW216113   4.329   4.085   1.704 -2.6517  0.8344  2.3408
 1493SOL     OW16114   4.429   3.366   4.871  0.5648  0.6617 -0.1099
 1493SOL    HW116115   4.448   3.429   4.940 -0.0751  0.3217  0.3768
 1493SOL    HW216116   4.334   3.357   4.868  0.2743  3.3726  1.7569
 1494SOL     OW16117   4.710   3.478   2.753  0.2470  0.5167  0.0063
 1494SOL    HW116118   0.006   3.414   2.817 -1.5583 -1.3588 -1.0062
 1494SOL    HW216119   0.039   3.468   2.683  2.6970 -0.1868  2.3409
 1495SOL     OW16120   1.010   3.680  17.497 -0.6110 -0.1125  0.3528
 1495SOL    HW116121   1.061   3.731  17.560  0.5578 -0.5257 -0.2590
 1495SOL    HW216122   1.051   3.691  17.411 -0.5886  0.0820  0.3878
 1496SOL     OW16123   1.353   0.464   5.307  0.5754  0.2256 -0.2839
 1496SOL    HW116124   1.322   0.517   5.234 -1.1088  1.3258  1.2460
 1496SOL    HW216125   1.277   0.458   5.364  0.1211 -0.8234 -1.0088
 1497SOL     OW16126   4.123   0.278  12.204  0.4142  0.1046 -0.0380
 1497SOL    HW116127   4.145   0.185  12.217  1.0821 -0.0467 -2.3968
 1497SOL    HW216128   4.081   0.271  12.118 -2.4202 -1.4342  1.4441
 1498SOL     OW16129   4.564   2.036   6.412 -0.6395  0.9088 -0.3018
 1498SOL    HW116130   4.503   1.990   6.470  2.1026 -1.1321  0.9859
 1498SOL    HW216131   4.639   1.978   6.419 -2.0412 -0.9304 -0.6993
 1499SOL     OW16132   3.681   2.936   4.104 -0.2617 -0.0805 -0.3208
 1499SOL    HW116133   3.751   2.902   4.159 -0.9024 -1.4139 -0.3227
 1499SOL    HW216134   3.720   3.019   4.076  0.9538 -0.6885 -0.4153
 1500SOL     OW16135   1.460   0.529   8.596  0.1232  0.0661 -0.4217
 1500SOL    HW116136   1.419   0.467   8.536 -0.5598  0.1450 -0.0417
 1500SOL    HW216137   1.421   0.492   8.675 -0.2217  0.3179 -0.4743
 1501SOL     OW16138   1.232   1.848   4.807  0.2592  1.0774 -0.0577
 1501SOL    HW116139   1.190   1.836   4.722 -0.5433 -1.8706  0.7586
 1501SOL    HW216140   1.153   1.851   4.861  0.6201 -0.8575  0.5764
 1502SOL     OW16141   2.098   1.871   7.657  0.0502 -0.4183  0.1024
 1502SOL    HW116142   2.026   1.821   7.694  0.5269 -0.5889  0.7985
 1502SOL    HW216143   2.171   1.809   7.653 -0.9537 -1.6604  1.1617
 1503SOL     OW16144   1.400   0.548  10.989 -0.1200 -1.3264  0.6635
 1503SOL    HW116145   1.374   0.457  10.976 -1.6962 -0.7476 -0.2080
 1503SOL    HW216146   1.455   0.566  10.913 -0.2593 -2.3931  0.3173
 1504SOL     OW16147   2.446   3.941   8.300 -0.2719 -0.6003  0.2002
 1504SOL    HW116148   2.360   3.959   8.262 -2.4820 -0.2979  5.3028
 1504SOL    HW216149   2.504   4.015   8.287 -1.0676  0.1476  0.9207
 1505SOL     OW16150   2.938   4.301   5.044 -0.9937  0.3628  0.1320
 1505SOL    HW116151   2.998   4.321   4.972  0.5352 -1.7254  0.8278
 1505SOL    HW216152   2.959   4.374   5.102  1.5002  0.2912 -0.6929
 1506SOL     OW16153   0.663   4.289  16.933 -0.1307  0.0836 -0.3097
 1506SOL    HW116154   0.595   4.253  16.989 -0.2263  1.1272  0.2456
 1506SOL    HW216155   0.687   4.205  16.892 -0.7887 -0.4026  0.3019
 1507SOL     OW16156   4.120   0.660   1.767 -0.0636  0.6685 -0.1713
 1507SOL    HW116157   4.182   0.731   1.784 -0.3412  0.8774 -0.0222
 1507SOL    HW216158   4.101   0.631   1.856  1.6536 -1.1547 -0.4074
 1508SOL     OW16159   0.290   3.353   2.920  0.4600  0.2671  0.2678
 1508SOL    HW116160   0.354   3.396   2.863  0.0182 -1.4284 -1.5200
 1508SOL    HW216161   0.228   3.312   2.860 -1.0230 -0.0366  2.0219
 1509SOL     OW16162   1.635   4.299   6.791 -0.0403  0.0661 -0.1082
 1509SOL    HW116163   1.672   4.308   6.703  0.0582  0.6316 -0.0100
 1509SOL    HW216164   1.540   4.301   6.780  0.1994  1.5562 -1.9933
 1510SOL     OW16165   2.911   3.979   7.748 -0.0984 -0.2028  0.1306
 1510SOL    HW116166   2.971   3.926   7.695 -0.9700  2.2472 -3.3570
 1510SOL    HW216167   2.939   4.068   7.723 -0.4458  0.2722  1.4481
 1511SOL     OW16168   3.756   0.232   3.146  0.2732  0.6346  0.6866
 1511SOL    HW116169   3.671   0.194   3.167 -0.2229  0.9265 -0.8706
 1511SOL    HW216170   3.781   0.267   3.232 -0.5428  1.6425  0.5134
 1512SOL     OW16171   1.772   1.772   5.144  0.3184 -0.2857 -0.0922
 1512SOL    HW116172   1.756   1.681   5.120  1.9287 -1.3550  2.8425
 1512SOL    HW216173   1.752   1.767   5.238  0.0828  1.3094 -0.0565
 1513SOL     OW16174   0.275   1.898   0.460 -0.3648  0.0631  0.1000
 1513SOL    HW116175   0.308   1.825   0.408  1.5873  0.6292  0.5550
 1513SOL    HW216176   0.264   1.958   0.387  1.8590 -0.6253 -0.8063
 1514SOL     OW16177   3.667   4.234  17.332  0.7711  0.0667  0.5475
 1514SOL    HW116178   3.705   4.272  17.412 -0.5468  3.1804 -0.3310
 1514SOL    HW216179   3.602   4.302  17.318  1.0012  0.7725  2.7946
 1515SOL     OW16180   0.914   3.775   8.766  0.4461  0.4305 -0.0025
 1515SOL    HW116181   0.955   3.694   8.798  2.6686  1.4364 -0.2795
 1515SOL    HW216182   0.990   3.834   8.762  0.4927  0.3261 -0.6913
 1516SOL     OW16183   0.557   0.587   4.734 -0.2531 -0.8673 -0.1238
 1516SOL    HW116184   0.585   0.641   4.808 -2.5114 -0.1427  0.1954
 1516SOL    HW216185   0.473   0.624   4.705  0.5539  1.5006  0.5273
 1517SOL     OW16186   0.881   1.134   2.250 -0.5100 -0.0690  0.1502
 1517SOL    HW116187   0.975   1.141   2.236 -0.4774 -1.0354 -0.0750
 1517SOL    HW216188   0.866   1.104   2.340 -1.4291  1.5226  0.5268
 1518SOL     OW16189   2.605   2.293  13.165  0.0702  0.4899 -0.2520
 1518SOL    HW116190   2.592   2.374  13.115  0.4125  0.7546  0.0870
 1518SOL    HW216191   2.688   2.272  13.123  0.5952 -0.1782  1.1184
 1519SOL     OW16192   4.518   3.544   3.489  0.3152  0.0040  0.2726
 1519SOL    HW116193   4.433   3.510   3.518 -0.4608  0.9162 -0.8908
 1519SOL    HW216194   4.563   3.463   3.467 -3.3843 -1.7841 -0.6565
 1520SOL     OW16195   2.161   3.603   7.442 -0.1620 -1.0039  0.1816
 1520SOL    HW116196   2.148   3.521   7.394  3.2981  0.0260 -2.5465
 1520SOL    HW216197   2.179   3.663   7.370 -0.3195 -1.9392 -0.6424
 1521SOL     OW16198   0.158   1.449   8.908  0.0789  0.1188 -0.0469
 1521SOL    HW116199   0.136   1.417   8.820 -1.4732 -0.2003  0.4644
 1521SOL    HW216200   0.183   1.541   8.895 -0.2055  0.1854 -0.1265
 1522SOL     OW16201   1.193   2.624  15.211 -0.0584  0.1577  0.4511
 1522SOL    HW116202   1.131   2.550  15.211 -0.5605  0.5770  0.0492
 1522SOL    HW216203   1.267   2.564  15.204  0.9781  1.5744 -0.6957
 1523SOL     OW16204   2.951   3.844  15.720 -0.2536 -0.0349 -0.1978
 1523SOL    HW116205   2.906   3.770  15.761  0.0889 -0.5070 -0.6671
 1523SOL    HW216206   2.910   3.918  15.763 -0.1479  0.0747 -0.2866
 1524SOL     OW16207   2.564   3.674   4.679 -0.1276 -0.1690 -0.0819
 1524SOL    HW116208   2.545   3.728   4.602 -1.7645  0.2461  0.6160
 1524SOL    HW216209   2.631   3.721   4.729  0.5246 -2.4265  1.1680
 1525SOL     OW16210   0.401   0.357  13.533  0.6692  0.2077 -0.2950
 1525SOL    HW116211   0.436   0.405  13.458  1.2180  1.7809  0.9715
 1525SOL    HW216212   0.429   0.269  13.509 -1.7435 -0.5405 -0.4037
 1526SOL     OW16213   4.717   1.095   7.063  0.1503 -0.4502 -0.1115
 1526SOL    HW116214   4.693   1.173   7.113 -1.5149 -1.0428  0.0149
 1526SOL    HW216215   4.695   1.123   6.975  0.0682  1.2997  0.4632
 1527SOL     OW16216   3.365   1.326   1.128  0.0976 -0.1923 -0.6793
 1527SOL    HW116217   3.377   1.231   1.124  0.0567 -0.1320 -2.0307
 1527SOL    HW216218   3.276   1.342   1.096 -0.0574  1.3737  0.5137
 1528SOL     OW16219   3.377   0.202   6.209  0.1946  0.3821 -0.0719
 1528SOL    HW116220   3.354   0.294   6.200 -0.6766  0.2571  0.9089
 1528SOL    HW216221   3.356   0.183   6.301  0.0700  0.4789 -0.0804
 1529SOL     OW16222   2.823   0.966  17.352  0.1843 -0.3018  0.0208
 1529SOL    HW116223   2.743   1.017  17.364  0.0949 -0.4590  0.0813
 1529SOL    HW216224   2.852   1.001  17.267 -1.6461  1.7072  0.2410
 1530SOL     OW16225   4.013   1.952   4.538  0.0883 -0.4858 -0.2597
 1530SOL    HW116226   3.989   1.895   4.465  0.2231  0.1940 -0.8368
 1530SOL    HW216227   4.021   1.887   4.608  1.7405  0.4129  0.3864
 1531SOL     OW16228   4.076   3.230   5.244  0.2870 -0.2213 -0.4944
 1531SOL    HW116229   4.026   3.148   5.234  0.8322 -0.2504 -2.7615
 1531SOL    HW216230   4.035   3.295   5.188  0.9071  1.6460  1.2158
 1532SOL     OW16231   2.000   0.673  11.086  0.0453  0.0017  0.3348
 1532SOL    HW116232   2.004   0.737  11.015 -1.8566 -0.9807 -0.6678
 1532SOL    HW216233   1.958   0.726  11.154 -0.5717 -1.2724  0.9509
 1533SOL     OW16234   0.641   2.397   6.865 -0.6024  0.3199  0.6121
 1533SOL    HW116235   0.736   2.392   6.855 -0.5649  1.5924  0.3610
 1533SOL    HW216236   0.598   2.323   6.823 -1.5968 -0.2136  2.5265
 1534SOL     OW16237   3.878   4.588   5.520 -0.3504 -0.5540  0.5254
 1534SOL    HW116238   3.875   4.646   5.596  0.8012  1.9177 -1.2921
 1534SOL    HW216239   3.958   4.539   5.539 -0.3314 -0.8911 -0.4249
 1535SOL     OW16240   0.887   4.616   2.185 -0.4124 -0.1859  1.2802
 1535SOL    HW116241   0.830   4.693   2.193 -0.8054 -0.6450  2.7969
 1535SOL    HW216242   0.895   4.615   2.089 -2.8186 -1.4704  1.0982
 1536SOL     OW16243   3.169   3.133   1.978 -0.4042 -0.2875 -0.0941
 1536SOL    HW116244   3.125   3.173   2.053 -2.5224 -2.3514 -0.2304
 1536SOL    HW216245   3.101   3.146   1.911 -1.6060 -0.7347  1.0340
 1537SOL     OW16246   1.479   3.074  13.231  0.1431  0.0113  0.6950
 1537SOL    HW116247   1.452   2.983  13.245 -2.5283  0.6537 -0.1714
 1537SOL    HW216248   1.540   3.084  13.304 -0.1143 -1.3430  1.0923
 1538SOL     OW16249   4.156   3.047   4.677  0.2323  0.0227  0.4400
 1538SOL    HW116250   4.170   2.955   4.701 -0.3228  0.5064  2.5897
 1538SOL    HW216251   4.173   3.041   4.583 -2.5743 -0.3705 -0.0525
 1539SOL     OW16252   2.063   0.547  10.616  0.6282  0.3514  0.0505
 1539SOL    HW116253   2.095   0.638  10.613  0.9648  0.1175 -3.6909
 1539SOL    HW216254   2.090   0.525  10.706 -1.0602 -3.2145 -0.3239
 1540SOL     OW16255   1.119   2.225   6.252 -0.1739  0.0858  0.6811
 1540SOL    HW116256   1.091   2.283   6.323 -1.3009 -0.0911  0.3867
 1540SOL    HW216257   1.051   2.158   6.258  0.6538 -0.9311 -1.1892
 1541SOL     OW16258   4.635   2.126   5.866 -0.0049  0.2084  0.2759
 1541SOL    HW116259   4.554   2.092   5.828 -0.5071  0.3209  1.2485
 1541SOL    HW216260   4.591   2.165   5.941 -2.8471 -0.5754 -0.9875
 1542SOL     OW16261   2.076   2.775   1.087  0.4746  0.3385 -0.3385
 1542SOL    HW116262   2.043   2.714   1.153 -1.4478  1.3336 -0.3971
 1542SOL    HW216263   2.162   2.787   1.127  0.8390  1.4937 -1.4760
 1543SOL     OW16264   4.334   1.183  16.442  0.5563 -0.0098  0.3426
 1543SOL    HW116265   4.387   1.248  16.489 -1.1904  1.6772 -0.0200
 1543SOL    HW216266   4.254   1.179  16.496 -0.2541  0.5226 -0.8348
 1544SOL     OW16267   2.785   4.037   9.535  0.0738 -0.2581 -0.5445
 1544SOL    HW116268   2.856   3.999   9.586  0.3994 -0.4779 -1.1556
 1544SOL    HW216269   2.805   4.130   9.527 -0.8215  0.1129  1.5003
 1545SOL     OW16270   1.486   2.727   9.220  0.2974 -0.0876 -0.0627
 1545SOL    HW116271   1.486   2.648   9.273 -0.8094 -0.7060 -0.9878
 1545SOL    HW216272   1.529   2.790   9.279 -0.1111  0.9301 -0.8394
 1546SOL     OW16273   4.231   0.129  13.224  0.0635 -0.1166  0.0439
 1546SOL    HW116274   4.257   0.219  13.205  1.3255 -0.3435  0.7002
 1546SOL    HW216275   4.252   0.084  13.142 -0.2931  1.6971 -1.0428
 1547SOL     OW16276   4.433   4.523  10.988 -0.6758  0.2261 -0.2881
 1547SOL    HW116277   4.419   4.615  11.012  1.2806  1.8404 -5.2752
 1547SOL    HW216278   4.392   4.483  11.064 -1.8454  1.5319 -0.2118
 1548SOL     OW16279   0.274   0.901  14.413 -0.1602 -0.9255  0.0215
 1548SOL    HW116280   0.245   0.811  14.396 -0.9342 -0.6618 -0.0411
 1548SOL    HW216281   0.313   0.926  14.329 -0.5291  1.6412  0.6105
 1549SOL     OW16282   3.501   1.932   6.402 -0.0784 -0.5215  0.0003
 1549SOL    HW116283   3.585   1.929   6.357 -0.2085 -1.6186 -0.1589
 1549SOL    HW216284   3.525   1.913   6.493 -0.2143  1.4366  0.4510
 1550SOL     OW16285   2.637   0.599  11.459 -0.2038  0.9348  0.1533
 1550SOL    HW116286   2.669   0.582  11.370 -0.8261 -0.2629  0.1526
 1550SOL    HW216287   2.542   0.592  11.456 -0.1015 -0.6581  0.2152
 1551SOL     OW16288   0.610   3.462  16.243  0.2718  0.0163  0.1002
 1551SOL    HW116289   0.633   3.415  16.163 -0.9839  0.0637 -0.2916
 1551SOL    HW216290   0.530   3.416  16.269  0.3323 -1.8332 -3.0328
 1552SOL     OW16291   2.201   1.762   8.707  0.1699 -0.0341  0.1190
 1552SOL    HW116292   2.293   1.783   8.722  0.9904 -3.8595  0.3710
 1552SOL    HW216293   2.161   1.842   8.672 -2.2352 -0.2472  2.3889
 1553SOL     OW16294   3.181   1.357  10.788 -0.4941 -0.0669  0.1591
 1553SOL    HW116295   3.214   1.444  10.764  3.3035 -0.9412  2.2122
 1553SOL    HW216296   3.244   1.324  10.852 -0.4204 -0.9878 -0.3914
 1554SOL     OW16297   2.369   4.667   6.719 -0.3756  0.6861 -0.1862
 1554SOL    HW116298   2.406   4.628   6.798 -0.2409 -1.0540 -1.1268
 1554SOL    HW216299   2.349   4.600   6.654  0.1599 -0.2892  0.6514
 1555SOL     OW16300   3.663   2.482  12.700 -0.0628  0.1395  0.2300
 1555SOL    HW116301   3.732   2.421  12.727  1.8297  2.6867  1.0952
 1555SOL    HW216302   3.717   2.560  12.713  1.6189 -1.0151  0.1518
 1556SOL     OW16303   1.696   2.711   2.355  0.2226  0.5435 -0.0296
 1556SOL    HW116304   1.651   2.796   2.355 -1.5948 -0.4298 -1.5924
 1556SOL    HW216305   1.751   2.730   2.278 -0.8479  0.0586 -0.9127
 1557SOL     OW16306   1.986   3.709   8.846 -0.1108 -0.0481  0.1485
 1557SOL    HW116307   2.040   3.721   8.768  0.3864  0.9183  0.6321
 1557SOL    HW216308   1.954   3.619   8.834 -0.4230  0.0483  0.2536
 1558SOL     OW16309   3.283   0.029   9.126  0.3929  0.8784 -0.6065
 1558SOL    HW116310   3.192   0.006   9.146  1.0335 -0.0513  1.3051
 1558SOL    HW216311   3.319   0.020   9.215  3.4541 -1.2384 -2.0533
 1559SOL     OW16312   0.086   2.359   4.331  0.5279  0.1628  0.5413
 1559SOL    HW116313   0.091   2.290   4.265  1.8179  1.2350 -0.5111
 1559SOL    HW216314   0.156   2.411   4.291  0.1731  0.9080  0.8930
 1560SOL     OW16315   2.810   3.993  12.203 -0.5339 -0.9514 -0.3382
 1560SOL    HW116316   2.773   4.068  12.157 -3.3909 -1.4060  1.1882
 1560SOL    HW216317   2.905   4.002  12.200 -0.6728  0.6619  0.2465
 1561SOL     OW16318   4.706   2.499  14.879 -0.6876  0.6699  0.4106
 1561SOL    HW116319   4.678   2.569  14.821 -1.1951  1.3694  1.5117
 1561SOL    HW216320   4.675   2.524  14.965 -0.6336  1.9105  0.0688
 1562SOL     OW16321   2.206   3.261  15.778  0.1700  0.1184 -0.8186
 1562SOL    HW116322   2.113   3.240  15.772 -0.4503  2.7986 -0.7098
 1562SOL    HW216323   2.231   3.230  15.865  1.1335  1.7909 -0.4879
 1563SOL     OW16324   3.772   4.622   6.220 -0.0370 -0.8086 -0.0808
 1563SOL    HW116325   3.726   4.687   6.272  1.2010  0.0466 -0.0418
 1563SOL    HW216326   3.831   4.575   6.279 -1.7147 -0.8247  1.5748
 1564SOL     OW16327   1.016   0.687   6.300  0.5076  0.1491 -0.1466
 1564SOL    HW116328   1.027   0.608   6.248 -1.4992 -0.4512  0.3468
 1564SOL    HW216329   1.005   0.757   6.236  1.0697  0.9544  0.6331
 1565SOL     OW16330   0.949   3.316  15.808 -0.3811 -0.3596  0.1777
 1565SOL    HW116331   1.027   3.272  15.842 -0.1053 -1.0797 -1.3886
 1565SOL    HW216332   0.922   3.357  15.891  0.8222  0.7683  0.0155
 1566SOL     OW16333   0.280   2.068   6.128 -0.0314  0.4204 -0.0033
 1566SOL    HW116334   0.190   2.036   6.133 -0.3019  1.1203 -0.4118
 1566SOL    HW216335   0.275   2.097   6.037 -1.1150  0.7735  0.1690
 1567SOL     OW16336   3.519   1.040   9.421 -0.4103  0.3694 -0.1042
 1567SOL    HW116337   3.541   1.048   9.329 -1.6260 -0.7303 -0.4892
 1567SOL    HW216338   3.559   1.121   9.451 -1.2193  0.1348  1.6383
 1568SOL     OW16339   0.705   2.369  14.429  0.2903 -0.6901  0.0869
 1568SOL    HW116340   0.730   2.343  14.341  1.9756  1.6616 -0.1533
 1568SOL    HW216341   0.792   2.387  14.464  0.3152 -1.6603  0.5175
 1569SOL     OW16342   1.239   2.824   0.362 -0.4977 -0.3052 -1.2275
 1569SOL    HW116343   1.326   2.832   0.403 -0.0729 -1.7632 -1.8355
 1569SOL    HW216344   1.204   2.755   0.418 -0.4138  1.9435  1.5826
 1570SOL     OW16345   3.066   2.812   5.467 -0.5726 -0.2482 -0.6140
 1570SOL    HW116346   3.067   2.726   5.426 -0.3943 -0.3827 -0.3328
 1570SOL    HW216347   3.142   2.816   5.525 -1.3406  0.1339  0.3717
 1571SOL     OW16348   0.438   3.780   2.794 -0.4250 -0.5120  0.2156
 1571SOL    HW116349   0.506   3.712   2.791 -2.8284 -2.8922 -0.3854
 1571SOL    HW216350   0.473   3.853   2.743 -3.5335  0.1757 -0.8949
 1572SOL     OW16351   1.090   3.029   7.719 -0.1142 -0.0081  0.3850
 1572SOL    HW116352   1.158   2.994   7.661  0.2472  0.4767  0.5185
 1572SOL    HW216353   1.094   3.124   7.707 -1.3047 -0.1259 -0.8974
 1573SOL     OW16354   4.044   3.314   6.783 -0.4834  0.4680  0.1190
 1573SOL    HW116355   4.079   3.258   6.713 -1.0672 -1.1497  1.1295
 1573SOL    HW216356   4.101   3.283   6.853  1.7406  3.6908 -0.2332
 1574SOL     OW16357   3.943   0.235   5.442 -0.4785  0.2481 -0.0295
 1574SOL    HW116358   3.920   0.161   5.498  0.6887  0.8004  1.2006
 1574SOL    HW216359   3.915   0.202   5.357  1.9563 -1.7387 -0.0612
 1575SOL     OW16360   4.276   2.828   1.506  0.0659  0.1172  0.8148
 1575SOL    HW116361   4.353   2.787   1.468 -0.7819 -0.6785 -0.0198
 1575SOL    HW216362   4.299   2.797   1.594 -2.6227 -0.8868  1.1587
 1576SOL     OW16363   0.297   3.288  17.284 -0.0180 -0.3489 -0.4323
 1576SOL    HW116364   0.234   3.252  17.222 -2.9843  0.9026  1.8827
 1576SOL    HW216365   0.272   3.380  17.295  0.8881 -0.1475 -0.0594
 1577SOL     OW16366   2.644   1.695   4.484  0.0795  0.1611  0.0248
 1577SOL    HW116367   2.558   1.656   4.469  0.8012 -1.2034 -0.5041
 1577SOL    HW216368   2.660   1.754   4.411 -0.1339  1.2730  0.8659
 1578SOL     OW16369   1.991   2.618   7.468 -0.3088 -0.1241  0.4810
 1578SOL    HW116370   2.039   2.701   7.462  0.5968 -0.5002  2.4248
 1578SOL    HW216371   1.903   2.656   7.466 -0.5412 -0.7386 -0.6071
 1579SOL     OW16372   4.069   3.082   7.973  0.3237  0.0556  0.4075
 1579SOL    HW116373   4.084   2.997   8.015 -0.6537  0.2921  1.2106
 1579SOL    HW216374   4.160   3.108   7.960  0.7083 -1.1265  0.7664
 1580SOL     OW16375   2.630   3.434   5.858  0.2522  0.7926  0.5225
 1580SOL    HW116376   2.659   3.459   5.945  0.1963 -1.4791  1.1832
 1580SOL    HW216377   2.669   3.502   5.804 -0.9475  1.3577  0.3534
 1581SOL     OW16378   0.803   4.340   3.483  0.4033  0.2475 -0.0332
 1581SOL    HW116379   0.737   4.334   3.413  1.7781 -1.2780 -1.2025
 1581SOL    HW216380   0.875   4.296   3.437  1.2682  1.0424  0.5691
 1582SOL     OW16381   3.676   1.910  16.924  0.4297 -0.0503 -0.2792
 1582SOL    HW116382   3.653   1.822  16.895  1.0703 -0.5151  0.6003
 1582SOL    HW216383   3.710   1.879  17.008 -1.4254  2.8229  1.5247
 1583SOL     OW16384   3.275   1.584  15.927 -0.1043  0.2222 -0.6561
 1583SOL    HW116385   3.216   1.653  15.896 -0.3116  0.1499 -0.4191
 1583SOL    HW216386   3.347   1.591  15.865  0.9077  0.2445  0.5253
 1584SOL     OW16387   4.118   4.186   0.718  0.3667 -0.2351 -0.6630
 1584SOL    HW116388   4.040   4.162   0.769  0.7676  0.2786  0.1976
 1584SOL    HW216389   4.099   4.271   0.680 -1.5996  0.1709  1.1834
 1585SOL     OW16390   1.613   0.481   5.353 -0.0466 -0.4731 -0.0962
 1585SOL    HW116391   1.641   0.390   5.346 -1.0619 -0.6687 -1.8543
 1585SOL    HW216392   1.521   0.460   5.335  0.3851 -0.5351 -2.2137
 1586SOL     OW16393   0.904   4.627  17.108 -0.3323 -0.2089 -0.2773
 1586SOL    HW116394   0.978   4.677  17.140 -1.3592 -1.0895  3.4091
 1586SOL    HW216395   0.948   4.589  17.032  0.7616 -1.0140  0.7574
 1587SOL     OW16396   1.918   1.583   5.415  0.1190 -0.1752 -0.2479
 1587SOL    HW116397   1.900   1.489   5.408  1.9749 -0.6778  1.5482
 1587SOL    HW216398   1.829   1.617   5.407 -0.4962 -1.5141  0.8430
 1588SOL     OW16399   1.752   3.422   6.356 -0.1407 -0.2465 -0.5397
 1588SOL    HW116400   1.732   3.499   6.302 -0.3126  2.6350  3.6842
 1588SOL    HW216401   1.747   3.353   6.290  1.3972  0.1534 -1.0535
 1589SOL     OW16402   1.028   2.828  13.055  0.3008 -0.2295 -0.3214
 1589SOL    HW116403   0.969   2.856  12.985  3.1489  2.8323 -1.5247
 1589SOL    HW216404   1.112   2.866  13.028  0.2006  0.4925  0.4042
 1590SOL     OW16405   4.510   2.300  14.641 -0.5617 -0.0887 -0.3387
 1590SOL    HW116406   4.482   2.245  14.568 -1.1758  0.8693 -0.8331
 1590SOL    HW216407   4.601   2.312  14.613 -0.3869 -0.3947  0.0892
 1591SOL     OW16408   0.612   1.820  13.372  0.0639 -0.4336 -0.0882
 1591SOL    HW116409   0.567   1.902  13.352 -1.3245 -0.9558  0.8895
 1591SOL    HW216410   0.609   1.835  13.467  3.1501  0.9449 -0.2084
 1592SOL     OW16411   4.724   2.373  16.421 -0.2709 -0.6923  0.1718
 1592SOL    HW116412   0.070   2.323  16.429  1.0716  1.6645  1.2015
 1592SOL    HW216413   4.661   2.312  16.461  1.2207 -1.5718  1.2049
 1593SOL     OW16414   0.587   3.275   1.753  0.4732 -0.1450 -0.5680
 1593SOL    HW116415   0.595   3.230   1.837 -2.0816 -2.4943 -1.5833
 1593SOL    HW216416   0.491   3.284   1.751  0.4267 -0.5172  0.0234
 1594SOL     OW16417   2.266   0.595  12.082  0.9806 -0.2143 -0.2584
 1594SOL    HW116418   2.292   0.539  12.155 -0.4757 -1.3532 -0.5992
 1594SOL    HW216419   2.185   0.550  12.058  0.9088 -0.5363  0.5694
 1595SOL     OW16420   1.985   4.291   4.835  0.8769 -0.2652  0.1890
 1595SOL    HW116421   1.901   4.291   4.790  0.7524 -1.8229  0.4326
 1595SOL    HW216422   1.978   4.374   4.882 -0.6184 -1.3002  1.7767
 1596SOL     OW16423   2.036   2.668   4.900  0.0681 -0.5079 -0.0432
 1596SOL    HW116424   1.963   2.665   4.962 -0.6723 -1.2154 -0.9477
 1596SOL    HW216425   2.008   2.707   4.818 -0.4058  3.5428  2.0626
 1597SOL     OW16426   4.529   3.226  12.557  0.3031  0.0450 -0.2522
 1597SOL    HW116427   4.538   3.150  12.500 -1.0193  0.5008 -1.0799
 1597SOL    HW216428   4.558   3.297  12.500  0.3853  0.4103  0.2484
 1598SOL     OW16429   4.038   2.036   9.344  0.2641  0.1317 -0.2889
 1598SOL    HW116430   4.078   1.989   9.271  2.6938 -0.2404  1.2702
 1598SOL    HW216431   4.073   1.985   9.417 -1.2488  1.4776  1.3882
 1599SOL     OW16432   3.175   2.217   2.569  0.7542  0.6051 -0.0411
 1599SOL    HW116433   3.175   2.297   2.516  3.4090  0.8103  0.2779
 1599SOL    HW216434   3.229   2.157   2.518 -0.8921  0.9283 -2.1748
 1600SOL     OW16435   4.464   3.657   7.377  0.6743 -0.3563 -0.1071
 1600SOL    HW116436   4.420   3.576   7.402  1.7240 -0.8496  0.1587
 1600SOL    HW216437   4.405   3.693   7.311  2.5600 -1.3493 -2.3145
 1601SOL     OW16438   1.372   4.241   8.329 -0.7597  0.2427  0.2486
 1601SOL    HW116439   1.361   4.171   8.265 -1.4012 -0.6017  1.2698
 1601SOL    HW216440   1.322   4.222   8.408 -1.9319  2.3295 -0.0011
 1602SOL     OW16441   1.703   0.121   2.190  0.2933  0.6758  0.3067
 1602SOL    HW116442   1.701   0.031   2.159  2.3148  0.5234  0.6225
 1602SOL    HW216443   1.797   0.131   2.204  0.4636  0.2771 -0.5713
 1603SOL     OW16444   1.597   2.675   5.761 -0.0135  0.2920  0.4741
 1603SOL    HW116445   1.669   2.714   5.810  0.2602 -0.1427  0.4192
 1603SOL    HW216446   1.608   2.736   5.689 -1.8853 -0.4580 -0.4488
 1604SOL     OW16447   0.273   3.364   0.837  0.4170 -0.2582  0.5398
 1604SOL    HW116448   0.313   3.293   0.886  0.8439 -0.7336 -0.5016
 1604SOL    HW216449   0.215   3.409   0.899 -0.5550 -0.2475 -0.3857
 1605SOL     OW16450   2.606   3.775   9.012  0.7917 -0.0998 -0.1883
 1605SOL    HW116451   2.678   3.800   9.070 -1.4161  1.3458  1.9214
 1605SOL    HW216452   2.564   3.858   8.987  3.0061  1.1515  0.2834
 1606SOL     OW16453   3.996   1.459   6.663 -0.6101 -0.2717 -0.3121
 1606SOL    HW116454   4.073   1.426   6.710 -1.2759  0.3722  1.2531
 1606SOL    HW216455   3.988   1.380   6.610 -0.7415 -1.1511  1.0073
 1607SOL     OW16456   3.425   1.325  15.784 -0.2443 -0.3168  0.2984
 1607SOL    HW116457   3.337   1.349  15.755  0.2438 -0.9329 -1.6753
 1607SOL    HW216458   3.443   1.247  15.732  0.3895 -0.3905  0.6336
 1608SOL     OW16459   3.513   4.474   6.187 -1.1957  0.7102 -0.1850
 1608SOL    HW116460   3.596   4.522   6.194 -0.5318 -0.5742  0.9056
 1608SOL    HW216461   3.500   4.482   6.093  0.7184  2.9009 -0.2454
 1609SOL     OW16462   2.720   0.699   7.675  0.2946 -0.2593 -0.5231
 1609SOL    HW116463   2.781   0.652   7.732  1.4062  2.6222  0.7020
 1609SOL    HW216464   2.638   0.692   7.723  1.2975  0.7251  1.3482
 1610SOL     OW16465   2.497   3.884   4.206 -0.0588  0.0001  0.3912
 1610SOL    HW116466   2.504   3.973   4.171 -0.0141 -0.9581 -2.0541
 1610SOL    HW216467   2.585   3.871   4.241  0.0415  1.3931  0.6770
 1611SOL     OW16468   1.835   1.093   5.249  0.2929 -0.0398 -0.8095
 1611SOL    HW116469   1.803   1.002   5.243  0.2125 -0.2133  1.9463
 1611SOL    HW216470   1.762   1.144   5.216 -0.2825 -0.8350 -0.7827
 1612SOL     OW16471   1.267   0.224   6.328 -0.4622 -0.5294 -0.1755
 1612SOL    HW116472   1.187   0.198   6.282 -1.3133  1.7394  0.0584
 1612SOL    HW216473   1.235   0.264   6.408 -1.3539  0.0640 -0.8303
 1613SOL     OW16474   4.542   4.268   5.644  0.3391 -0.0112 -0.0206
 1613SOL    HW116475   4.550   4.307   5.557 -0.2618  0.4446  0.1252
 1613SOL    HW216476   4.595   4.334   5.688 -0.5962  0.5958  0.2004
 1614SOL     OW16477   4.554   3.977   0.330  0.0038  0.7333  0.2549
 1614SOL    HW116478   4.521   3.908   0.272  1.5399  0.1362  0.1002
 1614SOL    HW216479   4.496   4.050   0.308 -0.8028  0.6186  1.9562
 1615SOL     OW16480   4.537   3.768   0.131  0.1348 -0.2235 -0.3191
 1615SOL    HW116481   4.559   3.700   0.067  2.4084  2.1349 -2.0570
 1615SOL    HW216482   4.625   3.788   0.164  0.0921 -2.2099  1.0023
 1616SOL     OW16483   3.816   1.805   4.221 -0.1092 -0.2711 -0.3173
 1616SOL    HW116484   3.762   1.861   4.276 -0.2333 -0.4515 -0.2583
 1616SOL    HW216485   3.841   1.735   4.281  0.4795 -0.6334 -0.9821
 1617SOL     OW16486   2.812   2.692   3.987  0.1009 -0.6732  0.3882
 1617SOL    HW116487   2.876   2.759   3.963 -1.0093  0.5379  0.8544
 1617SOL    HW216488   2.832   2.627   3.919 -0.8549  0.5169 -1.0535
 1618SOL     OW16489   3.446   0.390   7.613 -0.1968 -0.1082  0.2301
 1618SOL    HW116490   3.483   0.395   7.702 -0.1474 -1.5491  0.2918
 1618SOL    HW216491   3.524   0.354   7.571 -1.4993 -3.3868  0.6664
 1619SOL     OW16492   2.244   4.148   8.760 -0.0399  0.0414 -0.1935
 1619SOL    HW116493   2.221   4.145   8.853  3.1658  2.3886  0.6713
 1619SOL    HW216494   2.233   4.241   8.742 -0.0280 -0.2193 -1.5292
 1620SOL     OW16495   4.365   1.949  17.195  0.4972 -0.4553  0.7946
 1620SOL    HW116496   4.447   1.980  17.234  1.8113 -1.7406 -0.8984
 1620SOL    HW216497   4.380   1.967  17.102  0.0849 -2.7005  0.2710
 1621SOL     OW16498   1.526   3.372   7.254 -0.0304 -0.1917  0.3838
 1621SOL    HW116499   1.461   3.302   7.255  1.1294 -1.1917  3.5031
 1621SOL    HW216500   1.601   3.333   7.297  0.5276 -0.3060 -0.6988
 1622SOL     OW16501   3.824   4.642   1.740  0.4968  0.4889  0.6035
 1622SOL    HW116502   3.892   4.708   1.753  0.2511  0.6703  0.9877
 1622SOL    HW216503   3.850   4.570   1.797 -1.0049  0.1828  0.8958
 1623SOL     OW16504   1.009   4.317  15.036  0.0485  0.4089  0.5593
 1623SOL    HW116505   0.945   4.371  14.990 -1.2055  0.4692  2.3466
 1623SOL    HW216506   1.090   4.355  15.000 -0.0686 -2.9401 -3.2325
 1624SOL     OW16507   1.491   4.173   9.661  0.2589  0.1886 -0.7818
 1624SOL    HW116508   1.454   4.085   9.659 -2.3849  1.2700  1.8669
 1624SOL    HW216509   1.578   4.167   9.701  0.0799  0.1087 -0.4085
 1625SOL     OW16510   0.294   3.531   4.912 -0.3088  0.4359  0.1586
 1625SOL    HW116511   0.281   3.441   4.883  0.3710  0.0034  1.1843
 1625SOL    HW216512   0.309   3.521   5.007 -1.1388 -3.5300 -0.1105
 1626SOL     OW16513   2.616   3.420  16.510  0.7906 -0.8080  0.3492
 1626SOL    HW116514   2.530   3.451  16.541  1.8244 -0.6191  2.9778
 1626SOL    HW216515   2.653   3.390  16.593 -2.5252  0.6868  2.3624
 1627SOL     OW16516   0.228   0.973   7.058 -0.3974 -0.0210  0.4246
 1627SOL    HW116517   0.150   1.028   7.055 -0.4166 -0.0801 -0.0393
 1627SOL    HW216518   0.245   0.983   7.152  0.7968 -0.6788  0.2842
 1628SOL     OW16519   1.352   3.663  13.617 -0.0449 -0.0478  0.2193
 1628SOL    HW116520   1.331   3.625  13.532 -1.0204 -0.0701  0.4721
 1628SOL    HW216521   1.440   3.623  13.615  0.4553  1.1450 -1.3260
 1629SOL     OW16522   3.819   3.155   6.748 -0.2541  0.2112  0.4388
 1629SOL    HW116523   3.889   3.212   6.717 -0.1488 -0.9280 -1.4256
 1629SOL    HW216524   3.808   3.087   6.681  0.8224 -1.3559  1.8445
 1630SOL     OW16525   2.853   1.910   6.867 -0.2220 -0.0990 -0.1095
 1630SOL    HW116526   2.815   1.932   6.782 -0.0923  0.5201 -0.0112
 1630SOL    HW216527   2.849   1.815   6.862 -1.7694  0.0049 -0.6379
 1631SOL     OW16528   2.907   3.656   3.689 -0.5442  0.1702 -0.1421
 1631SOL    HW116529   2.914   3.737   3.739 -0.8085  0.7161 -1.0065
 1631SOL    HW216530   2.966   3.675   3.616 -1.3090 -3.7996 -1.8401
 1632SOL     OW16531   2.473   2.313  15.743  0.0577  0.0006 -1.0351
 1632SOL    HW116532   2.523   2.292  15.664  3.2627  0.1982  0.9539
 1632SOL    HW216533   2.448   2.404  15.729  2.2241  0.8833  0.8542
 1633SOL     OW16534   2.275   3.180   8.413  0.0855  0.3966 -0.3401
 1633SOL    HW116535   2.300   3.263   8.372  0.2833 -0.3669 -1.7523
 1633SOL    HW216536   2.295   3.113   8.348 -0.3184  0.2792 -0.3449
 1634SOL     OW16537   1.642   2.426   8.403  0.3371  0.0110 -0.1672
 1634SOL    HW116538   1.721   2.471   8.375  0.5148 -0.2000  0.0003
 1634SOL    HW216539   1.649   2.343   8.354 -0.2964  0.3453 -0.8319
 1635SOL     OW16540   0.213   3.805   4.965 -0.0798  0.0437  0.1550
 1635SOL    HW116541   0.223   3.710   4.955  0.3122 -0.1785  2.5723
 1635SOL    HW216542   0.295   3.816   5.013  0.6045  0.7340 -1.1686
 1636SOL     OW16543   2.683   2.142   1.747  0.1436 -1.0342 -0.1806
 1636SOL    HW116544   2.627   2.158   1.823 -0.0392  0.7358 -0.6712
 1636SOL    HW216545   2.764   2.175   1.786  1.4789 -1.5672 -2.5131
 1637SOL     OW16546   4.725   2.309   5.511  0.5773 -0.5584  0.6195
 1637SOL    HW116547   4.632   2.287   5.519  0.0553  0.4094 -2.7899
 1637SOL    HW216548   0.031   2.261   5.583 -1.9846 -0.7258  1.9576
 1638SOL     OW16549   4.124   1.239   5.769  0.0264  0.4161 -0.0191
 1638SOL    HW116550   4.203   1.186   5.767 -0.4599 -0.3768  1.6274
 1638SOL    HW216551   4.157   1.323   5.802  0.4761 -0.2100  1.1290
 1639SOL     OW16552   0.704   2.105  13.653 -0.0558  0.6142 -0.6035
 1639SOL    HW116553   0.670   2.020  13.682 -0.9423  1.2748  0.3148
 1639SOL    HW216554   0.788   2.083  13.612  0.5029  2.1556 -0.2571
 1640SOL     OW16555   0.106   4.518  12.655 -0.2676 -0.3803 -0.2577
 1640SOL    HW116556   0.068   4.593  12.700 -0.5768 -2.1886  2.4545
 1640SOL    HW216557   0.097   4.538  12.561 -0.7603 -1.7105 -0.4911
 1641SOL     OW16558   0.307   4.589   8.762  0.5073 -0.6818 -0.0268
 1641SOL    HW116559   0.287   4.682   8.769  4.5222  0.2531 -0.7937
 1641SOL    HW216560   0.348   4.570   8.846 -0.1902  0.7891  0.6481
 1642SOL     OW16561   0.911   2.480  15.094 -0.2469  0.4972  0.0050
 1642SOL    HW116562   0.825   2.481  15.135 -0.1966  1.2826  0.0952
 1642SOL    HW216563   0.925   2.572  15.119  0.1354  0.4266  0.0545
 1643SOL     OW16564   2.853   1.406   3.111  0.1142  0.2268 -0.3320
 1643SOL    HW116565   2.872   1.454   3.192 -1.0462 -0.8344  0.5714
 1643SOL    HW216566   2.820   1.325   3.149  1.5922 -0.2597 -0.0698
 1644SOL     OW16567   1.009   2.042   8.229 -0.0334 -0.1424 -0.2451
 1644SOL    HW116568   1.071   2.114   8.221  0.0913 -0.1081  1.1156
 1644SOL    HW216569   0.987   2.057   8.320  1.6956 -1.0517  0.3289
 1645SOL     OW16570   3.529   0.725   1.949 -0.2005 -0.2222  0.2013
 1645SOL    HW116571   3.618   0.743   1.917 -0.0760  0.6406  1.0420
 1645SOL    HW216572   3.540   0.660   2.019 -0.1375  1.3206  1.6194
 1646SOL     OW16573   2.471   1.896   2.220 -0.0627  0.0891 -0.0418
 1646SOL    HW116574   2.461   1.941   2.304 -0.3865  0.8384 -0.4789
 1646SOL    HW216575   2.381   1.869   2.203 -0.3215  2.0625 -1.8868
 1647SOL     OW16576   3.752   3.366   6.915  0.0854 -0.3538  0.1526
 1647SOL    HW116577   3.775   3.284   6.870  1.3659  1.4378 -2.4704
 1647SOL    HW216578   3.738   3.431   6.845 -0.0444  0.5216  1.0010
 1648SOL     OW16579   0.741   2.310   2.897  0.0487 -0.0515  0.1392
 1648SOL    HW116580   0.732   2.374   2.967  0.7522 -0.6688  0.8023
 1648SOL    HW216581   0.830   2.278   2.909 -0.2212 -0.5736  0.7567
 1649SOL     OW16582   1.463   1.092   3.840  0.1780  0.1825  0.1304
 1649SOL    HW116583   1.492   1.168   3.890 -0.7314  1.0586 -0.6666
 1649SOL    HW216584   1.464   1.028   3.911  2.1773 -0.2298 -0.2825
 1650SOL     OW16585   4.446   1.944   9.499 -0.1510 -0.1374 -0.2514
 1650SOL    HW116586   4.484   1.901   9.422 -0.7683  0.5753 -0.9498
 1650SOL    HW216587   4.375   1.885   9.524 -1.0683  0.6724 -0.9418
 1651SOL     OW16588   2.230   4.524   2.781 -0.0355  0.4228  0.2353
 1651SOL    HW116589   2.204   4.434   2.765 -0.1264  0.4969 -0.0397
 1651SOL    HW216590   2.157   4.558   2.834 -0.5109 -0.3519  0.0731
 1652SOL     OW16591   1.757   3.008   6.393  0.1869  1.0107  0.1402
 1652SOL    HW116592   1.755   3.018   6.488  2.4806 -0.2733  0.3329
 1652SOL    HW216593   1.747   2.915   6.375  0.8595  1.3416 -1.9376
 1653SOL     OW16594   2.493   4.601   2.704  0.0294 -0.0118 -0.5530
 1653SOL    HW116595   2.513   4.675   2.646  0.6566 -0.6852 -1.1957
 1653SOL    HW216596   2.398   4.591   2.693  0.3007  0.4942 -3.3780
 1654SOL     OW16597   1.771   2.680   0.340 -0.6552  0.1745  0.3815
 1654SOL    HW116598   1.723   2.761   0.358 -0.3624  0.6558 -1.0385
 1654SOL    HW216599   1.855   2.717   0.315 -0.8968  1.8625  2.0665
 1655SOL     OW16600   2.698   2.017  15.598  0.4258  0.3787  0.1277
 1655SOL    HW116601   2.704   2.110  15.578  1.2500  0.1512 -0.6520
 1655SOL    HW216602   2.776   1.986  15.552 -0.2457 -2.2536  0.7185
 1656SOL     OW16603   1.608   2.009   8.462 -0.1713 -0.0128  0.0148
 1656SOL    HW116604   1.661   2.078   8.422  1.4650 -0.7085  0.9790
 1656SOL    HW216605   1.623   1.941   8.396  0.8360  1.4842 -1.2920
 1657SOL     OW16606   1.633   0.399  14.005 -0.1772  0.1459  0.0611
 1657SOL    HW116607   1.721   0.370  13.980 -0.4548 -1.8099  1.3762
 1657SOL    HW216608   1.579   0.320  14.005 -1.7095  1.1883  0.1673
 1658SOL     OW16609   0.291   3.971   7.354  0.4744  0.1709  0.0508
 1658SOL    HW116610   0.252   3.884   7.361  1.0671 -0.2170 -1.4816
 1658SOL    HW216611   0.384   3.962   7.378  0.6850 -1.4289 -1.3779
 1659SOL     OW16612   2.164   0.500  11.807  0.2056 -0.0293  0.4802
 1659SOL    HW116613   2.255   0.475  11.793 -0.1444  0.2160 -2.1734
 1659SOL    HW216614   2.117   0.418  11.825 -0.3517 -0.5695 -3.4367
 1660SOL     OW16615   4.659   2.039   8.424 -0.0103  0.3890 -0.1227
 1660SOL    HW116616   0.001   2.054   8.370  0.2239  0.3511  0.2028
 1660SOL    HW216617   4.698   2.041   8.511 -0.5911 -0.2026  0.1455
 1661SOL     OW16618   1.986   2.907   1.482  0.2386  0.6416 -0.4133
 1661SOL    HW116619   2.053   2.847   1.449 -2.3278 -1.9863 -0.8384
 1661SOL    HW216620   2.024   2.990   1.456  2.0038 -0.0324  0.0040
 1662SOL     OW16621   4.544   2.127   4.442  0.1806  0.7521  0.5528
 1662SOL    HW116622   4.527   2.214   4.479 -0.4695  1.0511 -0.4589
 1662SOL    HW216623   4.462   2.086   4.469  0.3560 -0.3725 -0.6548
 1663SOL     OW16624   3.736   2.579   8.263 -0.5009  0.3579  0.1133
 1663SOL    HW116625   3.825   2.570   8.228 -0.5039  1.5320 -0.2200
 1663SOL    HW216626   3.761   2.626   8.343  1.0498  0.2019 -0.2751
 1664SOL     OW16627   1.383   3.974   7.546  0.2436 -0.4092  0.1059
 1664SOL    HW116628   1.387   4.019   7.631  1.4560  0.7295 -0.5401
 1664SOL    HW216629   1.413   4.040   7.483 -2.4018 -0.4299 -1.1533
 1665SOL     OW16630   0.232   1.367   4.354  0.0669 -0.4108 -0.0655
 1665SOL    HW116631   0.153   1.402   4.397 -0.2899 -1.4066  0.0803
 1665SOL    HW216632   0.304   1.426   4.376  0.3045 -0.5144 -0.5740
 1666SOL     OW16633   1.708   1.428   3.082  0.5409 -0.5478 -0.0090
 1666SOL    HW116634   1.744   1.464   3.002 -1.9302  0.1130 -0.8330
 1666SOL    HW216635   1.750   1.342   3.089  0.0635 -0.5742  2.7053
 1667SOL     OW16636   2.844   1.558   3.330 -0.2856  0.6077 -0.1078
 1667SOL    HW116637   2.907   1.627   3.351  0.7919 -0.3096 -0.3281
 1667SOL    HW216638   2.772   1.588   3.386 -0.6788 -1.4695  0.5067
 1668SOL     OW16639   3.112   0.596   3.103  0.5157 -0.3379 -0.2107
 1668SOL    HW116640   3.149   0.606   3.015 -2.6048  2.3599 -1.2547
 1668SOL    HW216641   3.048   0.525   3.096 -2.2606  2.0078  1.2589
 1669SOL     OW16642   0.849   0.923   2.782  0.4171 -0.4235 -0.3555
 1669SOL    HW116643   0.790   0.849   2.768 -1.8078  1.2956 -0.2986
 1669SOL    HW216644   0.877   0.908   2.873 -0.4886 -2.3958 -0.4043
 1670SOL     OW16645   0.569   0.776   8.504  0.3478  0.1926 -0.0488
 1670SOL    HW116646   0.603   0.837   8.438  0.8471 -1.4231 -1.2814
 1670SOL    HW216647   0.602   0.692   8.471 -0.3019  0.0939 -0.4573
 1671SOL     OW16648   0.069   1.416  16.487  0.4826  0.3488  0.5402
 1671SOL    HW116649   0.100   1.366  16.563  2.6348 -0.2360 -0.7414
 1671SOL    HW216650   0.052   1.346  16.424 -0.3836  0.2099  0.9169
 1672SOL     OW16651   4.449   1.052  11.814  0.0407 -0.3928 -0.1192
 1672SOL    HW116652   4.492   0.995  11.878 -1.2906 -2.4973 -1.1175
 1672SOL    HW216653   4.409   1.116  11.873  2.1223  1.4636 -0.7397
 1673SOL     OW16654   3.195   1.970   5.406 -0.1638  0.2801  0.0685
 1673SOL    HW116655   3.116   1.998   5.359 -0.0799  0.3572 -0.0258
 1673SOL    HW216656   3.253   1.959   5.331  2.0013 -0.4938  1.8498
 1674SOL     OW16657   2.304   3.902   5.889  0.3528  0.1641  0.3781
 1674SOL    HW116658   2.223   3.939   5.855  1.1710  1.1132 -0.5230
 1674SOL    HW216659   2.305   3.925   5.983  2.0286  1.1115  0.1303
 1675SOL     OW16660   1.918   2.977   9.812 -0.2161  0.1480 -0.3788
 1675SOL    HW116661   1.837   3.010   9.774 -1.8566 -2.6401  0.6883
 1675SOL    HW216662   1.903   2.992   9.905  1.0895  0.0127 -0.1453
 1676SOL     OW16663   0.288   3.249   6.997 -0.0444 -0.0408 -0.3251
 1676SOL    HW116664   0.299   3.267   7.090 -0.2724 -3.0843  0.3024
 1676SOL    HW216665   0.359   3.291   6.949  0.5903 -0.2687  0.4068
 1677SOL     OW16666   3.062   4.603   4.446  0.8880 -0.5563  0.2589
 1677SOL    HW116667   3.090   4.514   4.469  0.4753 -0.6475  0.3996
 1677SOL    HW216668   3.147   4.644   4.464  0.0028  2.2565 -1.9000
 1678SOL     OW16669   1.420   4.179   3.978  0.0621 -0.4924  0.0148
 1678SOL    HW116670   1.384   4.092   3.995 -0.5190 -0.4235 -0.8717
 1678SOL    HW216671   1.510   4.166   4.009  0.2028  0.5686  0.0480
 1679SOL     OW16672   0.958   3.583   3.472 -0.1829 -0.7735 -0.7011
 1679SOL    HW116673   0.913   3.655   3.428 -0.5324 -2.1608 -2.6095
 1679SOL    HW216674   1.034   3.581   3.413 -1.0883 -2.0007 -1.8218
 1680SOL     OW16675   4.668   4.711  15.449  0.0218  0.7442 -0.2427
 1680SOL    HW116676   4.722   0.017  15.382  3.2074  0.1285  1.9705
 1680SOL    HW216677   4.692   4.619  15.438  3.9077  1.6599  0.5267
 1681SOL     OW16678   2.654   0.385   9.447  0.1317 -0.2034  0.6784
 1681SOL    HW116679   2.660   0.412   9.355  1.8595 -0.5807  0.6814
 1681SOL    HW216680   2.563   0.356   9.448  0.4232 -1.2606 -1.7141
 1682SOL     OW16681   1.967   1.628  12.172  0.6679 -0.0958 -0.3919
 1682SOL    HW116682   1.978   1.642  12.266  1.2765 -1.9537 -0.1993
 1682SOL    HW216683   2.038   1.681  12.136  0.6149 -0.2924 -0.7926
 1683SOL     OW16684   0.988   3.909  12.087  0.2846  0.1964  0.4950
 1683SOL    HW116685   1.015   3.967  12.158 -0.9125  1.6876 -0.2565
 1683SOL    HW216686   1.011   3.825  12.125  3.3983 -0.0031 -1.9552
 1684SOL     OW16687   0.865   3.465   0.803 -0.2237  0.1265 -0.3685
 1684SOL    HW116688   0.836   3.529   0.737  0.8543  0.6605 -0.3292
 1684SOL    HW216689   0.781   3.420   0.804  0.6982 -1.5626  0.7813
 1685SOL     OW16690   4.224   2.424   5.044 -0.2178 -0.5112  0.0851
 1685SOL    HW116691   4.198   2.480   4.971 -0.4944 -1.1106 -0.2785
 1685SOL    HW216692   4.246   2.341   5.002  3.0042  0.4308 -0.0667
 1686SOL     OW16693   4.529   3.963  15.935 -0.0669 -0.0800  0.0442
 1686SOL    HW116694   4.605   3.920  15.973 -1.3308 -3.8907 -1.8015
 1686SOL    HW216695   4.561   3.970  15.845 -0.2615 -2.1134 -0.1745
 1687SOL     OW16696   1.748   1.290   1.895  0.1422  0.4228  0.4983
 1687SOL    HW116697   1.752   1.239   1.814  0.0333  1.5300 -0.2113
 1687SOL    HW216698   1.698   1.223   1.941 -0.7524  0.5011 -0.3422
 1688SOL     OW16699   0.310   0.900   8.540 -0.3428 -0.4268  0.1245
 1688SOL    HW116700   0.278   0.931   8.456 -0.6783 -0.3546  0.2772
 1688SOL    HW216701   0.398   0.879   8.510 -0.9541 -0.2063 -1.8013
 1689SOL     OW16702   0.560   2.897   5.646  0.1749  0.1638  0.0449
 1689SOL    HW116703   0.485   2.947   5.614 -0.3532  0.4012  1.6489
 1689SOL    HW216704   0.619   2.970   5.667  2.0915 -0.4170 -3.2009
 1690SOL     OW16705   2.907   0.683   0.436 -0.3424  0.1808  0.3588
 1690SOL    HW116706   2.962   0.674   0.358  3.3312 -1.4707  3.1043
 1690SOL    HW216707   2.959   0.620   0.486 -1.5832 -2.2584 -1.3920
 1691SOL     OW16708   2.285   4.489   1.287  0.0068  0.0180 -0.1557
 1691SOL    HW116709   2.222   4.543   1.239 -1.8495 -0.4900  1.7376
 1691SOL    HW216710   2.283   4.527   1.375  1.1708 -2.0231  0.7436
 1692SOL     OW16711   3.434   1.538   1.645 -0.6777  0.7861 -0.5452
 1692SOL    HW116712   3.446   1.562   1.737 -0.0547 -2.1093  0.1304
 1692SOL    HW216713   3.339   1.527   1.649 -0.3167 -2.2006 -0.6440
 1693SOL     OW16714   3.632   3.996  11.392 -0.7102  0.6976  0.1675
 1693SOL    HW116715   3.686   3.917  11.398  0.3073  1.4349  0.6313
 1693SOL    HW216716   3.579   3.980  11.470 -0.3877 -1.4231 -0.0444
 1694SOL     OW16717   4.133   0.646   3.541 -0.0144 -0.1226  0.4307
 1694SOL    HW116718   4.098   0.557   3.529 -0.7326  0.2815 -0.4475
 1694SOL    HW216719   4.056   0.699   3.520  0.3002  0.8434  1.7006
 1695SOL     OW16720   1.594   0.382  14.296  0.8532  0.0319 -0.4427
 1695SOL    HW116721   1.616   0.389  14.203  2.4030  3.2592  0.1496
 1695SOL    HW216722   1.605   0.473  14.323 -0.4332 -0.2400  0.9466
 1696SOL     OW16723   4.234   1.154  12.799 -0.1322  0.3443  0.4150
 1696SOL    HW116724   4.221   1.106  12.717  0.7230 -1.7829  1.5203
 1696SOL    HW216725   4.326   1.137  12.819 -0.7368  0.5050  3.2079
 1697SOL     OW16726   1.981   4.412   2.272 -0.0795 -0.0704 -0.5439
 1697SOL    HW116727   2.064   4.381   2.237 -1.0039 -2.3539 -0.7292
 1697SOL    HW216728   1.944   4.338   2.320  1.7619 -1.3962 -1.2080
 1698SOL     OW16729   0.469   2.945   7.605  0.5641  0.2776  0.7058
 1698SOL    HW116730   0.448   2.948   7.511 -0.5221 -4.4905  0.7971
 1698SOL    HW216731   0.415   3.021   7.626 -0.5164  0.1013 -1.4357
 1699SOL     OW16732   1.390   2.262  17.225 -0.0919 -0.1437  0.4958
 1699SOL    HW116733   1.367   2.290  17.137 -2.4697 -0.7678  0.9314
 1699SOL    HW216734   1.477   2.301  17.233 -0.0469 -0.5330  1.9723
 1700SOL     OW16735   0.884   0.169   4.373 -0.1189 -0.5385  0.0991
 1700SOL    HW116736   0.860   0.114   4.298  0.8130 -1.4945  0.5062
 1700SOL    HW216737   0.804   0.189   4.420  0.3573 -1.2084  1.2024
 1701SOL     OW16738   4.185   4.466   0.357  0.4780 -0.0012 -0.3371
 1701SOL    HW116739   4.276   4.439   0.342  0.5478 -0.0567  0.1710
 1701SOL    HW216740   4.144   4.470   0.270  2.7526  2.6772 -1.2944
 1702SOL     OW16741   4.516   3.906  16.501  0.4380  0.2621  0.1797
 1702SOL    HW116742   4.536   3.871  16.587 -0.0676  1.1411  0.6539
 1702SOL    HW216743   4.426   3.938  16.513  0.2519 -1.1039  2.3344
 1703SOL     OW16744   4.214   2.699  13.095 -0.4813 -0.6159  0.5349
 1703SOL    HW116745   4.245   2.715  13.184  0.0801  0.5527  0.1307
 1703SOL    HW216746   4.296   2.708  13.047  2.0357 -2.2140  4.5756
 1704SOL     OW16747   1.534   1.099  11.643  0.0783 -0.4922  0.2641
 1704SOL    HW116748   1.521   1.011  11.678  1.4813 -0.5172  0.7126
 1704SOL    HW216749   1.580   1.075  11.563  0.0122 -2.9569  0.9598
 1705SOL     OW16750   4.596   1.193  12.207  0.3238 -0.4283  0.0435
 1705SOL    HW116751   4.613   1.279  12.245  2.5003 -0.9564  0.2867
 1705SOL    HW216752   4.629   1.206  12.117 -0.5318  2.2336  0.1171
 1706SOL     OW16753   3.143   1.787   5.668 -0.3414 -0.0348 -0.3266
 1706SOL    HW116754   3.087   1.851   5.624  0.6567 -0.1901 -1.8392
 1706SOL    HW216755   3.184   1.844   5.733  0.6076 -1.2667  0.1770
 1707SOL     OW16756   1.067   4.006   4.033 -0.0779  0.3864  0.6427
 1707SOL    HW116757   1.036   4.082   3.984 -0.7441 -0.3649 -0.1144
 1707SOL    HW216758   1.020   4.017   4.115 -0.8206  2.0485 -0.0274
 1708SOL     OW16759   3.736   1.797   3.663 -0.0500  0.2906  0.1297
 1708SOL    HW116760   3.802   1.751   3.612  1.2476  0.6453  1.4921
 1708SOL    HW216761   3.679   1.726   3.693  0.0466 -0.0306 -0.4484
 1709SOL     OW16762   0.895   4.115   9.985  0.2529  0.0812  0.6146
 1709SOL    HW116763   0.967   4.156  10.033 -0.4101  2.1410 -0.1619
 1709SOL    HW216764   0.826   4.135  10.048 -0.3640  0.1674 -0.0868
 1710SOL     OW16765   3.478   3.619   7.369  0.0809  0.2021  0.1290
 1710SOL    HW116766   3.448   3.683   7.304  1.9185 -0.6196 -1.5363
 1710SOL    HW216767   3.460   3.535   7.327 -0.5001  0.7178 -0.6639
 1711SOL     OW16768   0.795   4.515   5.702 -0.3860  0.4071  0.5220
 1711SOL    HW116769   0.706   4.482   5.705 -0.1642 -0.0891  1.6840
 1711SOL    HW216770   0.791   4.562   5.618  0.3410 -1.7744 -0.7387
 1712SOL     OW16771   3.431   3.241   8.556  0.6535 -0.3680  0.3069
 1712SOL    HW116772   3.411   3.284   8.473 -0.4273 -2.0860 -0.3329
 1712SOL    HW216773   3.392   3.303   8.618  0.3816  0.1770 -0.4073
 1713SOL     OW16774   4.076   1.839   3.510  0.3887 -0.7756  0.3221
 1713SOL    HW116775   4.112   1.750   3.510  0.4749 -0.7414  1.5920
 1713SOL    HW216776   4.004   1.821   3.450  2.7693 -0.7151 -2.5936
 1714SOL     OW16777   1.797   2.598   1.134  0.0791  0.1203 -0.2073
 1714SOL    HW116778   1.883   2.564   1.160 -1.0151 -2.0912  0.4526
 1714SOL    HW216779   1.742   2.522   1.149 -2.7768  2.0285 -1.0698
 1715SOL     OW16780   2.371   3.935   6.476 -0.4211  0.1139  0.2549
 1715SOL    HW116781   2.436   3.866   6.464  1.6526  2.2895 -0.9107
 1715SOL    HW216782   2.433   4.005   6.455 -0.0227 -0.1779  0.4535
 1716SOL     OW16783   1.517   4.396   2.175 -0.2266 -0.8526 -0.0767
 1716SOL    HW116784   1.475   4.353   2.250 -1.5819  0.6895  0.0502
 1716SOL    HW216785   1.465   4.476   2.164 -0.6651 -1.1245 -0.0101
 1717SOL     OW16786   3.239   3.531  14.343 -0.0288  0.2762  0.0003
 1717SOL    HW116787   3.178   3.503  14.412 -0.2006 -0.2077 -0.3474
 1717SOL    HW216788   3.192   3.613  14.326  0.5149  0.4724 -0.5418
 1718SOL     OW16789   3.136   3.064   4.773 -0.1871 -0.2044  0.0920
 1718SOL    HW116790   3.120   3.028   4.686  0.9980 -1.2863  0.3370
 1718SOL    HW216791   3.227   3.090   4.761  0.0823 -0.9844  0.4321
 1719SOL     OW16792   3.668   2.684   9.996  0.5602  0.0467 -0.0308
 1719SOL    HW116793   3.730   2.611   9.988 -0.0414 -0.5462  0.6228
 1719SOL    HW216794   3.636   2.675   9.906  0.2612 -2.0743  0.2753
 1720SOL     OW16795   3.741   4.629   5.928 -0.0797  0.4668  0.6873
 1720SOL    HW116796   3.667   4.680   5.960 -1.3602  0.0048 -1.5541
 1720SOL    HW216797   3.794   4.631   6.008 -1.7372 -1.0560  1.8162
 1721SOL     OW16798   0.328   2.533   4.660 -0.0097 -0.7164 -0.5780
 1721SOL    HW116799   0.319   2.620   4.623 -3.2604  0.1823  2.3428
 1721SOL    HW216800   0.234   2.516   4.661 -0.1133 -0.0593  0.8874
 1722SOL     OW16801   4.184   4.725  12.258  0.6438 -0.0640 -0.3753
 1722SOL    HW116802   4.169   4.668  12.333 -0.2034  0.1229 -0.4065
 1722SOL    HW216803   4.275   4.700  12.241  0.2843 -0.9115 -1.0824
 1723SOL     OW16804   3.712   0.487  10.403 -0.6589  0.0193 -0.2111
 1723SOL    HW116805   3.688   0.417  10.463  0.0379  1.7903  2.1181
 1723SOL    HW216806   3.807   0.488  10.388 -0.6133  0.7504  0.1486
 1724SOL     OW16807   0.406   0.272   7.998  0.3156  0.5808 -0.5648
 1724SOL    HW116808   0.425   0.251   7.907 -2.9620  2.1394 -1.5896
 1724SOL    HW216809   0.399   0.184   8.035 -0.1688  1.1515  0.7003
 1725SOL     OW16810   1.573   1.803   0.594  0.1725 -0.1968  0.0202
 1725SOL    HW116811   1.653   1.774   0.638  0.1851  0.5350  0.4785
 1725SOL    HW216812   1.616   1.810   0.509  1.3381  1.7522  0.7627
 1726SOL     OW16813   3.461   3.369   4.189 -0.1933 -0.0683  0.4181
 1726SOL    HW116814   3.498   3.435   4.131 -0.4820  0.3716  0.7346
 1726SOL    HW216815   3.546   3.331   4.211 -0.7400  0.1763  2.9585
 1727SOL     OW16816   0.840   1.777   9.436  0.0194 -0.0954 -0.7138
 1727SOL    HW116817   0.908   1.711   9.444  1.3106  1.2682 -0.3656
 1727SOL    HW216818   0.765   1.730   9.472 -0.5215  0.8849 -0.5357
 1728SOL     OW16819   2.851   3.063  16.587 -0.0371  0.1254 -0.5647
 1728SOL    HW116820   2.810   3.130  16.532 -2.3437 -1.7448 -1.1090
 1728SOL    HW216821   2.925   3.043  16.529  0.1369 -0.2498 -0.2167
 1729SOL     OW16822   2.046   2.805   8.865 -0.1057 -0.1972  0.4688
 1729SOL    HW116823   2.075   2.720   8.833 -0.5610  0.1921 -0.9906
 1729SOL    HW216824   2.101   2.827   8.940 -0.9858  2.5236  0.3132
 1730SOL     OW16825   2.332   2.429  16.253 -0.0468  0.9645 -0.0492
 1730SOL    HW116826   2.258   2.397  16.304  0.5035  0.5605  0.4847
 1730SOL    HW216827   2.404   2.396  16.306 -1.2062  0.5708  1.2675
 1731SOL     OW16828   1.045   0.847   4.812 -0.2321  0.0030  0.0484
 1731SOL    HW116829   1.056   0.803   4.896  0.4708  0.4237  0.1716
 1731SOL    HW216830   1.132   0.860   4.775 -0.4185  0.7231 -0.1490
 1732SOL     OW16831   4.520   4.413   4.269 -0.1416 -0.5058  0.6363
 1732SOL    HW116832   4.424   4.404   4.269 -0.1850 -0.0014 -0.5799
 1732SOL    HW216833   4.548   4.438   4.181  0.8347  1.9635  1.6350
 1733SOL     OW16834   4.436   0.145   6.752 -0.1764  0.1919  0.4319
 1733SOL    HW116835   4.523   0.136   6.712 -0.7484 -1.1372 -0.5279
 1733SOL    HW216836   4.410   0.055   6.772 -1.0774  0.4069  0.2065
 1734SOL     OW16837   1.270   2.025   7.441 -0.2874 -0.8788  0.3130
 1734SOL    HW116838   1.217   1.977   7.377 -0.9959 -0.3425  0.4876
 1734SOL    HW216839   1.212   2.101   7.450  2.1723  0.9265  0.8554
 1735SOL     OW16840   2.402   1.351   8.416  0.3285 -0.6101  0.0675
 1735SOL    HW116841   2.351   1.419   8.372 -0.8645 -1.5230  0.0388
 1735SOL    HW216842   2.334   1.339   8.482  1.2244  0.8818  1.2532
 1736SOL     OW16843   3.121   2.930   7.982  0.5562 -0.2675 -0.1509
 1736SOL    HW116844   3.212   2.916   8.009  0.4783  0.0828  0.2872
 1736SOL    HW216845   3.110   2.844   7.942 -0.6483  0.5779 -1.6025
 1737SOL     OW16846   2.060   2.454  10.846  0.4216 -0.5852 -0.0204
 1737SOL    HW116847   2.007   2.521  10.802  1.8989  1.9338  1.9925
 1737SOL    HW216848   2.134   2.467  10.787  0.0973 -0.9803 -0.5022
 1738SOL     OW16849   0.031   1.857  15.395  0.1064  0.4735  0.1062
 1738SOL    HW116850   0.017   1.766  15.368 -1.3008  0.7660 -0.1526
 1738SOL    HW216851   0.014   1.846  15.489  2.4167 -1.9904  0.2308
 1739SOL     OW16852   2.289   2.314  15.117 -0.5568  0.8595  0.2757
 1739SOL    HW116853   2.339   2.377  15.064  2.5095 -1.6678  0.1895
 1739SOL    HW216854   2.363   2.267  15.153 -1.3041  0.2215  0.9812
 1740SOL     OW16855   0.630   2.800  14.585  0.1848  0.0232  0.4877
 1740SOL    HW116856   0.570   2.860  14.628 -1.2341 -0.0870 -1.3335
 1740SOL    HW216857   0.619   2.830  14.495  0.4462  0.1480  0.4988
 1741SOL     OW16858   0.132   1.821  10.655  0.2252 -0.1420  0.6001
 1741SOL    HW116859   0.163   1.895  10.708 -0.9091  0.0675  0.9849
 1741SOL    HW216860   0.189   1.753  10.692 -0.9877 -1.0561  0.7967
 1742SOL     OW16861   4.096   0.333   2.065  0.5761  0.3686 -0.2711
 1742SOL    HW116862   4.173   0.336   2.009  0.1951 -1.1765 -0.8962
 1742SOL    HW216863   4.026   0.370   2.010 -1.1026 -0.7660  1.0786
 1743SOL     OW16864   0.992   4.215   3.352  0.0139 -0.8361  0.4220
 1743SOL    HW116865   1.003   4.134   3.401  3.2109 -1.4279 -1.2715
 1743SOL    HW216866   1.083   4.237   3.333 -0.0131 -0.7608  0.3784
 1744SOL     OW16867   0.468   4.616   5.417 -0.3722  0.1063  0.3638
 1744SOL    HW116868   0.445   4.583   5.330 -1.3199  1.6836  0.0176
 1744SOL    HW216869   0.560   4.591   5.427 -0.3039  0.7926  1.4626
 1745SOL     OW16870   2.331   4.665   5.804 -0.4362 -0.5916  0.2357
 1745SOL    HW116871   2.264   4.611   5.762  0.8664 -0.5451 -1.8868
 1745SOL    HW216872   2.312   0.021   5.780  0.3747 -0.1204  1.3910
 1746SOL     OW16873   4.552   1.907   1.880  0.0131 -0.2353 -0.9022
 1746SOL    HW116874   4.491   1.953   1.823  0.6700  2.8601  0.8731
 1746SOL    HW216875   4.589   1.977   1.936 -0.2840  0.3210 -1.4067
 1747SOL     OW16876   0.278   2.688   7.038  0.6713  0.3870 -0.0122
 1747SOL    HW116877   0.247   2.708   6.949 -2.6807  0.3233  1.1370
 1747SOL    HW216878   0.280   2.593   7.031  0.6874  0.2691  1.7926
 1748SOL     OW16879   2.442   4.433   5.269  0.5531  0.2589 -0.5564
 1748SOL    HW116880   2.435   4.374   5.344 -0.3264  2.2156  0.9061
 1748SOL    HW216881   2.491   4.510   5.297  0.1632 -1.2945  4.4423
 1749SOL     OW16882   3.980   4.382   3.413 -0.0902  0.6381 -0.5064
 1749SOL    HW116883   3.993   4.473   3.438 -2.7383  1.0214 -0.6039
 1749SOL    HW216884   4.068   4.345   3.423 -1.4184 -2.3012  0.2679
 1750SOL     OW16885   1.919   1.959   1.897  0.5813  0.3864 -0.2672
 1750SOL    HW116886   2.003   1.983   1.935 -0.0199  0.6960  0.8752
 1750SOL    HW216887   1.892   2.036   1.848 -0.2134  0.5418  0.4059
 1751SOL     OW16888   0.003   2.803  14.338  0.4331 -0.5527 -1.1096
 1751SOL    HW116889   0.053   2.731  14.301  0.3100 -0.7145 -0.9568
 1751SOL    HW216890   0.075   2.866  14.329  0.8030 -0.6136  1.5423
 1752SOL     OW16891   3.520   0.522   2.687 -0.7479  0.3968  0.4163
 1752SOL    HW116892   3.542   0.437   2.726 -0.5399  0.3600  0.2199
 1752SOL    HW216893   3.443   0.544   2.739 -0.6455  2.1508 -0.1833
 1753SOL     OW16894   1.410   0.572   9.078 -0.3504 -0.0388  0.1191
 1753SOL    HW116895   1.384   0.482   9.060 -0.8688  0.2275 -0.4862
 1753SOL    HW216896   1.333   0.603   9.127  1.3501  2.7246  1.0901
 1754SOL     OW16897   2.691   2.100   5.334  0.5892  0.0530  0.6603
 1754SOL    HW116898   2.605   2.064   5.357  0.6210  0.3962  1.3266
 1754SOL    HW216899   2.655   2.186   5.312  1.3698  0.2962  0.3727
 1755SOL     OW16900   3.439   2.329   1.451 -0.3494  0.1938 -0.1775
 1755SOL    HW116901   3.451   2.255   1.391  2.3640 -0.1426  0.7864
 1755SOL    HW216902   3.458   2.286   1.535 -1.6519 -1.4301 -0.7114
 1756SOL     OW16903   4.054   2.698  13.417 -0.0517  0.3300  0.3355
 1756SOL    HW116904   4.045   2.752  13.496  2.1760  0.9368  0.1735
 1756SOL    HW216905   4.146   2.716  13.397  0.3017  2.0215  3.4173
 1757SOL     OW16906   4.242   4.729  11.738  0.4016  0.1172 -0.0837
 1757SOL    HW116907   4.317   4.725  11.678  0.3900  0.8667 -0.1565
 1757SOL    HW216908   4.179   4.688  11.679 -0.6402  1.6663 -0.0314
 1758SOL     OW16909   3.843   4.067   6.352  0.4096  0.6873  0.0739
 1758SOL    HW116910   3.827   4.047   6.444 -1.0953  3.2851  0.4003
 1758SOL    HW216911   3.776   4.133   6.332  0.9976  0.4051 -2.9000
 1759SOL     OW16912   2.296   1.967  15.938 -0.6018  0.3805  0.6355
 1759SOL    HW116913   2.260   2.038  15.992 -0.3196 -0.3786  1.8036
 1759SOL    HW216914   2.338   1.911  16.003  0.7801  1.0132  0.2874
 1760SOL     OW16915   1.581   3.750   5.508  0.3814  0.1401  0.2186
 1760SOL    HW116916   1.660   3.784   5.466  1.0795 -1.0734  0.5323
 1760SOL    HW216917   1.533   3.727   5.429 -1.6912 -1.1775  1.8450
 1761SOL     OW16918   1.314   0.374  14.010 -0.1886  0.0219 -0.2968
 1761SOL    HW116919   1.358   0.291  13.989 -1.5371 -0.2113 -2.2855
 1761SOL    HW216920   1.307   0.409  13.921  1.3933  0.8862 -0.0871
 1762SOL     OW16921   3.937   2.773  17.609  0.4000 -1.1302 -0.3920
 1762SOL    HW116922   3.871   2.841  17.591  1.7126  1.3470  4.0876
 1762SOL    HW216923   3.976   2.762  17.523  0.8290  1.3593 -0.5169
 1763SOL     OW16924   2.687   2.955   2.466 -0.0321  0.0740 -0.0362
 1763SOL    HW116925   2.695   2.999   2.550 -1.2147  1.0204 -0.4259
 1763SOL    HW216926   2.706   3.032   2.412  1.1094  1.2552  2.0909
 1764SOL     OW16927   3.453   3.533   6.551  0.1962 -0.0789  0.0325
 1764SOL    HW116928   3.544   3.556   6.533 -0.1054  2.2055  1.5609
 1764SOL    HW216929   3.443   3.451   6.502 -2.3335  0.4303 -0.2726
 1765SOL     OW16930   0.595   2.597   7.349  0.3347  0.1348  0.3129
 1765SOL    HW116931   0.594   2.642   7.433 -0.2842  0.2166  0.2567
 1765SOL    HW216932   0.531   2.649   7.301 -1.5447 -1.8871  0.6405
 1766SOL     OW16933   3.869   3.858   9.985  0.3802  0.3238 -0.2819
 1766SOL    HW116934   3.830   3.924  10.042 -1.8793  0.6929 -2.2636
 1766SOL    HW216935   3.798   3.795   9.996  1.0611 -0.7095 -1.7204
 1767SOL     OW16936   1.434   0.602   9.916  0.1275  0.1236  0.1484
 1767SOL    HW116937   1.463   0.676   9.861 -3.7701  0.9959 -0.7665
 1767SOL    HW216938   1.495   0.539   9.878  1.7007  1.4358  0.5074
 1768SOL     OW16939   4.112   2.348   5.788 -0.5648 -0.5232 -0.5285
 1768SOL    HW116940   4.098   2.346   5.693  0.0746  1.2463 -0.6635
 1768SOL    HW216941   4.086   2.265   5.828  1.1029 -0.3134  1.0088
 1769SOL     OW16942   1.368   2.393   3.380 -0.8331 -0.0412  0.1379
 1769SOL    HW116943   1.290   2.406   3.325 -0.2987  3.2441  0.1149
 1769SOL    HW216944   1.337   2.430   3.463 -0.2828  0.0645  0.2914
 1770SOL     OW16945   4.445   2.021   7.400  0.0326 -0.5628 -0.1880
 1770SOL    HW116946   4.365   2.015   7.452  0.0672  1.7935  0.1125
 1770SOL    HW216947   4.487   1.935   7.398  2.1145  0.4793 -1.1838
 1771SOL     OW16948   1.884   2.475   2.384 -0.0775  0.2622 -0.0399
 1771SOL    HW116949   1.835   2.554   2.363 -0.3758 -0.0008 -0.3323
 1771SOL    HW216950   1.947   2.480   2.313  1.1155  1.2006  1.0799
 1772SOL     OW16951   0.492   1.798   2.601  0.1749 -0.2527  0.5527
 1772SOL    HW116952   0.433   1.758   2.537 -1.4859  2.7542  0.1875
 1772SOL    HW216953   0.456   1.774   2.686 -2.8951 -0.3565 -0.7744
 1773SOL     OW16954   4.220   0.453   6.036  0.1800 -0.0334 -0.0569
 1773SOL    HW116955   4.275   0.457   5.957  0.5238  0.3981  0.2075
 1773SOL    HW216956   4.272   0.497   6.102 -1.8329  1.6694  0.3644
 1774SOL     OW16957   0.263   2.447   8.522 -0.2376 -0.2362  0.0771
 1774SOL    HW116958   0.202   2.379   8.550  0.3820 -0.6690  0.3807
 1774SOL    HW216959   0.269   2.506   8.597  1.8723 -0.0170 -0.2743
 1775SOL     OW16960   0.539   1.971   6.084  0.0505 -0.2968  0.2814
 1775SOL    HW116961   0.461   2.021   6.105 -1.3450 -1.6593 -1.6265
 1775SOL    HW216962   0.518   1.896   6.028 -3.2992 -0.8240  2.3074
 1776SOL     OW16963   3.372   1.952   2.190  0.0708  0.1040  0.5824
 1776SOL    HW116964   3.310   1.918   2.125  0.4882 -2.5745  1.5613
 1776SOL    HW216965   3.455   1.958   2.143 -0.2974 -2.1851 -0.3873
 1777SOL     OW16966   2.550   3.403   2.212  0.0894  0.0966 -0.1789
 1777SOL    HW116967   2.460   3.382   2.235  0.4891 -0.7595  0.6107
 1777SOL    HW216968   2.604   3.330   2.242 -1.6383 -1.2525 -0.4050
 1778SOL     OW16969   1.775   3.879   2.309  0.1228  0.5103  0.1033
 1778SOL    HW116970   1.795   3.887   2.402  0.6377  0.6365 -0.0210
 1778SOL    HW216971   1.847   3.825   2.276 -1.4210 -0.9749 -0.8120
 1779SOL     OW16972   2.757   2.107   8.402  0.0231  0.1273  0.2604
 1779SOL    HW116973   2.693   2.120   8.332 -0.5159 -2.5724  0.2237
 1779SOL    HW216974   2.840   2.103   8.356 -0.6638 -1.2398 -0.8758
 1780SOL     OW16975   0.168   2.002  13.985 -0.0631 -0.5684 -0.0885
 1780SOL    HW116976   0.103   1.944  13.946 -2.6345  0.9098  2.0306
 1780SOL    HW216977   0.139   2.003  14.076 -0.4363 -1.2657 -0.1996
 1781SOL     OW16978   0.891   4.309   6.464 -0.2834  0.8374  0.5650
 1781SOL    HW116979   0.907   4.226   6.509 -0.7268  2.0387  2.9548
 1781SOL    HW216980   0.957   4.365   6.504  0.3445  1.5722 -1.4670
 1782SOL     OW16981   0.271   1.304  14.649 -0.4664  0.1380  0.8131
 1782SOL    HW116982   0.269   1.360  14.571  2.4238  0.6170  1.0986
 1782SOL    HW216983   0.198   1.244  14.634 -0.0372  0.3703 -2.2503
 1783SOL     OW16984   0.247   0.556  14.100  0.0296 -0.4758  0.0284
 1783SOL    HW116985   0.153   0.573  14.107 -0.0502 -0.4415 -1.1710
 1783SOL    HW216986   0.271   0.556  14.192 -1.6543  0.6020  0.4762
 1784SOL     OW16987   3.106   4.260  12.423 -0.2536 -0.1259  0.8338
 1784SOL    HW116988   3.187   4.260  12.474 -0.0163 -0.9149  0.4629
 1784SOL    HW216989   3.089   4.353  12.411  2.7843  0.5300  1.6347
 1785SOL     OW16990   0.587   0.130  14.950  0.1231 -0.4844 -0.2102
 1785SOL    HW116991   0.650   0.197  14.922 -1.1704  0.6828 -0.3027
 1785SOL    HW216992   0.532   0.178  15.012 -1.3708 -0.1267 -1.8128
 1786SOL     OW16993   3.204   4.081   5.624 -0.0654 -0.5901 -0.0171
 1786SOL    HW116994   3.217   4.027   5.546 -0.8087 -2.4632  1.1469
 1786SOL    HW216995   3.187   4.168   5.588  0.3979 -0.5887 -0.2287
 1787SOL     OW16996   0.275   4.488   7.097 -0.0632 -0.1438 -0.2226
 1787SOL    HW116997   0.210   4.434   7.053  0.8750 -0.7468 -0.8709
 1787SOL    HW216998   0.319   4.525   7.020 -1.1170  1.3184 -0.1163
 1788SOL     OW16999   3.430   3.369  12.480 -0.3241 -0.0251  0.2788
 1788SOL    HW117000   3.434   3.292  12.424 -0.2802 -0.8715  1.4490
 1788SOL    HW217001   3.477   3.439  12.434 -0.6887 -0.2102 -0.3827
 1789SOL     OW17002   1.434   3.351   8.728  0.0562 -0.6683 -0.9045
 1789SOL    HW117003   1.438   3.409   8.652  1.7507  1.0014  0.4375
 1789SOL    HW217004   1.462   3.269   8.688 -0.6009 -1.1192 -0.4457
 1790SOL     OW17005   4.335   1.958  11.659  0.3773 -0.6962 -0.0209
 1790SOL    HW117006   4.262   1.970  11.719  0.4389  1.6635 -0.4092
 1790SOL    HW217007   4.402   2.007  11.706  0.7872 -0.6345 -0.6734
 1791SOL     OW17008   3.692   4.707   8.871  0.2673  0.2530 -0.0664
 1791SOL    HW117009   3.624   4.721   8.805 -0.4187 -2.0602  0.1668
 1791SOL    HW217010   3.707   4.614   8.854  0.8076  0.0050  1.7692
 1792SOL     OW17011   2.115   1.839   0.221  0.2179  0.4671 -0.4853
 1792SOL    HW117012   2.112   1.745   0.237  1.3471  0.8909  2.1585
 1792SOL    HW217013   2.112   1.877   0.309  0.6557  0.6425 -0.5488
 1793SOL     OW17014   2.880   4.149  15.053 -0.6194  0.2442  0.0090
 1793SOL    HW117015   2.871   4.212  14.983 -0.9153 -0.5879 -0.7040
 1793SOL    HW217016   2.970   4.168  15.079 -0.5550 -0.7251  0.5299
 1794SOL     OW17017   3.923   3.986  14.346  0.3284  0.4453  0.2936
 1794SOL    HW117018   3.844   4.040  14.355 -2.3709 -3.3448 -0.7074
 1794SOL    HW217019   3.958   4.025  14.266 -1.9551 -0.0531 -0.9460
 1795SOL     OW17020   2.310   3.297   2.279  0.0267 -0.2008  0.4058
 1795SOL    HW117021   2.260   3.292   2.197  0.4828 -2.4992  0.2751
 1795SOL    HW217022   2.311   3.207   2.311 -3.8649 -0.6138 -0.6088
 1796SOL     OW17023   4.103   0.550   2.568 -0.3823 -0.0207 -0.2114
 1796SOL    HW117024   4.146   0.609   2.506  0.3434 -0.4983 -0.1622
 1796SOL    HW217025   4.116   0.586   2.656  0.8749 -0.2776 -0.2939
 1797SOL     OW17026   0.065   4.563   8.642  0.0164  0.3111 -0.0609
 1797SOL    HW117027   0.024   4.552   8.728  0.2203 -0.6382 -0.0885
 1797SOL    HW217028   0.156   4.555   8.672  0.2198 -2.1117 -1.2978
 1798SOL     OW17029   3.438   4.154  11.049  0.2677 -0.3527 -0.2275
 1798SOL    HW117030   3.524   4.147  11.090 -0.1599  2.7563  1.2578
 1798SOL    HW217031   3.382   4.085  11.084  0.8374 -0.5711  0.2620
 1799SOL     OW17032   0.329   3.115  14.863 -0.0116  0.0199 -0.2395
 1799SOL    HW117033   0.311   3.054  14.935 -0.8093  1.2606  0.5948
 1799SOL    HW217034   0.246   3.105  14.816  0.0599  0.9076 -0.5477
 1800SOL     OW17035   0.965   3.934   5.489 -0.5201  0.3410 -0.0566
 1800SOL    HW117036   0.952   3.878   5.565 -0.6808  0.7298  0.2009
 1800SOL    HW217037   1.047   3.893   5.462 -0.7672  0.5366 -1.0899
 1801SOL     OW17038   1.944   2.349   0.614  0.2605 -0.3702 -0.2951
 1801SOL    HW117039   2.028   2.380   0.581 -0.0502 -0.9445 -1.6315
 1801SOL    HW217040   1.885   2.362   0.540  0.2936 -2.1015 -0.6421
 1802SOL     OW17041   3.123   1.251  14.884 -0.4046  0.0302 -0.0467
 1802SOL    HW117042   3.121   1.163  14.923  1.3044  0.1779  0.3930
 1802SOL    HW217043   3.091   1.308  14.953  0.2628  1.1180 -0.6359
 1803SOL     OW17044   3.035   2.174   6.414  0.0663 -0.3147  0.1729
 1803SOL    HW117045   3.106   2.115   6.438 -0.6579 -2.2413 -2.4258
 1803SOL    HW217046   3.059   2.252   6.464 -0.4578 -0.0457  0.0093
 1804SOL     OW17047   0.465   4.154  16.640 -0.2248 -0.1736 -0.4465
 1804SOL    HW117048   0.487   4.119  16.553  0.2756 -1.6500  0.2830
 1804SOL    HW217049   0.494   4.244  16.626 -1.0515  0.3927  1.5132
 1805SOL     OW17050   1.984   2.007   2.565 -0.0293 -0.2753 -0.1449
 1805SOL    HW117051   1.894   2.005   2.598  0.1825 -0.4574  0.4237
 1805SOL    HW217052   2.008   2.096   2.588  0.2122  0.1327 -1.9774
 1806SOL     OW17053   2.236   1.403   3.005  0.0764  0.3091 -0.4008
 1806SOL    HW117054   2.322   1.442   2.993  0.2546 -0.1473 -0.5946
 1806SOL    HW217055   2.225   1.353   2.924 -2.9296  0.7721 -0.2713
 1807SOL     OW17056   0.616   4.555   2.000 -0.2688 -0.0802  0.0666
 1807SOL    HW117057   0.649   4.613   1.931 -1.5280  0.2548 -0.2610
 1807SOL    HW217058   0.526   4.587   2.010 -0.3864 -0.2742 -0.3851
 1808SOL     OW17059   2.680   0.628   3.964  0.0096 -0.6440 -0.1886
 1808SOL    HW117060   2.661   0.629   3.871 -1.0570  4.5789  0.0631
 1808SOL    HW217061   2.774   0.626   3.948  0.3608 -1.0845  1.8398
 1809SOL     OW17062   1.843   3.584   4.328  0.1281 -1.0558  0.8174
 1809SOL    HW117063   1.926   3.544   4.352  1.2954  1.1614  0.4552
 1809SOL    HW217064   1.806   3.603   4.415 -1.0549  0.1225  0.0491
 1810SOL     OW17065   4.684   3.309   6.883  0.1883 -0.1964  0.3041
 1810SOL    HW117066   0.017   3.316   6.949  0.5846 -1.3410  0.0087
 1810SOL    HW217067   4.600   3.310   6.929  0.9635  0.1703  1.7214
 1811SOL     OW17068   0.559   3.936   7.539  0.3146  0.4682  0.5626
 1811SOL    HW117069   0.583   4.010   7.482  0.9569  1.1495  1.7223
 1811SOL    HW217070   0.508   3.986   7.603  1.2451  0.9773  0.8965
 1812SOL     OW17071   0.748   4.198  13.228  0.3181 -0.1136 -0.3855
 1812SOL    HW117072   0.837   4.219  13.199  0.3565  1.2350  0.7213
 1812SOL    HW217073   0.729   4.127  13.166  2.0243 -0.9077  0.0028
 1813SOL     OW17074   2.490   2.054   6.449  0.2449 -0.2356  0.0518
 1813SOL    HW117075   2.571   2.083   6.406  0.5187  0.9032  1.3257
 1813SOL    HW217076   2.517   2.045   6.541  0.9130  0.8607 -0.0352
 1814SOL     OW17077   2.321   3.026   2.332  0.4293  0.2874  0.2109
 1814SOL    HW117078   2.414   3.004   2.332  0.6297  1.1639  0.8139
 1814SOL    HW217079   2.307   2.985   2.246 -1.2609  2.1928 -0.4242
 1815SOL     OW17080   2.889   4.684   7.290 -0.0665  0.4680 -0.7219
 1815SOL    HW117081   2.931   4.713   7.210 -1.3986  1.5506 -1.0102
 1815SOL    HW217082   2.936   0.008   7.349  0.8914 -1.3928  0.4370
 1816SOL     OW17083   2.616   1.069   5.705  0.4369 -0.1857 -1.2165
 1816SOL    HW117084   2.541   1.127   5.713 -0.9399 -2.0672 -0.4618
 1816SOL    HW217085   2.649   1.072   5.795  2.0899  2.3610 -1.9051
 1817SOL     OW17086   1.703   2.391   3.729 -0.5864 -0.0335  0.2320
 1817SOL    HW117087   1.679   2.410   3.639 -1.7748 -3.5223 -0.1955
 1817SOL    HW217088   1.645   2.319   3.753  1.3112 -1.1208  1.5951
 1818SOL     OW17089   0.946   4.345   7.465  0.2115 -0.0840 -0.0612
 1818SOL    HW117090   0.920   4.285   7.535  0.5633  0.3125  0.4190
 1818SOL    HW217091   0.876   4.410   7.472  1.4195  1.2226 -0.0076
 1819SOL     OW17092   0.180   2.727   1.987  0.7675  0.3493  0.2389
 1819SOL    HW117093   0.126   2.663   2.035  2.2150  1.0483  2.7788
 1819SOL    HW217094   0.257   2.673   1.967 -0.3240  0.1435 -3.2653
 1820SOL     OW17095   3.829   0.768   6.173 -0.0179  0.2163  0.3634
 1820SOL    HW117096   3.894   0.742   6.107  0.4320  0.1123  0.8536
 1820SOL    HW217097   3.887   0.773   6.249 -1.2684 -0.9576  1.3898
 1821SOL     OW17098   1.632   1.424   4.871 -0.4544 -0.0050 -0.4838
 1821SOL    HW117099   1.569   1.363   4.832  1.0631  0.5039 -3.7156
 1821SOL    HW217100   1.569   1.476   4.921  0.6609 -0.1039  0.9970
 1822SOL     OW17101   4.654   4.436   3.260  0.0108 -0.4303  0.6892
 1822SOL    HW117102   4.698   4.387   3.190 -0.5811  2.4017 -1.6361
 1822SOL    HW217103   4.715   4.510   3.261  0.4668 -0.8037  0.3628
 1823SOL     OW17104   1.949   3.284   6.968 -0.0706 -0.3228 -0.4619
 1823SOL    HW117105   1.925   3.371   6.999 -1.5843 -0.7493 -0.4157
 1823SOL    HW217106   1.872   3.227   6.974 -1.2505  1.0607 -2.1696
 1824SOL     OW17107   4.035   1.249   8.234  0.2267 -0.2126 -0.6412
 1824SOL    HW117108   4.015   1.254   8.140 -1.1408  0.7767 -0.2870
 1824SOL    HW217109   3.951   1.275   8.272  0.8481  0.2449  0.3952
 1825SOL     OW17110   0.492   1.602   4.698  0.7156  0.1671  0.0220
 1825SOL    HW117111   0.411   1.552   4.713 -0.4342  2.2560  0.7930
 1825SOL    HW217112   0.472   1.693   4.718  0.7122 -0.2195  1.7351
 1826SOL     OW17113   2.928   0.536   8.545  0.3297 -0.1185 -0.1942
 1826SOL    HW117114   2.841   0.573   8.563  1.2199  2.2537 -0.7292
 1826SOL    HW217115   2.965   0.547   8.633 -0.3834 -0.3651  0.1349
 1827SOL     OW17116   1.789   0.423   6.664 -0.1852 -0.3491  0.6308
 1827SOL    HW117117   1.704   0.386   6.640 -0.6829 -0.1740  2.0931
 1827SOL    HW217118   1.808   0.365   6.737  0.5154 -0.3445  0.4494
 1828SOL     OW17119   0.954   1.754  11.701  0.5592  0.7627 -0.3715
 1828SOL    HW117120   1.021   1.686  11.711  0.7116  0.6194 -2.4360
 1828SOL    HW217121   1.003   1.833  11.679  1.6199  0.6024  1.3897
 1829SOL     OW17122   1.077   4.050   6.451 -0.0277 -0.1434 -0.3660
 1829SOL    HW117123   1.107   4.128   6.404  1.7872 -0.5110  0.1835
 1829SOL    HW217124   1.100   4.077   6.540  1.2918 -1.9199 -0.1702
 1830SOL     OW17125   3.032   2.480   4.846  0.6033 -0.3506  0.2010
 1830SOL    HW117126   2.972   2.543   4.884  2.3910  0.0917  2.2794
 1830SOL    HW217127   3.087   2.478   4.924 -2.4307 -0.7402  2.3203
 1831SOL     OW17128   4.716   0.024   6.922 -0.2003  0.4746 -0.1659
 1831SOL    HW117129   4.711   0.063   6.835  1.6188 -2.2672 -1.4879
 1831SOL    HW217130   0.072   0.038   6.947 -0.0714 -0.7477  0.0641
 1832SOL     OW17131   4.361   0.217   4.417  0.1625 -0.4926  0.0837
 1832SOL    HW117132   4.451   0.242   4.394  0.2401  1.0075  2.0037
 1832SOL    HW217133   4.354   0.139   4.362 -0.4074 -0.3550 -0.0415
 1833SOL     OW17134   3.348   1.160   9.064  0.2676  0.5876  0.1705
 1833SOL    HW117135   3.305   1.076   9.081  0.2799  0.1181 -2.0225
 1833SOL    HW217136   3.318   1.179   8.975 -1.9952  1.3109  1.0975
 1834SOL     OW17137   4.586   2.829   1.696  0.8860  0.0910  0.2217
 1834SOL    HW117138   4.538   2.911   1.692  1.5419  0.3141 -2.9330
 1834SOL    HW217139   4.570   2.793   1.609 -2.5820  1.5376  0.2418
 1835SOL     OW17140   3.907   0.948   0.138  0.3638  0.0112  0.2427
 1835SOL    HW117141   3.823   0.930   0.097 -0.0014  0.4774  0.7789
 1835SOL    HW217142   3.965   0.883   0.097 -0.3132  0.6642 -1.7135
 1836SOL     OW17143   2.156   2.518   3.607  0.4699  0.3659  0.1239
 1836SOL    HW117144   2.122   2.518   3.518  0.7669  0.1354  0.0092
 1836SOL    HW217145   2.230   2.578   3.592  1.5080 -0.6306  1.2185
 1837SOL     OW17146   0.038   4.697   4.217  0.3115  0.0273  0.3581
 1837SOL    HW117147   0.121   4.666   4.253  0.5788 -0.4493 -0.6430
 1837SOL    HW217148   0.000   4.616   4.183 -0.5338  0.9005 -0.8224
 1838SOL     OW17149   2.596   1.871   6.146 -0.4240 -0.7585  0.2943
 1838SOL    HW117150   2.520   1.839   6.196 -0.1071 -0.4070  1.0075
 1838SOL    HW217151   2.568   1.940   6.085  0.9241 -1.5208 -1.1635
 1839SOL     OW17152   2.700   3.529  13.221 -0.7269 -0.0614 -0.4886
 1839SOL    HW117153   2.751   3.486  13.290 -0.8055  0.3178 -0.1966
 1839SOL    HW217154   2.677   3.614  13.258 -0.3200 -0.2825  0.2891
 1840SOL     OW17155   2.636   4.167   3.891 -0.0376 -0.5086 -0.7436
 1840SOL    HW117156   2.547   4.199   3.876  0.3026  0.9643  0.4270
 1840SOL    HW217157   2.622   4.123   3.975 -2.0740 -2.0887 -1.9002
 1841SOL     OW17158   2.256   4.528  10.172 -0.1711 -0.2556  0.2457
 1841SOL    HW117159   2.253   4.623  10.176  0.7915 -0.2021 -0.1836
 1841SOL    HW217160   2.326   4.511  10.108 -0.3259 -0.9237  0.2536
 1842SOL     OW17161   3.176   0.286  13.738  0.5531 -0.4749  0.2634
 1842SOL    HW117162   3.101   0.269  13.795 -0.5680 -0.0198 -1.0782
 1842SOL    HW217163   3.124   0.308  13.660  0.8327 -1.7043 -0.2750
 1843SOL     OW17164   0.585   4.298   2.075 -0.3996  0.5243 -0.0617
 1843SOL    HW117165   0.635   4.374   2.046 -1.6641  1.5663  0.4561
 1843SOL    HW217166   0.553   4.281   1.986 -0.2770 -1.7166  0.3371
 1844SOL     OW17167   2.045   0.104  14.799  0.2271 -0.2808  0.0035
 1844SOL    HW117168   1.988   0.089  14.875 -1.6251  0.2456 -1.2720
 1844SOL    HW217169   2.108   0.033  14.804  0.6124  0.2702  2.9939
 1845SOL     OW17170   0.051   3.583   5.311 -1.0482  0.4558 -0.3588
 1845SOL    HW117171   4.727   3.509   5.303  0.3198 -0.8043  1.0951
 1845SOL    HW217172   0.132   3.550   5.272 -0.2426 -1.6568  3.1035
 1846SOL     OW17173   4.543   0.559   4.356 -0.1320  0.7909  0.2196
 1846SOL    HW117174   4.534   0.604   4.272 -3.3067  1.7491  1.1099
 1846SOL    HW217175   4.457   0.572   4.395 -0.0350  0.4467  0.5546
 1847SOL     OW17176   0.121   0.492  17.029  0.3302  0.3535  0.2917
 1847SOL    HW117177   0.069   0.475  17.108 -2.1100 -0.6071 -1.5167
 1847SOL    HW217178   0.127   0.587  17.021 -1.1644  0.4624  0.5280
 1848SOL     OW17179   4.548   0.055   1.785  0.0032 -0.6104 -0.1766
 1848SOL    HW117180   4.512   4.702   1.778  1.9502 -1.3294 -1.1236
 1848SOL    HW217181   4.616   0.056   1.717 -0.5334  0.5084 -0.6975
 1849SOL     OW17182   2.623   4.702   4.363 -0.3929  0.1259  0.1502
 1849SOL    HW117183   2.708   4.664   4.341  0.2525  2.0948 -0.7726
 1849SOL    HW217184   2.626   0.030   4.291  1.4897 -0.4516 -0.2813
 1850SOL     OW17185   0.890   1.769   2.348  0.1656  0.0004 -0.0923
 1850SOL    HW117186   0.928   1.693   2.305  0.9531  0.3712 -0.0407
 1850SOL    HW217187   0.801   1.758   2.315  0.1317  1.5651 -0.5421
 1851SOL     OW17188   2.119   0.038   3.114 -0.2738 -0.8226  0.2647
 1851SOL    HW117189   2.074   4.706   3.063  0.4591 -1.2800  0.2153
 1851SOL    HW217190   2.047   0.101   3.110  0.5095 -0.0285 -1.2491
 1852SOL     OW17191   3.360   0.933   1.987 -0.0495 -0.0801 -0.3256
 1852SOL    HW117192   3.273   0.895   1.977 -0.6475  1.9607 -3.0956
 1852SOL    HW217193   3.421   0.860   1.982 -0.9476 -1.0041  2.1789
 1853SOL     OW17194   0.524   3.818  14.421  0.7342 -0.1579 -0.1629
 1853SOL    HW117195   0.547   3.909  14.400  2.0770 -0.2330  1.0243
 1853SOL    HW217196   0.433   3.807  14.392 -0.3601 -1.1610  3.6572
 1854SOL     OW17197   0.616   4.207   5.424  0.3899  0.2048  0.3357
 1854SOL    HW117198   0.652   4.285   5.467 -2.8782  0.1664  3.0892
 1854SOL    HW217199   0.636   4.224   5.332  3.0251 -0.7317  0.7141
 1855SOL     OW17200   0.031   1.092  13.180  0.0249 -0.1513  0.0671
 1855SOL    HW117201   4.696   1.079  13.116  0.5112 -2.1277 -0.0601
 1855SOL    HW217202   4.733   1.027  13.241  0.4608  0.1237  0.6004
 1856SOL     OW17203   4.284   3.967  16.056  0.2306 -0.0412  0.5258
 1856SOL    HW117204   4.283   3.896  16.121 -1.2386  0.4731  1.0610
 1856SOL    HW217205   4.366   3.956  16.008  0.0052 -2.0132  0.5891
 1857SOL     OW17206   2.183   3.201   4.548  0.5439 -0.3185 -0.1815
 1857SOL    HW117207   2.184   3.200   4.643  0.5360  2.4236 -0.1337
 1857SOL    HW217208   2.262   3.252   4.525  0.6391  0.0021  0.8438
 1858SOL     OW17209   1.448   1.037   3.487 -0.0093 -0.4933  0.3246
 1858SOL    HW117210   1.528   1.069   3.529 -1.4670  2.5968  0.7763
 1858SOL    HW217211   1.486   1.005   3.405 -0.2391  1.0875 -0.4010
 1859SOL     OW17212   0.007   3.842  12.874  0.0315  0.1177  0.0771
 1859SOL    HW117213   0.026   3.790  12.952 -0.5656 -2.0212 -1.1890
 1859SOL    HW217214   4.681   3.784  12.828  0.9219  0.2231 -1.2585
 1860SOL     OW17215   1.054   4.183   8.758 -0.1176 -0.2029  0.5680
 1860SOL    HW117216   1.047   4.278   8.752 -1.7413 -0.3681 -0.0086
 1860SOL    HW217217   1.126   4.181   8.820  0.7565  0.5674 -0.4123
 1861SOL     OW17218   4.342   0.913   2.197  0.3166  0.1416  0.2179
 1861SOL    HW117219   4.403   0.848   2.231 -1.2327 -2.1776 -1.4349
 1861SOL    HW217220   4.392   0.939   2.119  2.8162 -3.0574  0.7729
 1862SOL     OW17221   3.780   4.239   0.567  0.4584 -0.2048 -0.6298
 1862SOL    HW117222   3.727   4.215   0.643 -1.1226  1.5373 -1.1615
 1862SOL    HW217223   3.803   4.155   0.529  0.0034 -1.6777  2.3546
 1863SOL     OW17224   2.146   4.657   7.857 -0.7195  0.2564 -0.1619
 1863SOL    HW117225   2.072   4.703   7.818  0.3637  1.4365 -0.8247
 1863SOL    HW217226   2.120   4.565   7.857 -0.5673  0.2116  1.1798
 1864SOL     OW17227   3.468   4.532   5.151 -0.2260 -0.4993  0.6340
 1864SOL    HW117228   3.498   4.618   5.119  1.1071 -1.0901  0.2910
 1864SOL    HW217229   3.536   4.520   5.218 -0.7129 -2.5946  0.7349
 1865SOL     OW17230   1.378   1.154  14.497 -0.4154 -1.1915 -0.3437
 1865SOL    HW117231   1.390   1.235  14.448  1.9676 -1.8845 -0.9066
 1865SOL    HW217232   1.412   1.092  14.433  0.2942 -0.5587 -0.5747
 1866SOL     OW17233   0.563   3.375   6.767 -0.0845 -0.0565 -0.1245
 1866SOL    HW117234   0.584   3.467   6.755  1.4313 -0.1744  1.6642
 1866SOL    HW217235   0.646   3.331   6.752  0.9033  1.3719  1.2368
 1867SOL     OW17236   2.092   0.368  12.904 -0.0849  0.5382 -0.1968
 1867SOL    HW117237   2.153   0.337  12.836 -0.9726  0.2310 -0.8550
 1867SOL    HW217238   2.140   0.391  12.983  0.5873 -1.5105 -0.0145
 1868SOL     OW17239   4.445   1.322  10.496  0.1890 -0.3011 -0.0728
 1868SOL    HW117240   4.467   1.410  10.466 -2.3627  0.6414  0.7697
 1868SOL    HW217241   4.445   1.284  10.408  0.1157 -0.7933  0.1406
 1869SOL     OW17242   3.854   0.008   6.559  0.3048 -0.0178  0.2776
 1869SOL    HW117243   3.873   4.655   6.526 -0.7306 -0.6834  1.4589
 1869SOL    HW217244   3.907   0.005   6.639  0.3157 -1.2183  0.2341
 1870SOL     OW17245   2.159   2.858   3.361  0.6403  0.1952  0.2589
 1870SOL    HW117246   2.092   2.918   3.328  1.6221  0.6876 -0.8318
 1870SOL    HW217247   2.217   2.923   3.400 -0.0272  0.2633  1.1515
 1871SOL     OW17248   2.733   3.120  11.575 -0.3471 -0.3981  0.0582
 1871SOL    HW117249   2.702   3.135  11.665  2.1670 -0.8661  0.9935
 1871SOL    HW217250   2.825   3.095  11.579 -0.4179 -0.4995  1.2169
 1872SOL     OW17251   4.684   3.046  11.786  0.3903  0.5662  0.2181
 1872SOL    HW117252   4.666   2.953  11.776  1.9628  0.3870 -0.7925
 1872SOL    HW217253   0.020   3.036  11.848  0.0937 -0.9256  0.3221
 1873SOL     OW17254   0.965   3.077   0.077  0.0599  0.7041 -0.0672
 1873SOL    HW117255   0.984   3.060   0.169  0.1642  0.4518 -0.1343
 1873SOL    HW217256   1.048   3.070   0.030 -0.0510  1.9007 -0.4280
 1874SOL     OW17257   2.403   0.057   9.513  0.1729 -0.1999 -0.2815
 1874SOL    HW117258   2.498   0.066   9.521  0.0801  1.0622 -0.4960
 1874SOL    HW217259   2.387   4.730   9.584  0.1795  0.7587  0.5741
 1875SOL     OW17260   4.194   0.289   9.158 -0.1474 -0.9708  0.2535
 1875SOL    HW117261   4.146   0.245   9.087 -0.0788 -1.9850  0.8334
 1875SOL    HW217262   4.190   0.377   9.121  1.9016 -1.5747 -1.4010
 1876SOL     OW17263   1.931   1.651   7.780  0.3177  0.6694  0.1327
 1876SOL    HW117264   1.988   1.589   7.735 -2.5877 -2.2516  0.4768
 1876SOL    HW217265   1.847   1.652   7.735  1.9599  0.3245 -2.9421
 1877SOL     OW17266   0.958   2.862   2.923  0.4421  0.0436 -0.0494
 1877SOL    HW117267   0.912   2.943   2.901  0.5325  0.3752  0.9840
 1877SOL    HW217268   1.050   2.888   2.916  0.5110 -0.1933 -0.0524
 1878SOL     OW17269   4.673   2.990   1.921  0.2214  0.3076  0.1417
 1878SOL    HW117270   0.029   2.993   1.893 -0.1865 -1.1272 -1.3791
 1878SOL    HW217271   4.644   3.078   1.896  1.9695  0.3096 -1.8674
 1879SOL     OW17272   0.057   0.669   8.933 -0.2109  0.1807  0.6166
 1879SOL    HW117273   0.103   0.695   9.013  1.6272 -0.9452 -0.0724
 1879SOL    HW217274   0.093   0.738   8.877 -1.1416 -1.5433 -2.0901
 1880SOL     OW17275   0.844   0.892   4.357 -0.5134  0.2354  0.4818
 1880SOL    HW117276   0.877   0.976   4.324  0.0730 -0.1478  0.0928
 1880SOL    HW217277   0.928   0.846   4.348 -1.4010 -0.7910 -2.5604
 1881SOL     OW17278   0.936   0.723  13.305  0.0528 -0.4863 -0.0291
 1881SOL    HW117279   0.853   0.752  13.266 -0.5518 -0.4859  1.2706
 1881SOL    HW217280   0.981   0.807  13.299  0.2077 -0.5752 -0.1209
 1882SOL     OW17281   1.237   0.754   6.944 -0.0119  0.0795  0.0418
 1882SOL    HW117282   1.224   0.660   6.957 -0.1321 -0.3036 -2.8669
 1882SOL    HW217283   1.288   0.765   6.864  0.3642  0.4348  0.3346
 1883SOL     OW17284   1.270   0.814  17.109  0.9706 -0.3350 -0.0737
 1883SOL    HW117285   1.207   0.782  17.045  0.7321 -0.1118  0.0483
 1883SOL    HW217286   1.347   0.838  17.058  1.4223  1.2853  1.3595
 1884SOL     OW17287   1.956   3.543   5.318 -0.5622  0.1415  0.1641
 1884SOL    HW117288   2.015   3.549   5.393 -0.3005  2.7293 -0.2586
 1884SOL    HW217289   1.979   3.458   5.280 -4.6773 -1.9763  2.2794
 1885SOL     OW17290   1.073   3.230  16.990 -0.6989  0.8309  0.4129
 1885SOL    HW117291   1.117   3.251  16.907  1.5286 -0.1052  1.3671
 1885SOL    HW217292   1.147   3.176  17.018 -1.7890 -0.8864  0.0187
 1886SOL     OW17293   4.597   3.552  17.374 -0.6291 -0.3720 -0.5972
 1886SOL    HW117294   4.502   3.545  17.378 -0.6340  1.3045  2.3651
 1886SOL    HW217295   4.616   3.542  17.281 -0.1690 -1.9445 -0.3261
 1887SOL     OW17296   1.835   0.316   2.599  0.1289 -0.3593 -0.3125
 1887SOL    HW117297   1.851   0.227   2.630 -1.1979  0.4894  2.8371
 1887SOL    HW217298   1.804   0.362   2.678 -1.9329  0.5656 -1.6561
 1888SOL     OW17299   1.329   2.317   2.440  0.1879 -0.0442  0.1381
 1888SOL    HW117300   1.396   2.381   2.463  0.5152 -0.4686  0.3569
 1888SOL    HW217301   1.336   2.328   2.345  1.2339 -0.4922  0.1733
 1889SOL     OW17302   3.945   3.070   7.264  0.2810  0.0537 -0.3318
 1889SOL    HW117303   3.926   3.163   7.253  1.5295  0.2335 -0.8838
 1889SOL    HW217304   3.905   3.035   7.185  0.1218 -1.3072  0.3431
 1890SOL     OW17305   3.794   3.234   5.991  0.4870 -0.3305  0.0112
 1890SOL    HW117306   3.844   3.154   5.981  2.1315  0.6419  0.5812
 1890SOL    HW217307   3.730   3.208   5.924  0.8045 -1.3293  0.1018
 1891SOL     OW17308   0.829   3.151  17.021  0.2206 -0.4709  0.0032
 1891SOL    HW117309   0.917   3.187  17.014 -0.3059  1.0262  1.1459
 1891SOL    HW217310   0.774   3.175  16.947 -1.3326 -0.6421  1.0822
 1892SOL     OW17311   4.131   0.759   7.756  0.2638 -0.1366  0.0594
 1892SOL    HW117312   4.040   0.728   7.763  0.4364 -0.4669  0.8069
 1892SOL    HW217313   4.175   0.704   7.692 -1.0010 -2.0324  0.8193
 1893SOL     OW17314   0.468   0.057   3.987  0.1012  0.2832 -0.7019
 1893SOL    HW117315   0.484   0.147   3.960 -0.1720  0.7333  0.6472
 1893SOL    HW217316   0.438   0.019   3.905  1.7379  0.2949 -1.3084
 1894SOL     OW17317   1.248   1.759   6.502  0.8172 -0.3089 -0.2196
 1894SOL    HW117318   1.314   1.828   6.509  2.2456 -1.5922 -0.8661
 1894SOL    HW217319   1.198   1.759   6.583  1.1753 -0.1372 -0.0009
 1895SOL     OW17320   3.931   2.632   3.176 -0.7309 -0.0816  0.2420
 1895SOL    HW117321   3.914   2.725   3.185  0.2836  0.0878  0.3247
 1895SOL    HW217322   3.922   2.631   3.080 -0.6502 -1.9827  0.2468
 1896SOL     OW17323   4.182   0.034   2.411 -0.1442 -0.4119  0.5072
 1896SOL    HW117324   4.171   0.100   2.480  0.8827  0.3358 -0.0363
 1896SOL    HW217325   4.257   4.720   2.443  0.3312  0.6050  0.9468
 1897SOL     OW17326   3.447   0.413   3.895 -0.0298  0.6589 -0.3445
 1897SOL    HW117327   3.400   0.369   3.966  0.0335  0.4278 -0.4470
 1897SOL    HW217328   3.531   0.370   3.913 -0.6768 -0.7769 -0.7596
 1898SOL     OW17329   2.080   2.170  15.255 -0.2995 -0.4514 -0.2691
 1898SOL    HW117330   2.140   2.218  15.198  0.3654 -0.3547  0.5013
 1898SOL    HW217331   2.081   2.081  15.221 -0.8522 -1.0430  1.2626
 1899SOL     OW17332   1.255   0.160   8.481 -0.4131 -1.0059  0.5653
 1899SOL    HW117333   1.276   0.129   8.393  2.4152  0.9757  0.5630
 1899SOL    HW217334   1.180   0.102   8.497 -0.7818  0.0860  2.7765
 1900SOL     OW17335   2.673   1.948   2.683 -0.1952  0.1136  0.1352
 1900SOL    HW117336   2.663   1.860   2.719 -1.2196 -0.1265 -0.7697
 1900SOL    HW217337   2.768   1.962   2.677 -0.3358 -0.0801 -2.2740
 1901SOL     OW17338   2.774   3.552   9.431  0.2503 -0.4153  0.0368
 1901SOL    HW117339   2.750   3.639   9.464 -1.4134 -0.2424 -1.6121
 1901SOL    HW217340   2.863   3.550   9.467 -0.4464  0.3999  1.8013
 1902SOL     OW17341   4.452   3.548   2.762  0.4037 -0.4685  0.3781
 1902SOL    HW117342   4.423   3.483   2.699 -2.7438 -3.1624  4.5655
 1902SOL    HW217343   4.538   3.507   2.769 -0.6869 -2.8215  0.0188
 1903SOL     OW17344   3.105   1.073  13.535 -0.4303  0.4150  0.1311
 1903SOL    HW117345   3.023   1.075  13.485 -1.2399  0.5261  1.4654
 1903SOL    HW217346   3.171   1.109  13.476  1.8617 -0.1438  2.3642
 1904SOL     OW17347   1.328   0.594   3.891  0.2916  0.5411 -0.3090
 1904SOL    HW117348   1.266   0.596   3.964 -0.1525 -2.0226 -0.5993
 1904SOL    HW217349   1.292   0.654   3.826 -2.2727 -1.2877 -0.6080
 1905SOL     OW17350   4.034   1.684  14.715  0.0820  0.4276 -0.0012
 1905SOL    HW117351   3.986   1.741  14.654 -2.2224  0.2259  1.6230
 1905SOL    HW217352   4.125   1.711  14.708  0.2284  0.3129  1.4556
 1906SOL     OW17353   3.526   1.611   9.172 -0.0799 -0.2477  0.5288
 1906SOL    HW117354   3.548   1.520   9.149 -0.0345 -0.3080  0.8083
 1906SOL    HW217355   3.592   1.669   9.135  0.7750 -0.7504  1.2541
 1907SOL     OW17356   1.533   2.737   3.240  0.5279 -0.4887  0.1316
 1907SOL    HW117357   1.469   2.706   3.177  2.1686 -1.4027 -1.0947
 1907SOL    HW217358   1.492   2.706   3.320 -1.7488 -1.0534 -1.2721
 1908SOL     OW17359   0.106   2.040  10.867  0.1984 -0.4861  0.0853
 1908SOL    HW117360   0.025   2.067  10.824  0.6209 -0.3512 -0.6263
 1908SOL    HW217361   0.167   2.070  10.800 -0.2138 -2.1758 -1.0527
 1909SOL     OW17362   0.184   4.117   8.126  0.2896  0.2280  0.2501
 1909SOL    HW117363   0.152   4.051   8.188 -0.4816 -0.1355 -0.5342
 1909SOL    HW217364   0.153   4.078   8.044 -1.0048 -0.5000  1.0821
 1910SOL     OW17365   4.008   2.646   8.136 -0.0724 -0.1265 -0.0037
 1910SOL    HW117366   4.102   2.638   8.155 -0.1023  1.6407  0.8514
 1910SOL    HW217367   4.016   2.608   8.048 -3.8560 -1.9610  0.4575
 1911SOL     OW17368   4.078   3.575   0.680  0.0926 -0.1206 -0.3064
 1911SOL    HW117369   4.156   3.576   0.736 -0.0099 -2.4023 -0.1311
 1911SOL    HW217370   4.018   3.521   0.732 -0.2818  2.3618  1.8486
 1912SOL     OW17371   3.933   0.428   8.319 -0.2866 -0.1172 -0.2909
 1912SOL    HW117372   3.954   0.508   8.271 -0.4978 -0.4257 -0.8981
 1912SOL    HW217373   3.840   0.439   8.300 -0.0305 -1.9822 -2.5305
 1913SOL     OW17374   3.316   3.583   2.073  0.0062 -0.1488  0.2892
 1913SOL    HW117375   3.239   3.540   2.036 -0.2119 -0.2099  0.8254
 1913SOL    HW217376   3.342   3.637   1.998  0.1056 -3.1700 -1.8577
 1914SOL     OW17377   0.501   2.324   4.201 -0.0666 -0.2841 -1.1320
 1914SOL    HW117378   0.501   2.309   4.107  0.0184  1.3945 -1.3968
 1914SOL    HW217379   0.591   2.299   4.221  0.0358  0.7831 -0.2859
 1915SOL     OW17380   0.211   0.840   2.042  0.1028  0.2643 -0.8312
 1915SOL    HW117381   0.128   0.810   2.079 -0.2100  1.4379 -0.5823
 1915SOL    HW217382   0.271   0.790   2.098  0.2987  0.1060 -1.1822
 1916SOL     OW17383   2.151   3.282   2.063  0.1592  0.1278 -0.3432
 1916SOL    HW117384   2.152   3.205   2.005  0.9005  1.1171 -1.6407
 1916SOL    HW217385   2.084   3.338   2.024 -0.3588 -0.1165  0.1922
 1917SOL     OW17386   4.313   1.962  16.250 -0.0310  0.0959  0.0872
 1917SOL    HW117387   4.230   1.991  16.287 -0.6190 -0.7845 -0.5500
 1917SOL    HW217388   4.302   1.988  16.159 -2.4942 -1.7203 -0.1280
 1918SOL     OW17389   4.013   3.238  13.905  0.0301 -0.0898 -0.0882
 1918SOL    HW117390   4.046   3.301  13.969 -1.4612  0.8841 -0.2802
 1918SOL    HW217391   3.934   3.287  13.885  1.1949  2.6809  2.1383
 1919SOL     OW17392   1.190   2.494   5.410 -0.2226 -0.1703  0.3758
 1919SOL    HW117393   1.124   2.543   5.361  0.1103 -0.4915 -0.3989
 1919SOL    HW217394   1.166   2.523   5.498 -0.2121  0.9502  0.0104
 1920SOL     OW17395   4.636   0.410  17.541 -0.1752  0.0341  0.7139
 1920SOL    HW117396   4.656   0.448  17.626  1.2953  2.1868 -0.5967
 1920SOL    HW217397   4.552   0.455  17.534 -1.1784 -2.0390 -0.5141
 1921SOL     OW17398   3.671   3.730   7.103 -0.5309  0.0825 -0.2865
 1921SOL    HW117399   3.731   3.726   7.177 -0.3910 -0.4301 -0.4241
 1921SOL    HW217400   3.636   3.641   7.114  0.9550 -0.1823  2.4648
 1922SOL     OW17401   4.614   3.619  12.586  0.5334  0.1362 -0.0398
 1922SOL    HW117402   4.631   3.704  12.544  0.6015  0.7275  1.1782
 1922SOL    HW217403   4.622   3.559  12.512 -2.0571 -0.7627  0.4234
 1923SOL     OW17404   1.385   3.657  11.606 -0.7056  0.2014 -0.3252
 1923SOL    HW117405   1.338   3.643  11.524 -2.8598  0.3452  0.8928
 1923SOL    HW217406   1.335   3.734  11.630 -0.2882  0.2804  0.2888
 1924SOL     OW17407   3.446   3.739   6.347  0.4616 -0.0257 -0.1671
 1924SOL    HW117408   3.520   3.681   6.366  2.1371  2.5909  1.2493
 1924SOL    HW217409   3.387   3.730   6.421 -0.5127 -0.4651 -0.9862
 1925SOL     OW17410   1.656   1.743   7.814 -0.5349 -0.8528  0.2897
 1925SOL    HW117411   1.687   1.723   7.902 -0.6915  3.0511  1.2228
 1925SOL    HW217412   1.717   1.807   7.778  1.2616 -2.2080  0.9426
 1926SOL     OW17413   1.932   1.733   6.870  0.3029 -0.2152  0.1235
 1926SOL    HW117414   1.947   1.773   6.955 -1.0874 -0.4858  0.5026
 1926SOL    HW217415   1.927   1.805   6.806 -2.6845  0.4823  1.1595
 1927SOL     OW17416   4.242   2.516   5.532 -0.6461 -0.4878  0.5311
 1927SOL    HW117417   4.253   2.454   5.460 -0.3981 -0.5238  0.5993
 1927SOL    HW217418   4.307   2.580   5.502 -0.0021 -1.4618 -0.1694
 1928SOL     OW17419   4.013   2.721   7.778  0.0457 -0.1682 -0.1408
 1928SOL    HW117420   4.013   2.725   7.682 -0.0514  0.9143 -0.0896
 1928SOL    HW217421   3.943   2.782   7.799 -0.5700 -0.9518  0.0988
 1929SOL     OW17422   2.974   1.546   6.980 -0.3358 -0.4382  0.1181
 1929SOL    HW117423   2.970   1.616   7.045 -0.1838  1.0469 -1.4655
 1929SOL    HW217424   2.954   1.572   6.891  1.6413  1.0887  0.1150
 1930SOL     OW17425   1.710   0.078   7.221  0.2412 -0.0097 -0.3233
 1930SOL    HW117426   1.671   0.162   7.245  0.0110 -1.1031  3.0526
 1930SOL    HW217427   1.797   0.118   7.218 -1.0542  2.6954 -1.9200
 1931SOL     OW17428   1.194   2.510   6.196 -0.1418 -0.1524  0.4930
 1931SOL    HW117429   1.154   2.423   6.206 -0.2901 -0.2506 -0.8642
 1931SOL    HW217430   1.123   2.571   6.175  1.0163  1.2099  0.5505
 1932SOL     OW17431   0.751   0.595  12.806  0.4409  0.3263 -0.2890
 1932SOL    HW117432   0.843   0.574  12.822  1.2557  4.7683  0.8239
 1932SOL    HW217433   0.751   0.667  12.742  2.7845  2.2240  1.8261
 1933SOL     OW17434   4.404   0.500   8.510  0.0134 -0.3613 -0.4607
 1933SOL    HW117435   4.355   0.580   8.529  1.3950  0.4360 -0.2386
 1933SOL    HW217436   4.487   0.522   8.552  0.1541  0.1254 -0.9941
 1934SOL     OW17437   0.448   1.378   2.466 -0.2013  0.1922  0.0952
 1934SOL    HW117438   0.525   1.364   2.522  0.3519  0.8446 -0.4972
 1934SOL    HW217439   0.487   1.372   2.379  0.3959 -0.6421  0.4158
 1935SOL     OW17440   2.741   2.616   6.974 -0.1193 -0.4912 -0.8770
 1935SOL    HW117441   2.696   2.553   6.918 -2.2054 -0.6312  0.9492
 1935SOL    HW217442   2.672   2.682   6.974 -0.6419 -1.0291  1.3051
 1936SOL     OW17443   2.371   4.433   3.045 -0.2429  0.2667 -0.6086
 1936SOL    HW117444   2.343   4.483   2.969 -1.6036  1.6283  0.7738
 1936SOL    HW217445   2.314   4.461   3.117 -0.6474 -0.2646 -0.7189
 1937SOL     OW17446   4.363   0.049   4.642  0.5419  0.4046  0.2322
 1937SOL    HW117447   4.449   0.009   4.626  0.7870  0.7320  0.7138
 1937SOL    HW217448   4.373   0.135   4.603  1.2453  0.5297  0.6768
 1938SOL     OW17449   3.308   2.251  14.866 -0.4337  0.0314  0.3849
 1938SOL    HW117450   3.318   2.156  14.867 -2.9505 -0.2375 -0.2581
 1938SOL    HW217451   3.321   2.270  14.773 -0.5802 -0.8584  0.1837
 1939SOL     OW17452   2.544   1.540  12.384 -0.4270  0.2434 -0.0118
 1939SOL    HW117453   2.467   1.486  12.406 -2.2353  1.7527 -2.5705
 1939SOL    HW217454   2.533   1.613  12.445 -1.8912  0.2389 -0.2471
 1940SOL     OW17455   2.109   0.728   1.680 -0.0159  0.1217  0.3533
 1940SOL    HW117456   2.068   0.646   1.708 -1.3648  0.6635 -0.0813
 1940SOL    HW217457   2.180   0.732   1.744  0.1218 -0.2823  0.2287
 1941SOL     OW17458   2.135   0.548   9.435 -0.0970  0.1564 -0.4550
 1941SOL    HW117459   2.227   0.536   9.458  0.6117  1.3299 -2.6801
 1941SOL    HW217460   2.137   0.635   9.474  2.7025 -0.0291 -0.1573
 1942SOL     OW17461   4.178   0.727   3.809  0.0631  0.3485 -0.0075
 1942SOL    HW117462   4.178   0.716   3.714  0.4448  1.3068 -0.1201
 1942SOL    HW217463   4.084   0.742   3.818 -0.1700 -1.3603  0.4244
 1943SOL     OW17464   3.657   4.225   8.560 -0.6217 -0.9592 -0.3276
 1943SOL    HW117465   3.683   4.313   8.587 -0.9656 -0.0330 -3.0373
 1943SOL    HW217466   3.656   4.182   8.646  0.6401 -0.2401  0.0469
 1944SOL     OW17467   4.414   4.627   2.476 -0.5414  1.0726  0.2577
 1944SOL    HW117468   4.469   4.679   2.533  1.9017  0.0721 -1.2057
 1944SOL    HW217469   4.465   4.602   2.399 -0.1806  1.3622  0.4070
 1945SOL     OW17470   3.806   3.319   1.813 -0.4816  0.4087 -0.0420
 1945SOL    HW117471   3.856   3.241   1.788 -0.3580  0.9052 -1.3605
 1945SOL    HW217472   3.852   3.341   1.894 -3.1228  1.7712  1.0848
 1946SOL     OW17473   0.045   1.490  13.770  0.1627 -0.2381  0.2545
 1946SOL    HW117474   4.730   1.570  13.755 -0.1790 -1.1602 -3.4682
 1946SOL    HW217475   0.081   1.483  13.682 -0.2372  1.8551 -0.0893
 1947SOL     OW17476   0.767   3.864   3.948 -0.8184 -0.5968  0.1786
 1947SOL    HW117477   0.703   3.849   3.878 -0.3653 -1.0576 -0.1337
 1947SOL    HW217478   0.809   3.779   3.946 -0.1488 -0.1516 -4.1795
 1948SOL     OW17479   1.692   1.106   8.917 -0.6320 -0.3166 -0.0045
 1948SOL    HW117480   1.760   1.075   8.977 -0.0126  0.1954 -0.4396
 1948SOL    HW217481   1.669   1.189   8.959 -0.0018 -0.2275  0.1560
 1949SOL     OW17482   1.825   3.097   9.152  0.3220  0.2005 -0.1983
 1949SOL    HW117483   1.836   3.022   9.210  1.2594  0.0620 -0.5591
 1949SOL    HW217484   1.889   3.161   9.184  1.0060 -0.7358  0.3062
 1950SOL     OW17485   2.933   4.140  13.362  0.1979  0.1315 -0.9327
 1950SOL    HW117486   2.927   4.220  13.310 -1.9220  1.0777  0.7571
 1950SOL    HW217487   2.918   4.180  13.448 -0.7119 -2.7099  0.2584
 1951SOL     OW17488   0.507   3.027   2.628  0.7011 -0.3354 -0.5181
 1951SOL    HW117489   0.472   3.007   2.715  1.3527  0.9483  0.0587
 1951SOL    HW217490   0.590   2.982   2.641  0.9007  0.0612 -0.4040
 1952SOL     OW17491   3.977   0.328   5.963  0.3981 -0.5224  0.8989
 1952SOL    HW117492   3.961   0.327   6.058 -2.2506  0.1540  0.4603
 1952SOL    HW217493   4.073   0.324   5.963  0.3647 -1.3155  0.1924
 1953SOL     OW17494   3.880   4.277   3.926  0.0437  0.3137 -0.0483
 1953SOL    HW117495   3.960   4.289   3.875 -0.6733 -1.3916 -1.5709
 1953SOL    HW217496   3.821   4.235   3.863 -2.6246 -0.3143  2.8511
 1954SOL     OW17497   4.343   2.740   5.410  0.0949 -0.1580  0.2702
 1954SOL    HW117498   4.330   2.702   5.323 -1.2627  0.8119  0.0532
 1954SOL    HW217499   4.433   2.715   5.428  1.1554  2.8482 -0.8657
 1955SOL     OW17500   4.517   1.824   8.395 -0.4586 -0.2557 -0.3467
 1955SOL    HW117501   4.566   1.760   8.447 -0.4517  0.2982  0.3221
 1955SOL    HW217502   4.553   1.901   8.438 -0.6785 -0.4858  0.2417
 1956SOL     OW17503   2.900   3.644   7.492  0.0834  0.4600 -0.0447
 1956SOL    HW117504   2.824   3.663   7.547 -0.0696 -0.1052 -0.0538
 1956SOL    HW217505   2.970   3.698   7.528  1.4480 -0.0542 -1.9041
 1957SOL     OW17506   1.771   3.016   7.229 -0.1110  0.3442  0.0986
 1957SOL    HW117507   1.739   2.974   7.309 -0.2982 -0.4242 -0.3746
 1957SOL    HW217508   1.772   3.109   7.251  1.3973  0.3743 -0.0390
 1958SOL     OW17509   4.120   1.806   5.560  0.5603 -0.7329  0.1248
 1958SOL    HW117510   4.060   1.758   5.617 -0.3560 -1.1064 -1.1475
 1958SOL    HW217511   4.160   1.737   5.508  1.4018  1.2069 -1.8005
 1959SOL     OW17512   2.584   1.961   6.694 -0.3179 -0.1948 -0.0541
 1959SOL    HW117513   2.534   1.884   6.666  1.1773 -0.9525 -0.6225
 1959SOL    HW217514   2.534   2.000   6.766 -1.4906 -0.9198 -0.4738
 1960SOL     OW17515   4.053   1.340   0.314 -0.4340 -0.5244  0.4136
 1960SOL    HW117516   4.116   1.388   0.367 -0.2785 -0.0998 -0.1538
 1960SOL    HW217517   4.068   1.248   0.335  0.9215 -0.1198  1.2172
 1961SOL     OW17518   0.805   3.902   7.714  0.4567 -0.3818 -0.4351
 1961SOL    HW117519   0.731   3.846   7.689 -0.3678 -0.2621  1.7662
 1961SOL    HW217520   0.838   3.849   7.786 -0.2640  0.1572  0.2873
 1962SOL     OW17521   2.576   2.360  11.170 -0.6316  0.1314  0.8155
 1962SOL    HW117522   2.618   2.342  11.086 -0.9408  0.7784  0.5287
 1962SOL    HW217523   2.482   2.339  11.170 -0.2987 -1.3971 -0.5889
 1963SOL     OW17524   1.109   3.916   8.097 -0.9829  0.5471 -0.7712
 1963SOL    HW117525   1.097   4.008   8.118 -0.4913  0.1653  1.1396
 1963SOL    HW217526   1.029   3.902   8.046 -0.0303 -1.0325 -1.8398
 1964SOL     OW17527   0.336   2.533   0.718  0.3594 -0.3799 -0.5099
 1964SOL    HW117528   0.403   2.470   0.695 -0.0313 -1.4259  1.2429
 1964SOL    HW217529   0.256   2.486   0.692 -0.9318  2.7905 -2.3982
 1965SOL     OW17530   1.345   1.858   8.820 -0.2087 -0.0289  0.6674
 1965SOL    HW117531   1.365   1.790   8.756 -0.2380 -0.0695  0.7016
 1965SOL    HW217532   1.400   1.928   8.784  0.8155 -0.9938  0.3813
 1966SOL     OW17533   2.196   3.514  15.946 -0.6226 -1.0579 -0.2793
 1966SOL    HW117534   2.153   3.576  15.887 -2.9817 -3.9100 -1.5232
 1966SOL    HW217535   2.198   3.435  15.893  1.6936 -0.7621 -0.6634
 1967SOL     OW17536   0.666   0.927  15.288 -0.5233 -0.2105  0.4189
 1967SOL    HW117537   0.629   1.007  15.250  0.5719  0.3048  0.4492
 1967SOL    HW217538   0.601   0.913  15.357 -1.2263  0.1671 -0.1626
 1968SOL     OW17539   3.466   0.633   1.670 -0.1737  0.1174 -0.5776
 1968SOL    HW117540   3.485   0.649   1.763  0.5811 -0.3293 -0.6569
 1968SOL    HW217541   3.552   0.599   1.645 -0.4134  0.6444 -2.1174
 1969SOL     OW17542   1.045   2.888   7.954  0.0178  0.1478 -0.0359
 1969SOL    HW117543   1.012   2.805   7.920 -1.6526  1.2248 -1.0908
 1969SOL    HW217544   1.093   2.916   7.876 -0.2772  0.1768 -0.2084
 1970SOL     OW17545   3.700   4.061  15.678 -0.5774 -0.2706 -0.1629
 1970SOL    HW117546   3.756   4.133  15.707  0.7330 -0.9129 -1.1385
 1970SOL    HW217547   3.768   4.001  15.651 -2.6823 -2.3809 -0.7999
 1971SOL     OW17548   1.524   1.380   8.017  0.1624  0.3287  0.5657
 1971SOL    HW117549   1.445   1.426   7.991 -0.4752 -1.3818 -0.5700
 1971SOL    HW217550   1.529   1.317   7.944  3.2698  0.3261  0.7777
 1972SOL     OW17551   1.317   2.689   3.086  0.1442 -0.0023  0.5042
 1972SOL    HW117552   1.238   2.691   3.140  0.7767 -0.8749  1.4772
 1972SOL    HW217553   1.294   2.617   3.027 -1.0517 -0.4258  1.4689
 1973SOL     OW17554   0.872   2.614   6.423  0.3600 -0.0363 -0.1425
 1973SOL    HW117555   0.804   2.582   6.364  0.8862 -1.4682  0.0367
 1973SOL    HW217556   0.850   2.706   6.408  1.2764  0.0311 -1.0595
 1974SOL     OW17557   0.992   1.033   1.828  0.2048  0.3279 -0.1130
 1974SOL    HW117558   1.055   1.101   1.851  0.4363 -0.3392  1.2325
 1974SOL    HW217559   0.989   0.988   1.913  1.9835  0.0126 -0.2022
 1975SOL     OW17560   4.672   0.129   6.648  0.1040 -0.1623 -0.7411
 1975SOL    HW117561   4.671   0.062   6.580  0.2560  2.1751 -3.0557
 1975SOL    HW217562   4.722   0.201   6.608 -0.4608  0.9058  0.4735
 1976SOL     OW17563   3.158   4.527  12.465 -0.0098 -0.4517 -0.3134
 1976SOL    HW117564   3.173   4.617  12.496 -0.2738 -0.1249 -1.1306
 1976SOL    HW217565   3.240   4.481  12.487 -0.5187 -0.4518  1.5887
 1977SOL     OW17566   4.334   4.726   5.059  0.3182  0.1959  0.5036
 1977SOL    HW117567   4.251   4.689   5.091  0.3474  0.0453  0.3997
 1977SOL    HW217568   4.298   0.055   4.998 -0.5101  0.7649  1.5813
 1978SOL     OW17569   4.089   1.704   4.155  0.6591 -0.3439  0.1326
 1978SOL    HW117570   4.108   1.613   4.134 -3.2781 -1.1899  0.2243
 1978SOL    HW217571   3.995   1.704   4.174  0.3208 -0.3936 -1.6189
 1979SOL     OW17572   2.450   3.734   2.073  0.2518 -0.4865  0.5666
 1979SOL    HW117573   2.356   3.734   2.056  0.1809 -1.7294  0.9439
 1979SOL    HW217574   2.485   3.788   2.002 -1.5374  1.3051  1.0664
 1980SOL     OW17575   0.318   4.439   7.980  0.1754 -0.1821 -0.0755
 1980SOL    HW117576   0.411   4.456   7.965 -0.0740  2.2260  0.9594
 1980SOL    HW217577   0.332   4.385   8.058 -3.2503  0.4816  0.9935
 1981SOL     OW17578   3.372   0.969   8.785 -0.4063 -0.2462  0.3758
 1981SOL    HW117579   3.448   0.955   8.841 -1.2458 -0.6489  1.4092
 1981SOL    HW217580   3.342   1.056   8.812  0.0209 -0.1664  0.5956
 1982SOL     OW17581   3.229   1.454   4.898 -0.4173 -0.1859  0.5498
 1982SOL    HW117582   3.176   1.425   4.973  1.4422 -0.7997  1.6493
 1982SOL    HW217583   3.262   1.371   4.864 -0.2132  0.4467 -0.7581
 1983SOL     OW17584   0.083   4.591   8.245  0.0427  0.0978  0.1367
 1983SOL    HW117585   0.051   4.642   8.320 -0.0789 -1.7951  1.3734
 1983SOL    HW217586   0.162   4.555   8.286 -1.4236 -0.0862  2.8309
 1984SOL     OW17587   0.247   1.530   5.397 -0.1068  0.0808  0.0950
 1984SOL    HW117588   0.190   1.604   5.376  0.5961  0.2805 -1.1498
 1984SOL    HW217589   0.331   1.575   5.407  0.7196 -0.8585 -2.5932
 1985SOL     OW17590   2.948   2.601   4.282 -0.2938 -0.5924 -0.4554
 1985SOL    HW117591   2.856   2.618   4.262 -0.0924  0.8817 -0.1251
 1985SOL    HW217592   2.941   2.601   4.378  0.2488 -0.7727 -0.4145
 1986SOL     OW17593   4.282   3.340   6.124  0.2536 -0.5623 -0.1325
 1986SOL    HW117594   4.342   3.266   6.110 -1.5828 -2.1443  0.3265
 1986SOL    HW217595   4.283   3.365   6.032 -0.7798 -1.2150 -0.3262
 1987SOL     OW17596   3.366   3.828   7.796  0.8922  0.1697  0.0330
 1987SOL    HW117597   3.291   3.802   7.742 -1.1353  0.8892  2.4997
 1987SOL    HW217598   3.439   3.806   7.737  0.5201 -1.5166  0.2016
 1988SOL     OW17599   3.233   0.895   8.012 -0.6039 -0.0632 -0.0558
 1988SOL    HW117600   3.142   0.879   7.990 -1.3040  3.3763  0.4251
 1988SOL    HW217601   3.246   0.986   7.986  0.7146 -0.5957 -1.2817
 1989SOL     OW17602   4.440   3.611  14.912  0.1462 -0.2322 -0.1051
 1989SOL    HW117603   4.422   3.639  15.002 -0.0303  1.6105 -0.7170
 1989SOL    HW217604   4.351   3.614  14.877  0.4672 -2.3083 -1.0743
 1990SOL     OW17605   3.430   2.764  10.225 -0.0671 -0.0390  0.7028
 1990SOL    HW117606   3.347   2.773  10.179 -0.8812 -3.5963  1.4856
 1990SOL    HW217607   3.406   2.808  10.306  0.6724 -1.5816  1.7569
 1991SOL     OW17608   0.049   0.488  15.312 -0.4432 -0.9119  0.4205
 1991SOL    HW117609   0.106   0.483  15.235  0.4373 -2.2991  1.1749
 1991SOL    HW217610   4.726   0.413  15.295 -0.2440 -1.1469  0.7886
 1992SOL     OW17611   0.879   3.129   3.705 -0.2680  0.4086 -0.0048
 1992SOL    HW117612   0.785   3.116   3.698  0.0467 -0.6289 -2.1496
 1992SOL    HW217613   0.875   3.218   3.670 -1.7844  0.2635 -0.1961
 1993SOL     OW17614   4.324   0.749   3.025  0.4637  0.1860  0.3167
 1993SOL    HW117615   4.244   0.783   3.066  0.1517 -0.5078  0.2843
 1993SOL    HW217616   4.375   0.713   3.098 -0.2475 -1.8852 -0.1849
 1994SOL     OW17617   3.957   2.245   1.534 -0.6573  0.3296  0.2727
 1994SOL    HW117618   3.893   2.192   1.581 -1.3560  0.9807  0.0540
 1994SOL    HW217619   3.959   2.328   1.582  0.5305  0.9742 -0.8872
 1995SOL     OW17620   0.742   0.855   5.455  0.1401  0.3208  0.3899
 1995SOL    HW117621   0.771   0.945   5.442  0.0502 -0.1148 -2.9993
 1995SOL    HW217622   0.795   0.820   5.383 -2.3435 -2.8937  0.0791
 1996SOL     OW17623   2.592   2.717  17.740  0.0778 -0.7740  0.0182
 1996SOL    HW117624   2.522   2.780  17.725 -0.1213 -0.8608  0.5780
 1996SOL    HW217625   2.666   2.761  17.697 -1.4983  0.2135 -1.6625
 1997SOL     OW17626   1.958   1.322   5.363 -0.0601  0.3453  0.4639
 1997SOL    HW117627   2.025   1.325   5.295  0.4597  2.3916  1.0754
 1997SOL    HW217628   1.926   1.234   5.341  0.5575  0.5305 -1.1680
 1998SOL     OW17629   1.106   1.656   2.917 -0.4469  0.5689 -0.3367
 1998SOL    HW117630   1.199   1.641   2.899 -0.9094  0.0597 -2.3236
 1998SOL    HW217631   1.095   1.602   2.995  1.0333  0.2901 -0.3248
 1999SOL     OW17632   4.476   0.303   9.241  0.1176  1.1096 -0.1243
 1999SOL    HW117633   4.460   0.252   9.321 -0.9325 -0.6622 -1.4724
 1999SOL    HW217634   4.386   0.299   9.208 -0.0118  0.5223  0.3019
 2000SOL     OW17635   3.066   2.851   4.283 -0.3957  0.4640 -0.5982
 2000SOL    HW117636   3.131   2.857   4.213 -1.1343  0.3672 -1.2840
 2000SOL    HW217637   3.033   2.763   4.264  1.8613 -0.3782 -0.7224
 2001SOL     OW17638   2.968   3.285  11.395  0.0257  0.4215 -0.2604
 2001SOL    HW117639   2.972   3.321  11.306 -2.4616 -0.0701 -0.5669
 2001SOL    HW217640   2.894   3.333  11.431  1.7036  1.5178  1.7895
 2002SOL     OW17641   1.908   4.302   7.187  0.2529  1.1319 -0.2008
 2002SOL    HW117642   1.827   4.255   7.168  1.4934 -1.3792  0.6334
 2002SOL    HW217643   1.864   4.380   7.219  1.0009  1.6814 -0.5086
 2003SOL     OW17644   2.618   0.201   1.821 -0.8705 -0.5506  0.2733
 2003SOL    HW117645   2.713   0.206   1.820 -0.8493 -0.9661  0.0910
 2003SOL    HW217646   2.594   0.281   1.867  3.5216  1.0067 -0.1756
 2004SOL     OW17647   2.878   0.163   8.132 -0.2696  0.5916  0.1770
 2004SOL    HW117648   2.922   0.137   8.051 -1.0677  2.8728 -1.0022
 2004SOL    HW217649   2.799   0.113   8.117 -1.2253  1.8240  1.0625
 2005SOL     OW17650   0.167   4.601   6.505 -0.1145 -0.0107 -0.3080
 2005SOL    HW117651   0.163   4.650   6.587  2.9502 -0.1356 -0.1122
 2005SOL    HW217652   0.228   4.660   6.461 -0.7631  0.0064 -1.1864
 2006SOL     OW17653   4.415   1.845   6.541 -0.1612  0.1756  0.3258
 2006SOL    HW117654   4.332   1.865   6.585 -0.4164  0.1016 -0.1201
 2006SOL    HW217655   4.395   1.777   6.477 -0.8455 -1.3605  2.1553
 2007SOL     OW17656   2.106   4.647   7.244 -0.6811 -0.1674  0.2761
 2007SOL    HW117657   2.028   4.591   7.246 -0.2314 -0.8086 -0.0420
 2007SOL    HW217658   2.128   4.665   7.153  1.3817 -1.1241  0.6025
 2008SOL     OW17659   3.337   1.965   4.405 -0.3670 -0.1474 -0.3898
 2008SOL    HW117660   3.281   1.968   4.327 -1.4087  0.9172  0.3983
 2008SOL    HW217661   3.326   1.874   4.432 -1.3698  0.5749  1.6059
 2009SOL     OW17662   4.672   3.776   5.773  0.0433 -0.2443  0.2908
 2009SOL    HW117663   4.684   3.769   5.678  0.5653  0.7235  0.2892
 2009SOL    HW217664   4.582   3.803   5.787 -0.5766 -1.2607 -1.7017
 2010SOL     OW17665   0.109   2.986   4.578  0.6235 -0.5240  0.2876
 2010SOL    HW117666   0.195   2.966   4.541  1.2586 -1.4518  2.2761
 2010SOL    HW217667   0.098   3.081   4.568  1.8995 -0.1857  2.0034
 2011SOL     OW17668   4.523   0.624  11.987  0.6284 -0.2495  0.2829
 2011SOL    HW117669   4.439   0.629  11.942 -0.1060 -0.5912  1.6205
 2011SOL    HW217670   4.514   0.555  12.052 -0.0130  0.4724  0.9537
 2012SOL     OW17671   1.554   2.118   6.884  0.1956 -0.1142  0.3506
 2012SOL    HW117672   1.543   2.127   6.789  1.2843 -1.2574  0.1147
 2012SOL    HW217673   1.622   2.051   6.895 -0.5405 -0.9238  0.0283
 2013SOL     OW17674   1.781   4.111   3.426 -0.7714 -0.4527 -0.5450
 2013SOL    HW117675   1.702   4.095   3.477 -0.7874  0.0167 -0.4172
 2013SOL    HW217676   1.849   4.085   3.487 -0.6715  0.4422 -0.2749
 2014SOL     OW17677   1.845   1.498   7.529  0.0723  0.2637 -0.7760
 2014SOL    HW117678   1.930   1.536   7.506 -0.8713  2.8125 -0.0285
 2014SOL    HW217679   1.860   1.406   7.507 -1.0421 -0.0922 -0.0603
 2015SOL     OW17680   2.128   4.732   0.854  0.1399  0.3792 -0.2771
 2015SOL    HW117681   2.037   4.712   0.832  0.0316  1.4916 -0.8357
 2015SOL    HW217682   2.163   0.030   0.771 -0.1737  0.6400 -0.3064
 2016SOL     OW17683   2.688   3.750   0.772  0.0098  0.1987  0.3535
 2016SOL    HW117684   2.601   3.713   0.788  0.3266 -1.5059 -1.9160
 2016SOL    HW217685   2.688   3.831   0.824 -0.2040 -0.5414  1.5072
 2017SOL     OW17686   2.177   1.168  15.158 -0.0648  0.2138  0.2437
 2017SOL    HW117687   2.232   1.089  15.160  1.3017  1.1407 -1.5056
 2017SOL    HW217688   2.091   1.140  15.190 -0.2768  0.7568  0.1491
 2018SOL     OW17689   2.610   4.508   5.628 -0.1525  0.4807  0.5437
 2018SOL    HW117690   2.701   4.491   5.601 -0.1961  1.3656 -0.1617
 2018SOL    HW217691   2.611   4.597   5.663 -0.2980  1.1048 -1.0666
 2019SOL     OW17692   0.714   2.818   1.897 -0.2098  0.1742 -0.7501
 2019SOL    HW117693   0.791   2.762   1.893 -0.5767 -0.3264 -0.8481
 2019SOL    HW217694   0.660   2.768   1.958 -0.6526  0.8905 -0.5504
 2020SOL     OW17695   0.731   3.889  12.181 -0.3617  0.2653  0.2511
 2020SOL    HW117696   0.821   3.897  12.149 -0.3076  2.0456  0.8923
 2020SOL    HW217697   0.713   3.971  12.226  0.2554  1.2842 -1.3517
 2021SOL     OW17698   4.570   2.550   3.578  0.0384  0.0554  0.0430
 2021SOL    HW117699   4.482   2.516   3.590  0.1956  0.1031  1.3469
 2021SOL    HW217700   4.598   2.500   3.502  0.2090  0.1932  0.0138
 2022SOL     OW17701   0.816   4.271  16.575  0.2535 -0.4136  0.0273
 2022SOL    HW117702   0.845   4.320  16.498 -0.2576 -1.2130 -0.6753
 2022SOL    HW217703   0.751   4.335  16.605  0.8470  0.9186 -1.5630
 2023SOL     OW17704   2.132   2.253  17.084  0.1017 -0.3859 -0.6613
 2023SOL    HW117705   2.184   2.331  17.103  0.5128 -1.0682  1.1051
 2023SOL    HW217706   2.118   2.215  17.171 -2.2323  0.1010 -0.8388
 2024SOL     OW17707   2.233   4.489   5.041  0.4924 -0.0748  0.3449
 2024SOL    HW117708   2.139   4.487   5.024  0.3064 -1.1403  1.5181
 2024SOL    HW217709   2.238   4.485   5.136 -1.7949  1.0367  0.5244
 2025SOL     OW17710   2.145   3.289  17.588  0.0038  0.2716 -0.1074
 2025SOL    HW117711   2.225   3.240  17.572 -1.0450 -1.3332 -0.4675
 2025SOL    HW217712   2.173   3.354  17.652 -0.1987  0.5811 -0.3326
 2026SOL     OW17713   2.403   0.092   3.155 -0.1480 -0.4354 -0.0404
 2026SOL    HW117714   2.439   0.113   3.068 -0.8573  0.4405 -0.1321
 2026SOL    HW217715   2.316   0.059   3.134  0.2839 -1.6690  0.1417
 2027SOL     OW17716   1.180   2.994  16.039 -0.0641 -0.1415 -0.1673
 2027SOL    HW117717   1.141   3.058  15.980 -0.1817  0.3255  0.4188
 2027SOL    HW217718   1.130   2.916  16.016  0.1227 -0.2431 -0.2300
 2028SOL     OW17719   4.470   2.815  11.127 -0.2684  0.4856  0.2941
 2028SOL    HW117720   4.486   2.888  11.187 -0.1578 -1.0741  2.1520
 2028SOL    HW217721   4.470   2.738  11.184 -0.3605 -0.3807 -0.8656
 2029SOL     OW17722   0.497   2.643   3.157 -0.3015 -0.1794 -0.0890
 2029SOL    HW117723   0.527   2.731   3.133  1.1894 -0.5987  0.2256
 2029SOL    HW217724   0.480   2.660   3.250 -2.4599 -0.2541 -0.4637
 2030SOL     OW17725   2.143   2.902   9.089 -0.3427  0.6727  0.1861
 2030SOL    HW117726   2.075   2.956   9.127  0.4061  2.9611 -1.6887
 2030SOL    HW217727   2.205   2.972   9.069 -0.2549  0.4894 -0.1851
 2031SOL     OW17728   2.638   1.483   8.439 -0.4229 -0.1317  0.9738
 2031SOL    HW117729   2.556   1.438   8.421 -1.2432  1.5709  0.4369
 2031SOL    HW217730   2.606   1.572   8.454 -0.1519 -0.0858  1.2896
 2032SOL     OW17731   4.231   2.267   6.920  0.5023  0.2305 -0.4304
 2032SOL    HW117732   4.180   2.279   6.840  0.5862 -2.2823 -0.8636
 2032SOL    HW217733   4.246   2.172   6.915  1.2615  0.3197  0.1316
 2033SOL     OW17734   2.885   4.368   8.701  0.4142 -0.1606 -0.2534
 2033SOL    HW117735   2.823   4.341   8.634 -1.4074  1.2626  0.8508
 2033SOL    HW217736   2.969   4.362   8.656  1.3705  1.8945  1.2604
 2034SOL     OW17737   2.821   0.806  16.587 -0.0773 -0.2716  0.0464
 2034SOL    HW117738   2.775   0.751  16.524  0.0744 -1.5541  1.0547
 2034SOL    HW217739   2.792   0.767  16.670  0.1420  0.9912  0.7285
 2035SOL     OW17740   3.671   3.204   0.221 -0.0319 -0.2625  0.1461
 2035SOL    HW117741   3.696   3.113   0.205 -1.9907 -1.1178  2.0581
 2035SOL    HW217742   3.721   3.249   0.153 -0.2505 -2.3587 -1.4159
 2036SOL     OW17743   0.361   0.688   9.013 -0.1371 -0.0035  0.0725
 2036SOL    HW117744   0.388   0.672   8.923 -0.3557  1.1559 -0.2005
 2036SOL    HW217745   0.313   0.769   8.995 -1.3086 -0.7328 -0.0068
 2037SOL     OW17746   0.307   0.782   3.289 -0.2997  0.5378  0.1892
 2037SOL    HW117747   0.320   0.776   3.384 -0.4436  0.4122  0.2006
 2037SOL    HW217748   0.396   0.794   3.256 -0.1193 -0.1625  0.4135
 2038SOL     OW17749   3.014   4.426   2.602 -0.9197  0.1369 -0.4741
 2038SOL    HW117750   3.047   4.419   2.513  2.5644 -0.8762  0.8918
 2038SOL    HW217751   2.964   4.345   2.608 -1.0377  0.1936 -0.7230
 2039SOL     OW17752   1.598   1.781   5.690  0.1538  0.2224 -0.5368
 2039SOL    HW117753   1.549   1.788   5.772 -0.0703  1.0867 -0.7452
 2039SOL    HW217754   1.570   1.866   5.656  0.8392  1.0062  0.8828
 2040SOL     OW17755   4.368   2.544   6.967  0.0171  0.0188  0.0325
 2040SOL    HW117756   4.420   2.621   6.942 -1.1224  0.7245 -0.1625
 2040SOL    HW217757   4.278   2.560   6.940 -0.1866 -1.0781  0.0611
 2041SOL     OW17758   0.707   2.184   6.045 -0.0190  0.7169 -0.4319
 2041SOL    HW117759   0.652   2.106   6.055  2.5607 -0.8932  1.0607
 2041SOL    HW217760   0.757   2.196   6.125 -2.3828  0.5142  1.0901
 2042SOL     OW17761   0.189   2.377  15.116 -0.2953 -0.1319  0.0830
 2042SOL    HW117762   0.157   2.309  15.056  2.8451 -0.6503 -1.0093
 2042SOL    HW217763   0.112   2.429  15.137  0.0472  1.7014 -3.2797
 2043SOL     OW17764   3.103   3.432   3.462 -0.1914 -0.2260 -0.3555
 2043SOL    HW117765   3.087   3.371   3.534 -0.6359 -1.6613 -1.6717
 2043SOL    HW217766   3.059   3.510   3.495 -1.5757 -1.5470  0.9663
 2044SOL     OW17767   2.149   2.009  16.966  0.5236 -0.0120  0.6057
 2044SOL    HW117768   2.147   2.097  17.004  1.2156 -0.0152  0.6626
 2044SOL    HW217769   2.236   1.983  16.999  0.4937 -0.3315  0.4266
 2045SOL     OW17770   3.876   2.713   5.894  0.5453  0.4024 -0.0197
 2045SOL    HW117771   3.848   2.641   5.837 -0.8039  0.1713  0.9424
 2045SOL    HW217772   3.918   2.660   5.961  1.7476  1.3035 -0.0642
 2046SOL     OW17773   1.137   3.473   6.260  0.0026 -0.0552  0.5634
 2046SOL    HW117774   1.049   3.503   6.284 -0.3363 -0.3637 -0.2972
 2046SOL    HW217775   1.183   3.550   6.295 -2.6643  1.0329  1.6702
 2047SOL     OW17776   0.524   2.671   6.164  0.7100  0.2880 -0.1833
 2047SOL    HW117777   0.534   2.630   6.250 -0.8723  0.8497  0.2561
 2047SOL    HW217778   0.585   2.616   6.114  0.6607  1.9937 -2.1061
 2048SOL     OW17779   2.859   3.356   6.799 -0.5031  0.1578 -0.0460
 2048SOL    HW117780   2.847   3.427   6.862 -0.5729 -1.0987  1.3563
 2048SOL    HW217781   2.872   3.280   6.856 -0.4961 -0.5862 -1.0242
 2049SOL     OW17782   2.241   1.498   8.089 -0.5168 -0.3501  0.3241
 2049SOL    HW117783   2.173   1.492   8.156 -1.9410  0.0049 -1.1172
 2049SOL    HW217784   2.253   1.403   8.076  0.2470 -0.1614 -0.3671
 2050SOL     OW17785   3.577   3.399   8.822 -0.1240 -0.3128 -0.3086
 2050SOL    HW117786   3.529   3.439   8.750  0.8530 -0.0507 -0.8211
 2050SOL    HW217787   3.624   3.474   8.857  1.6812 -0.8915 -1.4650
 2051SOL     OW17788   4.484   1.451   9.325 -0.1062 -0.9846  0.2802
 2051SOL    HW117789   4.445   1.468   9.239  1.4546 -1.1984 -0.4620
 2051SOL    HW217790   4.567   1.409   9.301  0.0840 -0.5544  0.1849
 2052SOL     OW17791   2.251   4.292   5.490  0.0979  0.2731  0.3753
 2052SOL    HW117792   2.209   4.335   5.564  0.6077  1.0481  0.2087
 2052SOL    HW217793   2.298   4.222   5.536  0.5862 -0.0623 -0.6200
 2053SOL     OW17794   0.113   0.410  13.507  0.8278 -0.7054  0.6535
 2053SOL    HW117795   0.092   0.496  13.471 -1.0502 -0.4981  2.2998
 2053SOL    HW217796   0.208   0.406  13.517  0.8168  2.9623  2.1294
 2054SOL     OW17797   3.158   3.417   8.865 -0.0797 -0.9661  0.1860
 2054SOL    HW117798   3.220   3.412   8.793  0.3788  0.5220  0.4769
 2054SOL    HW217799   3.128   3.507   8.852 -2.4882 -1.7979 -0.0089
 2055SOL     OW17800   2.907   2.526  12.289  0.2741  0.0676 -0.5373
 2055SOL    HW117801   2.825   2.551  12.245 -1.2829 -1.1820  1.6635
 2055SOL    HW217802   2.869   2.465  12.352  0.1562  0.5110 -0.1721
 2056SOL     OW17803   0.219   4.564   7.410  0.1772 -0.1614  1.2212
 2056SOL    HW117804   0.136   4.520   7.425  0.0168 -0.3579 -0.2543
 2056SOL    HW217805   0.250   4.518   7.332 -0.1879  2.6968 -0.5933
 2057SOL     OW17806   2.064   2.107   7.799 -0.5378  0.3007 -0.1341
 2057SOL    HW117807   2.133   2.172   7.784 -0.1948  0.2145  1.0688
 2057SOL    HW217808   2.098   2.035   7.746  0.3322  0.4746  0.1834
 2058SOL     OW17809   1.971   3.080   8.074 -0.2745  0.0085 -0.6655
 2058SOL    HW117810   2.049   3.121   8.037  0.4267 -0.9111 -0.2049
 2058SOL    HW217811   2.010   3.022   8.139 -0.0900 -1.1425 -1.8073
 2059SOL     OW17812   3.401   1.704   3.596  0.4480  0.3390 -0.1012
 2059SOL    HW117813   3.368   1.663   3.516  0.0388  0.5804 -0.0537
 2059SOL    HW217814   3.431   1.788   3.562 -0.1636  0.3052 -0.7275
 2060SOL     OW17815   1.328   2.276  16.900 -0.5495  0.2475 -0.0314
 2060SOL    HW117816   1.234   2.279  16.878 -0.0747  3.1785 -1.6519
 2060SOL    HW217817   1.344   2.183  16.918 -0.3281  0.2792 -0.0634
 2061SOL     OW17818   4.448   1.875   6.131  0.0705 -0.2461 -0.0601
 2061SOL    HW117819   4.407   1.814   6.192  1.0846  1.0133  1.8566
 2061SOL    HW217820   4.407   1.961   6.140  1.2593  0.3735 -0.5606
 2062SOL     OW17821   0.661   1.221   8.848  0.1723  0.0458 -0.2351
 2062SOL    HW117822   0.572   1.252   8.832 -0.4280 -1.6128 -0.1716
 2062SOL    HW217823   0.666   1.226   8.943  3.2019  1.8830 -0.5040
 2063SOL     OW17824   4.247   4.188   2.851  0.2608  0.4892 -0.0782
 2063SOL    HW117825   4.316   4.124   2.867 -0.1298  0.5838  1.9133
 2063SOL    HW217826   4.275   4.225   2.767 -0.3856  0.1500 -0.4437
 2064SOL     OW17827   3.675   3.364   9.425  0.1307 -0.3693 -0.9524
 2064SOL    HW117828   3.661   3.285   9.478 -2.5066  1.0971  0.5387
 2064SOL    HW217829   3.748   3.405   9.472  0.6954 -0.1922 -2.0043
 2065SOL     OW17830   2.333   1.266   9.772  0.1281  0.9469  0.6509
 2065SOL    HW117831   2.363   1.175   9.778 -0.2471  0.7527 -0.3818
 2065SOL    HW217832   2.332   1.295   9.863 -2.1651  1.9974  0.2891
 2066SOL     OW17833   0.187   0.774   5.447 -0.1716  0.4313 -0.1318
 2066SOL    HW117834   0.201   0.822   5.529 -0.8456  0.7755 -0.2255
 2066SOL    HW217835   0.208   0.683   5.469 -3.5546 -0.9297 -2.5212
 2067SOL     OW17836   0.498   3.388   4.592 -0.2934 -0.4043 -0.1533
 2067SOL    HW117837   0.548   3.331   4.651 -0.4856  1.1529  1.5212
 2067SOL    HW217838   0.540   3.473   4.605 -2.1643  0.6659 -1.0914
 2068SOL     OW17839   0.760   0.445   4.092 -0.0650 -0.7390  0.0759
 2068SOL    HW117840   0.807   0.465   4.173 -1.0731 -2.2690  1.0349
 2068SOL    HW217841   0.752   0.533   4.053  1.4670 -0.4998  0.3130
 2069SOL     OW17842   3.146   4.327   4.406 -0.5476 -0.4406  0.4226
 2069SOL    HW117843   3.068   4.350   4.355 -0.2160  0.1699  0.1994
 2069SOL    HW217844   3.209   4.306   4.337 -1.3345  2.7949 -1.2906
 2070SOL     OW17845   1.014   0.956   7.356  0.0877  0.3716 -0.4462
 2070SOL    HW117846   1.100   0.914   7.358 -0.5440 -0.8646  0.9929
 2070SOL    HW217847   1.034   1.039   7.312  0.9276  0.9698  1.0315
 2071SOL     OW17848   2.118   1.080   5.160 -0.0953  0.1521  0.2007
 2071SOL    HW117849   2.190   1.018   5.162  0.3443  0.6585 -0.1083
 2071SOL    HW217850   2.079   1.057   5.244  1.9778 -2.1393  0.5373
 2072SOL     OW17851   3.117   2.247   7.990  0.4116  0.2270  0.0509
 2072SOL    HW117852   3.114   2.259   7.895 -0.7234  1.8574  0.3025
 2072SOL    HW217853   3.202   2.210   8.014 -0.1520 -2.5378 -2.2476
 2073SOL     OW17854   1.314   1.035   8.183 -0.1497 -0.4664  0.0063
 2073SOL    HW117855   1.335   1.055   8.092  1.1871  1.4334  0.7331
 2073SOL    HW217856   1.401   1.009   8.213  0.4177 -0.3149 -1.5087
 2074SOL     OW17857   2.960   2.707   6.824 -0.9609 -0.6177 -0.0236
 2074SOL    HW117858   2.954   2.611   6.820 -3.5350 -0.4867  1.0086
 2074SOL    HW217859   2.888   2.722   6.884 -0.7223 -1.7125  0.5457
 2075SOL     OW17860   3.661   0.790   8.433  0.9241  0.6252  0.1863
 2075SOL    HW117861   3.737   0.783   8.491  0.2036  1.9739  1.3030
 2075SOL    HW217862   3.691   0.839   8.357 -1.9749  0.6411 -0.9403
 2076SOL     OW17863   1.361   3.789  13.861 -0.3447 -0.6403  0.1505
 2076SOL    HW117864   1.437   3.846  13.853 -1.0864  0.0039 -2.1153
 2076SOL    HW217865   1.358   3.747  13.775 -2.0038  1.3636 -0.7660
 2077SOL     OW17866   1.443   1.030  14.205  0.3374 -0.6647  0.2056
 2077SOL    HW117867   1.407   1.082  14.134  0.5110 -1.1508 -0.2348
 2077SOL    HW217868   1.523   1.080  14.225 -1.1857  1.6475  0.5291
 2078SOL     OW17869   3.002   0.475   9.315 -0.2971 -0.0766 -0.0575
 2078SOL    HW117870   2.964   0.541   9.374  5.2361  3.0891 -0.1004
 2078SOL    HW217871   3.061   0.430   9.374 -1.3680 -0.4246  0.7458
 2079SOL     OW17872   0.301   0.925   1.071  0.3965 -0.3964 -0.4819
 2079SOL    HW117873   0.359   1.000   1.076  0.1789 -0.4055  2.1399
 2079SOL    HW217874   0.223   0.955   1.025 -0.8995 -3.3686 -0.2119
 2080SOL     OW17875   0.916   1.604   6.505 -0.0846 -1.0271 -0.3326
 2080SOL    HW117876   0.968   1.543   6.452  1.4270  0.5601 -0.6959
 2080SOL    HW217877   0.848   1.644   6.450  2.7717  3.2847 -0.7591
 2081SOL     OW17878   1.869   3.548  10.017 -0.1094  0.2681  0.1701
 2081SOL    HW117879   1.868   3.486   9.944  3.1587  1.0884 -0.5453
 2081SOL    HW217880   1.856   3.485  10.089 -0.6899  0.4082  0.1893
 2082SOL     OW17881   4.577   0.750   5.528  0.0050 -0.5448 -0.1541
 2082SOL    HW117882   4.484   0.736   5.539 -0.1358 -0.6410 -1.4806
 2082SOL    HW217883   4.618   0.751   5.615  2.1832 -0.0508 -1.1890
 2083SOL     OW17884   2.145   0.477   8.675  0.3808 -0.0708  0.6261
 2083SOL    HW117885   2.049   0.470   8.680  0.4330 -1.9467 -0.7753
 2083SOL    HW217886   2.142   0.543   8.607  0.4803 -1.5018 -0.7609
 2084SOL     OW17887   3.853   0.547   1.315  0.4913 -0.6152  0.2795
 2084SOL    HW117888   3.878   0.460   1.347  1.9454 -0.6152 -0.8260
 2084SOL    HW217889   3.766   0.521   1.287  0.7727  0.2774 -1.4148
 2085SOL     OW17890   0.460   2.794   2.445  0.1344 -0.4188  0.5626
 2085SOL    HW117891   0.372   2.768   2.472 -0.1342  1.1542  1.1916
 2085SOL    HW217892   0.465   2.877   2.493 -1.4312  0.8308 -1.4135
 2086SOL     OW17893   1.815   2.209   4.738  0.3148  0.1598  0.7003
 2086SOL    HW117894   1.825   2.134   4.681 -1.9624  0.1941  0.2442
 2086SOL    HW217895   1.865   2.271   4.684  0.7635 -1.0165 -0.2140
 2087SOL     OW17896   3.957   0.170   4.967 -0.1912 -0.0475  0.3409
 2087SOL    HW117897   4.029   0.203   4.913  0.9440 -0.0632  1.8563
 2087SOL    HW217898   3.902   0.249   4.969 -2.3539 -1.5659  0.7684
 2088SOL     OW17899   2.093   4.022   5.712  0.1811 -0.7764 -0.4708
 2088SOL    HW117900   2.014   4.036   5.658  1.0453  1.9812 -1.0149
 2088SOL    HW217901   2.096   4.095   5.774 -1.5463 -0.9855 -0.1299
 2089SOL     OW17902   3.554   0.721   6.250 -0.5402 -0.2480  0.0177
 2089SOL    HW117903   3.650   0.714   6.258 -0.5886  0.2311  1.0636
 2089SOL    HW217904   3.556   0.803   6.202  2.4548  0.8993  2.0508
 2090SOL     OW17905   1.970   0.151   7.211  0.0462 -0.5951  0.1551
 2090SOL    HW117906   2.035   0.196   7.157  0.6157  0.9686  2.1270
 2090SOL    HW217907   2.012   0.069   7.235  1.8997  0.7313  1.4723
 2091SOL     OW17908   1.975   0.033   0.605 -0.0498  0.4348 -0.5746
 2091SOL    HW117909   2.057   0.082   0.592  2.1428 -3.1342 -0.2203
 2091SOL    HW217910   1.929   0.053   0.523 -0.2961  1.9996 -0.0576
 2092SOL     OW17911   1.215   1.728  10.454  0.0520  0.2272 -0.4003
 2092SOL    HW117912   1.287   1.740  10.392 -0.3436  1.2835 -0.6524
 2092SOL    HW217913   1.157   1.663  10.414 -0.8080  0.2763  0.7755
 2093SOL     OW17914   1.111   1.577   9.333 -0.6446 -0.1920 -0.3397
 2093SOL    HW117915   1.098   1.561   9.426 -1.0460 -1.7685 -0.6781
 2093SOL    HW217916   1.206   1.578   9.322 -0.3154  0.0385  2.4796
 2094SOL     OW17917   4.514   0.520  13.455  0.0103  0.0755 -0.4173
 2094SOL    HW117918   4.576   0.558  13.517 -1.5742 -0.5270  1.5451
 2094SOL    HW217919   4.434   0.557  13.493  0.4578 -3.6985  4.2483
 2095SOL     OW17920   3.116   3.589  15.951  0.2903  0.0599 -0.3316
 2095SOL    HW117921   3.028   3.594  15.914  0.5723  1.8607 -0.7767
 2095SOL    HW217922   3.098   3.579  16.045  1.3127 -0.7802 -0.2324
 2096SOL     OW17923   3.385   1.348   6.839 -0.2014  0.1311 -0.1414
 2096SOL    HW117924   3.399   1.314   6.928 -0.1227 -0.6952 -0.4669
 2096SOL    HW217925   3.418   1.436   6.852 -0.6102  0.2905 -0.1796
 2097SOL     OW17926   3.316   4.444   6.370  1.1082 -1.0927 -0.3715
 2097SOL    HW117927   3.375   4.443   6.294  1.7333  3.1856  0.0524
 2097SOL    HW217928   3.340   4.526   6.413 -0.7612 -0.6975 -0.0940
 2098SOL     OW17929   2.122   2.810   7.715  0.4256 -0.0233 -0.7509
 2098SOL    HW117930   2.140   2.716   7.710 -0.6130 -0.2550 -0.0824
 2098SOL    HW217931   2.116   2.831   7.621  0.5116  0.9823 -0.5341
 2099SOL     OW17932   2.186   0.453   6.783 -0.6807 -0.3680  0.3631
 2099SOL    HW117933   2.142   0.393   6.723  1.4772 -1.7172  0.1464
 2099SOL    HW217934   2.280   0.439   6.774 -0.3026  0.9533  2.1279
 2100SOL     OW17935   4.518   0.436   2.160 -0.4892  0.5027  0.0131
 2100SOL    HW117936   4.495   0.451   2.252 -0.3618 -0.9238  0.2683
 2100SOL    HW217937   4.614   0.433   2.161 -0.5202  0.1809  1.5812
 2101SOL     OW17938   0.569   1.829   0.043 -0.0702  0.7602 -0.0300
 2101SOL    HW117939   0.607   1.842   0.130 -1.7684  0.1034  0.8123
 2101SOL    HW217940   0.541   1.738   0.044 -0.3684  0.8626  1.4830
 2102SOL     OW17941   3.354   0.682  15.015 -0.2475 -0.3799  0.5152
 2102SOL    HW117942   3.359   0.770  14.977 -1.4791  0.3097  1.9649
 2102SOL    HW217943   3.383   0.631  14.939 -0.6296 -2.5758  1.8308
 2103SOL     OW17944   0.058   1.685   7.403  0.4084 -0.3507 -0.6292
 2103SOL    HW117945   0.152   1.697   7.419  0.2825 -1.6690  1.0880
 2103SOL    HW217946   0.042   1.747   7.332  1.8128  0.7162 -0.0229
 2104SOL     OW17947   0.673   2.483   6.053 -0.4004  0.1908 -0.1883
 2104SOL    HW117948   0.668   2.508   5.960  2.0000  3.5542  0.5596
 2104SOL    HW217949   0.704   2.393   6.046 -1.0825  0.0550 -1.5004
 2105SOL     OW17950   1.004   3.175   4.295  0.8028  0.1639 -0.1423
 2105SOL    HW117951   0.952   3.131   4.362  0.4353  1.2159  0.2591
 2105SOL    HW217952   0.988   3.127   4.214  1.4572 -1.0663  0.4651
 2106SOL     OW17953   1.582   1.295  12.505 -0.3252  0.9670  0.3096
 2106SOL    HW117954   1.676   1.307  12.491 -0.2402 -0.4470 -0.3152
 2106SOL    HW217955   1.553   1.349  12.431 -1.6467 -1.5554 -1.0132
 2107SOL     OW17956   3.906   1.571   1.356 -0.1696 -0.1188 -0.1714
 2107SOL    HW117957   3.866   1.493   1.394  0.2046  1.3322  3.1868
 2107SOL    HW217958   3.822   1.611   1.333 -0.5789 -0.5640  0.5551
 2108SOL     OW17959   1.789   2.864  17.664  0.3371 -0.4761  0.0089
 2108SOL    HW117960   1.853   2.801  17.633  0.0915 -0.7109 -0.0282
 2108SOL    HW217961   1.767   2.914  17.586  0.8150  2.0410  1.4908
 2109SOL     OW17962   4.407   4.095   1.877  0.2227  0.4092  0.1288
 2109SOL    HW117963   4.457   4.173   1.853  2.0055 -1.0579 -0.9373
 2109SOL    HW217964   4.342   4.134   1.936 -1.3626 -2.2717  0.1766
 2110SOL     OW17965   4.310   3.904   0.558  0.4617  0.0645  0.0462
 2110SOL    HW117966   4.317   3.995   0.528  2.6752  0.5227  1.9595
 2110SOL    HW217967   4.340   3.850   0.486  0.8934  0.1101  0.1916
 2111SOL     OW17968   3.683   4.143   3.716 -0.0308  0.8796  0.0506
 2111SOL    HW117969   3.712   4.204   3.648  1.3593  0.4941  0.3052
 2111SOL    HW217970   3.588   4.140   3.704  0.0280 -1.4485  0.1413
 2112SOL     OW17971   3.011   0.389  12.590 -1.1591 -0.2914  0.2198
 2112SOL    HW117972   3.014   0.357  12.500  2.4895  1.0026 -0.1379
 2112SOL    HW217973   2.990   0.316  12.647  3.5391 -1.7032  0.1567
 2113SOL     OW17974   4.585   0.767   6.461  0.4579  0.3556 -0.4236
 2113SOL    HW117975   4.570   0.673   6.474 -1.4978  0.3607 -2.6253
 2113SOL    HW217976   4.615   0.776   6.370  0.4410  1.2938 -0.3375
 2114SOL     OW17977   3.306   4.630   6.971 -0.1135  0.0925 -0.4259
 2114SOL    HW117978   3.255   4.567   7.022 -1.0852 -0.3272 -1.9277
 2114SOL    HW217979   3.369   4.672   7.030  0.9293 -2.2342  0.1223
 2115SOL     OW17980   4.665   2.253   1.376 -0.3046 -0.1206  0.3635
 2115SOL    HW117981   4.733   2.319   1.387 -0.8500  0.3115  1.1652
 2115SOL    HW217982   4.699   2.200   1.304  0.3577 -0.0693  0.6437
 2116SOL     OW17983   0.826   1.258   9.591 -0.1954 -0.2427  0.1038
 2116SOL    HW117984   0.891   1.189   9.607  0.3631  0.5335  1.1844
 2116SOL    HW217985   0.801   1.283   9.680 -1.7527  1.8421 -0.9344
 2117SOL     OW17986   4.197   2.138   8.003  0.3527  0.2117  0.1114
 2117SOL    HW117987   4.262   2.116   8.070  0.1531  0.5682  0.4273
 2117SOL    HW217988   4.162   2.219   8.041 -0.4319  0.7028 -1.6715
 2118SOL     OW17989   2.747   4.672  17.151 -0.2377 -0.2972  0.5375
 2118SOL    HW117990   2.762   4.606  17.218  2.3117  1.6822  1.9154
 2118SOL    HW217991   2.838   4.679  17.123 -1.1545  2.8263 -1.6687
 2119SOL     OW17992   2.397   1.708  17.211 -0.2319  0.1601 -0.3811
 2119SOL    HW117993   2.342   1.660  17.149 -0.8748 -2.3765  2.1630
 2119SOL    HW217994   2.483   1.669  17.194 -0.0753  1.4607 -2.6429
 2120SOL     OW17995   0.785   2.519   9.123  0.2455  0.4596 -0.2953
 2120SOL    HW117996   0.760   2.598   9.075 -0.0377 -0.6558 -1.9490
 2120SOL    HW217997   0.713   2.494   9.181  0.4504 -1.7502 -1.0018
 2121SOL     OW17998   0.767   0.689  15.545 -0.5211  0.2946  0.2971
 2121SOL    HW117999   0.824   0.721  15.475 -2.1241 -0.2308 -1.2477
 2121SOL    HW218000   0.824   0.628  15.592  0.1203  1.0575  0.5018
 2122SOL     OW18001   3.756   0.545   7.502  0.3348  0.6137  0.0910
 2122SOL    HW118002   3.684   0.575   7.447 -0.2228  0.0322  0.5038
 2122SOL    HW218003   3.770   0.454   7.473 -1.2106  0.1952  0.6874
 2123SOL     OW18004   3.227   3.934   8.124  0.8051  0.5208 -0.1244
 2123SOL    HW118005   3.137   3.950   8.093  1.4232 -0.5126 -2.4283
 2123SOL    HW218006   3.237   3.841   8.104  2.8078  0.8074 -0.4090
 2124SOL     OW18007   2.165   3.607   1.437 -0.5121  0.3287 -0.4165
 2124SOL    HW118008   2.193   3.523   1.401  0.5069 -0.0565  1.2830
 2124SOL    HW218009   2.079   3.580   1.471  0.2684 -0.0527  1.2451
 2125SOL     OW18010   4.454   0.680   6.149  0.1460  0.3794  0.3599
 2125SOL    HW118011   4.431   0.772   6.136 -3.9875 -0.8152 -1.0339
 2125SOL    HW218012   4.465   0.660   6.056 -0.3498 -2.9334  1.0273
 2126SOL     OW18013   4.297   2.658   3.977 -0.0604 -0.4280 -0.1373
 2126SOL    HW118014   4.254   2.575   3.959  0.3515 -0.7844  0.5230
 2126SOL    HW218015   4.300   2.689   3.887 -0.9312 -1.4576 -0.5170
 2127SOL     OW18016   0.152   2.844   4.064  0.0634 -0.5259  0.2433
 2127SOL    HW118017   0.092   2.771   4.080  1.3221 -1.6764 -0.4187
 2127SOL    HW218018   0.121   2.878   3.980  0.4735  1.8914  1.0617
 2128SOL     OW18019   1.694   0.942   4.692 -0.4342  0.8142 -0.4683
 2128SOL    HW118020   1.772   0.965   4.640  0.6793  0.6536  1.1219
 2128SOL    HW218021   1.624   0.989   4.646  0.0594  0.4298 -1.6229
 2129SOL     OW18022   1.287   2.507   6.770 -0.5657  0.2140  0.2998
 2129SOL    HW118023   1.198   2.489   6.801 -0.5267 -2.7230 -1.3123
 2129SOL    HW218024   1.277   2.600   6.750 -1.1552  0.0396 -0.1862
 2130SOL     OW18025   3.858   2.431   4.994 -0.5560 -0.4910  0.5667
 2130SOL    HW118026   3.766   2.444   5.019 -0.8382 -1.5354  0.0788
 2130SOL    HW218027   3.880   2.343   5.026  1.2059 -0.9384 -1.9266
 2131SOL     OW18028   1.261   0.433  13.738 -0.0182  0.3453  0.2916
 2131SOL    HW118029   1.186   0.487  13.762 -1.3881 -1.2787 -0.4211
 2131SOL    HW218030   1.294   0.470  13.656  0.7389 -2.0556 -0.4890
 2132SOL     OW18031   2.049   3.035   0.692 -0.0496 -0.3132  0.3031
 2132SOL    HW118032   2.025   3.007   0.780  0.1409 -0.5023  0.2948
 2132SOL    HW218033   1.960   3.047   0.660 -0.2844  0.1345  1.1284
 2133SOL     OW18034   1.615   2.977   9.457 -0.2262  0.4171  0.1685
 2133SOL    HW118035   1.701   2.966   9.416 -1.3120 -2.0049 -1.4682
 2133SOL    HW218036   1.579   3.058   9.420 -0.3468 -0.2483 -1.1999
 2134SOL     OW18037   0.967   1.164   6.250 -0.4225  0.4962  0.6220
 2134SOL    HW118038   0.945   1.156   6.342  0.1659  0.3019  0.7465
 2134SOL    HW218039   0.880   1.152   6.212 -0.5141  4.4351 -0.4366
 2135SOL     OW18040   1.752   3.552  16.794  0.1511 -0.2251 -0.7365
 2135SOL    HW118041   1.778   3.642  16.775 -0.6976  0.5382  1.6500
 2135SOL    HW218042   1.695   3.556  16.871  2.1154  1.3896  0.6423
 2136SOL     OW18043   4.203   0.404   1.569 -0.1166  0.4835  0.5003
 2136SOL    HW118044   4.289   0.397   1.610 -0.2497 -2.5533  0.3082
 2136SOL    HW218045   4.169   0.490   1.593  0.3391  0.8292 -0.0913
 2137SOL     OW18046   4.553   3.623   2.189 -0.3619  0.2775 -0.0572
 2137SOL    HW118047   4.480   3.684   2.197 -2.1781 -1.8623 -0.2806
 2137SOL    HW218048   4.618   3.688   2.216  0.3042 -1.8032  3.3626
 2138SOL     OW18049   2.053   3.763   9.118 -0.0079 -0.4553 -0.1204
 2138SOL    HW118050   2.047   3.747   9.023  0.2537  1.7823 -0.5021
 2138SOL    HW218051   2.146   3.750   9.136  0.3964  2.9651  0.1725
 2139SOL     OW18052   4.472   1.002   6.688 -0.1895 -0.2490  0.1953
 2139SOL    HW118053   4.403   0.973   6.748  0.9136 -0.5987  1.2653
 2139SOL    HW218054   4.523   0.922   6.687 -2.1365 -1.5037 -0.0972
 2140SOL     OW18055   4.150   4.458   2.464  0.0956 -0.0191  0.2764
 2140SOL    HW118056   4.180   4.389   2.523  0.7593 -1.3025 -1.5442
 2140SOL    HW218057   4.199   4.534   2.495 -2.0343  2.1957 -1.7694
 2141SOL     OW18058   0.870   4.382   2.995 -0.7909  0.2641 -0.4852
 2141SOL    HW118059   0.902   4.304   2.950 -2.4174 -0.9586  0.4726
 2141SOL    HW218060   0.864   4.431   2.913 -0.3734  1.3011  0.1008
 2142SOL     OW18061   1.274   3.086   1.653 -0.7545 -0.3700 -0.1221
 2142SOL    HW118062   1.203   3.111   1.594 -0.3283 -2.2682 -1.4313
 2142SOL    HW218063   1.280   3.167   1.703 -1.5997 -0.9776  0.9608
 2143SOL     OW18064   3.589   0.658   6.937 -0.4716 -0.3970 -0.4169
 2143SOL    HW118065   3.597   0.720   6.865  1.8641  2.1715  2.0614
 2143SOL    HW218066   3.674   0.670   6.978 -0.8565 -1.4665  0.6923
 2144SOL     OW18067   3.359   1.718   4.529  0.2562  0.0734  0.3200
 2144SOL    HW118068   3.382   1.678   4.445  0.3727  1.9143 -0.5187
 2144SOL    HW218069   3.412   1.662   4.586  0.7934  0.2888  0.0286
 2145SOL     OW18070   2.291   4.707   8.821 -0.0070  1.1260  0.2530
 2145SOL    HW118071   2.215   4.708   8.763 -0.6513  0.3359  1.0805
 2145SOL    HW218072   2.248   4.683   8.904 -1.9936 -1.1562 -1.4392
 2146SOL     OW18073   0.108   4.647   2.343  0.3102  0.1997 -0.0833
 2146SOL    HW118074   0.140   0.002   2.336  0.0853  0.4634  2.4428
 2146SOL    HW218075   0.183   4.593   2.317  1.0932  1.2242  0.0070
 2147SOL     OW18076   2.255   3.942   6.149 -0.4593  0.1087 -0.0766
 2147SOL    HW118077   2.300   3.941   6.234  0.9738  0.2407 -0.8492
 2147SOL    HW218078   2.161   3.931   6.165 -0.3457  1.4677  1.5747
 2148SOL     OW18079   0.756   1.872   9.209 -0.2702  0.3608 -0.2207
 2148SOL    HW118080   0.790   1.839   9.292  1.6072  0.7235 -0.8497
 2148SOL    HW218081   0.768   1.788   9.164  1.9525  0.1126  0.8235
 2149SOL     OW18082   0.398   3.755   4.173  0.5308  0.0835 -0.1097
 2149SOL    HW118083   0.454   3.754   4.250  2.9609 -2.2591 -1.9381
 2149SOL    HW218084   0.325   3.703   4.206 -0.7018 -0.3722 -3.5172
 2150SOL     OW18085   2.208   0.569  13.120  0.6039 -1.2265  0.6585
 2150SOL    HW118086   2.287   0.611  13.086  0.1928 -0.4706  0.6236
 2150SOL    HW218087   2.218   0.559  13.215 -0.6160  2.2759  1.1747
 2151SOL     OW18088   0.570   2.315  13.878 -0.3017 -0.4532 -0.2211
 2151SOL    HW118089   0.612   2.331  13.794  0.6355  3.2061  0.9350
 2151SOL    HW218090   0.490   2.273  13.847 -0.1285  0.4057 -1.8663
 2152SOL     OW18091   0.204   1.389   0.025 -0.3116  0.2119 -0.6055
 2152SOL    HW118092   0.219   1.479   0.056 -0.3135 -0.0417  0.1483
 2152SOL    HW218093   0.109   1.387   0.032 -0.2960 -0.4690 -0.6478
 2153SOL     OW18094   4.616   4.554   6.520  0.0546  0.3550 -0.1943
 2153SOL    HW118095   4.614   4.475   6.573 -0.1367  1.2757  1.1681
 2153SOL    HW218096   4.710   4.573   6.522  0.0595  0.1705  1.0194
 2154SOL     OW18097   4.140   1.916  14.134  0.3010 -0.4266 -0.0771
 2154SOL    HW118098   4.135   1.823  14.154 -3.2195 -0.6674 -2.0490
 2154SOL    HW218099   4.142   1.951  14.223  0.9840 -0.7268  0.0231
 2155SOL     OW18100   3.688   3.633   8.673  0.1726  0.1202  0.0125
 2155SOL    HW118101   3.719   3.722   8.691 -0.3940  0.3270 -0.0291
 2155SOL    HW218102   3.651   3.640   8.585 -0.1050 -0.5632  0.0726
 2156SOL     OW18103   2.733   0.953  11.283  0.3870 -0.0910 -0.3562
 2156SOL    HW118104   2.749   0.958  11.188 -1.6675  0.9505 -0.6459
 2156SOL    HW218105   2.675   0.877  11.284 -0.3964  0.5104 -0.3660
 2157SOL     OW18106   0.371   3.681  13.312 -0.3365  0.2506 -0.7076
 2157SOL    HW118107   0.361   3.603  13.367  1.5721  1.7050  1.7109
 2157SOL    HW218108   0.375   3.648  13.223 -0.5264 -0.0467 -0.6051
 2158SOL     OW18109   3.611   3.445   4.793 -0.6382  0.2864 -0.0347
 2158SOL    HW118110   3.573   3.439   4.705 -3.2062  0.4307  1.0588
 2158SOL    HW218111   3.551   3.393   4.847  0.8272 -1.1873  0.1573
 2159SOL     OW18112   0.496   0.457  13.293  0.1300  0.3326 -0.6968
 2159SOL    HW118113   0.513   0.504  13.212 -1.3039  1.3557 -0.3955
 2159SOL    HW218114   0.580   0.411  13.296 -0.1873 -0.1792  0.3805
 2160SOL     OW18115   2.643   3.556   3.458  0.0941  0.0732  0.7455
 2160SOL    HW118116   2.688   3.637   3.433 -3.0162  0.8147 -2.3914
 2160SOL    HW218117   2.688   3.485   3.414 -0.6260 -0.4599  0.8768
 2161SOL     OW18118   2.811   3.504   9.828  0.2510  0.5694 -0.5447
 2161SOL    HW118119   2.755   3.455   9.768 -1.5627  0.8152  0.9465
 2161SOL    HW218120   2.804   3.449   9.906  0.4682  1.4889  0.1139
 2162SOL     OW18121   1.026   4.066  12.320  0.5986 -0.9592  0.2133
 2162SOL    HW118122   1.023   4.156  12.354  2.1819 -0.0762 -2.0304
 2162SOL    HW218123   1.087   4.028  12.383  1.1609  0.0023  0.2518
 2163SOL     OW18124   2.120   3.736  16.998 -0.3018  0.2410  0.1480
 2163SOL    HW118125   2.127   3.728  17.093  0.8780 -1.1932 -0.0730
 2163SOL    HW218126   2.199   3.695  16.965  0.1769  1.0561  0.2767
 2164SOL     OW18127   0.390   3.474  17.068  0.4592  0.3802  0.2915
 2164SOL    HW118128   0.383   3.423  16.987 -3.0061  0.8708  0.2569
 2164SOL    HW218129   0.485   3.473  17.079  0.2520 -1.0600  1.9389
 2165SOL     OW18130   0.328   3.809   0.699 -0.1826 -0.0202 -0.0852
 2165SOL    HW118131   0.400   3.758   0.662 -1.6881 -2.0481 -0.2136
 2165SOL    HW218132   0.346   3.903   0.700  0.2576 -0.0918 -0.9536
 2166SOL     OW18133   1.024   3.739   7.130 -0.3251 -0.0815 -0.1557
 2166SOL    HW118134   1.097   3.764   7.187  0.4053  0.2444 -1.2335
 2166SOL    HW218135   1.061   3.680   7.065  2.9201 -0.4089  1.9989
 2167SOL     OW18136   0.401   2.809  14.439  0.6486  0.6609 -0.4086
 2167SOL    HW118137   0.393   2.866  14.363 -0.0905 -0.4233 -1.1298
 2167SOL    HW218138   0.409   2.729  14.388 -0.5156  0.6921 -0.6538
 2168SOL     OW18139   2.897   0.502   5.286  0.3798  0.5397  0.3216
 2168SOL    HW118140   2.948   0.454   5.221  2.8484  0.4659  2.3036
 2168SOL    HW218141   2.813   0.458   5.279  1.2344 -0.9912 -0.4431
 2169SOL     OW18142   1.206   1.462   7.511  0.2360 -0.0040  0.5407
 2169SOL    HW118143   1.286   1.490   7.556  3.4077 -1.4073 -4.2636
 2169SOL    HW218144   1.215   1.509   7.428 -0.7547 -1.2159 -0.2365
 2170SOL     OW18145   2.671   2.284  15.535 -0.2937 -0.5670  0.3818
 2170SOL    HW118146   2.676   2.301  15.441  0.1374  2.9517  1.0371
 2170SOL    HW218147   2.716   2.355  15.580 -1.1871  0.1724  0.1072
 2171SOL     OW18148   1.531   3.309  15.424 -0.6854 -0.3730  0.7238
 2171SOL    HW118149   1.524   3.255  15.502  0.5099 -1.0382  0.3610
 2171SOL    HW218150   1.588   3.373  15.466  1.6065 -0.9062 -1.6048
 2172SOL     OW18151   1.982   0.521   2.986 -0.6588 -0.4984 -0.0210
 2172SOL    HW118152   1.892   0.525   3.016 -1.5460  1.4016 -2.9218
 2172SOL    HW218153   2.031   0.544   3.065 -1.1533 -1.1387  0.4681
 2173SOL     OW18154   2.370   1.165   5.624 -0.3730  0.0982 -0.2321
 2173SOL    HW118155   2.360   1.098   5.556  1.9047 -0.9473  0.4971
 2173SOL    HW218156   2.325   1.120   5.695 -0.9178 -0.0616 -0.6736
 2174SOL     OW18157   3.554   3.754   7.612 -0.7512  0.2846  0.1525
 2174SOL    HW118158   3.562   3.712   7.526  1.1428  0.7905  0.0957
 2174SOL    HW218159   3.634   3.737   7.661  0.6106  2.3186 -1.4008
 2175SOL     OW18160   1.543   1.156   5.411 -0.0194  0.4196 -0.3582
 2175SOL    HW118161   1.535   1.250   5.426 -2.9223 -0.4769  3.9688
 2175SOL    HW218162   1.576   1.161   5.321 -0.3454  1.3210 -0.4259
 2176SOL     OW18163   1.112   3.158   1.461  0.0091 -0.5747 -0.0828
 2176SOL    HW118164   1.159   3.195   1.386 -1.1112 -0.7639 -0.8745
 2176SOL    HW218165   1.059   3.235   1.484 -1.7548 -2.2740  1.4967
 2177SOL     OW18166   2.938   1.282   4.964  0.3154  0.1909  0.3767
 2177SOL    HW118167   2.877   1.352   4.989 -0.1867  0.0165 -0.3677
 2177SOL    HW218168   2.955   1.300   4.872 -0.4814 -0.5171  0.0963
 2178SOL     OW18169   3.610   1.280   1.797  0.2073 -0.1526  0.4521
 2178SOL    HW118170   3.596   1.205   1.739 -2.0629  1.1898 -0.7441
 2178SOL    HW218171   3.649   1.229   1.868 -0.7870 -3.2433 -1.2233
 2179SOL     OW18172   2.952   3.384  11.168  0.2623 -0.1932  0.0256
 2179SOL    HW118173   3.033   3.405  11.122  0.1826  0.3170  0.1263
 2179SOL    HW218174   2.925   3.302  11.126  0.5108 -1.1744  1.7974
 2180SOL     OW18175   3.585   2.207   3.799 -0.4768 -0.1278  0.1678
 2180SOL    HW118176   3.519   2.203   3.868 -0.0081 -0.8590  0.5744
 2180SOL    HW218177   3.664   2.162   3.829 -0.3496 -1.6804 -2.5099
 2181SOL     OW18178   3.229   4.664  15.135 -0.3652 -0.1014  0.0358
 2181SOL    HW118179   3.276   0.011  15.128  1.5932 -1.0018  2.3282
 2181SOL    HW218180   3.177   4.676  15.215  0.9262 -1.4336  1.0867
 2182SOL     OW18181   0.162   0.142  12.990 -0.4302 -0.5111  0.2645
 2182SOL    HW118182   0.249   0.180  12.996 -0.9880  0.7565  0.3683
 2182SOL    HW218183   0.149   0.119  13.082 -0.3469  0.8023  0.6096
 2183SOL     OW18184   0.624   2.604   2.042 -0.2121 -0.4809  0.4252
 2183SOL    HW118185   0.621   2.590   2.136  0.8368 -1.5277  0.2921
 2183SOL    HW218186   0.693   2.542   2.021  1.2030  0.9502  0.8735
 2184SOL     OW18187   2.175   1.874   2.225  0.1950  0.4414 -0.1088
 2184SOL    HW118188   2.190   1.827   2.306 -2.4880 -0.4973 -0.1556
 2184SOL    HW218189   2.081   1.858   2.218  0.8193 -1.5787 -4.3005
 2185SOL     OW18190   2.384   3.634   5.179 -0.1102  0.1007  0.4428
 2185SOL    HW118191   2.331   3.702   5.221  0.7416  0.0732  1.5452
 2185SOL    HW218192   2.415   3.688   5.106 -0.7346  0.6035  0.5480
 2186SOL     OW18193   4.696   2.873   6.797 -0.2986 -0.1597 -0.0270
 2186SOL    HW118194   4.702   2.900   6.706 -0.2289  2.0597  0.6335
 2186SOL    HW218195   0.029   2.923   6.842 -1.1525  1.5726 -0.6575
 2187SOL     OW18196   1.372   3.640   2.747 -0.0909  0.2719 -0.1591
 2187SOL    HW118197   1.467   3.633   2.761  0.1332 -0.0947 -1.8080
 2187SOL    HW218198   1.357   3.668   2.656  0.5052 -2.7574 -1.1934
 2188SOL     OW18199   2.110   1.942   6.349 -0.4535 -0.4459 -0.0189
 2188SOL    HW118200   2.100   1.960   6.255  1.2219 -0.2856 -0.1594
 2188SOL    HW218201   2.026   1.910   6.381 -1.6576  2.2097 -0.5370
 2189SOL     OW18202   2.682   1.767   2.079 -0.1387  0.1405  0.7593
 2189SOL    HW118203   2.615   1.822   2.120 -0.6395 -0.9546  1.4210
 2189SOL    HW218204   2.640   1.693   2.035  2.3640 -1.0510  0.3728
 2190SOL     OW18205   0.416   4.122   5.924  0.3599  0.2585 -0.3108
 2190SOL    HW118206   0.380   4.168   5.848 -1.0233 -0.3671 -0.0250
 2190SOL    HW218207   0.375   4.037   5.912 -2.3752  1.6792 -1.1268
 2191SOL     OW18208   2.387   4.367   5.774 -0.5213  0.2317 -0.0011
 2191SOL    HW118209   2.463   4.355   5.718 -1.3551  0.2191 -1.1181
 2191SOL    HW218210   2.380   4.463   5.778  2.1763  0.4454 -0.6389
 2192SOL     OW18211   1.531   4.097   3.607 -0.1597 -0.5833  0.5478
 2192SOL    HW118212   1.507   4.161   3.673 -0.0207 -0.2755  0.3002
 2192SOL    HW218213   1.445   4.083   3.568  1.0663 -1.6443 -1.8423
 2193SOL     OW18214   4.297   3.273  12.296  0.3368  0.1392  0.1987
 2193SOL    HW118215   4.380   3.286  12.249 -0.6742  2.8172 -0.8253
 2193SOL    HW218216   4.239   3.288  12.221 -0.9770  0.2314  1.2425
 2194SOL     OW18217   3.269   2.450  13.366 -0.2270  0.2015 -0.8496
 2194SOL    HW118218   3.340   2.447  13.302  1.3047  0.2243  0.8730
 2194SOL    HW218219   3.205   2.389  13.329  0.8230  0.2875 -2.7799
 2195SOL     OW18220   3.206   4.055  13.850  0.0839 -0.8878  0.5838
 2195SOL    HW118221   3.163   4.066  13.765  0.5323  0.7585  0.5748
 2195SOL    HW218222   3.292   4.086  13.820 -2.7886  4.4652 -2.1700
 2196SOL     OW18223   3.720   3.184  11.311 -0.2282  0.1464  0.9863
 2196SOL    HW118224   3.808   3.179  11.275 -1.3088 -3.4337 -1.1844
 2196SOL    HW218225   3.678   3.111  11.266  0.0959 -0.0448  0.9992
 2197SOL     OW18226   2.447   2.570  11.082 -0.2851  0.3187  0.0462
 2197SOL    HW118227   2.512   2.516  11.126 -0.2235  0.8020  0.5501
 2197SOL    HW218228   2.401   2.610  11.156  0.7567 -2.1732  2.0155
 2198SOL     OW18229   0.425   2.872  17.243  0.1595 -0.3145  0.0505
 2198SOL    HW118230   0.463   2.816  17.310  1.1185 -0.7504 -0.8593
 2198SOL    HW218231   0.345   2.823  17.223  0.4807 -0.3034 -1.2499
 2199SOL     OW18232   2.092   1.950   5.338  0.1692  0.4823 -0.3961
 2199SOL    HW118233   2.127   1.876   5.387 -0.6972  0.0640 -0.4075
 2199SOL    HW218234   2.007   1.925   5.300  0.8273  0.7729 -2.0627
 2200SOL     OW18235   0.435   4.598  17.689 -0.2624 -0.0712  0.2556
 2200SOL    HW118236   0.470   4.623   0.034 -2.6396 -0.1799  1.2681
 2200SOL    HW218237   0.458   4.675  17.636 -1.2943 -0.4441 -0.7312
 2201SOL     OW18238   0.504   1.577   3.841  0.3016 -0.1378  0.1960
 2201SOL    HW118239   0.433   1.577   3.905 -0.8181  0.6915 -1.0605
 2201SOL    HW218240   0.545   1.492   3.860  2.2294  1.0978  1.5380
 2202SOL     OW18241   4.215   1.141   5.453  0.1512  0.0428 -0.0650
 2202SOL    HW118242   4.120   1.132   5.442  0.2527 -1.6624  0.3962
 2202SOL    HW218243   4.231   1.097   5.536 -1.7913 -2.1888 -0.8704
 2203SOL     OW18244   2.751   2.351  12.429  0.4481  0.2541 -0.3993
 2203SOL    HW118245   2.676   2.401  12.458  0.3792 -0.8558  1.3761
 2203SOL    HW218246   2.766   2.307  12.513  0.9285  1.1677 -0.0110
 2204SOL     OW18247   3.580   3.019  11.149  0.7786 -0.2358 -0.4379
 2204SOL    HW118248   3.577   2.928  11.120  3.0396  0.1461 -1.8961
 2204SOL    HW218249   3.489   3.031  11.174  0.9612 -2.1216  1.1502
 2205SOL     OW18250   4.249   2.639  17.400 -0.2886 -0.0530  0.0109
 2205SOL    HW118251   4.248   2.545  17.417 -3.1269 -0.3485 -1.8070
 2205SOL    HW218252   4.155   2.651  17.385 -0.9143 -1.5960  2.5903
 2206SOL     OW18253   4.494   1.753  11.818 -0.1226 -0.0159 -0.0868
 2206SOL    HW118254   4.504   1.727  11.727 -1.2420  0.4059 -0.3204
 2206SOL    HW218255   4.493   1.848  11.817 -1.2723 -0.0023  1.6191
 2207SOL     OW18256   4.286   2.954  15.566  0.2939 -0.3995  0.6602
 2207SOL    HW118257   4.202   2.966  15.521  0.9400 -3.0278 -1.2278
 2207SOL    HW218258   4.307   3.045  15.583  1.4278 -0.4499 -0.4863
 2208SOL     OW18259   3.244   1.068   6.510 -0.5541 -0.0324  0.0157
 2208SOL    HW118260   3.333   1.095   6.488 -0.2939 -1.5871 -0.7980
 2208SOL    HW218261   3.255   1.060   6.605 -0.0960 -2.7065 -0.2542
 2209SOL     OW18262   2.348   0.523   9.681  0.2353 -0.7164 -0.1861
 2209SOL    HW118263   2.293   0.577   9.738 -1.9203 -1.4843 -1.5384
 2209SOL    HW218264   2.362   0.442   9.729 -0.1461 -0.6042  0.1160
 2210SOL     OW18265   2.321   2.850   2.867 -0.2732 -0.3430  0.0887
 2210SOL    HW118266   2.340   2.806   2.951  1.4468 -0.5736 -0.4277
 2210SOL    HW218267   2.230   2.832   2.844  0.1340 -3.2766  0.7723
 2211SOL     OW18268   3.455   3.182   0.372  0.0099 -0.1615 -0.0934
 2211SOL    HW118269   3.532   3.181   0.315 -0.1437  0.6214 -0.3156
 2211SOL    HW218270   3.451   3.090   0.400 -2.0328 -0.0126  0.1229
 2212SOL     OW18271   0.913   0.521   5.638 -0.6083 -0.3456 -0.2664
 2212SOL    HW118272   0.930   0.567   5.721 -0.4160 -2.2340  0.7347
 2212SOL    HW218273   0.819   0.540   5.638 -0.3539  0.8707 -1.6939
 2213SOL     OW18274   4.651   3.430  14.930 -0.6908  0.6424 -0.1894
 2213SOL    HW118275   4.659   3.376  15.009 -0.1269  1.9313  0.6211
 2213SOL    HW218276   4.564   3.469  14.933 -0.6876  0.6544 -0.2554
 2214SOL     OW18277   1.540   0.749   7.441  0.4500  0.4832  0.2780
 2214SOL    HW118278   1.539   0.709   7.355 -0.1192 -1.2970  1.1207
 2214SOL    HW218279   1.631   0.778   7.446  0.1736  1.1870  1.3834
 2215SOL     OW18280   2.375   1.871   7.964 -0.0760  0.1926 -0.0570
 2215SOL    HW118281   2.412   1.786   7.942 -0.7948  0.4499 -2.2503
 2215SOL    HW218282   2.290   1.838   7.993  0.1908 -1.8958 -1.6540
 2216SOL     OW18283   4.383   4.082  10.615  0.3114 -0.1741 -0.6610
 2216SOL    HW118284   4.346   4.017  10.674 -0.1960  1.0862  0.4054
 2216SOL    HW218285   4.422   4.139  10.681  1.0328 -0.9861 -0.4022
 2217SOL     OW18286   2.952   2.117   2.964 -0.3621  0.9701  0.0433
 2217SOL    HW118287   2.919   2.089   3.050  1.4273 -2.1024 -0.2947
 2217SOL    HW218288   2.875   2.127   2.908 -1.0217 -2.1568  0.3945
 2218SOL     OW18289   0.671   4.334   5.979  0.0467  0.0626  0.3344
 2218SOL    HW118290   0.617   4.296   6.048 -3.1787  1.6848 -1.2675
 2218SOL    HW218291   0.627   4.419   5.983 -0.8350 -0.2392 -2.6550
 2219SOL     OW18292   3.429   3.129   7.999  0.9138  0.1794  0.4798
 2219SOL    HW118293   3.469   3.053   7.956 -3.0871 -1.6710  0.0404
 2219SOL    HW218294   3.399   3.090   8.081  2.6599  1.9648  1.9524
 2220SOL     OW18295   3.250   4.261   0.141  0.7929  0.0222 -0.5575
 2220SOL    HW118296   3.157   4.272   0.122  0.4967 -0.9613  0.3691
 2220SOL    HW218297   3.279   4.224   0.057  0.1659  1.2456 -1.3083
 2221SOL     OW18298   2.606   3.428   3.692  0.1417  0.0968  0.0836
 2221SOL    HW118299   2.624   3.472   3.608  2.0650  0.5057  0.6954
 2221SOL    HW218300   2.538   3.486   3.725 -0.6403 -0.0423 -1.2789
 2222SOL     OW18301   2.100   0.822  15.838  0.5326  0.0387 -0.5539
 2222SOL    HW118302   2.159   0.795  15.909  0.5742  0.5270 -0.4063
 2222SOL    HW218303   2.054   0.739  15.824 -0.5718  0.8593 -1.8711
 2223SOL     OW18304   0.741   0.547   2.826  0.2151  0.2822 -0.0053
 2223SOL    HW118305   0.833   0.573   2.827 -0.0410  1.1402  1.1429
 2223SOL    HW218306   0.704   0.605   2.760  0.3456 -0.6625 -0.9143
 2224SOL     OW18307   4.691   0.011   8.454 -0.0126  0.0894 -0.5320
 2224SOL    HW118308   4.708   4.691   8.530  2.4803 -1.3154 -2.0998
 2224SOL    HW218309   4.681   0.096   8.495 -0.0612  0.2971 -0.9716
 2225SOL     OW18310   1.888   1.909   7.332  0.6783  0.4569 -0.0075
 2225SOL    HW118311   1.885   1.985   7.390 -1.7401 -0.3245  0.8853
 2225SOL    HW218312   1.914   1.846   7.399  2.2052  1.5297  0.4022
 2226SOL     OW18313   4.621   1.109   5.640  0.0766  0.2807  0.7878
 2226SOL    HW118314   4.621   1.150   5.554 -0.3179  1.7503  1.4927
 2226SOL    HW218315   4.711   1.075   5.634 -0.2319 -0.6924  1.6278
 2227SOL     OW18316   4.492   4.607   5.224  0.1925 -0.1333 -0.0018
 2227SOL    HW118317   4.483   4.696   5.257  1.0398  0.0888 -0.3606
 2227SOL    HW218318   4.430   4.626   5.153 -0.8635 -3.6474 -0.0044
 2228SOL     OW18319   1.126   0.001  13.297 -0.0044  0.2967  0.5833
 2228SOL    HW118320   1.165   0.048  13.370  0.6551 -0.3240  0.6374
 2228SOL    HW218321   1.061   0.063  13.265  0.4563 -0.0818 -1.0982
 2229SOL     OW18322   1.093   4.096  11.802  0.0484  0.1746 -0.4527
 2229SOL    HW118323   1.114   4.189  11.789  1.1149  0.2676  2.1063
 2229SOL    HW218324   1.102   4.083  11.896 -2.4198 -0.9740 -0.3925
 2230SOL     OW18325   1.375   1.515   6.925  0.0228  0.1330 -0.1637
 2230SOL    HW118326   1.425   1.579   6.975  0.4864 -0.0846 -0.3548
 2230SOL    HW218327   1.308   1.497   6.992  1.3266 -1.9069  0.6028
 2231SOL     OW18328   1.752   0.521   0.544 -0.3662  0.3468  0.1474
 2231SOL    HW118329   1.777   0.443   0.594  1.1255  0.8528  0.1784
 2231SOL    HW218330   1.778   0.589   0.605 -1.5801  0.4918  0.4971
 2232SOL     OW18331   1.635   4.612  11.160  0.2433  0.4875 -0.2047
 2232SOL    HW118332   1.626   4.601  11.065 -0.8904 -0.3567 -0.0010
 2232SOL    HW218333   1.671   4.531  11.195 -2.3434 -0.5173  0.1786
 2233SOL     OW18334   0.215   1.480   3.261  0.8966 -0.8523  0.2329
 2233SOL    HW118335   0.226   1.512   3.350  0.9646 -2.5707  0.8465
 2233SOL    HW218336   0.125   1.456   3.242  1.0248 -0.9371 -0.2914
 2234SOL     OW18337   0.269   0.314  14.964 -0.4928 -0.0483 -0.1948
 2234SOL    HW118338   0.223   0.388  15.003  1.2346  0.0887  1.6077
 2234SOL    HW218339   0.292   0.267  15.044 -1.4410  1.1261  0.7604
 2235SOL     OW18340   0.280   1.720   8.001 -0.5256 -0.1690 -0.5821
 2235SOL    HW118341   0.364   1.765   8.006 -1.0175  0.9040 -2.0307
 2235SOL    HW218342   0.245   1.738   7.914  0.2303 -0.1422 -0.8774
 2236SOL     OW18343   0.292   2.212  17.739 -0.0939  0.0210  0.2714
 2236SOL    HW118344   0.283   2.117   0.005 -1.5393  0.0707 -1.0625
 2236SOL    HW218345   0.219   2.233  17.681  1.0408 -0.5569 -1.3840
 2237SOL     OW18346   3.639   1.168   3.556 -0.0634 -0.3188  0.0331
 2237SOL    HW118347   3.700   1.175   3.629 -0.9966  0.1590  0.7668
 2237SOL    HW218348   3.671   1.226   3.487  1.9395  2.0133  2.9409
 2238SOL     OW18349   4.296   4.265   7.519  0.4459 -0.1301  0.3846
 2238SOL    HW118350   4.367   4.319   7.554  0.1600 -0.2144  1.0739
 2238SOL    HW218351   4.234   4.280   7.589  0.4502  0.5308  0.2443
 2239SOL     OW18352   4.445   1.733   5.612 -0.3055  0.5879 -0.1441
 2239SOL    HW118353   4.386   1.730   5.536  0.4086 -0.2735 -0.6632
 2239SOL    HW218354   4.477   1.822   5.601 -2.0274  0.8949 -2.5181
 2240SOL     OW18355   0.136   0.977   5.896 -0.5278  0.1002  0.0155
 2240SOL    HW118356   0.191   0.997   5.819 -1.3398  0.9519 -0.3444
 2240SOL    HW218357   0.126   1.059   5.944 -0.0095 -0.5571  1.2181
 2241SOL     OW18358   3.332   0.145   3.008  0.4466 -0.2296 -0.5538
 2241SOL    HW118359   3.377   0.106   3.083  0.6777 -0.8338 -1.0087
 2241SOL    HW218360   3.303   0.072   2.954 -1.5812 -1.8114  2.6594
 2242SOL     OW18361   2.963   1.048   8.499 -0.2899  0.8064 -0.9814
 2242SOL    HW118362   2.878   1.090   8.486 -1.1077  0.1865  2.3988
 2242SOL    HW218363   3.026   1.106   8.541  1.6592 -0.7568 -1.7673
 2243SOL     OW18364   2.759   1.046  12.429 -0.8117  0.5121  0.1805
 2243SOL    HW118365   2.743   1.058  12.336  0.6359  2.9833  0.2299
 2243SOL    HW218366   2.688   1.093  12.472 -0.1010  0.4542  1.4346
 2244SOL     OW18367   3.966   1.019   6.032 -0.0315  0.4779  0.1357
 2244SOL    HW118368   3.970   1.114   6.026  0.6785  0.3976 -0.6662
 2244SOL    HW218369   3.876   1.002   6.005  0.0829  0.1193 -0.0275
 2245SOL     OW18370   2.938   2.083   3.667 -0.3523  0.3973 -0.3176
 2245SOL    HW118371   2.855   2.115   3.631 -0.6991 -1.1942 -0.9057
 2245SOL    HW218372   2.909   2.034   3.744  0.2219  1.9997  0.9360
 2246SOL     OW18373   1.917   4.174   5.913 -0.4352  0.0560 -0.3580
 2246SOL    HW118374   1.883   4.238   5.975  0.5117 -0.1487  0.3703
 2246SOL    HW218375   2.010   4.197   5.911 -0.4847  0.1557 -1.4384
 2247SOL     OW18376   1.885   4.054   4.607  0.1110 -0.1387  1.1055
 2247SOL    HW118377   1.890   3.991   4.535  1.4063  1.4868 -0.2241
 2247SOL    HW218378   1.959   4.113   4.596 -1.4357  2.3372  3.6975
 2248SOL     OW18379   1.896   1.997   3.819 -0.0617 -0.0584 -0.0420
 2248SOL    HW118380   1.828   1.962   3.762  0.3885  0.0692 -0.6561
 2248SOL    HW218381   1.907   2.084   3.782 -0.4384  0.0611  0.1277
 2249SOL     OW18382   1.400   0.635   7.662 -0.1533 -0.0503  0.2212
 2249SOL    HW118383   1.383   0.722   7.697  1.8782  0.2712  0.4465
 2249SOL    HW218384   1.445   0.644   7.578 -0.8632 -2.4710 -0.4294
 2250SOL     OW18385   4.035   1.701   7.935 -0.3903 -0.4232  0.2376
 2250SOL    HW118386   4.097   1.681   8.005  1.4770  2.3592 -0.6550
 2250SOL    HW218387   3.993   1.615   7.929 -0.9305 -0.0616 -1.0247
 2251SOL     OW18388   3.587   4.446  13.294 -0.2706 -0.1354  0.0638
 2251SOL    HW118389   3.596   4.453  13.389  0.9994 -1.8547  0.0710
 2251SOL    HW218390   3.507   4.497  13.281  0.2600  0.4478 -0.8655
 2252SOL     OW18391   3.293   4.532   0.097  0.1576 -0.2994 -0.5483
 2252SOL    HW118392   3.324   4.490   0.178 -0.5181 -2.6169 -1.4909
 2252SOL    HW218393   3.344   4.612   0.108  2.0751 -1.8817  2.0634
 2253SOL     OW18394   1.926   2.346   3.902  0.1844 -0.1866 -0.1359
 2253SOL    HW118395   1.863   2.394   3.849 -0.4722  0.2120  1.0070
 2253SOL    HW218396   1.948   2.416   3.963 -1.0603  0.1972 -0.1198
 2254SOL     OW18397   1.791   1.447  14.294  0.2881  0.3544  0.4818
 2254SOL    HW118398   1.752   1.530  14.322  0.7997  0.0672  2.0507
 2254SOL    HW218399   1.881   1.469  14.271  0.8167 -3.2134 -0.9023
 2255SOL     OW18400   0.199   1.668   0.073 -0.3822  0.2075 -0.1948
 2255SOL    HW118401   0.162   1.673  17.725  1.4321  0.6412 -0.9201
 2255SOL    HW218402   0.247   1.747   0.094 -0.6383 -0.1612  1.7454
 2256SOL     OW18403   0.841   1.599   2.808 -0.3074  0.3883  0.4818
 2256SOL    HW118404   0.930   1.595   2.845  0.0467 -0.1052 -0.4201
 2256SOL    HW218405   0.795   1.639   2.881  0.0379  0.7922  0.4774
 2257SOL     OW18406   2.971   2.417   6.792 -0.0570  0.2085 -0.3112
 2257SOL    HW118407   3.017   2.411   6.708  1.8733 -0.9379  0.8214
 2257SOL    HW218408   2.919   2.338   6.791 -0.3504  0.4180 -1.9015
 2258SOL     OW18409   4.256   1.207  11.995 -0.1859  0.5400 -0.0166
 2258SOL    HW118410   4.220   1.214  11.907  0.0041 -2.1832 -0.3094
 2258SOL    HW218411   4.200   1.137  12.029 -3.8623  2.7733 -1.4122
 2259SOL     OW18412   3.501   4.525  16.610  0.1605  0.2607  0.4054
 2259SOL    HW118413   3.551   4.577  16.546 -0.3214 -0.6530 -0.7171
 2259SOL    HW218414   3.449   4.601  16.633 -0.4808 -0.1894  0.4286
 2260SOL     OW18415   3.164   2.743  13.672 -0.3685  0.0741  0.2473
 2260SOL    HW118416   3.118   2.827  13.670 -0.8137 -0.1534  1.0956
 2260SOL    HW218417   3.228   2.756  13.741 -2.0529 -0.4623  1.9016
 2261SOL     OW18418   4.331   2.061   2.827  0.1597  0.0729 -0.0602
 2261SOL    HW118419   4.290   2.090   2.746  0.5037 -0.8914 -0.5668
 2261SOL    HW218420   4.315   2.143   2.875 -0.9406 -0.2497  0.1320
 2262SOL     OW18421   0.090   2.392   4.712  0.1751 -0.4111 -0.2697
 2262SOL    HW118422   0.110   2.320   4.652 -0.3287 -0.4269 -0.4225
 2262SOL    HW218423   4.735   2.376   4.741  0.6315  0.3678  1.6034
 2263SOL     OW18424   2.063   3.630   5.039  0.0350 -0.2474 -0.5343
 2263SOL    HW118425   2.073   3.621   5.134  1.1153  0.8667 -0.5356
 2263SOL    HW218426   2.154   3.649   5.015 -0.5182  0.5950 -1.9471
 2264SOL     OW18427   2.785   2.701  12.518  0.6968  0.2713 -0.2053
 2264SOL    HW118428   2.797   2.796  12.519 -0.0083  0.3703 -1.0353
 2264SOL    HW218429   2.839   2.683  12.441 -0.2784  0.3323 -0.9001
 2265SOL     OW18430   1.600   3.522   2.737  0.0636  0.5449 -0.4291
 2265SOL    HW118431   1.649   3.504   2.818 -0.1207  2.1096  0.0337
 2265SOL    HW218432   1.544   3.446   2.722 -0.3237  1.1260 -1.8573
 2266SOL     OW18433   0.579   0.383  16.084  0.3191  0.1981  0.0215
 2266SOL    HW118434   0.492   0.342  16.077  0.5079 -0.6657  2.7659
 2266SOL    HW218435   0.579   0.406  16.177  1.0013 -0.4371  0.1796
 2267SOL     OW18436   3.507   3.307   6.422 -0.0100  0.5422 -0.0672
 2267SOL    HW118437   3.517   3.212   6.422 -1.8609  0.3500 -0.7524
 2267SOL    HW218438   3.589   3.323   6.375  1.2521 -0.8322  1.6659
 2268SOL     OW18439   0.425   2.831   4.034 -0.6203 -0.3742  0.4891
 2268SOL    HW118440   0.334   2.843   4.062 -0.8883 -1.0492 -0.0913
 2268SOL    HW218441   0.422   2.769   3.962 -0.1682 -0.7727  0.8186
 2269SOL     OW18442   4.705   0.465  17.270 -0.6748  0.4263 -0.5146
 2269SOL    HW118443   0.019   0.509  17.339 -1.3051  0.1091  0.1453
 2269SOL    HW218444   4.691   0.374  17.297 -1.9948 -0.3352 -3.7248
 2270SOL     OW18445   2.987   2.141  16.953  0.6206  0.5203  0.2325
 2270SOL    HW118446   3.028   2.086  17.020  1.3442  1.4990  0.5858
 2270SOL    HW218447   3.055   2.153  16.887  3.0419 -2.0396  2.2904
 2271SOL     OW18448   1.515   4.456   7.859 -0.1410 -0.4420  0.2612
 2271SOL    HW118449   1.455   4.405   7.915 -2.0661  1.4832 -0.0296
 2271SOL    HW218450   1.601   4.424   7.885 -0.0755 -0.2023  0.3416
 2272SOL     OW18451   4.183   2.081  14.424  0.2363  0.2601 -0.3433
 2272SOL    HW118452   4.129   2.140  14.373 -0.2125 -2.6503 -3.2576
 2272SOL    HW218453   4.111   2.028  14.458  0.6910 -0.7611 -0.9702
 2273SOL     OW18454   0.447   1.310   8.672  0.2428 -0.2213  0.2318
 2273SOL    HW118455   0.369   1.342   8.628  0.6434  0.7068  0.2015
 2273SOL    HW218456   0.498   1.391   8.674  0.4538 -0.3771  1.2978
 2274SOL     OW18457   3.350   3.528   8.638  0.4050 -0.1952 -0.1638
 2274SOL    HW118458   3.312   3.616   8.633 -1.6016 -0.9671  1.5134
 2274SOL    HW218459   3.425   3.533   8.579 -1.4069  0.1739 -2.4915
 2275SOL     OW18460   2.136   0.033   1.704 -0.0452 -0.3423  0.0984
 2275SOL    HW118461   2.217   0.083   1.716  0.1316 -1.0920  2.1274
 2275SOL    HW218462   2.072   0.103   1.691  0.3442 -0.2958 -1.4625
 2276SOL     OW18463   4.230   3.663   4.632  0.6986 -0.3742 -0.0461
 2276SOL    HW118464   4.314   3.670   4.679  0.6012  0.6911 -0.0279
 2276SOL    HW218465   4.234   3.726   4.560 -1.3542 -1.6745 -1.3038
 2277SOL     OW18466   2.296   4.005   5.531 -0.0699  0.2782 -0.4997
 2277SOL    HW118467   2.309   3.912   5.515  0.3836  0.2385  0.1109
 2277SOL    HW218468   2.219   4.018   5.586  0.3135  2.2486 -0.4311
 2278SOL     OW18469   0.820   3.391   3.591  0.3083  0.0194 -0.3654
 2278SOL    HW118470   0.874   3.463   3.559  1.9848 -0.5049  1.2434
 2278SOL    HW218471   0.759   3.439   3.648  1.5594  2.6313 -1.2224
 2279SOL     OW18472   2.552   2.069   7.617  0.1051 -0.1649 -0.2655
 2279SOL    HW118473   2.518   2.029   7.537 -0.9230  2.7948 -1.2969
 2279SOL    HW218474   2.639   2.100   7.591 -0.0743  2.2416  2.0098
 2280SOL     OW18475   3.633   0.696  15.683  0.2610 -0.0563 -0.0316
 2280SOL    HW118476   3.570   0.669  15.749  0.1722 -0.2243 -0.1850
 2280SOL    HW218477   3.657   0.787  15.702 -0.8165 -0.0972  1.4824
 2281SOL     OW18478   0.728   0.711   4.009  0.0810 -1.0310 -0.1057
 2281SOL    HW118479   0.665   0.728   3.938  1.0016 -0.4993 -0.7955
 2281SOL    HW218480   0.739   0.800   4.043  0.6776 -1.4376  0.7614
 2282SOL     OW18481   0.952   2.995   6.542  0.0118  0.4973 -0.1067
 2282SOL    HW118482   1.004   3.013   6.620  0.8243 -0.5654 -0.4004
 2282SOL    HW218483   1.013   3.030   6.477  1.7906 -0.6613  0.9424
 2283SOL     OW18484   2.052   2.816   7.124  0.6510  0.1012 -0.2113
 2283SOL    HW118485   2.094   2.730   7.133 -0.4827 -0.5819 -1.3191
 2283SOL    HW218486   2.103   2.874   7.180  0.0616  0.8467 -0.4430
 2284SOL     OW18487   1.066   3.870   9.560 -0.4868  0.0363 -0.0855
 2284SOL    HW118488   1.047   3.786   9.518  1.1801  0.1532 -1.0461
 2284SOL    HW218489   1.059   3.841   9.651 -1.1649 -0.2530 -0.2307
 2285SOL     OW18490   1.638   1.091  14.687  0.1221  0.2080 -0.2664
 2285SOL    HW118491   1.651   1.176  14.646  0.9064  0.5854  0.7736
 2285SOL    HW218492   1.542   1.086  14.683  0.0151  0.5484  1.7286
 2286SOL     OW18493   3.170   0.856   5.034  0.1733  0.5181 -0.1626
 2286SOL    HW118494   3.084   0.889   5.056 -0.3591 -0.0537 -1.3947
 2286SOL    HW218495   3.220   0.895   5.106  1.1107 -0.9413  0.0024
 2287SOL     OW18496   1.088   2.191   1.110 -0.0007 -0.3680  0.2845
 2287SOL    HW118497   1.144   2.121   1.142  1.6135  1.2494  0.9668
 2287SOL    HW218498   1.055   2.233   1.189 -0.4232  1.2405 -0.7319
 2288SOL     OW18499   3.238   0.527   6.431  0.1961  0.2693  0.2317
 2288SOL    HW118500   3.223   0.447   6.482  1.3914  0.4075  0.7790
 2288SOL    HW218501   3.329   0.547   6.452  0.3411 -1.0527  0.8762
 2289SOL     OW18502   3.055   3.891   1.762 -0.2784  0.0396  0.1266
 2289SOL    HW118503   3.074   3.871   1.854 -1.6448 -0.6642  0.2566
 2289SOL    HW218504   2.992   3.960   1.780 -0.2399 -0.3011  1.5223
 2290SOL     OW18505   0.086   0.472   7.420 -0.4448 -0.2253 -0.0360
 2290SOL    HW118506   0.030   0.427   7.356 -1.4653  0.8002  0.1329
 2290SOL    HW218507   0.081   0.416   7.497  0.4450  0.1213  0.2752
 2291SOL     OW18508   1.590   1.829   8.254  0.1612 -0.7582 -0.3975
 2291SOL    HW118509   1.509   1.782   8.234 -0.5234  1.0279 -1.9271
 2291SOL    HW218510   1.587   1.873   8.168  0.5281 -0.0834 -0.0648
 2292SOL     OW18511   0.752   0.100   2.128  0.4560  0.2983  0.3025
 2292SOL    HW118512   0.659   0.086   2.114  0.6202 -2.5722  2.0486
 2292SOL    HW218513   0.784   0.158   2.059  1.8185 -1.0579 -0.2086
 2293SOL     OW18514   0.556   1.144   3.503 -0.0394  0.1834  0.6028
 2293SOL    HW118515   0.629   1.083   3.517  0.5042  0.8300  0.5727
 2293SOL    HW218516   0.560   1.151   3.407  2.4732 -1.0194  0.6130
 2294SOL     OW18517   1.026   4.137  14.738 -0.3178  0.1989 -0.6960
 2294SOL    HW118518   0.936   4.117  14.764 -0.3302 -0.3254 -1.1609
 2294SOL    HW218519   1.006   4.203  14.672 -1.9321  0.6473  0.2399
 2295SOL     OW18520   2.313   3.990   9.191  0.1568  0.3681  0.3894
 2295SOL    HW118521   2.322   3.895   9.194  2.1439  0.5337 -0.4204
 2295SOL    HW218522   2.402   4.015   9.169 -0.0801  1.8138  1.0772
 2296SOL     OW18523   0.966   0.179   7.096  0.9613  0.1078 -0.3833
 2296SOL    HW118524   0.997   0.269   7.101 -1.1405  0.8552 -0.8112
 2296SOL    HW218525   1.052   0.136   7.086  0.1526 -1.5191 -0.3507
 2297SOL     OW18526   2.910   4.005  14.144  0.0010  0.0731  0.3144
 2297SOL    HW118527   2.937   3.919  14.179 -0.0961 -1.2275 -2.8214
 2297SOL    HW218528   2.986   4.055  14.173  1.1714 -1.1814 -0.5983
 2298SOL     OW18529   1.895   3.389   9.807  0.7648  0.4211 -0.0264
 2298SOL    HW118530   1.843   3.429   9.738 -1.9519 -1.8259  0.6955
 2298SOL    HW218531   1.968   3.355   9.755  0.6508 -0.5026  0.4116
 2299SOL     OW18532   1.885   1.969   2.866  0.2690  0.1707  0.2660
 2299SOL    HW118533   1.917   1.884   2.898  1.5650  0.6843  0.3113
 2299SOL    HW218534   1.968   2.011   2.847  1.0167 -2.7313 -2.8900
 2300SOL     OW18535   2.322   2.362   5.161  0.0695 -0.0347 -0.4195
 2300SOL    HW118536   2.242   2.341   5.111 -0.3237 -1.4906  0.8370
 2300SOL    HW218537   2.373   2.369   5.080 -2.4548  1.1772 -1.9151
 2301SOL     OW18538   4.054   2.710  16.735  0.1974  0.2773 -0.0002
 2301SOL    HW118539   4.090   2.636  16.783  0.3116  0.0983 -0.3628
 2301SOL    HW218540   4.028   2.664  16.655 -0.9746 -0.3334  0.7491
 2302SOL     OW18541   1.625   2.984   2.383 -0.4715 -0.0215 -0.2015
 2302SOL    HW118542   1.541   3.017   2.415 -1.1875 -1.0804 -0.9557
 2302SOL    HW218543   1.686   3.055   2.404  0.7854 -0.7778 -1.3235
 2303SOL     OW18544   0.595   2.073   2.858 -0.3485 -0.1223 -0.2441
 2303SOL    HW118545   0.654   2.142   2.888  0.6638 -0.5368 -1.2948
 2303SOL    HW218546   0.612   2.004   2.923 -2.6556 -0.5644 -0.0984
 2304SOL     OW18547   2.496   4.030  17.086 -0.0962  0.6566 -0.9015
 2304SOL    HW118548   2.536   4.117  17.090 -0.4968  0.8091 -0.2363
 2304SOL    HW218549   2.419   4.030  17.143  0.8333  0.8056  0.3399
 2305SOL     OW18550   1.745   0.489   4.460 -0.3515 -0.0471  0.4496
 2305SOL    HW118551   1.754   0.394   4.452 -0.1602  0.1986 -2.2473
 2305SOL    HW218552   1.770   0.512   4.371 -0.5854 -1.2346  0.0714
 2306SOL     OW18553   3.751   0.796  13.263  0.0995 -0.3763 -0.3994
 2306SOL    HW118554   3.753   0.843  13.180  2.7719 -0.4294 -0.3820
 2306SOL    HW218555   3.732   0.704  13.246  0.4468 -0.3413 -0.9545
 2307SOL     OW18556   2.842   0.178   3.509  0.4545 -0.1215  0.0230
 2307SOL    HW118557   2.895   0.157   3.586 -1.8043  0.5866  1.7656
 2307SOL    HW218558   2.769   0.117   3.518 -0.3190  0.4710 -2.1555
 2308SOL     OW18559   0.439   1.612   3.093 -0.1331 -0.0741  0.5988
 2308SOL    HW118560   0.394   1.692   3.120  0.5067  0.2309  0.7676
 2308SOL    HW218561   0.367   1.550   3.084 -0.3576  0.5132 -1.7020
 2309SOL     OW18562   4.028   1.177   4.833  0.4008 -0.4522 -0.1648
 2309SOL    HW118563   3.949   1.227   4.810 -0.2510 -1.3960  0.0143
 2309SOL    HW218564   4.028   1.175   4.929 -0.0666 -0.0811 -0.1536
 2310SOL     OW18565   3.338   4.410   0.849 -0.1322  0.3129 -0.2171
 2310SOL    HW118566   3.354   4.502   0.873 -1.7812  0.0954  1.6871
 2310SOL    HW218567   3.342   4.378   0.939  0.8739  1.0558  0.0109
 2311SOL     OW18568   4.158   2.724   2.968  0.2941  0.2043  0.7157
 2311SOL    HW118569   4.159   2.762   2.880  1.5828 -2.7937 -0.5541
 2311SOL    HW218570   4.105   2.645   2.957 -0.1380  0.5023  0.6443
 2312SOL     OW18571   3.044   1.881   7.598 -0.4511  0.1934 -0.3552
 2312SOL    HW118572   3.057   1.922   7.684 -0.6460  1.0901 -0.7554
 2312SOL    HW218573   3.102   1.806   7.610  0.8192  1.1361 -0.6379
 2313SOL     OW18574   0.895   2.584   2.904 -0.2664  0.7078 -0.5807
 2313SOL    HW118575   0.982   2.555   2.875 -0.5981  1.2021 -2.0981
 2313SOL    HW218576   0.917   2.677   2.910 -0.6788  0.6902  1.1139
 2314SOL     OW18577   2.322   1.815  13.462  0.3028  0.1534  0.8364
 2314SOL    HW118578   2.253   1.771  13.512  0.4766  0.7436  1.6042
 2314SOL    HW218579   2.349   1.899  13.500  1.3359  1.2901 -2.4802
 2315SOL     OW18580   0.810   0.977   5.788 -0.0091  0.3877  0.3837
 2315SOL    HW118581   0.887   0.967   5.732 -0.8176  3.3981 -1.2448
 2315SOL    HW218582   0.740   0.950   5.728 -1.9659 -0.0551  2.8132
 2316SOL     OW18583   3.616   0.630   5.599  0.0848  0.3674  0.6484
 2316SOL    HW118584   3.708   0.634   5.573  0.2678  1.3701  1.4474
 2316SOL    HW218585   3.605   0.697   5.666  0.0774  1.2807 -0.2614
 2317SOL     OW18586   0.231   0.695  10.739 -0.3313 -0.1233  0.0092
 2317SOL    HW118587   0.245   0.637  10.814 -2.0644 -0.5470  0.0031
 2317SOL    HW218588   0.177   0.644  10.678 -1.2816  0.1100  0.6551
 2318SOL     OW18589   3.107   0.652   9.673  0.4706  0.1940  0.1175
 2318SOL    HW118590   3.055   0.726   9.643  1.8458  1.2698  0.4281
 2318SOL    HW218591   3.056   0.639   9.754 -1.5973 -0.8848 -1.3357
 2319SOL     OW18592   2.866   3.119   4.864 -0.2471 -0.0265 -0.1495
 2319SOL    HW118593   2.853   3.024   4.858 -0.4184 -0.0152  0.0186
 2319SOL    HW218594   2.950   3.130   4.819  0.8004  0.9542  2.0479
 2320SOL     OW18595   0.129   4.613   7.987 -0.4169 -0.4923 -0.2957
 2320SOL    HW118596   0.201   4.552   7.971  2.1775  2.7104 -0.8041
 2320SOL    HW218597   0.107   4.582   8.075 -0.5529  0.2307 -0.0743
 2321SOL     OW18598   0.238   0.508   1.569  0.4012 -0.2256 -0.1802
 2321SOL    HW118599   0.251   0.592   1.526  2.2646  0.5849  1.9480
 2321SOL    HW218600   0.265   0.449   1.499  2.2417  2.1430 -1.4586
 2322SOL     OW18601   1.057   3.877  10.413  0.0916  0.2761 -0.2664
 2322SOL    HW118602   0.996   3.942  10.376 -1.1322 -0.4218  0.5189
 2322SOL    HW218603   1.054   3.815  10.340  3.1696 -0.2209  0.0340
 2323SOL     OW18604   2.020   3.374   4.371  0.2140  0.6453 -0.5354
 2323SOL    HW118605   2.040   3.327   4.452 -1.1736  0.4944 -0.2758
 2323SOL    HW218606   1.967   3.309   4.324  1.4529  0.0924 -1.1548
 2324SOL     OW18607   0.949   4.236   5.239  0.3600 -0.3198  0.4351
 2324SOL    HW118608   0.871   4.270   5.194 -0.6903 -1.0962  1.6593
 2324SOL    HW218609   0.919   4.243   5.330 -1.0867  1.6080 -0.1918
 2325SOL     OW18610   0.567   3.039   4.154 -0.2970  0.1165 -0.4433
 2325SOL    HW118611   0.512   2.981   4.101  2.0038 -0.2163 -2.4676
 2325SOL    HW218612   0.512   3.118   4.159  1.0592  0.9663  0.9098
 2326SOL     OW18613   0.405   3.988  17.314 -0.3624  0.4240 -0.0248
 2326SOL    HW118614   0.413   3.898  17.346  0.9142 -0.1226 -1.9288
 2326SOL    HW218615   0.337   4.027  17.369 -2.0332 -0.6883 -1.2949
 2327SOL     OW18616   4.134   2.752  13.905  0.6624  0.6463  0.8950
 2327SOL    HW118617   4.095   2.712  13.983 -0.3463 -0.2724 -0.0748
 2327SOL    HW218618   4.172   2.672  13.867 -0.5451  0.7513 -0.5313
 2328SOL     OW18619   2.846   1.044  13.034 -0.5868  0.5695  0.4602
 2328SOL    HW118620   2.921   1.052  13.094  0.3123  0.3791 -0.6393
 2328SOL    HW218621   2.864   1.122  12.981 -1.4463  1.0422  0.8625
 2329SOL     OW18622   4.584   3.578   8.467 -0.2386  0.2646  0.1532
 2329SOL    HW118623   4.553   3.639   8.399  0.2510  1.4977  1.0407
 2329SOL    HW218624   4.628   3.638   8.527 -1.1465  1.5202 -0.4268
 2330SOL     OW18625   1.649   1.817  16.045  0.4424  0.0616 -0.5484
 2330SOL    HW118626   1.714   1.879  16.079  0.7109  0.2341 -1.3712
 2330SOL    HW218627   1.577   1.876  16.023  2.8448  2.9585 -0.7443
 2331SOL     OW18628   0.310   3.467   5.173 -0.5148 -0.0233 -0.0877
 2331SOL    HW118629   0.292   3.388   5.225  2.5292  0.3100  1.4611
 2331SOL    HW218630   0.405   3.462   5.165 -0.4013  0.3223  1.0473
 2332SOL     OW18631   3.733   2.268  10.775  0.1488  0.3741  0.7005
 2332SOL    HW118632   3.814   2.223  10.753 -0.3098  1.3101 -2.8616
 2332SOL    HW218633   3.681   2.191  10.799 -0.8184  0.2539 -1.8008
 2333SOL     OW18634   4.129   3.773   7.529 -0.7665 -0.2543  0.3387
 2333SOL    HW118635   4.091   3.762   7.442 -1.3496  1.1532  0.4189
 2333SOL    HW218636   4.206   3.828   7.515 -0.8798 -0.5380 -1.3951
 2334SOL     OW18637   0.729   3.879   2.202  0.0744  0.7789  0.1031
 2334SOL    HW118638   0.732   3.866   2.297 -3.3630  1.9187  0.3660
 2334SOL    HW218639   0.653   3.936   2.198  1.5328  2.8262  1.7129
 2335SOL     OW18640   2.424   4.649   4.962 -0.4542  0.5509  0.1558
 2335SOL    HW118641   2.367   4.595   5.017 -1.6500  0.9673 -0.7049
 2335SOL    HW218642   2.511   4.609   4.972 -2.0309 -2.6530  1.0296
 2336SOL     OW18643   4.036   3.378  12.610  0.2808 -0.0978 -0.2403
 2336SOL    HW118644   4.130   3.373  12.627  0.0588 -1.4367  0.6213
 2336SOL    HW218645   4.027   3.441  12.539 -2.0614  0.4513  0.5431
 2337SOL     OW18646   1.544   2.954   4.423  0.1025 -0.0172 -0.2427
 2337SOL    HW118647   1.552   3.013   4.348 -0.1803  1.4715  0.8872
 2337SOL    HW218648   1.453   2.962   4.450  0.1231 -1.5861  0.2658
 2338SOL     OW18649   2.147   4.730   6.995 -0.1786  0.2452 -0.1311
 2338SOL    HW118650   2.116   4.731   6.905  0.0749 -0.9375 -0.2239
 2338SOL    HW218651   2.232   0.038   6.994 -1.2926  2.3876 -1.6215
 2339SOL     OW18652   1.086   2.922   4.726  0.0537  0.2777  0.1596
 2339SOL    HW118653   1.099   2.900   4.819  0.8679 -0.4937 -0.1352
 2339SOL    HW218654   1.141   2.859   4.679  1.2628  1.8083 -0.4335
 2340SOL     OW18655   3.328   2.885   9.092 -0.2113  0.3057  0.3098
 2340SOL    HW118656   3.251   2.937   9.071 -0.9963 -0.7070  0.7247
 2340SOL    HW218657   3.291   2.797   9.089  0.5759 -0.0609  1.2270
 2341SOL     OW18658   2.418   0.197  11.862  0.2938  0.1791  0.1675
 2341SOL    HW118659   2.362   0.166  11.790  1.4422 -0.2638 -0.5342
 2341SOL    HW218660   2.446   0.286  11.841 -2.6730  1.3447  1.0912
 2342SOL     OW18661   3.837   0.108   8.658  0.1209  0.0768  0.6127
 2342SOL    HW118662   3.793   0.075   8.736 -0.6071  0.2153  0.2550
 2342SOL    HW218663   3.906   0.042   8.656 -0.0827 -0.0906 -0.6647
 2343SOL     OW18664   1.624   0.196   6.030 -0.1171  0.0226 -0.1763
 2343SOL    HW118665   1.614   0.147   5.949 -0.2033 -1.9062  0.9916
 2343SOL    HW218666   1.551   0.258   6.018 -0.0962  0.5376  2.2012
 2344SOL     OW18667   0.788   4.337  15.931  0.0679 -0.2463 -0.7184
 2344SOL    HW118668   0.799   4.365  15.840  0.3081 -0.1155 -0.6500
 2344SOL    HW218669   0.692   4.328  15.935  0.0022  1.1228  0.9653
 2345SOL     OW18670   2.091   2.244  11.511  0.2829 -0.1132 -0.3521
 2345SOL    HW118671   2.095   2.149  11.522  0.7541 -0.2298 -1.5636
 2345SOL    HW218672   2.001   2.259  11.542  0.7068  2.7662 -0.5501
 2346SOL     OW18673   1.108   0.805   2.516  0.0410  0.0812 -0.1685
 2346SOL    HW118674   1.146   0.858   2.585 -1.2402  0.7822  0.0140
 2346SOL    HW218675   1.170   0.819   2.445  1.0845 -1.7377  0.3948
 2347SOL     OW18676   1.263   1.495  16.567  0.0464  0.0370 -0.5385
 2347SOL    HW118677   1.235   1.460  16.651  1.0039 -1.6438 -0.9209
 2347SOL    HW218678   1.239   1.586  16.583 -2.4744 -0.9594  1.2149
 2348SOL     OW18679   1.469   3.155   3.069  0.3652 -0.5007 -0.8330
 2348SOL    HW118680   1.519   3.104   3.005  0.2823 -2.0690  0.3484
 2348SOL    HW218681   1.381   3.155   3.029  0.5492 -0.4645 -1.2365
 2349SOL     OW18682   3.435   3.074   7.038 -0.3952 -0.4094 -0.2137
 2349SOL    HW118683   3.464   3.006   6.977  1.7346  0.7105 -0.4613
 2349SOL    HW218684   3.510   3.068   7.096 -0.1705 -1.0909 -0.5828
 2350SOL     OW18685   2.214   0.224   8.504 -0.1003  0.5196 -0.7753
 2350SOL    HW118686   2.214   0.269   8.589  1.3363 -1.3969  0.2402
 2350SOL    HW218687   2.193   0.297   8.446  0.6245  1.4408  0.1232
 2351SOL     OW18688   4.572   3.771   5.002  0.3460 -0.4763 -0.2030
 2351SOL    HW118689   4.641   3.705   5.008  1.0520  0.0387 -2.8198
 2351SOL    HW218690   4.507   3.705   5.028 -0.3630  0.6760  0.9800
 2352SOL     OW18691   2.799   3.001  12.588  0.7857  0.0230  0.3736
 2352SOL    HW118692   2.858   2.970  12.657  2.5441 -0.0314 -1.1498
 2352SOL    HW218693   2.854   3.070  12.550  0.0501 -0.3440 -1.3051
 2353SOL     OW18694   1.353   0.808  14.099  0.2847 -0.2516  0.3066
 2353SOL    HW118695   1.406   0.875  14.142  1.7266 -0.8439 -0.5566
 2353SOL    HW218696   1.416   0.768  14.039  0.9067  1.7915 -0.3875
 2354SOL     OW18697   2.112   3.103  11.714  0.2351 -0.0844  0.5186
 2354SOL    HW118698   2.086   3.185  11.671  0.3861  0.4989  1.5467
 2354SOL    HW218699   2.029   3.061  11.736  1.6264 -3.5957 -1.0330
 2355SOL     OW18700   4.341   4.621   6.806  0.1637 -0.0275 -0.3372
 2355SOL    HW118701   4.294   4.577   6.877 -1.0260 -2.6733 -2.7912
 2355SOL    HW218702   4.342   4.550   6.742  0.3792  0.0236 -0.3916
 2356SOL     OW18703   1.137   0.718   5.017  0.1275 -1.0546  0.0072
 2356SOL    HW118704   1.071   0.741   5.082  0.9027  0.7903  0.1426
 2356SOL    HW218705   1.218   0.735   5.066 -0.8552 -0.4251  1.4045
 2357SOL     OW18706   2.237   1.396  17.213 -0.4815 -0.7593 -0.0893
 2357SOL    HW118707   2.249   1.461  17.144 -0.6985  0.3965  0.9691
 2357SOL    HW218708   2.270   1.312  17.181 -0.2247 -0.7269  0.0848
 2358SOL     OW18709   0.530   1.813  12.018 -0.6706 -0.1727 -0.1832
 2358SOL    HW118710   0.509   1.720  12.030 -0.1673 -0.5460 -2.2768
 2358SOL    HW218711   0.603   1.821  11.957  2.4024  3.1101  3.8572
 2359SOL     OW18712   3.757   4.735   7.545 -0.5667 -0.1077  0.6896
 2359SOL    HW118713   3.838   0.002   7.596  0.0762  0.5662 -0.3832
 2359SOL    HW218714   3.744   4.641   7.531 -1.1858 -0.1000  1.1881
 2360SOL     OW18715   0.462   3.681   8.096  0.4003 -0.3939  0.2981
 2360SOL    HW118716   0.542   3.727   8.120  1.6192 -1.6652 -1.3686
 2360SOL    HW218717   0.423   3.664   8.182 -1.5741 -0.3556 -0.5670
 2361SOL     OW18718   4.690   3.634   9.685 -0.4986  0.3347 -0.8955
 2361SOL    HW118719   4.623   3.619   9.619 -2.8653 -1.7525  1.9635
 2361SOL    HW218720   4.697   3.555   9.739  1.2396  1.6136  0.7809
 2362SOL     OW18721   4.624   0.413  12.325 -0.0971 -0.2353 -0.1672
 2362SOL    HW118722   4.678   0.487  12.300  0.8240 -1.2227 -1.1102
 2362SOL    HW218723   4.543   0.452  12.358 -0.3070  0.3706 -1.4275
 2363SOL     OW18724   2.285   1.208   6.835  0.5484 -0.5605  0.4298
 2363SOL    HW118725   2.274   1.233   6.744  0.0193  0.0066  0.6450
 2363SOL    HW218726   2.277   1.114   6.822 -4.3008 -0.1210  0.3529
 2364SOL     OW18727   3.876   0.372  10.672 -0.7888  0.3668 -0.0830
 2364SOL    HW118728   3.948   0.431  10.694  0.3697 -0.6448 -1.0720
 2364SOL    HW218729   3.918   0.297  10.629 -0.6101  0.3841  0.0617
 2365SOL     OW18730   1.877   4.129  10.374  0.4651 -0.3776 -0.1172
 2365SOL    HW118731   1.893   4.048  10.326 -1.1615 -0.4982 -0.4583
 2365SOL    HW218732   1.917   4.187  10.309  0.8609  0.1239  0.5789
 2366SOL     OW18733   1.708   3.809   4.231 -0.2724  0.1461  0.6778
 2366SOL    HW118734   1.712   3.782   4.139 -0.1630  0.2425  0.6538
 2366SOL    HW218735   1.742   3.724   4.258  1.4378  0.1845 -1.3297
 2367SOL     OW18736   3.984   2.202   6.483 -0.7494 -0.1283  0.2536
 2367SOL    HW118737   3.979   2.294   6.459  1.7956 -0.4020 -1.3149
 2367SOL    HW218738   3.895   2.170   6.467 -0.0945 -1.0601 -1.5575
 2368SOL     OW18739   3.096   0.962   0.320 -0.2550  0.2423 -0.1395
 2368SOL    HW118740   3.177   0.989   0.276  0.5746 -0.7826  0.7887
 2368SOL    HW218741   3.042   0.937   0.245 -0.0485 -1.2132  0.1997
 2369SOL     OW18742   2.368   3.472  14.554 -0.2650 -0.0291  0.1514
 2369SOL    HW118743   2.329   3.477  14.642 -0.1205 -1.6285  0.2992
 2369SOL    HW218744   2.439   3.536  14.565  0.1976 -0.4314 -0.5753
 2370SOL     OW18745   3.033   0.497  13.948  0.3951 -0.1983 -0.0697
 2370SOL    HW118746   2.946   0.517  13.982 -0.5420 -2.9706 -0.8495
 2370SOL    HW218747   3.009   0.431  13.883 -0.4735 -0.3066  0.3615
 2371SOL     OW18748   1.238   1.013   2.710 -0.0173  0.3105 -0.2971
 2371SOL    HW118749   1.249   1.056   2.624 -0.5541  0.6097 -0.2162
 2371SOL    HW218750   1.259   1.088   2.765  0.7106  1.0197 -1.5386
 2372SOL     OW18751   3.588   1.942   2.021 -0.0411 -0.0824  0.1770
 2372SOL    HW118752   3.650   1.870   2.008  0.1615  0.4934 -1.9921
 2372SOL    HW218753   3.643   2.019   2.006 -1.3353  0.6576 -0.7250
 2373SOL     OW18754   1.802   0.923  16.114  0.0760  0.0712  0.0913
 2373SOL    HW118755   1.771   0.930  16.023 -1.5582 -1.5015  0.5451
 2373SOL    HW218756   1.795   1.018  16.129  2.2787  0.0886  0.9539
 2374SOL     OW18757   3.400   2.612   1.894  0.1487 -0.0635 -0.6021
 2374SOL    HW118758   3.373   2.685   1.839 -1.7579  0.2855  0.7890
 2374SOL    HW218759   3.493   2.626   1.876  0.6748 -2.7131  0.0123
 2375SOL     OW18760   4.497   3.809  16.966 -0.2060  0.3294  0.3857
 2375SOL    HW118761   4.538   3.796  16.880 -0.5856 -0.8704  0.3900
 2375SOL    HW218762   4.575   3.787  17.016 -1.0834 -1.8401  0.7900
 2376SOL     OW18763   3.226   3.348   6.401  0.1860  0.0850  0.4397
 2376SOL    HW118764   3.210   3.268   6.451 -0.3552  0.2142  0.4680
 2376SOL    HW218765   3.320   3.336   6.383  0.2506 -0.2300  0.9801
 2377SOL     OW18766   2.482   3.222   5.378  0.6933 -0.0598  0.3524
 2377SOL    HW118767   2.490   3.279   5.301 -0.1360  0.2717  0.5156
 2377SOL    HW218768   2.556   3.161   5.368  0.8130  0.5135 -2.4026
 2378SOL     OW18769   0.554   2.515   3.620  0.0391 -0.6329  0.6918
 2378SOL    HW118770   0.513   2.436   3.656 -1.2311 -0.5735 -0.6332
 2378SOL    HW218771   0.640   2.476   3.635  1.2285  1.6267 -0.3636
 2379SOL     OW18772   2.656   4.563   7.851  0.3919 -0.7956  0.5543
 2379SOL    HW118773   2.678   4.471   7.865 -1.7334 -1.3777  0.0321
 2379SOL    HW218774   2.561   4.559   7.840  0.4435 -3.1535  0.9660
 2380SOL     OW18775   2.179   0.763   4.882 -0.0644  0.0729 -0.3972
 2380SOL    HW118776   2.254   0.704   4.892 -0.2928 -0.5015 -2.0103
 2380SOL    HW218777   2.129   0.712   4.817  0.5680  0.1051 -0.9103
 2381SOL     OW18778   2.958   2.570   3.777  0.1152  0.2598  0.0598
 2381SOL    HW118779   2.953   2.479   3.806 -0.9115  0.7355  1.3540
 2381SOL    HW218780   2.925   2.568   3.687  2.2198 -0.8813 -0.6839
 2382SOL     OW18781   2.439   2.727   4.648 -0.5536  0.0513  0.2324
 2382SOL    HW118782   2.516   2.781   4.628  0.4507 -1.6530 -0.4968
 2382SOL    HW218783   2.381   2.797   4.679  0.6947  0.7071  1.0796
 2383SOL     OW18784   3.642   3.539  12.777 -0.1716 -0.4919 -0.2031
 2383SOL    HW118785   3.660   3.458  12.731  1.3124  0.6072 -1.5158
 2383SOL    HW218786   3.636   3.607  12.710 -1.9427 -0.3763  0.0492
 2384SOL     OW18787   4.448   3.264   8.115  0.0968  0.1176 -0.5555
 2384SOL    HW118788   4.521   3.274   8.175 -0.5697 -1.0320  0.4306
 2384SOL    HW218789   4.384   3.301   8.176  0.0016  1.4489 -1.4428
 2385SOL     OW18790   2.421   2.383   2.705  0.0284 -0.2731  0.5183
 2385SOL    HW118791   2.357   2.370   2.635 -1.3170  0.8168  1.5533
 2385SOL    HW218792   2.376   2.431   2.774  2.1858 -0.1345  1.8295
 2386SOL     OW18793   2.873   2.601   4.572 -0.1972 -0.4810 -0.3197
 2386SOL    HW118794   2.815   2.675   4.593  0.2184  0.0760 -1.1563
 2386SOL    HW218795   2.953   2.631   4.615  0.0921 -1.9498  0.1939
 2387SOL     OW18796   3.431   0.360   7.194 -0.5003  0.5431  0.0602
 2387SOL    HW118797   3.511   0.308   7.197 -0.1356  1.2756  3.3427
 2387SOL    HW218798   3.425   0.394   7.105  0.9370 -0.1874 -0.3129
 2388SOL     OW18799   2.806   2.659   6.569 -0.3068  0.1563  0.0181
 2388SOL    HW118800   2.728   2.706   6.541 -0.3535  0.6729  0.9994
 2388SOL    HW218801   2.816   2.701   6.655 -0.1815 -2.2805  1.1877
 2389SOL     OW18802   4.088   4.251   3.743  0.0780  0.0982 -0.3168
 2389SOL    HW118803   4.150   4.276   3.675 -0.0981 -0.4649 -0.6775
 2389SOL    HW218804   4.152   4.274   3.810  0.0058 -0.8608  0.0855
 2390SOL     OW18805   2.799   0.359   3.891 -0.2707  0.1482  0.5241
 2390SOL    HW118806   2.842   0.426   3.838 -0.3216 -0.9443 -0.9024
 2390SOL    HW218807   2.853   0.361   3.970 -1.5419  0.6240  1.3789
 2391SOL     OW18808   3.076   4.500   5.201 -0.2536 -0.6464 -0.9491
 2391SOL    HW118809   3.047   4.589   5.223 -0.8581 -0.9640 -0.4619
 2391SOL    HW218810   3.149   4.501   5.263 -1.4080  1.0709  0.4018
 2392SOL     OW18811   3.495   1.730   5.741  1.1037 -0.3788  0.0779
 2392SOL    HW118812   3.470   1.748   5.832 -1.0943  0.3186 -0.6731
 2392SOL    HW218813   3.444   1.793   5.691  2.0804  0.6098  0.3294
 2393SOL     OW18814   2.858   0.586   7.878 -0.5473  0.3173 -0.1061
 2393SOL    HW118815   2.915   0.547   7.812 -2.4823 -2.5967 -0.0908
 2393SOL    HW218816   2.916   0.573   7.953 -0.6413 -2.4550 -0.4895
 2394SOL     OW18817   1.292   4.621   2.262 -0.3097  0.2992 -0.4102
 2394SOL    HW118818   1.259   4.670   2.187 -0.0510 -0.8419 -1.2817
 2394SOL    HW218819   1.297   4.694   2.322  0.6489 -0.1607  0.0694
 2395SOL     OW18820   1.611   0.242   9.996 -0.4941 -0.7331  0.0259
 2395SOL    HW118821   1.629   0.280   9.910  0.4883 -1.8994 -0.2782
 2395SOL    HW218822   1.529   0.283  10.024  0.0361  0.8666 -0.7795
 2396SOL     OW18823   1.310   2.623   8.705 -0.4766  0.0403  0.0981
 2396SOL    HW118824   1.262   2.669   8.774 -0.4518 -0.6178  0.5587
 2396SOL    HW218825   1.346   2.690   8.648 -1.2636  0.5592  0.2163
 2397SOL     OW18826   0.782   3.843   5.303 -0.9533 -0.0594  0.0748
 2397SOL    HW118827   0.850   3.907   5.325  0.2162 -0.8346 -1.3062
 2397SOL    HW218828   0.725   3.862   5.379  1.1203  1.0303  1.3494
 2398SOL     OW18829   1.013   3.459  17.351  0.6583 -0.1577  0.2925
 2398SOL    HW118830   1.009   3.526  17.419  0.4923 -0.6924  0.8130
 2398SOL    HW218831   0.966   3.382  17.386 -0.5562  0.3189 -0.2820
 2399SOL     OW18832   1.941   1.238   7.505 -0.3805 -0.3411 -0.3377
 2399SOL    HW118833   1.877   1.190   7.452  1.1610 -0.8005 -1.7950
 2399SOL    HW218834   2.009   1.223   7.439  1.8147 -0.6781  1.9916
 2400SOL     OW18835   3.150   4.219   6.430 -0.1765  0.1545  0.2286
 2400SOL    HW118836   3.195   4.145   6.389 -0.6813  0.8363 -1.5571
 2400SOL    HW218837   3.219   4.285   6.430 -0.9782  0.9935 -0.4929
 2401SOL     OW18838   2.215   4.021   1.634  0.0028  0.0324  0.0327
 2401SOL    HW118839   2.308   4.000   1.645 -0.0401  0.8643  1.9389
 2401SOL    HW218840   2.200   3.966   1.557 -1.0120  2.1607 -1.3000
 2402SOL     OW18841   0.712   3.374  16.535 -0.3618 -0.0647 -0.1622
 2402SOL    HW118842   0.772   3.447  16.552 -1.9397  0.9569  0.9369
 2402SOL    HW218843   0.629   3.416  16.556 -1.4401 -0.1848 -4.0469
 2403SOL     OW18844   1.511   3.434   2.363  0.0709 -0.0999  0.5726
 2403SOL    HW118845   1.432   3.445   2.310 -0.2297 -0.9660  0.8481
 2403SOL    HW218846   1.559   3.507   2.324  1.5792 -1.7468 -0.5988
 2404SOL     OW18847   3.230   3.729   4.108  0.2476  0.0816  0.2537
 2404SOL    HW118848   3.272   3.700   4.026 -1.1983  1.3889 -0.9563
 2404SOL    HW218849   3.241   3.824   4.099 -0.3209  0.0897 -0.3886
 2405SOL     OW18850   2.928   0.200   1.835  0.2160 -0.4052  0.0136
 2405SOL    HW118851   3.021   0.204   1.812  0.7138 -2.1572  1.7315
 2405SOL    HW218852   2.894   0.215   1.747 -1.2918  3.1065  1.1664
 2406SOL     OW18853   1.411   4.130   4.419  0.1318  0.1849  0.5382
 2406SOL    HW118854   1.377   4.157   4.504  2.3079 -0.3155  1.5860
 2406SOL    HW218855   1.333   4.140   4.365  0.9422 -1.5373 -0.9472
 2407SOL     OW18856   3.601   1.778   3.316  0.4704 -0.4517 -0.3580
 2407SOL    HW118857   3.553   1.718   3.259 -0.5916  0.3784 -0.3325
 2407SOL    HW218858   3.567   1.866   3.299 -1.6902 -1.3736 -0.7746
 2408SOL     OW18859   0.098   4.041   2.151  0.6146 -0.4782 -0.6765
 2408SOL    HW118860   0.099   3.976   2.080 -0.9061  2.0828 -3.0553
 2408SOL    HW218861   0.191   4.038   2.174  0.6984 -0.1088 -0.9650
 2409SOL     OW18862   2.223   3.292   2.789 -0.7340 -0.8457  0.3872
 2409SOL    HW118863   2.181   3.240   2.858 -0.8009 -1.6017 -0.2294
 2409SOL    HW218864   2.242   3.373   2.836 -0.2907  0.8388 -2.7210
 2410SOL     OW18865   2.391   1.781   6.964  0.0306 -0.3375 -0.1155
 2410SOL    HW118866   2.325   1.719   6.996  1.8565 -1.7816  0.8785
 2410SOL    HW218867   2.373   1.777   6.870 -1.5475  0.9235  0.1263
 2411SOL     OW18868   4.453   0.596   3.199  0.4554 -0.5988  0.8173
 2411SOL    HW118869   4.482   0.606   3.290  1.3718 -2.9225  0.7872
 2411SOL    HW218870   4.534   0.606   3.149 -0.2285 -0.4829 -0.2678
 2412SOL     OW18871   2.322   0.716  11.224 -0.1670 -0.6053  0.0482
 2412SOL    HW118872   2.336   0.748  11.135  1.3656 -0.2599  0.4129
 2412SOL    HW218873   2.278   0.789  11.267 -0.7679  0.0502 -1.7159
 2413SOL     OW18874   2.450   3.175   5.923 -0.0703  0.1295 -0.3692
 2413SOL    HW118875   2.530   3.188   5.974  0.6372 -3.5084 -0.5025
 2413SOL    HW218876   2.408   3.260   5.934  2.1373  0.9343  1.9539
 2414SOL     OW18877   4.640   4.732   3.405 -0.4617 -0.2272 -0.3986
 2414SOL    HW118878   4.715   4.732   3.464 -1.4212 -0.8177  0.8248
 2414SOL    HW218879   4.626   0.090   3.390 -1.3591 -0.0202  1.8358
 2415SOL     OW18880   4.448   3.048   1.682 -0.0134  1.0108  0.2133
 2415SOL    HW118881   4.478   3.130   1.721 -0.6419  2.2856 -1.9847
 2415SOL    HW218882   4.360   3.048   1.721 -0.2431  1.5293 -0.3153
 2416SOL     OW18883   0.409   2.434   2.608  0.1501 -0.0692 -0.0280
 2416SOL    HW118884   0.373   2.510   2.655 -1.4704  0.7486 -2.5855
 2416SOL    HW218885   0.391   2.361   2.666  0.7309 -0.1486  0.0567
 2417SOL     OW18886   3.974   3.994   6.804 -0.0440 -0.0602  0.3217
 2417SOL    HW118887   3.955   4.079   6.764 -2.1328 -1.4591 -1.6647
 2417SOL    HW218888   3.901   3.939   6.773 -0.5832  1.0669 -0.3948
 2418SOL     OW18889   3.688   1.533   4.450  0.5203  0.2916  0.1713
 2418SOL    HW118890   3.649   1.533   4.538  2.3885 -0.3431  0.9990
 2418SOL    HW218891   3.611   1.556   4.398 -0.7250  0.3867  2.0046
 2419SOL     OW18892   0.973   3.282  13.295  0.2774 -0.3003 -0.2609
 2419SOL    HW118893   0.967   3.361  13.241  2.1110 -0.0805 -0.1525
 2419SOL    HW218894   1.064   3.256  13.281 -0.4723 -2.2799 -1.4278
 2420SOL     OW18895   2.916   2.158  11.102  0.3601 -0.7392  0.2573
 2420SOL    HW118896   2.842   2.100  11.120  1.8940 -2.1988  1.8743
 2420SOL    HW218897   2.925   2.177  11.196  2.3461 -1.1157  0.1472
 2421SOL     OW18898   0.563   1.057   9.264  0.0378 -0.5369  0.3952
 2421SOL    HW118899   0.617   1.136   9.272  1.0717 -1.3353  1.1621
 2421SOL    HW218900   0.601   1.016   9.186  0.4517 -3.1636  1.9866
 2422SOL     OW18901   1.328   3.519   5.136 -0.3790 -0.3423 -0.1710
 2422SOL    HW118902   1.268   3.591   5.116 -0.0023 -0.1846 -0.7325
 2422SOL    HW218903   1.411   3.552   5.102 -0.1851  1.1783  1.7952
 2423SOL     OW18904   0.229   2.221   1.634 -0.0898  0.3718  0.4205
 2423SOL    HW118905   0.200   2.141   1.679  0.6238  0.5410  1.1768
 2423SOL    HW218906   0.311   2.237   1.681  0.2102  0.1233 -0.0145
 2424SOL     OW18907   4.341   0.383   1.946 -0.3497  0.0448 -0.0210
 2424SOL    HW118908   4.389   0.426   1.875 -0.7391 -1.3937 -1.1548
 2424SOL    HW218909   4.398   0.402   2.021  0.1809 -2.0087  0.0891
 2425SOL     OW18910   1.713   0.636   9.504 -0.1085 -0.3621  0.2080
 2425SOL    HW118911   1.751   0.718   9.473 -3.0681  0.3639 -1.4943
 2425SOL    HW218912   1.727   0.579   9.429  0.0354 -0.8769  0.6282
 2426SOL     OW18913   1.480   3.398  11.587  0.5619 -0.2900 -0.1179
 2426SOL    HW118914   1.436   3.326  11.543 -1.1578  1.4630 -1.2931
 2426SOL    HW218915   1.415   3.467  11.604  1.3658  0.9828 -2.1484
 2427SOL     OW18916   2.391   1.450   9.569  0.1220 -0.5505  0.3289
 2427SOL    HW118917   2.369   1.405   9.651 -1.7928  0.8935  0.5982
 2427SOL    HW218918   2.464   1.395   9.540  1.0934 -0.0040  1.7421
 2428SOL     OW18919   1.381   0.285   0.270  0.0880  0.1672 -0.6946
 2428SOL    HW118920   1.442   0.354   0.297  1.4655 -0.5515 -1.9597
 2428SOL    HW218921   1.446   0.217   0.253  0.5756  0.8759 -1.6947
 2429SOL     OW18922   0.134   2.444  12.140  0.9110 -0.2143  0.1697
 2429SOL    HW118923   0.160   2.511  12.077  1.3710 -0.2314  0.3392
 2429SOL    HW218924   0.109   2.492  12.218  1.6494 -1.3748  1.1238
 2430SOL     OW18925   3.360   2.282   5.786  0.4074 -0.2077 -0.3588
 2430SOL    HW118926   3.420   2.249   5.719 -0.0556  0.2048 -0.9800
 2430SOL    HW218927   3.408   2.281   5.869 -1.0247  1.9098  0.4868
 2431SOL     OW18928   1.527   0.746   0.759  0.4477  0.1690  0.3332
 2431SOL    HW118929   1.618   0.720   0.772  0.4685 -0.2866 -0.7023
 2431SOL    HW218930   1.503   0.751   0.851 -0.1605 -2.0077  0.3072
 2432SOL     OW18931   0.447   2.666   3.826 -0.0809  0.3641 -0.0345
 2432SOL    HW118932   0.383   2.726   3.788  0.7964  0.4553 -1.3971
 2432SOL    HW218933   0.487   2.620   3.752 -1.8588  0.5945 -1.1350
 2433SOL     OW18934   1.008   0.856   2.034 -0.2816  0.0902  0.3776
 2433SOL    HW118935   0.956   0.780   2.008 -1.4493  0.3336  2.0204
 2433SOL    HW218936   1.076   0.817   2.089  0.2329 -0.5214 -0.6953
 2434SOL     OW18937   4.463   2.829   4.455 -0.2082 -0.4360 -0.1265
 2434SOL    HW118938   4.534   2.766   4.465  1.8560  1.7032 -1.3500
 2434SOL    HW218939   4.417   2.805   4.375 -0.5856  2.1116 -0.6890
 2435SOL     OW18940   2.607   2.459   6.793  0.3055  0.3537  0.2730
 2435SOL    HW118941   2.608   2.423   6.704 -0.8396 -0.0725  0.4280
 2435SOL    HW218942   2.516   2.443   6.819 -0.2521  3.3868  0.1589
 2436SOL     OW18943   0.186   1.057  11.977 -0.2211 -0.2706 -0.1359
 2436SOL    HW118944   0.124   1.129  11.991 -2.1310 -2.0188  0.2764
 2436SOL    HW218945   0.125   0.983  11.973  0.3028 -0.6230 -1.7313
 2437SOL     OW18946   1.293   2.731   6.566 -0.2997  0.1878  0.2907
 2437SOL    HW118947   1.245   2.748   6.485  0.3402 -0.1161 -0.1562
 2437SOL    HW218948   1.311   2.823   6.587 -2.0437  0.7516 -0.7216
 2438SOL     OW18949   3.634   3.103   1.581  0.3066  0.1712  0.0420
 2438SOL    HW118950   3.653   3.066   1.667 -0.5837 -0.9413 -0.2394
 2438SOL    HW218951   3.541   3.088   1.562  0.6621  0.3177 -1.8655
 2439SOL     OW18952   3.004   4.714   9.214  0.3409  0.5433  0.3684
 2439SOL    HW118953   3.037   4.669   9.292 -1.2444  1.4600  1.5739
 2439SOL    HW218954   2.916   4.675   9.215  1.0055 -1.0194 -1.1653
 2440SOL     OW18955   0.024   0.820   3.330 -0.3091 -0.0195  0.1976
 2440SOL    HW118956   4.718   0.906   3.337 -0.5925 -0.3506  2.4007
 2440SOL    HW218957   0.118   0.837   3.327 -0.1560 -1.2036 -1.9278
 2441SOL     OW18958   2.425   0.876  13.758 -0.2508  0.0393 -0.0159
 2441SOL    HW118959   2.466   0.928  13.688 -1.8333 -0.3718 -1.2418
 2441SOL    HW218960   2.394   0.944  13.818 -0.9809 -0.0477 -0.3049
 2442SOL     OW18961   2.140   0.977  11.099 -0.1305 -0.3910 -0.2444
 2442SOL    HW118962   2.098   0.892  11.090  0.7266 -0.7898 -0.4417
 2442SOL    HW218963   2.173   0.990  11.010 -3.4188  0.7557 -1.2811
 2443SOL     OW18964   0.544   4.022  10.207 -0.7123  0.4218 -0.3155
 2443SOL    HW118965   0.541   4.008  10.112 -1.4981 -1.1416 -0.0679
 2443SOL    HW218966   0.534   3.934  10.243 -1.4573  0.2518 -0.9307
 2444SOL     OW18967   4.094   3.535   6.236 -0.4461 -0.0930  0.0079
 2444SOL    HW118968   4.125   3.621   6.206 -2.2598  1.0386  1.3365
 2444SOL    HW218969   4.165   3.479   6.206 -1.2597  0.0408 -2.1478
 2445SOL     OW18970   2.046   1.970   1.542 -0.1252  1.2764 -0.1097
 2445SOL    HW118971   2.086   2.035   1.600  1.6904  0.6849 -0.7087
 2445SOL    HW218972   2.122   1.950   1.488  0.1131  2.9971 -0.4218
 2446SOL     OW18973   2.460   1.962   7.387  0.1019  0.0184 -0.1423
 2446SOL    HW118974   2.408   2.026   7.339 -1.6412  0.8401  2.8474
 2446SOL    HW218975   2.434   1.876   7.354 -0.8125 -0.3163  1.4374
 2447SOL     OW18976   0.881   2.359   6.654 -0.4740 -0.4020 -0.2393
 2447SOL    HW118977   0.916   2.381   6.740  0.3382 -0.0752 -0.6512
 2447SOL    HW218978   0.874   2.264   6.658  0.2769 -0.4513 -0.1663
 2448SOL     OW18979   1.956   3.288   1.522  0.4649 -0.1569  0.1684
 2448SOL    HW118980   1.927   3.312   1.610  2.3553 -4.3338  1.8819
 2448SOL    HW218981   1.913   3.356   1.470  0.2485  0.6729  1.4126
 2449SOL     OW18982   0.415   3.083   3.819 -0.1196 -0.1511 -0.2708
 2449SOL    HW118983   0.404   3.130   3.902 -1.7052  0.4797 -0.8230
 2449SOL    HW218984   0.335   3.030   3.820 -0.5699  0.5917  2.1159
 2450SOL     OW18985   4.023   1.464  16.487 -0.1111 -0.3270  0.5458
 2450SOL    HW118986   4.001   1.505  16.571  2.2605  1.7831  0.1158
 2450SOL    HW218987   4.098   1.519  16.465 -0.5522 -0.4203 -1.2394
 2451SOL     OW18988   0.153   0.251   9.097 -0.2064  0.3144 -0.1674
 2451SOL    HW118989   0.113   0.275   9.181  0.1204  0.2081  0.0198
 2451SOL    HW218990   0.212   0.179   9.118  0.7522  0.5913 -1.9159
 2452SOL     OW18991   0.708   2.599   7.061 -0.9178 -0.1825  0.3456
 2452SOL    HW118992   0.643   2.580   7.128 -1.2366  0.6034  0.2524
 2452SOL    HW218993   0.684   2.549   6.982  1.4807 -0.2398 -0.3633
 2453SOL     OW18994   1.417   3.938   5.374 -0.5495  0.8079  0.2615
 2453SOL    HW118995   1.344   3.998   5.360 -1.2367 -0.1873 -0.3941
 2453SOL    HW218996   1.440   3.921   5.283 -2.1401 -2.2452  0.4226
 2454SOL     OW18997   1.116   0.734   3.444 -0.2757 -0.1370 -0.0179
 2454SOL    HW118998   1.089   0.645   3.425  0.2397 -0.3985  0.4589
 2454SOL    HW218999   1.050   0.737   3.514  0.9426 -0.7185  1.1478
 2455SOL     OW19000   2.002   3.493   1.962 -0.1482 -0.4648 -0.1293
 2455SOL    HW119001   1.915   3.533   1.965  0.1654 -0.0487  3.0719
 2455SOL    HW219002   2.054   3.574   1.955 -1.4756  0.5697  1.9947
 2456SOL     OW19003   1.350   2.756   2.410 -0.3860 -0.0517  0.8158
 2456SOL    HW119004   1.322   2.687   2.350  0.6179 -0.0401  0.3226
 2456SOL    HW219005   1.401   2.816   2.355  0.4259 -1.5463 -0.0610
 2457SOL     OW19006   1.184   4.470  13.366 -0.1951  0.2646 -0.0057
 2457SOL    HW119007   1.110   4.441  13.418 -1.5115  0.0649 -2.0064
 2457SOL    HW219008   1.174   4.559  13.332 -1.5648  0.3570  0.6320
 2458SOL     OW19009   3.649   2.432   3.301 -0.4892 -0.9166  0.4127
 2458SOL    HW119010   3.605   2.394   3.377 -0.7810 -2.0009 -0.2909
 2458SOL    HW219011   3.589   2.418   3.228 -2.6031  1.0431  1.8043
 2459SOL     OW19012   4.215   1.259   9.744 -0.5658  0.4714  0.3564
 2459SOL    HW119013   4.224   1.303   9.660  0.6210  3.9119  2.2949
 2459SOL    HW219014   4.293   1.291   9.788 -0.9061  2.0616 -0.1937
 2460SOL     OW19015   2.747   4.619   9.226 -0.6808  0.0413  0.6581
 2460SOL    HW119016   2.720   4.700   9.183 -0.7998  0.9389  2.3940
 2460SOL    HW219017   2.660   4.580   9.226 -0.5975 -0.1363 -2.5110
 2461SOL     OW19018   3.921   2.174   3.362  0.1198 -0.0615  0.7837
 2461SOL    HW119019   3.911   2.265   3.392 -1.3483  0.2887 -0.8187
 2461SOL    HW219020   3.869   2.130   3.429 -0.6721  0.3748  0.4587
 2462SOL     OW19021   2.472   3.332  13.076  0.0201 -0.2249 -0.2737
 2462SOL    HW119022   2.549   3.299  13.122 -0.0227 -2.3220 -1.7233
 2462SOL    HW219023   2.454   3.270  13.005  0.3386 -0.7331  0.0841
 2463SOL     OW19024   0.164   4.615   6.096  0.1655 -0.3224  0.8077
 2463SOL    HW119025   0.107   4.549   6.136  1.7793 -1.8636  0.5672
 2463SOL    HW219026   0.102   4.682   6.066  0.1442 -0.6047  0.2285
 2464SOL     OW19027   2.811   1.991   5.540 -0.3510 -0.2315 -0.5141
 2464SOL    HW119028   2.800   2.045   5.462  2.1284  1.0440  0.0568
 2464SOL    HW219029   2.802   1.907   5.495  1.4694 -1.1021  0.7476
 2465SOL     OW19030   1.309   1.661   7.345 -0.5735  0.4120 -0.0407
 2465SOL    HW119031   1.322   1.667   7.251  1.1310 -1.1428  0.0920
 2465SOL    HW219032   1.395   1.629   7.370 -1.0197 -0.8080 -0.0864
 2466SOL     OW19033   3.719   4.466   7.218  0.6101 -0.5374  0.1790
 2466SOL    HW119034   3.643   4.523   7.201  0.1171 -1.5067 -0.8856
 2466SOL    HW219035   3.678   4.395   7.267  0.5973 -2.0390 -2.0156
 2467SOL     OW19036   0.177   4.025   1.304 -0.3043  0.4913 -0.0813
 2467SOL    HW119037   0.102   4.082   1.316 -0.9818 -0.6119  0.8993
 2467SOL    HW219038   0.162   4.005   1.211  2.9559 -0.3855 -0.4324
 2468SOL     OW19039   3.854   3.030   7.014 -0.0632 -0.3831  0.0335
 2468SOL    HW119040   3.811   3.066   6.937 -0.7473 -1.2894 -0.0145
 2468SOL    HW219041   3.931   3.000   6.966  0.2109  1.0110 -0.4111
 2469SOL     OW19042   1.298   1.668   2.412  0.3436  0.1668 -0.1813
 2469SOL    HW119043   1.335   1.715   2.337  1.5523 -0.7652 -0.1721
 2469SOL    HW219044   1.316   1.723   2.488 -0.6148 -0.9122  0.8209
 2470SOL     OW19045   3.104   4.337  13.727  0.1807  0.6185 -0.4916
 2470SOL    HW119046   3.044   4.282  13.676 -0.5376  1.6244 -0.7133
 2470SOL    HW219047   3.152   4.386  13.661  2.2491 -2.1198 -1.0337
 2471SOL     OW19048   2.881   4.665   9.519 -0.0187 -0.0558  0.1485
 2471SOL    HW119049   2.859   0.018   9.488 -1.5717 -1.6402 -3.2404
 2471SOL    HW219050   2.975   4.655   9.505 -0.3497 -1.0294 -1.3014
 2472SOL     OW19051   0.121   2.834   4.815  0.4595 -0.4323 -0.1758
 2472SOL    HW119052   0.141   2.877   4.732 -0.2147  2.1152  0.9902
 2472SOL    HW219053   0.026   2.847   4.819  0.3607 -0.5405 -1.9744
 2473SOL     OW19054   4.168   0.695   9.474 -0.5266 -0.4404 -0.2650
 2473SOL    HW119055   4.118   0.695   9.556 -1.4606 -1.7791 -0.8275
 2473SOL    HW219056   4.208   0.609   9.488  0.2767  0.1702  1.1827
 2474SOL     OW19057   0.802   3.373   9.193 -0.5077  0.5698  0.6178
 2474SOL    HW119058   0.734   3.419   9.244 -1.3647  2.1409 -1.9366
 2474SOL    HW219059   0.758   3.371   9.108  2.2000  0.7826 -0.7799
 2475SOL     OW19060   0.092   4.322   6.874  0.4992  0.5747  0.5660
 2475SOL    HW119061   0.138   4.352   6.796 -0.3430  1.7047  0.4926
 2475SOL    HW219062   0.130   4.237   6.895  1.4554  0.9330  0.2643
 2476SOL     OW19063   2.459   1.454   2.435 -0.0893  0.1041 -0.5444
 2476SOL    HW119064   2.472   1.444   2.340 -1.3839 -1.0444 -0.6155
 2476SOL    HW219065   2.431   1.545   2.437 -0.6177 -0.0498 -0.8453
 2477SOL     OW19066   0.847   1.356   7.014 -0.9122 -0.0275  0.0365
 2477SOL    HW119067   0.877   1.428   6.958 -2.7042  1.8335  1.4535
 2477SOL    HW219068   0.766   1.404   7.033 -1.1856  0.3939 -2.1553
 2478SOL     OW19069   3.040   1.294   1.487 -0.6161  0.0029 -0.5391
 2478SOL    HW119070   3.019   1.283   1.395  0.2663 -1.3851 -0.5882
 2478SOL    HW219071   3.065   1.204   1.509  1.3552  0.3108 -1.5334
 2479SOL     OW19072   3.629   0.264  10.561  0.6381  0.0976 -0.2004
 2479SOL    HW119073   3.719   0.233  10.565  0.2660 -0.9769 -0.2412
 2479SOL    HW219074   3.603   0.236  10.649  2.2584 -3.9717 -1.0250
 2480SOL     OW19075   4.292   3.989  13.890 -0.1612 -0.3216  0.9391
 2480SOL    HW119076   4.360   3.968  13.954 -1.0692 -1.3804  1.5574
 2480SOL    HW219077   4.228   3.922  13.913  1.3407 -2.0857 -0.0012
 2481SOL     OW19078   4.505   0.259  12.643  0.4373 -0.1437  0.2986
 2481SOL    HW119079   4.549   0.259  12.728  0.5745 -0.7145  0.2245
 2481SOL    HW219080   4.459   0.176  12.645 -0.1310  0.1593 -0.2149
 2482SOL     OW19081   1.239   2.507   3.584  0.0425 -0.2281 -0.2491
 2482SOL    HW119082   1.158   2.517   3.534  0.8068 -0.7434 -1.6005
 2482SOL    HW219083   1.207   2.508   3.674  1.1892 -1.8353  0.1863
 2483SOL     OW19084   3.227   0.963   7.302 -0.1616 -0.1331 -0.1318
 2483SOL    HW119085   3.189   0.998   7.383  0.0203  0.5500 -0.3413
 2483SOL    HW219086   3.312   0.938   7.339 -1.3228  0.4530  2.9328
 2484SOL     OW19087   1.741   1.663  10.910 -0.2800 -0.2329  0.0911
 2484SOL    HW119088   1.795   1.678  10.988 -1.3228  0.7626  0.6124
 2484SOL    HW219089   1.690   1.593  10.952  0.4523 -0.0377  1.2980
 2485SOL     OW19090   3.404   2.682   8.872 -0.2023 -0.8385 -0.2159
 2485SOL    HW119091   3.469   2.752   8.882  0.3202 -1.5214  1.2087
 2485SOL    HW219092   3.434   2.613   8.931 -1.4114 -2.0623 -1.0288
 2486SOL     OW19093   4.133   1.019   7.792 -0.0634  0.0132 -0.0889
 2486SOL    HW119094   4.206   1.037   7.851 -1.6905 -0.2044  1.9884
 2486SOL    HW219095   4.139   0.924   7.789  1.2086  0.1554 -1.7756
 2487SOL     OW19096   1.556   1.999   8.723  0.5347 -0.1188 -0.5713
 2487SOL    HW119097   1.559   1.988   8.628 -1.1041 -0.7232 -0.5620
 2487SOL    HW219098   1.627   2.062   8.731 -1.8686  2.5299 -0.3452
 2488SOL     OW19099   2.845   0.177   9.414 -0.4360  0.0647 -0.3645
 2488SOL    HW119100   2.842   0.272   9.423  1.4649  0.1610 -0.8671
 2488SOL    HW219101   2.902   0.167   9.338 -2.4919  0.1131 -1.9061
 2489SOL     OW19102   2.545   2.658   9.479  1.0327 -0.3048  0.3307
 2489SOL    HW119103   2.638   2.645   9.500  0.9774 -0.6365  0.3630
 2489SOL    HW219104   2.556   2.682   9.387 -0.7524  0.5091  0.3273
 2490SOL     OW19105   0.750   2.808   5.422 -0.4334  0.1658 -0.0223
 2490SOL    HW119106   0.754   2.887   5.367 -2.7295  0.0887 -0.3165
 2490SOL    HW219107   0.715   2.836   5.507  1.6288  1.1070  0.5221
 2491SOL     OW19108   3.034   2.408   9.350  0.2116 -0.4183  0.4606
 2491SOL    HW119109   2.992   2.387   9.433  0.3327 -2.0222  0.1083
 2491SOL    HW219110   3.125   2.413   9.381 -0.7305 -2.1603  3.4548
 2492SOL     OW19111   0.769   2.330   7.922 -0.3499 -0.2207 -0.0260
 2492SOL    HW119112   0.819   2.339   7.841  1.0785 -1.3639  0.7232
 2492SOL    HW219113   0.686   2.347   7.878 -0.4748 -1.3850 -0.2401
 2493SOL     OW19114   2.781   4.510   1.645 -1.1412 -0.4854 -0.2887
 2493SOL    HW119115   2.732   4.567   1.704  2.0521  3.4757 -1.4900
 2493SOL    HW219116   2.819   4.455   1.713  0.5549  2.7965  1.3676
 2494SOL     OW19117   3.968   0.256  16.001  0.0181  0.2137  0.0556
 2494SOL    HW119118   4.063   0.251  15.997  0.2117  2.1608  2.6269
 2494SOL    HW219119   3.933   0.239  15.913  1.3346  2.0406 -0.8287
 2495SOL     OW19120   1.995   3.518  16.386 -0.3653  0.2804  0.1460
 2495SOL    HW119121   2.016   3.454  16.318  0.5991  0.6076  0.1327
 2495SOL    HW219122   2.066   3.504  16.449 -0.8472 -2.1275  0.1476
 2496SOL     OW19123   3.022   2.439  11.962 -0.1395  0.1460 -0.2801
 2496SOL    HW119124   3.082   2.443  12.037  0.5901 -0.7672 -0.8177
 2496SOL    HW219125   2.964   2.369  11.991 -0.2995  0.7831  0.9430
 2497SOL     OW19126   0.437   3.700  17.705 -0.1608 -0.0240 -0.9086
 2497SOL    HW119127   0.499   3.769  17.682  1.6144 -0.9084  1.2031
 2497SOL    HW219128   0.493   3.624  17.694 -0.2710 -0.2167 -0.1769
 2498SOL     OW19129   0.660   3.447   4.028  0.6834 -0.0339 -0.5568
 2498SOL    HW119130   0.600   3.372   4.027 -0.4048  0.7772  2.6813
 2498SOL    HW219131   0.634   3.503   3.955  0.8701  1.0254  0.1714
 2499SOL     OW19132   1.110   2.095   9.248 -0.6569  0.5039  0.0140
 2499SOL    HW119133   1.032   2.083   9.302  0.1738 -0.8130  0.9164
 2499SOL    HW219134   1.090   2.016   9.197 -1.3291 -0.7718  2.2546
 2500SOL     OW19135   4.489   3.521   0.402  0.4199  0.5476  0.0487
 2500SOL    HW119136   4.444   3.436   0.394  0.3545  0.6252 -0.3880
 2500SOL    HW219137   4.562   3.506   0.342  0.8070  1.5516  0.2716
 2501SOL     OW19138   0.159   3.045   1.572  0.1552  0.2780  0.3291
 2501SOL    HW119139   0.076   3.036   1.525 -0.0446  2.1691  0.2856
 2501SOL    HW219140   0.181   2.954   1.587 -1.1835 -0.2446 -0.8445
 2502SOL     OW19141   4.288   3.194   1.089  0.2062  0.6985  0.0584
 2502SOL    HW119142   4.357   3.260   1.082  1.1487 -0.3664 -0.7399
 2502SOL    HW219143   4.234   3.234   1.157 -0.0156  0.5317 -0.0200
 2503SOL     OW19144   4.230   1.068   7.193 -0.8346 -0.0097 -0.6533
 2503SOL    HW119145   4.304   1.046   7.136  0.0119 -0.2928  0.5680
 2503SOL    HW219146   4.200   0.987   7.233  0.6396 -1.1235 -1.7756
 2504SOL     OW19147   0.895   1.420   9.238 -0.2368 -0.2574 -0.5954
 2504SOL    HW119148   0.920   1.337   9.279  0.7846 -0.6844 -2.1005
 2504SOL    HW219149   0.976   1.466   9.259 -0.6176 -0.1195  0.5367
 2505SOL     OW19150   0.902   4.446  10.738 -0.0880 -0.0150 -0.5352
 2505SOL    HW119151   0.809   4.432  10.754 -0.8928  1.7764 -3.5473
 2505SOL    HW219152   0.928   4.412  10.823 -2.0711  0.4633  0.2624
 2506SOL     OW19153   0.204   0.646   9.436  0.1040  0.5384  0.6161
 2506SOL    HW119154   0.267   0.719   9.443  1.1609 -0.1659 -1.3331
 2506SOL    HW219155   0.133   0.683   9.383 -0.2963 -0.3771  0.5226
 2507SOL     OW19156   0.708   1.887   4.345 -0.3399 -0.1544 -0.5847
 2507SOL    HW119157   0.670   1.945   4.412  1.0226  1.2731 -1.0361
 2507SOL    HW219158   0.792   1.928   4.326 -0.4091  0.8331  1.1738
 2508SOL     OW19159   1.433   0.410   7.794 -0.2978  0.1600 -0.4670
 2508SOL    HW119160   1.407   0.335   7.741 -0.8532 -0.2108  0.3428
 2508SOL    HW219161   1.413   0.479   7.731  0.9216  1.4127  0.5066
 2509SOL     OW19162   0.953   1.456   4.385 -0.0282  0.1113  0.0249
 2509SOL    HW119163   0.867   1.416   4.399 -0.2671  0.5059 -0.3109
 2509SOL    HW219164   0.955   1.435   4.292 -1.2168 -0.8371  0.2145
 2510SOL     OW19165   1.672   1.033   8.665  0.1177 -0.2102 -0.1386
 2510SOL    HW119166   1.584   1.070   8.659  0.9340  2.1272  2.4801
 2510SOL    HW219167   1.692   1.053   8.756  2.2389 -1.8355 -0.2468
 2511SOL     OW19168   0.261   0.948   4.048 -0.3922 -0.5271  0.6832
 2511SOL    HW119169   0.215   1.029   4.071 -0.0558 -0.0380 -0.3556
 2511SOL    HW219170   0.331   0.955   4.113  1.0049 -1.3035 -0.7151
 2512SOL     OW19171   1.001   0.175   3.495 -0.5971  0.0328 -0.0498
 2512SOL    HW119172   1.066   0.117   3.455  0.3011  0.1774  1.2181
 2512SOL    HW219173   1.050   0.210   3.569  0.7198 -0.9170 -0.4603
 2513SOL     OW19174   1.500   3.295  14.731  0.2212 -0.3119  0.0105
 2513SOL    HW119175   1.410   3.270  14.710 -0.5164  2.3861  0.0407
 2513SOL    HW219176   1.555   3.278  14.654 -1.8566 -0.3881 -1.4400
 2514SOL     OW19177   3.133   1.006   1.612 -0.4676  0.1316  0.0857
 2514SOL    HW119178   3.190   0.933   1.588  1.7228  1.6828  0.4698
 2514SOL    HW219179   3.192   1.063   1.661 -0.6760 -1.2640  1.9193
 2515SOL     OW19180   3.564   4.326   7.403  0.0510 -0.5390  0.0866
 2515SOL    HW119181   3.523   4.258   7.455 -0.3697 -1.6573 -1.7164
 2515SOL    HW219182   3.491   4.387   7.393  1.3043  0.9639  0.0053
 2516SOL     OW19183   0.926   3.339   3.999  0.4628 -0.1586  0.1495
 2516SOL    HW119184   0.840   3.380   4.005  0.9027  1.0646 -1.9642
 2516SOL    HW219185   0.893   3.250   3.983  0.2587  0.3044 -1.9792
 2517SOL     OW19186   4.311   0.620   7.596 -0.2566  0.1118  0.1848
 2517SOL    HW119187   4.371   0.565   7.647 -2.1272 -0.1176  2.1493
 2517SOL    HW219188   4.362   0.697   7.574  1.8856 -1.0281  1.1412
 2518SOL     OW19189   1.748   2.788   7.612 -0.4296 -0.1644  0.4888
 2518SOL    HW119190   1.687   2.847   7.568 -0.9366 -1.1136 -0.0708
 2518SOL    HW219191   1.753   2.825   7.700  1.0313  0.2120  0.2584
 2519SOL     OW19192   2.526   3.790   9.734 -0.3206  0.2123 -0.2211
 2519SOL    HW119193   2.469   3.785   9.810  0.2549  2.1870  0.3551
 2519SOL    HW219194   2.576   3.872   9.742  1.5882 -0.9294 -0.3603
 2520SOL     OW19195   0.242   1.091   3.467  0.0162  0.5194 -0.3061
 2520SOL    HW119196   0.314   1.030   3.483  2.1723  2.8330 -1.0684
 2520SOL    HW219197   0.298   1.166   3.490  0.3214  0.4934 -0.9596
 2521SOL     OW19198   1.982   1.726   2.901  0.0542  0.7369 -0.0751
 2521SOL    HW119199   2.001   1.743   2.993  0.5491  0.4256 -0.1218
 2521SOL    HW219200   2.058   1.677   2.871 -0.5383 -0.5071  0.4672
 2522SOL     OW19201   3.117   0.149  14.009  0.2810  0.1008  0.7026
 2522SOL    HW119202   3.210   0.143  14.026  0.4425 -1.3972 -0.7093
 2522SOL    HW219203   3.099   0.055  14.000 -0.8374  0.3619  0.1070
 2523SOL     OW19204   4.043   3.401   7.423 -0.1447  0.5304 -0.0732
 2523SOL    HW119205   3.998   3.341   7.365  1.6666 -1.1994  0.2866
 2523SOL    HW219206   4.003   3.376   7.507 -2.1396  0.4829 -1.0571
 2524SOL     OW19207   4.400   1.424   1.356  0.0952  0.0553 -0.1070
 2524SOL    HW119208   4.347   1.428   1.277 -1.9262 -2.6927  1.1260
 2524SOL    HW219209   4.442   1.509   1.370  0.2265 -0.2368  1.2920
 2525SOL     OW19210   2.215   1.104  10.741  0.1033  0.3946 -0.2509
 2525SOL    HW119211   2.265   1.026  10.716 -1.1200 -0.5274  0.1627
 2525SOL    HW219212   2.126   1.069  10.739  1.2573 -2.4559 -2.0351
 2526SOL     OW19213   0.057   0.218   7.278  0.7175 -0.7554  0.1645
 2526SOL    HW119214   0.021   0.146   7.329  1.4713 -2.6416 -1.9667
 2526SOL    HW219215   0.061   0.176   7.192 -0.8889  0.3060 -0.4181
 2527SOL     OW19216   4.095   2.419  17.145 -0.3202  0.0351 -0.5257
 2527SOL    HW119217   4.115   2.325  17.144 -1.1945 -0.1581  0.1481
 2527SOL    HW219218   4.100   2.442  17.238 -1.3517  0.1147 -0.4896
 2528SOL     OW19219   4.726   3.722  17.059 -0.2724  0.3126 -0.3082
 2528SOL    HW119220   0.082   3.750  17.053 -0.9854  2.5186 -0.8462
 2528SOL    HW219221   0.009   3.636  17.096  1.0523  0.4296 -0.6797
 2529SOL     OW19222   2.952   1.753   2.462 -0.3893 -0.4033  0.1737
 2529SOL    HW119223   2.923   1.840   2.433 -1.2703 -0.7989 -0.1393
 2529SOL    HW219224   2.960   1.768   2.556 -1.5996  5.2678 -0.6345
 2530SOL     OW19225   0.272   2.499   0.006 -0.0400 -0.0420 -0.1415
 2530SOL    HW119226   0.178   2.516   0.000  0.0290  0.2140 -0.4956
 2530SOL    HW219227   0.266   2.405   0.018 -0.3308 -0.0140 -0.0691
 2531SOL     OW19228   4.090   4.452   4.128  0.2179  0.3319 -0.5261
 2531SOL    HW119229   4.168   4.507   4.136 -0.4346  1.0598  0.7222
 2531SOL    HW219230   4.130   4.383   4.074 -1.6726 -0.5855 -0.7559
 2532SOL     OW19231   1.055   0.457   3.384  0.0276  0.0049  0.3716
 2532SOL    HW119232   1.143   0.455   3.348  0.0332  1.0325  0.3250
 2532SOL    HW219233   1.051   0.377   3.437 -1.2781 -0.5557 -0.5725
 2533SOL     OW19234   0.132   2.129   3.138  0.4365 -0.3800 -0.9293
 2533SOL    HW119235   0.100   2.062   3.077  0.2393 -1.1230 -0.0168
 2533SOL    HW219236   0.183   2.176   3.072  1.3024 -0.1525 -0.1036
 2534SOL     OW19237   2.493   0.618  10.705  0.2429  0.2606  0.6210
 2534SOL    HW119238   2.503   0.633  10.611 -1.5905  0.3819  0.4590
 2534SOL    HW219239   2.527   0.530  10.722 -2.3837 -1.3343 -2.4978
 2535SOL     OW19240   2.316   0.107   1.939  0.4735  0.3076 -1.1326
 2535SOL    HW119241   2.369   0.126   2.017 -0.5404  0.6806 -0.5319
 2535SOL    HW219242   2.300   0.015   1.963  0.5799  0.0275 -2.1586
 2536SOL     OW19243   2.311   3.383   9.107 -0.1468  0.0326  0.3088
 2536SOL    HW119244   2.382   3.433   9.068  1.0604 -0.0039  2.4991
 2536SOL    HW219245   2.322   3.412   9.197  2.1527  0.1844 -0.0428
 2537SOL     OW19246   2.945   2.057   4.988 -0.0049 -0.2599  0.3213
 2537SOL    HW119247   2.899   1.981   4.953  0.6469  0.0980 -1.3139
 2537SOL    HW219248   2.981   2.101   4.911 -0.7501  1.1577  0.7701
 2538SOL     OW19249   2.949   4.343   5.767  0.1587  0.4308 -0.0460
 2538SOL    HW119250   2.920   4.269   5.821  2.6599  0.6919  1.6443
 2538SOL    HW219251   3.021   4.387   5.812  0.3350 -0.4134  0.4799
 2539SOL     OW19252   4.335   1.110   0.392 -0.4911 -0.4784 -0.4538
 2539SOL    HW119253   4.241   1.091   0.386 -0.3749 -1.3623  0.7071
 2539SOL    HW219254   4.345   1.140   0.301  1.6713 -1.3914 -0.5191
 2540SOL     OW19255   1.952   4.164   6.316 -0.4698 -0.0250  0.0727
 2540SOL    HW119256   1.946   4.091   6.254 -0.7304  1.1600 -1.3055
 2540SOL    HW219257   2.026   4.141   6.372 -1.5719 -1.1791  1.0524
 2541SOL     OW19258   0.297   3.086   3.048  0.1250 -0.0049  0.3362
 2541SOL    HW119259   0.250   3.164   3.017  1.2622  0.2227 -0.8158
 2541SOL    HW219260   0.374   3.118   3.095 -0.2312  1.5372 -0.1099
 2542SOL     OW19261   3.151   3.223  14.412 -0.2969  0.5868 -0.2206
 2542SOL    HW119262   3.179   3.246  14.323 -1.3658  1.1413 -0.4172
 2542SOL    HW219263   3.217   3.265  14.466  0.2648  0.4126 -0.7798
 2543SOL     OW19264   0.710   0.609   3.645  0.7564 -0.4339  0.4642
 2543SOL    HW119265   0.753   0.524   3.656 -0.8936 -1.1740  1.1489
 2543SOL    HW219266   0.618   0.588   3.662  0.2464  0.3479 -1.3084
 2544SOL     OW19267   0.745   0.892   4.604  0.0094 -0.6119  0.2332
 2544SOL    HW119268   0.661   0.911   4.564  0.2076  0.9605  0.5677
 2544SOL    HW219269   0.808   0.903   4.533 -0.7518  1.8878 -0.0453
 2545SOL     OW19270   4.379   0.336   8.063 -0.2840 -0.3367 -0.0857
 2545SOL    HW119271   4.313   0.306   8.126  0.6540 -0.6806  0.7313
 2545SOL    HW219272   4.352   0.428   8.060 -0.4384 -0.3478  1.0511
 2546SOL     OW19273   0.864   2.680   0.268  0.1016 -0.0036 -0.0499
 2546SOL    HW119274   0.793   2.632   0.227 -0.5936 -0.6185  1.8738
 2546SOL    HW219275   0.883   2.622   0.342 -0.0904  0.3202  0.2513
 2547SOL     OW19276   4.403   1.364   5.456 -0.0624 -0.0687  0.8610
 2547SOL    HW119277   4.347   1.287   5.470 -0.7239  0.0213 -1.2698
 2547SOL    HW219278   4.476   1.320   5.412  0.1421  0.9108  0.2327
 2548SOL     OW19279   3.200   0.511  12.779  0.3616  0.3777  0.0719
 2548SOL    HW119280   3.150   0.494  12.699  1.8044  1.0498 -0.9791
 2548SOL    HW219281   3.191   0.606  12.779  1.3188  0.4645  2.0141
 2549SOL     OW19282   1.774   0.393  11.335  0.3202  0.6079  0.0523
 2549SOL    HW119283   1.693   0.408  11.286  0.5784 -2.3485 -1.2792
 2549SOL    HW219284   1.762   0.457  11.405 -0.6679  0.2655  0.1921
 2550SOL     OW19285   2.238   2.069   5.568  0.8292  0.6371 -0.5725
 2550SOL    HW119286   2.311   2.022   5.530  2.0265  0.6470  1.7250
 2550SOL    HW219287   2.177   2.071   5.494 -1.3325 -0.7340  1.1740
 2551SOL     OW19288   2.649   3.444   6.640 -0.0966 -0.6385 -0.1641
 2551SOL    HW119289   2.645   3.534   6.671 -2.5250 -1.8291  2.9355
 2551SOL    HW219290   2.687   3.391   6.710  0.4604 -0.2296 -0.1566
 2552SOL     OW19291   2.938   0.754   1.969  0.7311  0.2425 -0.2000
 2552SOL    HW119292   2.868   0.819   1.967  0.9713  0.5726  1.9132
 2552SOL    HW219293   2.974   0.764   2.057 -2.8750  0.3332  1.2431
 2553SOL     OW19294   3.343   0.139   3.462  0.2881  0.5952  0.3219
 2553SOL    HW119295   3.293   0.115   3.540  1.9133  0.4133  1.3138
 2553SOL    HW219296   3.299   0.220   3.435 -0.3636  0.1084 -0.0853
 2554SOL     OW19297   4.625   1.302  14.741  0.4588  0.2073 -0.4554
 2554SOL    HW119298   4.539   1.341  14.723  0.5628 -0.4691 -2.4133
 2554SOL    HW219299   4.644   1.253  14.661 -1.6495 -0.9140 -0.2459
 2555SOL     OW19300   3.803   3.827  13.225  0.0731  0.3420  0.6370
 2555SOL    HW119301   3.897   3.834  13.244  0.1668  0.3254  0.1797
 2555SOL    HW219302   3.798   3.915  13.187  1.8268 -0.9781 -2.6209
 2556SOL     OW19303   1.522   4.725   7.048  0.4309  0.0145 -0.4082
 2556SOL    HW119304   1.566   4.669   6.985  1.0065 -0.6224  0.5525
 2556SOL    HW219305   1.580   0.006   7.123  1.3765  0.4356 -1.2367
 2557SOL     OW19306   0.335   0.752   2.275 -0.0419 -0.5597  0.1508
 2557SOL    HW119307   0.286   0.756   2.357  2.0478 -0.1532  1.3547
 2557SOL    HW219308   0.423   0.772   2.306 -0.4214  3.1400 -1.0848
 2558SOL     OW19309   0.980   2.127   2.268 -0.2326  0.1907 -0.0877
 2558SOL    HW119310   0.993   2.094   2.357 -1.4329 -0.0129  0.0105
 2558SOL    HW219311   0.900   2.177   2.284 -0.1427  0.2741  0.0945
 2559SOL     OW19312   3.458   1.591   3.138  0.2620  0.2560 -0.1972
 2559SOL    HW119313   3.465   1.513   3.084 -1.4763 -1.3634  1.9329
 2559SOL    HW219314   3.433   1.652   3.068 -0.4295 -1.5545 -1.5005
 2560SOL     OW19315   4.136   2.993   0.550  0.6433  0.0363  0.6775
 2560SOL    HW119316   4.220   2.979   0.592  1.9576  1.8862 -1.3649
 2560SOL    HW219317   4.101   3.075   0.585  0.3234  1.0051 -1.9094
 2561SOL     OW19318   3.582   4.269   4.746 -0.3708  0.3389 -0.0838
 2561SOL    HW119319   3.502   4.292   4.793  0.6157  0.0472  1.7590
 2561SOL    HW219320   3.654   4.292   4.805  0.6763  0.7275 -1.5047
 2562SOL     OW19321   3.490   3.820   0.594  0.6798 -0.2089 -0.7185
 2562SOL    HW119322   3.430   3.772   0.537 -1.3844  1.8231 -0.2311
 2562SOL    HW219323   3.471   3.908   0.562  0.8213  0.1538  0.2001
 2563SOL     OW19324   3.449   0.129   5.796  0.7642  0.3844  0.2776
 2563SOL    HW119325   3.542   0.142   5.779  1.0494  0.9664  2.2028
 2563SOL    HW219326   3.415   0.219   5.802 -1.6486 -0.5588  0.8754
 2564SOL     OW19327   3.043   3.193   7.321 -0.6365  0.3351  0.6502
 2564SOL    HW119328   3.108   3.152   7.265  1.1628  1.9384  1.5840
 2564SOL    HW219329   3.094   3.229   7.393 -2.5029  2.0124  1.1462
 2565SOL     OW19330   2.400   3.420   1.720  0.2267  0.2328 -0.3161
 2565SOL    HW119331   2.477   3.369   1.746  0.0318 -0.4745 -1.1353
 2565SOL    HW219332   2.357   3.360   1.660 -0.7204 -0.5086  1.0903
 2566SOL     OW19333   2.539   0.071   2.913 -0.3693  0.1205  0.2507
 2566SOL    HW119334   2.474   0.107   2.852 -0.4475  0.2398  0.4048
 2566SOL    HW219335   2.587   0.010   2.857 -1.6935  1.4145 -2.3252
 2567SOL     OW19336   2.774   0.643   0.847 -0.1278 -0.2994  0.3005
 2567SOL    HW119337   2.684   0.619   0.866 -0.6270  0.0726 -1.6523
 2567SOL    HW219338   2.803   0.650   0.938 -0.3562 -0.3623  0.3758
 2568SOL     OW19339   1.116   3.210   6.636 -0.4180 -0.5184  0.4714
 2568SOL    HW119340   1.150   3.242   6.553 -0.1321 -1.8203  0.0971
 2568SOL    HW219341   1.079   3.295   6.662  2.0384  0.8291 -0.4244
 2569SOL     OW19342   2.640   4.271   6.501  0.5102 -0.0755 -0.4715
 2569SOL    HW119343   2.616   4.252   6.592  0.9503  1.9727  0.0916
 2569SOL    HW219344   2.570   4.224   6.456 -0.1892 -0.6889  1.2414
 2570SOL     OW19345   0.799   3.836   7.035  0.2263  0.0719 -0.4081
 2570SOL    HW119346   0.872   3.796   7.082  1.2012 -1.0001 -2.8278
 2570SOL    HW219347   0.846   3.864   6.957 -1.1451 -1.0018 -1.6117
 2571SOL     OW19348   1.357   2.086   5.141 -0.0927 -0.0357  0.7036
 2571SOL    HW119349   1.300   2.139   5.197 -0.5882 -0.8978  1.0146
 2571SOL    HW219350   1.389   2.022   5.205 -1.4552 -1.6685 -0.2295
 2572SOL     OW19351   3.712   0.566  13.039 -0.5503  0.0364  0.0949
 2572SOL    HW119352   3.784   0.606  12.991  0.9273 -1.3664  1.1389
 2572SOL    HW219353   3.681   0.503  12.975 -0.9045  0.2531  0.0509
 2573SOL     OW19354   1.967   2.013   8.921  0.4264 -0.6930 -0.0019
 2573SOL    HW119355   2.019   2.041   8.996  0.0540 -0.0812  0.0283
 2573SOL    HW219356   2.031   2.041   8.855 -0.2938 -0.0284 -0.4324
 2574SOL     OW19357   2.447   3.254   8.699  0.3388 -0.2522 -0.1749
 2574SOL    HW119358   2.367   3.305   8.707  0.9326  0.9521 -1.8776
 2574SOL    HW219359   2.508   3.324   8.677 -2.0427  2.1597  0.9435
 2575SOL     OW19360   4.177   3.499   5.594  0.2139  0.0278  0.3324
 2575SOL    HW119361   4.107   3.517   5.532 -1.5115  0.4372  2.3755
 2575SOL    HW219362   4.198   3.410   5.565  0.4403  0.2590 -0.1985
 2576SOL     OW19363   0.616   4.444  10.201 -0.1651  0.0544 -0.5467
 2576SOL    HW119364   0.626   4.469  10.109 -2.5348  1.0084 -0.5372
 2576SOL    HW219365   0.522   4.427  10.204 -0.5072  1.7928 -1.4109
 2577SOL     OW19366   1.674   2.294   7.460 -0.0091  0.2781 -0.3654
 2577SOL    HW119367   1.716   2.314   7.376 -3.6281  2.4075 -1.6514
 2577SOL    HW219368   1.647   2.204   7.443  1.7115 -0.4072  0.5106
 2578SOL     OW19369   3.259   3.792   8.646 -0.0756 -0.1876  0.2045
 2578SOL    HW119370   3.222   3.880   8.659  0.9337  0.5452 -2.0348
 2578SOL    HW219371   3.304   3.811   8.564  0.6185 -0.2779  0.5634
 2579SOL     OW19372   2.125   3.769   8.599 -0.1709 -0.4597 -0.3741
 2579SOL    HW119373   2.209   3.729   8.574 -0.2282 -0.6807 -0.2094
 2579SOL    HW219374   2.153   3.861   8.597  0.7493 -0.7720 -2.7607
 2580SOL     OW19375   3.581   2.423   6.864  0.0676  0.4808  0.2256
 2580SOL    HW119376   3.647   2.464   6.918  0.5734  0.8249 -0.6639
 2580SOL    HW219377   3.637   2.394   6.791  0.7023 -0.5295  1.1125
 2581SOL     OW19378   3.308   2.737   7.176  0.5734  0.0770 -0.4464
 2581SOL    HW119379   3.301   2.686   7.257 -1.1337  1.3408  0.2060
 2581SOL    HW219380   3.402   2.746   7.163  0.8371 -0.2450  1.1917
 2582SOL     OW19381   3.532   1.148   5.400 -0.4537 -0.2217 -0.5979
 2582SOL    HW119382   3.444   1.184   5.411  0.0822  0.6915  0.7191
 2582SOL    HW219383   3.523   1.055   5.421  2.0218 -0.3720 -0.1407
 2583SOL     OW19384   0.790   4.216   4.325  0.0274  0.1557 -0.0335
 2583SOL    HW119385   0.840   4.144   4.363 -1.2075 -0.5090  0.3157
 2583SOL    HW219386   0.823   4.288   4.378 -1.8454  0.4744  0.6826
 2584SOL     OW19387   3.739   0.996   7.329  0.1342  0.3936 -0.1055
 2584SOL    HW119388   3.684   1.067   7.296  0.1617  0.9930  1.1289
 2584SOL    HW219389   3.763   1.026   7.416  0.8120  0.9462 -0.4781
 2585SOL     OW19390   0.536   3.147  16.186 -0.0250 -0.1666  0.0388
 2585SOL    HW119391   0.529   3.066  16.135  1.4132 -1.2306  1.5233
 2585SOL    HW219392   0.549   3.218  16.123 -0.9145 -0.1267 -0.1001
 2586SOL     OW19393   0.309   2.247   7.929 -0.1299  0.4260  0.3273
 2586SOL    HW119394   0.305   2.330   7.975  0.5895  0.5347  0.1857
 2586SOL    HW219395   0.246   2.259   7.858 -0.3614 -2.7985 -0.0164
 2587SOL     OW19396   0.665   2.453   3.136 -0.0439  0.2969  0.7111
 2587SOL    HW119397   0.623   2.399   3.204  0.8297 -0.0725  0.9650
 2587SOL    HW219398   0.604   2.526   3.132 -0.6129 -0.2421 -0.3758
 2588SOL     OW19399   0.414   4.246  10.682 -0.2630 -0.4150  0.0003
 2588SOL    HW119400   0.426   4.156  10.654 -0.6267  0.2887 -2.3921
 2588SOL    HW219401   0.424   4.240  10.777 -2.4616  1.4910  0.3692
 2589SOL     OW19402   2.622   1.771   0.513  0.3092 -0.0041 -0.3960
 2589SOL    HW119403   2.687   1.702   0.526  0.6096  0.3359 -0.0934
 2589SOL    HW219404   2.605   1.748   0.422 -2.3551  0.0738  0.0937
 2590SOL     OW19405   3.673   1.433   4.934 -0.2159  0.1046 -0.2148
 2590SOL    HW119406   3.626   1.364   4.980 -0.5232  0.3556 -0.1582
 2590SOL    HW219407   3.722   1.382   4.869 -2.0630 -0.3594 -1.2459
 2591SOL     OW19408   2.725   1.408   1.307  0.0564  0.3207  0.2180
 2591SOL    HW119409   2.652   1.466   1.285  0.1487  1.0208  1.6995
 2591SOL    HW219410   2.803   1.464   1.312  1.9421 -2.2048 -0.6343
 2592SOL     OW19411   2.848   0.877   0.670 -1.0259  0.6293 -0.1738
 2592SOL    HW119412   2.879   0.824   0.597  1.9672 -0.8250  2.0950
 2592SOL    HW219413   2.804   0.805   0.714  1.3096 -2.4772 -2.9493
 2593SOL     OW19414   0.851   0.996   4.022  0.0131 -0.0957  0.0770
 2593SOL    HW119415   0.917   1.006   3.953 -0.6942  0.7160 -0.4757
 2593SOL    HW219416   0.893   1.021   4.104  2.9375 -2.9186 -0.5367
 2594SOL     OW19417   1.345   0.954   7.176 -0.2478  0.0484 -0.2565
 2594SOL    HW119418   1.368   0.874   7.129  0.8292 -0.5893  1.3541
 2594SOL    HW219419   1.320   1.011   7.104  1.7137  1.4629  0.1733
 2595SOL     OW19420   1.602   2.621  12.003 -0.2258 -0.4337 -0.2402
 2595SOL    HW119421   1.587   2.692  12.066 -1.5979 -0.0998 -0.9476
 2595SOL    HW219422   1.624   2.546  12.059 -1.0981  1.1620  2.2465
 2596SOL     OW19423   3.380   4.560  10.704 -0.5012 -0.3164  0.0708
 2596SOL    HW119424   3.430   4.612  10.641  0.0843 -0.9383  0.0231
 2596SOL    HW219425   3.318   4.621  10.745 -0.8564 -0.5131 -0.1769
 2597SOL     OW19426   0.744   3.094   1.545 -0.1784  0.2222 -0.3987
 2597SOL    HW119427   0.702   3.179   1.561  0.3923  0.3738  0.2829
 2597SOL    HW219428   0.676   3.029   1.565  1.3512 -1.2543  0.0120
 2598SOL     OW19429   2.129   4.225   1.983  0.2028  0.7987  0.4821
 2598SOL    HW119430   2.065   4.296   1.989 -2.2234 -1.2575 -1.1499
 2598SOL    HW219431   2.132   4.226   1.888 -1.0466  1.8093  0.4536
 2599SOL     OW19432   1.213   2.959   2.944  0.1155  0.3836 -0.1494
 2599SOL    HW119433   1.271   2.885   2.928 -1.6410 -0.5546 -2.1968
 2599SOL    HW219434   1.215   2.976   3.038  0.4258 -0.3667 -0.0248
 2600SOL     OW19435   2.806   3.811   7.036  0.1028  0.1312  0.2631
 2600SOL    HW119436   2.722   3.826   7.080  0.3020  1.4988  0.1559
 2600SOL    HW219437   2.857   3.888   7.013  0.3155 -0.4212 -1.1490
 2601SOL     OW19438   3.761   2.896   3.118  0.0791 -0.4008  0.4591
 2601SOL    HW119439   3.774   2.979   3.163 -0.0277  0.4675 -1.0952
 2601SOL    HW219440   3.719   2.839   3.182 -2.4049  0.3683 -0.4485
 2602SOL     OW19441   0.577   2.238   2.166 -0.4426 -0.8019 -0.0794
 2602SOL    HW119442   0.523   2.251   2.244  0.2071  0.7222  0.1135
 2602SOL    HW219443   0.632   2.176   2.213 -0.4990  0.2475  1.3753
 2603SOL     OW19444   0.968   3.800  13.725 -0.3634 -0.4329  0.1982
 2603SOL    HW119445   1.014   3.731  13.772 -1.6271 -0.9708  0.6427
 2603SOL    HW219446   1.036   3.837  13.669 -1.4048 -0.1721 -0.8713
 2604SOL     OW19447   0.079   2.508   7.447  0.4436 -0.2524  0.4810
 2604SOL    HW119448   0.018   2.544   7.511  1.2421  0.1436  1.0166
 2604SOL    HW219449   0.104   2.588   7.400  1.0481 -0.9348 -0.3804
 2605SOL     OW19450   4.557   3.150   2.715 -0.4000 -0.2754 -0.5070
 2605SOL    HW119451   4.526   3.211   2.648  1.4507 -0.3136 -1.3974
 2605SOL    HW219452   4.484   3.157   2.777  1.7565  0.3007  1.9812
 2606SOL     OW19453   4.177   4.631   7.894 -0.0687  0.2849  0.2773
 2606SOL    HW119454   4.127   4.553   7.918  0.2117  0.3762  1.1678
 2606SOL    HW219455   4.194   4.681   7.974  0.5314  0.5892 -0.0329
 2607SOL     OW19456   1.649   3.302   7.612 -0.2322  0.2893 -0.1718
 2607SOL    HW119457   1.675   3.295   7.703 -2.6055 -1.2493  0.4034
 2607SOL    HW219458   1.601   3.384   7.607 -1.4244 -0.4397 -0.9037
 2608SOL     OW19459   0.436   2.999   9.835 -0.4435  0.4320  0.5648
 2608SOL    HW119460   0.529   2.980   9.844 -0.1688  1.0964 -0.8918
 2608SOL    HW219461   0.393   2.945   9.902 -1.8526  1.3661  0.4153
 2609SOL     OW19462   0.911   2.875   3.837  0.0372 -0.0714  0.3123
 2609SOL    HW119463   0.873   2.937   3.774 -0.8900 -0.5348  0.4119
 2609SOL    HW219464   0.913   2.940   3.908 -0.8447 -1.5507  1.6946
 2610SOL     OW19465   2.927   1.229   1.244 -0.2722  0.2734  0.4036
 2610SOL    HW119466   2.933   1.182   1.161  0.3272 -0.2142  0.7241
 2610SOL    HW219467   2.903   1.319   1.220 -0.5763 -0.9782 -3.8654
 2611SOL     OW19468   4.475   2.515   1.237  0.5983 -0.7315  0.2004
 2611SOL    HW119469   4.471   2.461   1.317  2.3492  2.3184  2.3305
 2611SOL    HW219470   4.554   2.477   1.200  0.3939 -1.8647  0.9264
 2612SOL     OW19471   3.136   4.405   6.154 -0.0048 -0.2127  0.0797
 2612SOL    HW119472   3.137   4.313   6.181 -0.7703 -0.7044 -1.5527
 2612SOL    HW219473   3.174   4.447   6.231  2.7435 -2.1844 -0.2350
 2613SOL     OW19474   1.557   2.570   0.183 -0.5983  0.0366 -0.3309
 2613SOL    HW119475   1.637   2.617   0.207  0.0053  1.2315 -4.7065
 2613SOL    HW219476   1.533   2.606   0.098 -1.5754 -0.3504 -0.2122
 2614SOL     OW19477   0.828   0.293   1.921  0.0388 -0.6958 -0.0722
 2614SOL    HW119478   0.754   0.306   1.862  0.3323 -0.9717 -0.4954
 2614SOL    HW219479   0.878   0.374   1.924 -1.2234  0.1671 -2.9926
 2615SOL     OW19480   3.838   2.845   3.470  0.1090  0.3705 -0.1717
 2615SOL    HW119481   3.835   2.827   3.564  0.7147 -1.4262 -0.4939
 2615SOL    HW219482   3.759   2.897   3.457 -0.0037  0.2805  0.1533
 2616SOL     OW19483   3.290   1.630   7.760  0.0681  0.3296 -0.5572
 2616SOL    HW119484   3.302   1.570   7.834 -2.3149 -1.8577 -1.9503
 2616SOL    HW219485   3.309   1.715   7.801  3.0765 -0.4738 -0.2841
 2617SOL     OW19486   3.655   2.236   5.372  0.0239  0.2931  0.1494
 2617SOL    HW119487   3.745   2.218   5.344  0.9911  2.4497  1.8372
 2617SOL    HW219488   3.612   2.229   5.287 -2.2969 -0.1609  1.3781
 2618SOL     OW19489   0.772   1.591   5.845  0.1003  0.2071  0.9001
 2618SOL    HW119490   0.759   1.499   5.822 -0.3840 -0.0609  2.2340
 2618SOL    HW219491   0.721   1.594   5.926 -1.7592 -1.8435 -0.1900
 2619SOL     OW19492   4.152   0.054   8.118 -0.2702  0.1159  0.0616
 2619SOL    HW119493   4.059   0.055   8.095 -0.5730 -0.1642  1.2328
 2619SOL    HW219494   4.156   0.147   8.137 -0.4027  0.4810 -1.7080
 2620SOL     OW19495   3.580   2.461  15.746 -0.7472 -0.4663 -0.4073
 2620SOL    HW119496   3.498   2.510  15.748 -0.2976  0.3335 -1.3047
 2620SOL    HW219497   3.600   2.471  15.653 -2.6897 -1.3114 -0.8995
 2621SOL     OW19498   4.620   1.676  10.960 -0.4382 -0.3184  0.3676
 2621SOL    HW119499   4.679   1.740  11.001 -0.9766  0.0466  0.5803
 2621SOL    HW219500   4.595   1.716  10.877  2.6091 -1.3208 -1.0220
 2622SOL     OW19501   0.779   1.496  10.495 -0.3617  0.3758  0.0574
 2622SOL    HW119502   0.728   1.427  10.452  2.2764  0.3678 -3.0862
 2622SOL    HW219503   0.786   1.564  10.429  1.8669 -0.0753 -0.1783
 2623SOL     OW19504   1.174   3.584   3.268  0.0481 -0.8068  0.1461
 2623SOL    HW119505   1.140   3.502   3.233 -0.1111 -0.9527  0.6402
 2623SOL    HW219506   1.265   3.562   3.249  0.3665 -0.9591  1.8641
 2624SOL     OW19507   2.635   1.687   5.120  0.5673  0.0638 -0.0949
 2624SOL    HW119508   2.554   1.664   5.074 -0.4148  0.7068  1.3220
 2624SOL    HW219509   2.658   1.774   5.088 -0.4942  0.6713  0.7938
 2625SOL     OW19510   0.341   3.029   7.271 -0.1444  0.2729  0.2506
 2625SOL    HW119511   0.364   3.116   7.237  1.3491 -0.0819  0.3675
 2625SOL    HW219512   0.265   3.047   7.327  0.0216 -0.3225  0.6637
 2626SOL     OW19513   2.506   3.548   8.967 -1.0494 -0.2627  0.3084
 2626SOL    HW119514   2.436   3.565   8.904 -0.4973  0.4344 -0.1024
 2626SOL    HW219515   2.557   3.628   8.979 -1.1698 -0.1126 -0.1846
 2627SOL     OW19516   3.740   3.241  17.060  0.3882  0.4697 -0.1287
 2627SOL    HW119517   3.731   3.322  17.110  0.3039  0.3691  0.0187
 2627SOL    HW219518   3.762   3.273  16.973  0.4027 -1.4188 -0.8266
 2628SOL     OW19519   2.160   1.676   6.169  0.4934 -0.4722 -0.0035
 2628SOL    HW119520   2.107   1.739   6.119 -1.5669 -1.6581  0.6561
 2628SOL    HW219521   2.223   1.732   6.214 -0.1097  0.9628 -0.9131
 2629SOL     OW19522   3.499   2.104   3.313  0.7188  0.3445  0.0325
 2629SOL    HW119523   3.564   2.164   3.350  0.9960 -0.9684  1.6454
 2629SOL    HW219524   3.423   2.156   3.286 -0.5343 -1.5123  0.0016
 2630SOL     OW19525   0.372   0.321   5.744  0.6198  0.8432  0.1382
 2630SOL    HW119526   0.381   0.230   5.773  0.4821  0.6251 -0.5122
 2630SOL    HW219527   0.434   0.375   5.793  0.1217 -2.2999  4.3292
 2631SOL     OW19528   3.736   0.747  12.135 -0.3262  0.2799  0.0722
 2631SOL    HW119529   3.746   0.836  12.167  0.7441  0.1146  0.1813
 2631SOL    HW219530   3.826   0.715  12.134 -0.1005  0.9231 -0.3712
 2632SOL     OW19531   0.842   4.027   7.252  0.0861 -0.6106  0.4264
 2632SOL    HW119532   0.887   3.957   7.300 -0.2214  0.8588  2.8385
 2632SOL    HW219533   0.828   3.983   7.168 -3.7443 -4.0550  2.8942
 2633SOL     OW19534   4.000   2.846   3.824  0.5389 -0.3849 -0.3756
 2633SOL    HW119535   4.079   2.825   3.775  1.5745  2.6720 -0.0320
 2633SOL    HW219536   4.031   2.847   3.915  1.5595 -1.2146 -0.7142
 2634SOL     OW19537   0.998   0.322   4.634  0.4688 -0.8190 -0.2065
 2634SOL    HW119538   0.984   0.335   4.727  1.2442 -1.1866 -0.0368
 2634SOL    HW219539   1.068   0.386   4.622 -1.7100  1.5791  0.0121
 2635SOL     OW19540   2.815   1.307   2.554 -0.2561 -0.0937 -0.7639
 2635SOL    HW119541   2.818   1.361   2.475 -1.3595 -0.2391 -0.9106
 2635SOL    HW219542   2.877   1.237   2.533  0.4484  1.0329 -2.4777
 2636SOL     OW19543   1.279   3.349   7.507 -0.1393 -0.4640  0.0117
 2636SOL    HW119544   1.275   3.397   7.425  2.0141  0.2015  0.2860
 2636SOL    HW219545   1.314   3.266   7.475  1.5771  0.0705  0.4902
 2637SOL     OW19546   2.637   1.011  14.010 -0.2713 -0.3064 -0.8004
 2637SOL    HW119547   2.552   1.056  14.010 -0.1982 -0.1774  1.4974
 2637SOL    HW219548   2.689   1.058  14.075  1.4900 -0.4330 -2.1463
 2638SOL     OW19549   2.544   1.409  12.700  0.0346  0.0143  0.3982
 2638SOL    HW119550   2.536   1.503  12.684  1.0431 -0.2101 -1.3903
 2638SOL    HW219551   2.474   1.404  12.765  0.9662 -0.2935  1.3765
 2639SOL     OW19552   4.346   3.941   7.464  0.1139 -0.0588 -0.2056
 2639SOL    HW119553   4.353   3.913   7.372 -1.0276 -0.3583 -0.2001
 2639SOL    HW219554   4.433   3.976   7.480  0.9042 -0.5019 -3.4110
 2640SOL     OW19555   3.859   2.893   2.867  0.0603 -0.4642  0.1458
 2640SOL    HW119556   3.869   2.799   2.848  1.3695 -0.5817  1.4058
 2640SOL    HW219557   3.829   2.904   2.957  1.6402  1.0138  0.4929
 2641SOL     OW19558   3.421   0.671  15.857  0.8149  0.2118  0.0640
 2641SOL    HW119559   3.413   0.765  15.840  0.1458  0.2519  0.5818
 2641SOL    HW219560   3.428   0.666  15.952 -0.2210  1.0854  0.1918
 2642SOL     OW19561   3.830   1.670   8.753  0.6660 -0.7221 -0.1542
 2642SOL    HW119562   3.772   1.737   8.789  0.6499  0.2353 -1.9878
 2642SOL    HW219563   3.850   1.707   8.667 -2.4677  3.3017  0.8695
 2643SOL     OW19564   2.405   2.144   3.879 -0.0256 -0.0175 -0.3785
 2643SOL    HW119565   2.317   2.146   3.917  1.3339 -0.9337  2.7726
 2643SOL    HW219566   2.395   2.179   3.791  0.2092  2.5121  0.5839
 2644SOL     OW19567   1.335   4.393   7.220  0.0156 -0.1200 -0.4572
 2644SOL    HW119568   1.319   4.487   7.228 -0.3932 -0.1267 -1.2357
 2644SOL    HW219569   1.270   4.364   7.283  0.6127 -0.1876  0.1214
 2645SOL     OW19570   3.991   4.638   3.476 -0.2309 -0.2894 -0.3592
 2645SOL    HW119571   3.907   4.685   3.474 -1.7712 -3.2021 -4.1611
 2645SOL    HW219572   4.050   4.694   3.425  2.2033 -1.8729  0.7172
 2646SOL     OW19573   2.449   0.135   4.014 -0.2806  0.7573  0.2631
 2646SOL    HW119574   2.533   0.097   4.038  0.3022  1.3638 -0.8224
 2646SOL    HW219575   2.452   0.113   3.921  1.0070 -0.4469  0.5936
 2647SOL     OW19576   0.279   4.100   7.078 -0.5519 -0.4179 -0.6734
 2647SOL    HW119577   0.355   4.159   7.076 -0.7744 -0.0792  0.6392
 2647SOL    HW219578   0.293   4.054   7.161  1.4227 -1.5378 -1.6253
 2648SOL     OW19579   1.152   1.065   5.941  0.1373  0.0247 -0.2622
 2648SOL    HW119580   1.173   1.130   6.008  1.6360  0.0191 -0.7383
 2648SOL    HW219581   1.088   1.017   5.994  0.3547  0.3172  0.2644
 2649SOL     OW19582   0.800   4.122   8.008 -0.2504  0.1824 -0.1852
 2649SOL    HW119583   0.868   4.183   7.981  0.5429 -1.6290 -2.2882
 2649SOL    HW219584   0.790   4.144   8.101  1.0944  1.1150 -0.2654
 2650SOL     OW19585   3.047   1.830   7.936 -0.4155 -0.1755  0.1908
 2650SOL    HW119586   2.980   1.766   7.912  2.6915 -2.0148 -3.6274
 2650SOL    HW219587   2.992   1.903   7.963 -1.7605 -0.6771 -1.2125
 2651SOL     OW19588   3.948   2.538   3.833  0.5053 -0.2073 -0.1534
 2651SOL    HW119589   3.955   2.632   3.817 -0.3864 -0.1468 -0.1912
 2651SOL    HW219590   3.854   2.539   3.851  0.8752 -0.6619  1.7819
 2652SOL     OW19591   2.805   1.238   4.493  0.5441  0.5111  0.1438
 2652SOL    HW119592   2.772   1.150   4.473 -0.7081  0.3324  2.8578
 2652SOL    HW219593   2.830   1.250   4.402  0.4758 -0.0668  0.0488
 2653SOL     OW19594   0.396   0.095  13.703  0.3193 -0.1599  0.0827
 2653SOL    HW119595   0.325   0.083  13.640 -0.5503  1.5062  0.7556
 2653SOL    HW219596   0.342   0.130  13.773  0.5722 -0.4514  0.4245
 2654SOL     OW19597   2.821   4.555   5.899 -0.5860  0.2887 -0.0536
 2654SOL    HW119598   2.729   4.570   5.922 -0.6532  0.9237 -0.7528
 2654SOL    HW219599   2.827   4.463   5.872 -1.0572  0.3692 -0.4303
 2655SOL     OW19600   2.901   2.437  10.940  0.1567 -0.3798 -0.4746
 2655SOL    HW119601   2.872   2.528  10.942  0.6419 -0.2122 -0.9851
 2655SOL    HW219602   2.979   2.444  10.994 -0.1435 -1.9532  0.1641
 2656SOL     OW19603   2.808   1.847   1.816 -0.4244 -0.2726 -0.1116
 2656SOL    HW119604   2.713   1.860   1.806 -0.1614  0.6856 -1.2949
 2656SOL    HW219605   2.809   1.862   1.911 -0.5856 -1.3329  0.0572
 2657SOL     OW19606   0.053   2.446   0.617 -0.1973 -0.1039  0.2858
 2657SOL    HW119607   0.107   2.386   0.566  0.3870  2.0877 -1.7047
 2657SOL    HW219608   0.024   2.502   0.544 -0.2399 -0.5622 -0.0443
 2658SOL     OW19609   3.866   0.914   5.303 -0.6740 -0.5007 -0.0526
 2658SOL    HW119610   3.837   0.830   5.268 -0.2539  0.1851 -2.0072
 2658SOL    HW219611   3.873   0.894   5.397  0.4735 -2.3165 -0.5219
 2659SOL     OW19612   0.309   4.244  10.027 -0.1591 -0.2567  0.2598
 2659SOL    HW119613   0.213   4.238  10.020 -0.3968  2.5153  0.9757
 2659SOL    HW219614   0.319   4.255  10.122  3.0510  0.6849 -0.1902
 2660SOL     OW19615   2.356   3.469   6.523 -0.0975  0.2485 -0.5778
 2660SOL    HW119616   2.383   3.464   6.614 -1.7437 -1.3819 -0.1834
 2660SOL    HW219617   2.333   3.377   6.508 -1.1636  0.8401 -2.7190
 2661SOL     OW19618   0.494   1.541  14.562 -0.2285 -0.1271  0.8871
 2661SOL    HW119619   0.420   1.514  14.507 -0.3828 -1.9847  1.9932
 2661SOL    HW219620   0.456   1.626  14.585 -0.1384 -0.2456  1.4732
 2662SOL     OW19621   0.679   2.275   8.840  0.1409 -0.0455 -0.3023
 2662SOL    HW119622   0.623   2.226   8.779  0.9139 -2.5522  0.9844
 2662SOL    HW219623   0.745   2.207   8.853 -0.2407 -0.0774  1.4147
 2663SOL     OW19624   3.725   3.671   4.953 -0.2937  0.1170 -0.5946
 2663SOL    HW119625   3.785   3.670   4.878  0.8658  2.1934  0.3191
 2663SOL    HW219626   3.696   3.580   4.948  1.9311 -0.7346  2.3005
 2664SOL     OW19627   2.709   0.734   2.339  0.0253  0.3166 -0.6901
 2664SOL    HW119628   2.787   0.744   2.285 -1.6042  1.3760 -2.8529
 2664SOL    HW219629   2.704   0.826   2.363 -1.3714  0.4914 -1.6335
 2665SOL     OW19630   2.434   1.082  10.372  0.0921 -0.0499 -0.7345
 2665SOL    HW119631   2.453   1.149  10.438 -3.6666  1.9023 -1.6612
 2665SOL    HW219632   2.464   1.136  10.299 -0.4278  1.4795  0.1832
 2666SOL     OW19633   1.092   1.591   8.824  0.1189 -0.6429 -0.4692
 2666SOL    HW119634   1.174   1.544   8.839 -0.4387 -1.4135  0.1637
 2666SOL    HW219635   1.034   1.517   8.805 -1.8520  0.1313  2.5646
 2667SOL     OW19636   0.860   2.239   0.935 -0.0219 -0.3195 -0.2071
 2667SOL    HW119637   0.940   2.227   0.884 -0.1397 -2.1272  0.0264
 2667SOL    HW219638   0.898   2.208   1.018 -2.2652 -1.1773  0.4915
 2668SOL     OW19639   3.332   4.046   1.793 -0.4625  0.3068 -0.5242
 2668SOL    HW119640   3.295   4.091   1.717 -1.7239 -0.1241 -0.1722
 2668SOL    HW219641   3.278   4.075   1.866 -1.2729  1.6079 -1.6477
 2669SOL     OW19642   0.338   2.161  17.414  0.0063  0.2618  0.3712
 2669SOL    HW119643   0.408   2.118  17.365  1.2580 -0.3428  2.6990
 2669SOL    HW219644   0.319   2.108  17.491 -0.4785  0.3506  0.3118
 2670SOL     OW19645   1.748   3.227   4.261 -0.1556  0.4273 -0.0789
 2670SOL    HW119646   1.761   3.135   4.240 -0.7248  0.5401 -0.9355
 2670SOL    HW219647   1.655   3.236   4.238  0.4460  2.2622 -1.8405
 2671SOL     OW19648   1.438   0.090  15.323 -0.2487  0.3147 -0.1452
 2671SOL    HW119649   1.405   0.101  15.412 -0.0665  0.2868 -0.0749
 2671SOL    HW219650   1.361   0.054  15.279  1.0787 -2.3684 -0.2634
 2672SOL     OW19651   4.300   4.711   5.746  0.3153  0.1377 -0.5410
 2672SOL    HW119652   4.396   4.713   5.746  0.3192  0.4899  1.8778
 2672SOL    HW219653   4.297   4.644   5.815  3.6581 -0.0239 -0.5538
 2673SOL     OW19654   0.499   1.127   9.600  0.0525 -0.7973 -0.2835
 2673SOL    HW119655   0.550   1.106   9.522  0.3504 -1.3966  0.0686
 2673SOL    HW219656   0.554   1.088   9.668 -0.1909 -0.2607  0.2200
 2674SOL     OW19657   4.262   4.322   4.380  0.1897 -0.2225  0.3521
 2674SOL    HW119658   4.259   4.411   4.414  2.1226  0.5088 -1.3862
 2674SOL    HW219659   4.202   4.274   4.437  2.9596 -3.1570  0.8584
 2675SOL     OW19660   2.249   1.443   3.835  0.4203 -0.1082  0.1853
 2675SOL    HW119661   2.286   1.531   3.833 -0.2399  0.1830  1.0348
 2675SOL    HW219662   2.291   1.402   3.760  0.8586 -0.2940  0.5300
 2676SOL     OW19663   3.390   0.672   9.065  0.3227  0.2208 -0.5226
 2676SOL    HW119664   3.462   0.620   9.101 -1.5375 -1.2308  1.0860
 2676SOL    HW219665   3.357   0.691   9.152 -0.4719 -1.2659 -0.4886
 2677SOL     OW19666   4.259   0.834  11.187  0.3384  0.5878 -0.1313
 2677SOL    HW119667   4.339   0.780  11.195  0.3408  0.2155 -2.7440
 2677SOL    HW219668   4.296   0.907  11.235 -1.0910  0.6177  0.9130
 2678SOL     OW19669   2.682   0.658   4.834 -0.8091 -0.7675 -0.3961
 2678SOL    HW119670   2.653   0.713   4.761  2.3506 -0.6935 -1.5690
 2678SOL    HW219671   2.646   0.577   4.797 -0.4186 -1.0918 -0.0539
 2679SOL     OW19672   2.177   3.683  17.265 -0.9658 -0.0464 -0.0233
 2679SOL    HW119673   2.246   3.712  17.324 -1.9195  0.2504  0.9404
 2679SOL    HW219674   2.171   3.588  17.275 -2.4768  0.0648  0.1042
 2680SOL     OW19675   4.031   1.180   6.614 -0.3370  0.5925 -0.2908
 2680SOL    HW119676   4.101   1.117   6.596 -0.6722 -0.1820  1.0719
 2680SOL    HW219677   4.002   1.151   6.701 -1.7230 -1.2221 -1.3473
 2681SOL     OW19678   0.252   2.954  17.003 -0.4130  0.3820 -0.2068
 2681SOL    HW119679   0.341   2.987  16.993  1.4329 -4.2595  0.8520
 2681SOL    HW219680   0.227   2.947  16.911  1.2715  1.4629 -0.7517
 2682SOL     OW19681   0.951   0.873   1.043  0.4513 -0.1103 -0.1408
 2682SOL    HW119682   1.000   0.904   1.119  0.2449 -2.1622  0.8470
 2682SOL    HW219683   0.876   0.827   1.082  0.5447 -0.0671  0.0917
 2683SOL     OW19684   1.945   4.508   4.163 -0.0989 -0.1488  0.1645
 2683SOL    HW119685   1.960   4.498   4.257 -1.2192 -0.5562  0.3067
 2683SOL    HW219686   1.850   4.522   4.155  0.0192  1.3472  1.3092
 2684SOL     OW19687   4.349   2.006   7.069 -0.1657 -0.3884  0.5323
 2684SOL    HW119688   4.434   2.050   7.079 -0.4954  0.0818  1.2719
 2684SOL    HW219689   4.361   1.912   7.087  0.2870  0.0243  2.4497
 2685SOL     OW19690   1.559   3.259  12.111 -0.3315 -0.3746  0.3469
 2685SOL    HW119691   1.653   3.249  12.097 -0.4449 -2.8381  1.3054
 2685SOL    HW219692   1.545   3.318  12.037  1.1609 -0.8541 -0.3209
 2686SOL     OW19693   4.100   3.206  14.247 -0.0601 -0.2196 -0.0229
 2686SOL    HW119694   4.108   3.273  14.179  2.0761  0.2976  0.7392
 2686SOL    HW219695   4.106   3.134  14.184  0.0445 -1.6217  1.5707
 2687SOL     OW19696   2.590   2.946  14.111  0.2015 -0.3334 -0.0956
 2687SOL    HW119697   2.656   3.007  14.079 -0.2881  1.0599  1.5696
 2687SOL    HW219698   2.603   2.864  14.064 -1.9787  0.8168 -2.6861
 2688SOL     OW19699   1.909   3.219   3.922 -0.4500  0.0228 -0.3088
 2688SOL    HW119700   1.950   3.205   3.836  1.8646  0.4489  0.7161
 2688SOL    HW219701   1.818   3.217   3.893 -0.6289  1.3715  0.1689
 2689SOL     OW19702   4.199   3.213   7.010 -0.6476  0.6843  0.4038
 2689SOL    HW119703   4.277   3.208   7.065 -1.1655 -0.9595  0.9673
 2689SOL    HW219704   4.169   3.300   7.037 -2.0751  0.3800 -0.2080
 2690SOL     OW19705   1.382   0.061  15.934 -0.1123  0.6461 -0.5737
 2690SOL    HW119706   1.431   0.133  15.974  0.9578 -0.9146  0.9575
 2690SOL    HW219707   1.293   0.095  15.924 -0.2871  1.1976  2.6941
 2691SOL     OW19708   0.682   3.317  15.700  0.4343 -0.2213 -0.2694
 2691SOL    HW119709   0.766   3.362  15.700 -0.0682  0.6852  3.2094
 2691SOL    HW219710   0.699   3.236  15.651 -0.1225 -0.7995  0.4933
 2692SOL     OW19711   3.088   0.412   0.277  0.3751  0.0892 -0.2572
 2692SOL    HW119712   2.997   0.418   0.248  1.1098  0.1928 -2.5605
 2692SOL    HW219713   3.088   0.326   0.319 -1.5561  1.0182  1.6839
 2693SOL     OW19714   1.018   1.188   7.143 -0.5537 -0.4959  0.2760
 2693SOL    HW119715   1.060   1.115   7.098 -1.2689 -0.4351 -0.4976
 2693SOL    HW219716   0.952   1.218   7.080 -0.6643 -2.3966 -0.5354
 2694SOL     OW19717   2.424   1.403   7.035  0.3539 -0.6436  0.2283
 2694SOL    HW119718   2.372   1.380   7.112 -0.0593 -0.6237 -0.0475
 2694SOL    HW219719   2.391   1.356   6.958 -1.6344  1.2462 -0.0760
 2695SOL     OW19720   1.376   2.569  16.278  0.3909 -0.1943 -0.1560
 2695SOL    HW119721   1.365   2.492  16.334  0.2256 -0.5502 -0.6794
 2695SOL    HW219722   1.428   2.525  16.211  1.6749  0.8072  0.1795
 2696SOL     OW19723   0.584   0.556   2.458  0.2794 -0.0076  0.1378
 2696SOL    HW119724   0.501   0.596   2.482  0.7819 -0.0522  1.9680
 2696SOL    HW219725   0.566   0.539   2.366  1.8427  1.0936 -0.3769
 2697SOL     OW19726   4.571   3.297  12.123 -0.0274  0.3961  0.8589
 2697SOL    HW119727   4.555   3.204  12.138  1.2166  0.1503  0.6563
 2697SOL    HW219728   4.545   3.309  12.031  0.3396  1.8520  0.9497
 2698SOL     OW19729   3.610   2.701   3.297  0.3028 -0.4143  0.0664
 2698SOL    HW119730   3.591   2.706   3.390 -0.2969  0.9480 -0.1201
 2698SOL    HW219731   3.643   2.611   3.295 -2.4761 -1.4091 -1.0096
 2699SOL     OW19732   0.608   1.858  13.688 -0.6185 -0.3744  0.0159
 2699SOL    HW119733   0.547   1.840  13.760  1.5449 -0.0517  1.9471
 2699SOL    HW219734   0.662   1.779  13.685 -0.7099 -0.4607  0.6237
 2700SOL     OW19735   2.748   0.942   2.010 -0.1028  0.2657  0.2814
 2700SOL    HW119736   2.724   0.972   2.098 -0.3805 -0.5761  0.4890
 2700SOL    HW219737   2.748   1.025   1.962 -0.6007  0.5296  0.7293
 2701SOL     OW19738   1.553   0.654   2.229  0.7833  0.2113  0.0896
 2701SOL    HW119739   1.610   0.578   2.215 -1.5020 -1.1007 -2.0026
 2701SOL    HW219740   1.465   0.628   2.204  1.1834 -1.5003  0.4491
 2702SOL     OW19741   1.087   1.272  10.493 -0.9286 -0.1645 -0.4226
 2702SOL    HW119742   1.070   1.249  10.584  0.2205 -0.3568 -0.2643
 2702SOL    HW219743   1.175   1.308  10.501  0.2267 -3.2410  0.6879
 2703SOL     OW19744   0.976   0.462  11.363 -0.5160  0.3643  0.0397
 2703SOL    HW119745   0.908   0.522  11.332 -0.0274  1.3932  0.9489
 2703SOL    HW219746   1.025   0.520  11.422 -1.7412  1.0110  0.4167
 2704SOL     OW19747   0.122   2.387   3.982  0.1453 -0.1142 -0.4684
 2704SOL    HW119748   0.141   2.467   3.934  0.8004 -0.8390 -1.4330
 2704SOL    HW219749   0.046   2.365   3.928  1.2044 -0.5572 -1.7738
 2705SOL     OW19750   3.187   3.707  13.378  0.2801 -0.7184 -0.1187
 2705SOL    HW119751   3.110   3.735  13.328 -0.9352 -1.7214  1.1755
 2705SOL    HW219752   3.248   3.777  13.357 -0.0153  0.6716  3.5563
 2706SOL     OW19753   2.370   3.033   3.433  0.2083 -0.0463 -0.3041
 2706SOL    HW119754   2.374   3.128   3.421 -0.6011  0.5206  4.1633
 2706SOL    HW219755   2.449   3.014   3.483 -0.4685 -0.9258  0.4286
 2707SOL     OW19756   0.009   2.549   6.459 -0.0199 -0.4407 -0.6027
 2707SOL    HW119757   4.696   2.470   6.437 -0.7090 -0.7570  1.9971
 2707SOL    HW219758   4.711   2.620   6.405 -0.1013 -2.0095 -2.6226
 2708SOL     OW19759   3.392   0.802  14.498 -0.1805 -0.2785  0.4041
 2708SOL    HW119760   3.471   0.762  14.462 -1.6310 -0.0358 -3.1014
 2708SOL    HW219761   3.419   0.892  14.519  2.1669 -0.7353 -0.7196
 2709SOL     OW19762   2.288   2.942   2.097 -0.3832  0.3055 -0.4903
 2709SOL    HW119763   2.218   2.956   2.033 -1.0261  0.9961  0.3736
 2709SOL    HW219764   2.357   2.976   2.040 -1.5167  1.3151 -1.2797
 2710SOL     OW19765   1.802   2.744   9.794 -0.1199  0.0783  0.2837
 2710SOL    HW119766   1.798   2.710   9.883 -0.8435 -0.8544 -0.1109
 2710SOL    HW219767   1.859   2.821   9.801  1.7541 -1.1939 -0.9556
 2711SOL     OW19768   0.955   1.868  13.655 -0.1554  0.2687  0.2318
 2711SOL    HW119769   1.041   1.826  13.654  0.4761  1.5555 -0.5678
 2711SOL    HW219770   0.950   1.893  13.748  0.4386 -1.5914  0.7521
 2712SOL     OW19771   2.745   0.931   7.131 -0.0507 -0.1271 -0.5438
 2712SOL    HW119772   2.751   0.917   7.225 -3.7250 -0.7636 -0.3822
 2712SOL    HW219773   2.820   0.875   7.108  0.1139 -0.1221 -0.0080
 2713SOL     OW19774   2.162   3.434  17.353 -0.1942 -0.4812 -0.4953
 2713SOL    HW119775   2.244   3.393  17.325 -0.3846 -1.3750  0.2727
 2713SOL    HW219776   2.152   3.390  17.437 -1.8400 -2.4236 -1.7088
 2714SOL     OW19777   2.228   1.520  10.875 -0.2938  0.0328 -0.2634
 2714SOL    HW119778   2.271   1.435  10.872 -0.1221  0.0604  1.6314
 2714SOL    HW219779   2.299   1.580  10.897  1.4682 -1.2592 -2.5122
 2715SOL     OW19780   1.772   0.586   1.124 -0.4929 -0.2462 -0.2142
 2715SOL    HW119781   1.850   0.600   1.179 -1.4856 -1.6309  1.5271
 2715SOL    HW219782   1.741   0.501   1.153  0.6682 -0.7155 -0.3230
 2716SOL     OW19783   2.508   4.715   5.337 -0.1610 -0.0221  0.1326
 2716SOL    HW119784   2.499   0.029   5.418 -1.9492 -0.1192  0.0047
 2716SOL    HW219785   2.534   0.048   5.276  0.6344  0.7342  1.3405
 2717SOL     OW19786   0.094   1.159   9.512  0.0507  0.1616  0.2352
 2717SOL    HW119787   4.734   1.152   9.514 -0.0431  1.5194  0.8962
 2717SOL    HW219788   0.128   1.128   9.428  2.2945 -0.3918  1.3709
 2718SOL     OW19789   2.446   1.891  13.203 -0.4298  0.3935  0.2775
 2718SOL    HW119790   2.460   1.808  13.158  0.6220  0.5324  0.3373
 2718SOL    HW219791   2.382   1.869  13.271 -0.7632 -1.3895 -0.6007
 2719SOL     OW19792   1.475   3.540  14.982 -0.2599  0.0890 -0.1835
 2719SOL    HW119793   1.393   3.547  14.932 -2.0179 -0.9477  2.5679
 2719SOL    HW219794   1.499   3.631  14.999 -2.2186  0.4175  0.8400
 2720SOL     OW19795   2.575   3.924   7.278 -0.2002 -0.0963 -0.7526
 2720SOL    HW119796   2.491   3.963   7.256 -0.8442 -0.4173  1.1357
 2720SOL    HW219797   2.576   3.955   7.369  0.8851  2.1002 -1.5099
 2721SOL     OW19798   0.897   3.005   3.244  0.1002  0.3393 -0.3056
 2721SOL    HW119799   0.988   2.985   3.221  0.4595  0.5280  0.9554
 2721SOL    HW219800   0.884   2.937   3.310  2.3896  0.0912 -0.1009
 2722SOL     OW19801   4.223   0.021   7.478 -0.4878 -0.2156 -0.2639
 2722SOL    HW119802   4.265   0.061   7.401  0.4044 -2.3694 -0.9091
 2722SOL    HW219803   4.175   4.685   7.438 -1.4356  0.8292 -0.9933
 2723SOL     OW19804   3.649   1.466   9.949  0.0458  0.5209  0.6922
 2723SOL    HW119805   3.691   1.475  10.035  0.2288  0.8465  0.5687
 2723SOL    HW219806   3.681   1.379   9.923 -1.0578  0.8945 -1.8744
 2724SOL     OW19807   0.486   1.177   6.426 -0.3108 -0.3556 -0.3805
 2724SOL    HW119808   0.427   1.110   6.393 -1.4020  0.1905  0.4797
 2724SOL    HW219809   0.539   1.197   6.349  0.5387 -1.2076 -0.0235
 2725SOL     OW19810   3.118   4.140  16.702 -0.6538 -0.1191  0.0150
 2725SOL    HW119811   3.183   4.201  16.668  0.2439 -0.5424  0.9941
 2725SOL    HW219812   3.054   4.143  16.630 -0.4612  0.0111 -0.1491
 2726SOL     OW19813   3.242   2.015  12.661  0.4295  0.6096 -0.1606
 2726SOL    HW119814   3.306   1.960  12.705 -0.7277 -1.7953 -1.4835
 2726SOL    HW219815   3.276   2.001  12.572  1.1475 -0.7705  0.3326
 2727SOL     OW19816   0.123   3.242   3.596 -0.3526  0.5385 -0.2726
 2727SOL    HW119817   0.091   3.181   3.529  0.1188  0.9441 -0.8713
 2727SOL    HW219818   0.043   3.260   3.646 -2.0188 -1.9805 -2.0365
 2728SOL     OW19819   0.632   3.445   8.456  0.3598 -0.1714 -0.0844
 2728SOL    HW119820   0.714   3.492   8.442 -0.0495  0.5066 -0.1689
 2728SOL    HW219821   0.597   3.513   8.513 -2.8404 -1.5792 -0.3484
 2729SOL     OW19822   0.949   1.913   1.847  0.2095 -0.0528  0.9173
 2729SOL    HW119823   0.878   1.848   1.848  0.4844 -0.3935 -0.4980
 2729SOL    HW219824   1.010   1.875   1.784 -0.9544 -0.2365 -0.1211
 2730SOL     OW19825   3.846   2.064   8.019 -0.4986  0.3324 -0.4538
 2730SOL    HW119826   3.850   2.159   8.012  0.2713  0.2344 -1.3314
 2730SOL    HW219827   3.927   2.042   8.065 -0.9915  0.9583  0.7067
 2731SOL     OW19828   3.784   4.454   0.172 -0.5179 -0.3476 -0.0365
 2731SOL    HW119829   3.776   4.481   0.263  1.2087 -1.0051  0.3123
 2731SOL    HW219830   3.753   4.534   0.128  0.5202 -1.3008 -2.5201
 2732SOL     OW19831   1.118   4.351   2.700  0.0828  0.1228  0.3361
 2732SOL    HW119832   1.026   4.376   2.693 -0.3714 -1.3959  0.9192
 2732SOL    HW219833   1.155   4.404   2.770  1.1287 -0.8554  0.5246
 2733SOL     OW19834   3.644   1.073   2.517  0.2122  0.1196  0.3068
 2733SOL    HW119835   3.667   1.148   2.461  0.7769  0.4327  0.9565
 2733SOL    HW219836   3.678   0.994   2.476 -0.9505  0.0852 -0.5987
 2734SOL     OW19837   0.383   0.739   5.266  0.1259 -0.2512 -0.0322
 2734SOL    HW119838   0.451   0.721   5.331 -0.0591 -0.9703 -0.0420
 2734SOL    HW219839   0.308   0.758   5.322 -0.4953 -0.8086 -0.6778
 2735SOL     OW19840   2.973   4.021  17.429  0.1547 -0.0598 -0.1303
 2735SOL    HW119841   2.989   4.115  17.442  1.2687 -0.3360  0.4956
 2735SOL    HW219842   3.055   3.973  17.434 -0.0512 -0.6032 -1.9960
 2736SOL     OW19843   0.703   0.081   7.823 -0.2249 -0.3407 -0.1359
 2736SOL    HW119844   0.636   0.014   7.834 -0.6460  0.5052  2.3527
 2736SOL    HW219845   0.700   0.100   7.729  2.8300  1.4944  0.1202
 2737SOL     OW19846   2.233   3.524   3.182 -0.4430 -0.4203  0.3024
 2737SOL    HW119847   2.174   3.493   3.251 -1.8806  0.0198 -0.7172
 2737SOL    HW219848   2.290   3.576   3.238  0.1822 -0.6047 -0.1666
 2738SOL     OW19849   1.376   3.008   5.373  0.0701  0.0032  0.5443
 2738SOL    HW119850   1.446   3.009   5.439  1.3485  1.1104 -0.8401
 2738SOL    HW219851   1.388   3.097   5.338  2.1629 -0.7098 -0.5430
 2739SOL     OW19852   0.845   2.551   1.605 -0.1851 -0.8642  0.6415
 2739SOL    HW119853   0.937   2.549   1.629  0.3560  3.0308 -1.1666
 2739SOL    HW219854   0.823   2.458   1.598 -1.2186 -0.6896  1.4809
 2740SOL     OW19855   2.450   2.165  12.570  0.3656  0.5029  0.0489
 2740SOL    HW119856   2.501   2.124  12.501 -0.1801  0.0391 -0.0753
 2740SOL    HW219857   2.365   2.186  12.531  1.4257  2.8785 -0.9884
 2741SOL     OW19858   2.162   0.643   6.190 -0.1854  0.1296  0.1228
 2741SOL    HW119859   2.205   0.723   6.159 -0.9947  0.6457  0.3189
 2741SOL    HW219860   2.102   0.614   6.122 -1.0808  0.5821  0.7099
 2742SOL     OW19861   2.102   0.970   3.224 -0.2206  0.7018  0.6306
 2742SOL    HW119862   2.154   1.049   3.211  0.4083 -0.1659 -2.0176
 2742SOL    HW219863   2.164   0.905   3.191 -0.4456  0.3565  0.8838
 2743SOL     OW19864   3.242   0.223   5.480 -0.4851  0.1155  0.1856
 2743SOL    HW119865   3.194   0.274   5.545 -1.2197 -0.1296 -0.1635
 2743SOL    HW219866   3.320   0.278   5.471 -0.3855 -0.0114  0.2628
 2744SOL     OW19867   3.123   2.911   0.918  0.7453 -0.2107  0.3489
 2744SOL    HW119868   3.159   3.000   0.920  1.2485 -0.4177  0.3258
 2744SOL    HW219869   3.038   2.934   0.881  0.4784 -0.7108  0.6485
 2745SOL     OW19870   4.255   4.025  14.296 -0.1625 -0.3751  0.4081
 2745SOL    HW119871   4.262   4.105  14.348  1.0769  1.0543 -1.9788
 2745SOL    HW219872   4.184   4.049  14.236 -1.2078 -1.4096  1.2084
 2746SOL     OW19873   1.225   3.561   7.327 -0.2659  0.1201 -0.6381
 2746SOL    HW119874   1.212   3.513   7.245  1.2117  0.2655 -0.9634
 2746SOL    HW219875   1.238   3.653   7.303 -2.9579  0.9012  0.9582
 2747SOL     OW19876   0.049   3.664   3.855  0.1717  0.2676  0.0195
 2747SOL    HW119877   0.136   3.698   3.874 -0.1089  1.0110 -0.0088
 2747SOL    HW219878   4.733   3.701   3.926  0.5761  1.4539 -0.3068
 2748SOL     OW19879   0.309   2.452   5.484  0.1319 -0.1438 -0.6066
 2748SOL    HW119880   0.368   2.497   5.423  0.1137 -0.2367 -0.6937
 2748SOL    HW219881   0.343   2.443   5.573 -0.9550  0.6128 -0.1247
 2749SOL     OW19882   0.192   1.811  10.004  0.1044 -0.0652 -0.0576
 2749SOL    HW119883   0.121   1.806   9.940 -1.8108 -1.0658  2.1271
 2749SOL    HW219884   0.208   1.716  10.012 -0.3725 -0.2444 -1.2527
 2750SOL     OW19885   3.425   3.193   2.952 -0.0477 -0.1884 -0.0424
 2750SOL    HW119886   3.459   3.211   3.040  0.2102 -1.6567  0.1532
 2750SOL    HW219887   3.494   3.237   2.902 -0.9198  1.5762  0.3287
 2751SOL     OW19888   4.611   1.479   8.272  0.2265 -0.1008 -0.0240
 2751SOL    HW119889   4.560   1.553   8.241  0.3224  0.1488  0.4026
 2751SOL    HW219890   4.608   1.414   8.202  0.2946 -0.6221  0.4563
 2752SOL     OW19891   3.168   3.203   0.697 -0.7964 -0.0771 -0.1980
 2752SOL    HW119892   3.247   3.156   0.720 -1.6766 -0.7638  1.4235
 2752SOL    HW219893   3.101   3.176   0.759 -1.2295 -0.8178 -0.9886
 2753SOL     OW19894   0.345   3.487   3.138  0.1997  0.0538 -0.2657
 2753SOL    HW119895   0.329   3.439   3.056  0.2001  0.5975 -0.5859
 2753SOL    HW219896   0.255   3.493   3.170  0.8163 -2.6971  1.9357
 2754SOL     OW19897   3.394   1.065  15.683  0.1099  0.0921  0.8672
 2754SOL    HW119898   3.442   0.999  15.633 -1.9354 -1.0888  0.4811
 2754SOL    HW219899   3.357   1.012  15.753 -1.7245  0.1669 -0.0319
 2755SOL     OW19900   3.111   2.702   5.129  0.3504 -0.1844  0.3778
 2755SOL    HW119901   3.076   2.665   5.210 -0.0179  2.1283  1.2677
 2755SOL    HW219902   3.201   2.676   5.147  0.5681  0.2869 -0.0317
 2756SOL     OW19903   3.223   2.256   5.426  0.0185 -0.1024 -0.7270
 2756SOL    HW119904   3.157   2.273   5.493 -1.2697 -2.0703 -1.5081
 2756SOL    HW219905   3.206   2.162   5.429 -1.7905  0.1920 -1.8141
 2757SOL     OW19906   3.180   0.710  17.731  0.3664  0.4085  0.2874
 2757SOL    HW119907   3.131   0.730   0.070 -1.1834  0.2447 -0.6218
 2757SOL    HW219908   3.149   0.795  17.699 -0.5407 -0.4825 -1.1937
 2758SOL     OW19909   0.133   4.459   5.449  0.2250  0.3118 -0.3820
 2758SOL    HW119910   0.151   4.365   5.453  0.2869  0.4607  2.6073
 2758SOL    HW219911   0.041   4.459   5.421 -0.2933 -0.6160  1.3172
 2759SOL     OW19912   3.857   1.783   5.321 -0.3802  0.1044  0.4161
 2759SOL    HW119913   3.824   1.775   5.411 -0.3114 -1.9642  0.2517
 2759SOL    HW219914   3.825   1.699   5.289 -1.4136  0.4438  0.5472
 2760SOL     OW19915   2.830   1.354   8.749 -0.3195  0.1310 -0.3732
 2760SOL    HW119916   2.782   1.353   8.832  2.7893  1.3598  1.4209
 2760SOL    HW219917   2.889   1.280   8.762 -2.6118 -1.6399  0.0913
 2761SOL     OW19918   3.880   1.958   2.453 -0.3990 -0.5305 -0.2748
 2761SOL    HW119919   3.836   1.899   2.392 -0.8892  2.2902 -2.6548
 2761SOL    HW219920   3.808   1.968   2.515 -0.2713 -0.8640 -0.0715
 2762SOL     OW19921   2.612   3.438   6.370  0.0138  0.6894 -0.0761
 2762SOL    HW119922   2.529   3.444   6.418  1.7169 -1.9795  3.2777
 2762SOL    HW219923   2.669   3.428   6.447 -0.6068  0.6300  0.3742
 2763SOL     OW19924   1.011   1.511   2.293 -0.1431  0.4985 -0.1188
 2763SOL    HW119925   1.099   1.475   2.292 -0.3774 -0.0633 -0.8005
 2763SOL    HW219926   0.971   1.470   2.370 -0.1754 -1.3631 -1.1321
 2764SOL     OW19927   2.918   3.263  10.835 -0.5628  0.1480 -1.1921
 2764SOL    HW119928   2.919   3.205  10.912  0.2589 -0.1999 -1.4692
 2764SOL    HW219929   3.003   3.240  10.798 -0.1636 -1.2475  0.5556
 2765SOL     OW19930   4.305   3.334   4.086  0.5113 -0.6864 -0.7773
 2765SOL    HW119931   4.327   3.241   4.092 -0.3987 -0.8220  0.4491
 2765SOL    HW219932   4.361   3.362   4.159  2.2310  0.5759 -2.5517
 2766SOL     OW19933   1.796   2.338  16.148 -0.1179 -0.6504  0.5762
 2766SOL    HW119934   1.838   2.387  16.219  0.8253  0.5896 -0.8407
 2766SOL    HW219935   1.875   2.310  16.101 -1.8771 -1.4763 -1.8579
 2767SOL     OW19936   1.129   3.327   3.793 -0.1626  0.0664 -0.2050
 2767SOL    HW119937   1.035   3.335   3.809 -0.6665 -0.3316 -2.9620
 2767SOL    HW219938   1.146   3.393   3.725 -0.7087 -1.0692 -1.4265
 2768SOL     OW19939   2.366   0.996   1.191  0.6233  0.5163  0.2522
 2768SOL    HW119940   2.439   1.047   1.225  0.0160  1.3094  0.3780
 2768SOL    HW219941   2.343   0.944   1.268 -0.1508  0.6113  0.0841
 2769SOL     OW19942   1.342   4.551   6.141  0.2358 -0.3965  0.2654
 2769SOL    HW119943   1.423   4.502   6.124  1.2974  0.7037  2.1931
 2769SOL    HW219944   1.276   4.509   6.085  0.1708 -0.2879  0.2616
 2770SOL     OW19945   4.006   0.614   8.103 -0.1791 -0.4075 -0.0986
 2770SOL    HW119946   4.096   0.599   8.072 -0.1594 -0.5522  0.0303
 2770SOL    HW219947   4.044   0.664   8.176 -0.7962  0.1738 -0.1715
 2771SOL     OW19948   3.918   3.889   6.145 -0.0568 -0.3760  0.1228
 2771SOL    HW119949   3.997   3.854   6.186 -0.9260  0.4490  2.5452
 2771SOL    HW219950   3.891   3.939   6.222 -1.1250  0.2837 -0.6837
 2772SOL     OW19951   0.978   2.043   7.683 -0.2627 -0.3536  0.1260
 2772SOL    HW119952   0.910   2.109   7.667  0.8685  0.7544 -0.1453
 2772SOL    HW219953   0.986   2.047   7.779  0.5847 -2.4344  0.1257
 2773SOL     OW19954   3.607   2.141  14.511 -0.1555 -0.3140 -0.4961
 2773SOL    HW119955   3.614   2.099  14.425  1.9924  0.6840 -0.8163
 2773SOL    HW219956   3.669   2.212  14.493 -0.0377 -0.3294 -0.1573
 2774SOL     OW19957   1.067   1.233   5.470 -0.2504  0.1328  0.1640
 2774SOL    HW119958   0.973   1.248   5.476 -0.7713 -2.0444 -2.5853
 2774SOL    HW219959   1.078   1.215   5.377 -1.9755  0.7622 -0.1661
 2775SOL     OW19960   3.158   0.682   3.818 -0.2620  0.0017  0.3134
 2775SOL    HW119961   3.180   0.648   3.731 -0.1365 -1.8007  1.0476
 2775SOL    HW219962   3.199   0.618   3.876 -0.2637  1.9639  2.4943
 2776SOL     OW19963   4.419   2.538  14.527 -0.5155  0.4691  0.3859
 2776SOL    HW119964   4.418   2.455  14.576  0.9413 -0.1353 -0.5961
 2776SOL    HW219965   4.450   2.595  14.598  1.8669 -1.8674  1.2344
 2777SOL     OW19966   2.644   3.130   6.472  0.0062  0.1277  0.0174
 2777SOL    HW119967   2.625   3.049   6.424 -1.2528  0.3145  0.2098
 2777SOL    HW219968   2.557   3.160   6.497 -1.0189  1.1184 -4.8283
 2778SOL     OW19969   4.279   3.171  17.545  0.3394 -0.6853  0.1569
 2778SOL    HW119970   4.284   3.119  17.465 -1.1859 -0.6176  0.0063
 2778SOL    HW219971   4.368   3.205  17.544  0.9120 -2.2416 -0.7050
 2779SOL     OW19972   1.966   3.514   4.053  0.1009  0.0834 -0.4505
 2779SOL    HW119973   1.915   3.521   4.134  2.0587 -1.4208  0.9185
 2779SOL    HW219974   1.942   3.423   4.033  0.0501  0.2898 -1.3467
 2780SOL     OW19975   3.151   4.570  17.353  0.3777  0.0175 -0.0352
 2780SOL    HW119976   3.183   4.542  17.438  1.0601 -0.9227 -0.5999
 2780SOL    HW219977   3.067   4.524  17.356  0.5345 -0.4447 -2.6321
 2781SOL     OW19978   3.097   2.854   7.020 -0.1771  0.9368  0.0509
 2781SOL    HW119979   3.175   2.825   7.067 -1.2634 -1.4383  0.3541
 2781SOL    HW219980   3.072   2.778   6.968  1.5869  0.9438 -0.7799
 2782SOL     OW19981   3.953   4.720  13.271 -0.5688 -0.2907  0.4486
 2782SOL    HW119982   4.006   4.664  13.328  0.1015 -0.6745 -0.5494
 2782SOL    HW219983   4.015   0.059  13.273 -1.7491  0.7253 -0.7582
 2783SOL     OW19984   2.860   0.004   5.671  0.6112 -0.0850 -0.2776
 2783SOL    HW119985   2.805   0.058   5.728  0.4789  0.4949 -0.9399
 2783SOL    HW219986   2.896   4.677   5.733  2.3963  0.9905 -0.2398
 2784SOL     OW19987   0.542   2.065   7.875 -0.4520 -0.0275  0.2468
 2784SOL    HW119988   0.622   2.108   7.905 -1.6027  1.8898  0.6025
 2784SOL    HW219989   0.473   2.126   7.900 -2.5122 -1.8393 -1.0204
 2785SOL     OW19990   2.574   1.524   6.324 -0.5200 -0.8635 -0.0789
 2785SOL    HW119991   2.586   1.429   6.323  2.6254 -0.5125  2.7897
 2785SOL    HW219992   2.494   1.532   6.272 -1.5296 -0.6444  1.5289
 2786SOL     OW19993   3.117   3.902   6.398  0.3310 -0.1199 -0.4080
 2786SOL    HW119994   3.171   3.840   6.446  1.2572  1.2638  0.3186
 2786SOL    HW219995   3.121   3.862   6.311  1.4677 -0.5039 -0.1759
 2787SOL     OW19996   0.161   3.992  11.176  0.2283  0.0403 -0.3968
 2787SOL    HW119997   0.090   3.928  11.180  0.1612  0.2615  1.7480
 2787SOL    HW219998   0.172   4.019  11.267  1.3824  1.0785 -0.8459
 2788SOL     OW19999   2.678   3.565   8.211 -0.0072  0.4121 -0.3159
 2788SOL    HW120000   2.666   3.471   8.201 -1.3485  0.4962  0.5185
 2788SOL    HW220001   2.733   3.571   8.290 -1.4066 -2.7817  0.8751
 2789SOL     OW20002   0.809   3.104   4.461  0.1547  0.2984 -0.2341
 2789SOL    HW120003   0.767   3.026   4.423  0.3144  0.4540 -0.7297
 2789SOL    HW220004   0.740   3.167   4.439  0.0820 -0.4569 -2.1887
 2790SOL     OW20005   0.026   2.257  14.199  0.5354  0.2169 -0.1131
 2790SOL    HW120006   0.029   2.326  14.133 -1.8775  1.2471  0.8569
 2790SOL    HW220007   4.710   2.188  14.155  0.7116  2.0205 -3.1517
 2791SOL     OW20008   2.612   1.639   8.928  0.2765 -0.4479 -0.3528
 2791SOL    HW120009   2.678   1.683   8.982 -1.6799  1.8507  0.1596
 2791SOL    HW220010   2.663   1.614   8.850 -0.9266 -0.7482 -1.0476
 2792SOL     OW20011   4.352   1.081   5.750 -0.0184 -0.2482  0.3564
 2792SOL    HW120012   4.438   1.070   5.710 -0.2227  0.8244 -0.3658
 2792SOL    HW220013   4.368   1.042   5.836  0.9291  1.3507  0.8967
 2793SOL     OW20014   4.484   0.150   0.089 -0.0019 -0.8236  0.1816
 2793SOL    HW120015   4.476   0.118  17.739 -1.0242  2.0268 -0.7448
 2793SOL    HW220016   4.563   0.204   0.090  1.0977 -2.4200 -1.0554
 2794SOL     OW20017   2.232   4.731   8.351 -0.5379 -0.2076  0.5060
 2794SOL    HW120018   2.241   0.057   8.423  0.1856  1.9275 -1.4066
 2794SOL    HW220019   2.274   4.656   8.394  2.1572  1.4048  0.6383
 2795SOL     OW20020   0.742   3.847   6.509  0.0637 -0.6403  0.3609
 2795SOL    HW120021   0.698   3.773   6.551 -0.0323 -0.2592  0.9273
 2795SOL    HW220022   0.661   3.880   6.471  1.1893  0.9825 -0.6505
 2796SOL     OW20023   0.781   4.489  10.391 -0.6082 -0.1725 -0.2695
 2796SOL    HW120024   0.717   4.496  10.320  0.6894 -2.3893 -1.6282
 2796SOL    HW220025   0.723   4.452  10.458 -0.3072 -0.0845  0.0403
 2797SOL     OW20026   2.988   1.708   4.213  0.3551  0.1077  0.2016
 2797SOL    HW120027   2.892   1.717   4.212  0.3105 -0.0010  2.0097
 2797SOL    HW220028   3.009   1.744   4.299 -2.5717 -0.8315  1.3192
 2798SOL     OW20029   1.178   3.643   1.080  0.0445  0.0227  0.1254
 2798SOL    HW120030   1.093   3.658   1.120 -0.7790 -3.2578 -0.3357
 2798SOL    HW220031   1.195   3.730   1.044 -0.6152  1.1290  2.5174
 2799SOL     OW20032   4.076   4.339   2.227  0.2816  0.1040  0.8703
 2799SOL    HW120033   4.065   4.414   2.168 -2.5799 -1.0051 -0.0069
 2799SOL    HW220034   4.091   4.384   2.310 -1.3037 -2.4278  2.5139
 2800SOL     OW20035   1.353   3.962   3.141 -0.5317  0.8978 -0.6840
 2800SOL    HW120036   1.439   3.921   3.154 -0.2280  1.6355 -0.3401
 2800SOL    HW220037   1.309   3.887   3.100 -0.4566  0.4399  0.0707
 2801SOL     OW20038   3.199   2.265   3.736 -0.3196  0.2666  0.3026
 2801SOL    HW120039   3.224   2.177   3.761  0.0357  0.3932  0.3872
 2801SOL    HW220040   3.130   2.276   3.802 -0.2494  0.6981  0.3072
 2802SOL     OW20041   1.857   0.422  11.725 -0.5974 -0.7132 -0.3957
 2802SOL    HW120042   1.824   0.381  11.805 -0.0068  0.1159  0.2622
 2802SOL    HW220043   1.887   0.344  11.679 -0.3594 -0.7000 -0.2611
 2803SOL     OW20044   1.030   3.549  13.243  0.2447 -0.1016 -0.1588
 2803SOL    HW120045   0.962   3.614  13.261  2.4414  2.4755 -1.2265
 2803SOL    HW220046   1.082   3.603  13.184  1.0806  1.2523  1.8141
 2804SOL     OW20047   0.978   4.089   8.408  0.0831 -0.9198 -0.0250
 2804SOL    HW120048   1.019   4.097   8.494  1.1844 -1.5279 -0.4791
 2804SOL    HW220049   0.903   4.146   8.419  1.5776  0.9294  0.4905
 2805SOL     OW20050   2.720   0.127   2.233  0.0823 -0.2160 -0.1624
 2805SOL    HW120051   2.690   0.209   2.270 -0.0322  0.3006 -1.4034
 2805SOL    HW220052   2.734   0.079   2.315  1.6283  0.5676  0.0357
 2806SOL     OW20053   3.750   1.992  14.727 -0.7779 -0.4026 -0.1496
 2806SOL    HW120054   3.743   2.082  14.758  1.9648  0.4399 -2.0308
 2806SOL    HW220055   3.675   1.991  14.666 -2.1509  1.6255  1.5160
 2807SOL     OW20056   1.771   3.734   7.588 -0.9802 -0.0505  0.3441
 2807SOL    HW120057   1.762   3.759   7.681  0.7154  2.1970 -0.0788
 2807SOL    HW220058   1.680   3.740   7.560 -1.0265  0.0271  0.5101
 2808SOL     OW20059   4.187   0.823   4.333  0.3556  0.3133  0.2228
 2808SOL    HW120060   4.235   0.889   4.282  1.4012  0.3141  1.2175
 2808SOL    HW220061   4.253   0.796   4.397  1.2515  0.1260 -0.7780
 2809SOL     OW20062   1.994   1.905   4.185 -0.0528 -0.3039 -0.4483
 2809SOL    HW120063   2.053   1.958   4.239 -1.8534  1.4504 -0.2055
 2809SOL    HW220064   1.911   1.940   4.217  0.0229  0.1602 -0.7546
 2810SOL     OW20065   1.550   3.094   3.323 -0.0732 -0.7103 -0.0456
 2810SOL    HW120066   1.500   3.122   3.246  2.4533 -0.1793 -1.4788
 2810SOL    HW220067   1.482   3.059   3.381 -1.6020  2.3051 -0.0004
 2811SOL     OW20068   1.934   4.678  12.518 -0.4132  0.2208 -0.6158
 2811SOL    HW120069   2.018   4.666  12.473 -1.7953 -2.8614 -2.3938
 2811SOL    HW220070   1.959   0.015  12.575 -1.5686 -0.2914  0.5285
 2812SOL     OW20071   4.443   1.273   1.588 -0.0335 -0.3759 -0.3909
 2812SOL    HW120072   4.425   1.307   1.500  2.4823  0.5398 -0.5534
 2812SOL    HW220073   4.464   1.354   1.634  0.7397 -0.1861 -1.0842
 2813SOL     OW20074   2.092   3.785   6.503 -0.3478  0.2032 -0.3703
 2813SOL    HW120075   2.131   3.708   6.546  2.2142  1.2708 -0.7975
 2813SOL    HW220076   2.124   3.783   6.413 -3.0831  0.2625 -1.3267
 2814SOL     OW20077   4.541   4.461   9.966 -0.1630 -0.2897  0.3710
 2814SOL    HW120078   4.500   4.385   9.925  0.2256 -0.8402  1.0023
 2814SOL    HW220079   4.635   4.444   9.973 -0.5435 -2.3475  0.5095
 2815SOL     OW20080   2.732   0.470  11.194 -0.0692 -0.5465 -0.2708
 2815SOL    HW120081   2.682   0.470  11.113 -2.7083  1.9809  1.3693
 2815SOL    HW220082   2.726   0.379  11.225 -0.5132 -1.1065 -1.9945
 2816SOL     OW20083   3.086   1.024  11.202 -0.0239 -0.3941  0.1693
 2816SOL    HW120084   3.076   0.930  11.185 -0.0060 -0.5366  0.9128
 2816SOL    HW220085   3.018   1.031  11.269  1.0725  1.8990  1.0686
 2817SOL     OW20086   2.295   0.092  16.520  0.1033 -0.2528 -0.0461
 2817SOL    HW120087   2.256   0.157  16.462  1.3098  0.1599 -0.3850
 2817SOL    HW220088   2.348   0.158  16.565 -0.4691  0.7341 -0.8196
 2818SOL     OW20089   3.641   0.139   4.245  0.2605  0.7396 -0.3480
 2818SOL    HW120090   3.684   0.143   4.159  0.9162  1.9987  0.0349
 2818SOL    HW220091   3.715   0.156   4.303  1.3288  0.2246 -1.5663
 2819SOL     OW20092   4.664   2.430   7.118  0.0222  1.3801 -0.1963
 2819SOL    HW120093   4.696   2.367   7.182  1.0192  0.6182 -1.4339
 2819SOL    HW220094   4.672   2.375   7.039 -2.4118  0.3250  0.3083
 2820SOL     OW20095   2.985   0.703   9.163  0.2345 -0.2477  0.0695
 2820SOL    HW120096   3.072   0.740   9.174 -0.5534  0.8570  2.5208
 2820SOL    HW220097   2.990   0.619   9.209  0.5347 -0.0527  0.3924
 2821SOL     OW20098   2.959   0.874   3.878  0.6572  0.4281  0.5731
 2821SOL    HW120099   3.001   0.940   3.822  0.2998 -0.1734 -0.4068
 2821SOL    HW220100   3.013   0.795   3.870 -0.2978 -0.2529  0.8692
 2822SOL     OW20101   4.647   0.465   2.448  0.4265 -0.3831  0.4902
 2822SOL    HW120102   4.671   0.556   2.462  0.9614 -0.3917 -0.3524
 2822SOL    HW220103   4.721   0.426   2.493  0.6787 -3.6601 -2.7108
 2823SOL     OW20104   4.173   1.726   6.700  0.0713 -0.3754 -0.4050
 2823SOL    HW120105   4.156   1.632   6.697 -1.1326 -0.1869  0.4351
 2823SOL    HW220106   4.192   1.734   6.793  1.0137 -0.7438 -0.5756
 2824SOL     OW20107   0.493   2.610  15.045  0.5123  0.2239 -0.0489
 2824SOL    HW120108   0.445   2.569  14.973  1.3836 -2.7148  1.0341
 2824SOL    HW220109   0.545   2.675  14.999 -1.4694  1.8883  0.0758
 2825SOL     OW20110   0.572   1.514  12.079 -0.2107 -0.0668 -0.8756
 2825SOL    HW120111   0.624   1.439  12.049  0.9965  0.2083  0.5288
 2825SOL    HW220112   0.499   1.470  12.122  0.3201 -1.3634 -1.3111
 2826SOL     OW20113   0.871   0.642   7.887 -0.4041  0.4058  0.3512
 2826SOL    HW120114   0.853   0.651   7.980  1.8093 -0.5866  0.8829
 2826SOL    HW220115   0.951   0.694   7.880  0.1366 -0.2670  1.6649
 2827SOL     OW20116   2.844   2.768   7.767  0.1590  0.4252  0.6322
 2827SOL    HW120117   2.837   2.777   7.862 -2.9138  1.7382  0.2931
 2827SOL    HW220118   2.794   2.687   7.753 -1.0356  1.3686 -0.4697
 2828SOL     OW20119   3.026   3.455   2.326  0.1440  0.9171  1.0952
 2828SOL    HW120120   3.072   3.497   2.399  1.4099  1.0167  0.2332
 2828SOL    HW220121   2.934   3.455   2.353 -0.2595  0.6751 -0.2753
 2829SOL     OW20122   2.258   1.868   2.888 -0.9418  0.4183  0.3772
 2829SOL    HW120123   2.225   1.817   2.815  0.3145  0.0852  0.0292
 2829SOL    HW220124   2.281   1.956   2.857  1.4650 -0.0584  0.7561
 2830SOL     OW20125   3.100   3.480   5.262  0.0644  0.4360  0.2756
 2830SOL    HW120126   3.045   3.429   5.321  1.4375 -0.7731  0.5084
 2830SOL    HW220127   3.140   3.544   5.320  0.8886 -0.7456  0.9994
 2831SOL     OW20128   1.726   0.096   5.271 -0.4748  0.2593 -0.4273
 2831SOL    HW120129   1.718   0.126   5.362 -1.0970 -0.1286 -0.3560
 2831SOL    HW220130   1.636   0.111   5.243 -0.6549 -0.0734 -0.0273
 2832SOL     OW20131   0.391   3.282   5.351  0.1628  0.1879 -0.1792
 2832SOL    HW120132   0.479   3.313   5.369 -0.4968  2.7151 -1.2337
 2832SOL    HW220133   0.406   3.216   5.284  0.5277  0.5096 -0.4139
 2833SOL     OW20134   4.281   1.187   9.307  0.6100  0.3179 -0.3481
 2833SOL    HW120135   4.250   1.142   9.385  1.2425 -1.1115 -0.9090
 2833SOL    HW220136   4.364   1.225   9.336  0.6302 -2.5894  3.4117
 2834SOL     OW20137   1.919   4.448   8.555 -0.0843  0.4321 -0.0005
 2834SOL    HW120138   1.988   4.395   8.594  0.0953  0.5009 -0.2278
 2834SOL    HW220139   1.884   4.385   8.491  0.1091  1.8563 -1.5025
 2835SOL     OW20140   4.479   2.940   0.370 -0.2171 -0.8305  0.4341
 2835SOL    HW120141   4.546   2.987   0.320  1.2570 -1.8159  1.4917
 2835SOL    HW220142   4.408   3.004   0.359  1.2421  0.6417 -0.5935
 2836SOL     OW20143   2.353   0.883   3.118 -0.2246  0.0185 -0.7729
 2836SOL    HW120144   2.358   0.903   3.211 -0.7040 -0.8510 -0.5613
 2836SOL    HW220145   2.380   0.791   3.114 -0.0399  0.1716 -3.5148
 2837SOL     OW20146   1.747   4.491   9.000 -0.2170  0.1291 -0.1044
 2837SOL    HW120147   1.812   4.503   9.070  1.0190  1.2464 -1.4336
 2837SOL    HW220148   1.704   4.575   9.012  1.2702  1.1620 -2.1239
 2838SOL     OW20149   4.170   3.151   6.601 -0.1165  0.1241 -0.2725
 2838SOL    HW120150   4.251   3.133   6.650 -0.0302  0.8842 -0.1355
 2838SOL    HW220151   4.182   3.102   6.520 -1.7182  1.3467 -1.2381
 2839SOL     OW20152   2.153   0.915   7.783  0.4739 -0.1515  0.0061
 2839SOL    HW120153   2.105   0.984   7.829 -1.2593 -0.0120 -2.0586
 2839SOL    HW220154   2.086   0.849   7.802 -0.5338  0.9012  0.0824
 2840SOL     OW20155   2.272   2.730   4.994 -0.1927  0.6536 -0.5545
 2840SOL    HW120156   2.285   2.814   4.951  1.5900  1.8251  2.2675
 2840SOL    HW220157   2.194   2.689   4.955 -0.5845  2.3457 -1.5317
 2841SOL     OW20158   3.773   0.061   3.448 -0.3985  0.3885 -0.0643
 2841SOL    HW120159   3.721   0.046   3.527 -4.2366  0.8023 -2.5223
 2841SOL    HW220160   3.708   0.067   3.378 -1.0066 -1.5246  0.3624
 2842SOL     OW20161   1.030   1.609   0.899  0.1467 -0.2003 -0.3193
 2842SOL    HW120162   0.958   1.669   0.881  0.6179 -0.1348 -2.0256
 2842SOL    HW220163   1.074   1.608   0.814  0.2419 -0.5712 -0.2646
 2843SOL     OW20164   2.172   2.441   6.575 -0.3194  0.2062 -0.2516
 2843SOL    HW120165   2.090   2.452   6.623  0.5567 -2.6999  1.8967
 2843SOL    HW220166   2.158   2.353   6.540  2.3102 -0.5744  0.6491
 2844SOL     OW20167   0.404   1.762   9.683  0.0906  0.0078  0.0756
 2844SOL    HW120168   0.408   1.819   9.759 -1.1649 -0.7304  0.6908
 2844SOL    HW220169   0.339   1.695   9.704  0.1213  0.4333  1.4971
 2845SOL     OW20170   1.898   4.098   5.246 -0.1427  0.4675  0.1640
 2845SOL    HW120171   1.958   4.154   5.197  1.8060 -0.9360  0.9824
 2845SOL    HW220172   1.904   4.017   5.196 -2.8356  0.5973 -0.3818
 2846SOL     OW20173   1.821   0.100  10.850  0.1364  0.0565  0.0508
 2846SOL    HW120174   1.843   0.007  10.849  0.3074  0.1060 -0.6910
 2846SOL    HW220175   1.895   0.146  10.889  0.6190 -1.6415  1.1504
 2847SOL     OW20176   1.402   0.167  16.880  0.6594  0.1619 -0.1166
 2847SOL    HW120177   1.446   0.101  16.825 -0.2965  0.1623 -0.8725
 2847SOL    HW220178   1.477   0.213  16.917  0.2505  0.8371 -0.1386
 2848SOL     OW20179   0.623   2.620  17.161 -0.6625 -0.3184  0.2825
 2848SOL    HW120180   0.715   2.614  17.186 -1.1035  1.7979  2.3827
 2848SOL    HW220181   0.626   2.680  17.087 -0.1174 -1.2626 -0.4585
 2849SOL     OW20182   4.127   3.792  10.457 -0.4632  0.1147 -0.1051
 2849SOL    HW120183   4.188   3.745  10.513  0.0631  1.3990  0.3885
 2849SOL    HW220184   4.137   3.882  10.486  0.0926  0.0598 -0.1322
 2850SOL     OW20185   1.016   2.672  15.497  0.5576 -0.5145 -0.1494
 2850SOL    HW120186   1.003   2.590  15.547  0.7252 -0.5997 -0.2454
 2850SOL    HW220187   1.079   2.643  15.431  0.9339  0.0819 -0.0468
 2851SOL     OW20188   4.482   1.490  11.094  0.1723 -0.5461 -0.6097
 2851SOL    HW120189   4.412   1.484  11.029  0.1138  2.1954 -0.8160
 2851SOL    HW220190   4.540   1.553  11.051  1.8003 -0.3582  1.8340
 2852SOL     OW20191   2.102   0.631   6.960  0.0681 -0.3198 -0.2084
 2852SOL    HW120192   2.135   0.562   6.903  1.4748 -0.1101  0.3358
 2852SOL    HW220193   2.141   0.607   7.044  0.3337  0.7798 -0.0082
 2853SOL     OW20194   3.530   1.948   7.542  0.8062 -0.3141  0.0984
 2853SOL    HW120195   3.592   1.964   7.471  0.8233  1.9865  0.6493
 2853SOL    HW220196   3.540   1.854   7.555 -0.1675 -0.2655  1.1874
 2854SOL     OW20197   3.699   1.811   8.215 -0.7095 -0.3563  0.2789
 2854SOL    HW120198   3.619   1.790   8.263 -0.5733 -0.8006  0.3103
 2854SOL    HW220199   3.669   1.888   8.167  0.1817  1.0885  2.0552
 2855SOL     OW20200   2.711   2.462   0.447 -0.3923  0.0911  0.7717
 2855SOL    HW120201   2.803   2.474   0.423  0.1198 -1.1005  2.1098
 2855SOL    HW220202   2.672   2.526   0.388  0.2170 -0.1143  0.1389
 2856SOL     OW20203   1.665   3.610   6.178  0.2613  0.0960  0.2230
 2856SOL    HW120204   1.584   3.640   6.136  0.8972  1.9565  0.3057
 2856SOL    HW220205   1.721   3.627   6.102  2.2757  2.1731  2.1831
 2857SOL     OW20206   1.208   1.198   4.046  0.5358 -0.5953  0.5542
 2857SOL    HW120207   1.224   1.108   4.020  0.6368 -0.1736 -0.8577
 2857SOL    HW220208   1.183   1.240   3.963 -1.4802 -0.5150  1.2093
 2858SOL     OW20209   4.712   0.807   3.855  0.1447 -0.0075  0.5939
 2858SOL    HW120210   4.622   0.775   3.858 -0.8166  2.7944  1.1098
 2858SOL    HW220211   4.723   0.832   3.764 -0.2692 -1.5645  0.1114
 2859SOL     OW20212   4.695   3.512   1.409 -0.6188  0.2778  0.6366
 2859SOL    HW120213   4.670   3.420   1.413  1.7508 -0.3595  1.1727
 2859SOL    HW220214   4.674   3.544   1.321 -2.1602 -1.5597  0.3537
 2860SOL     OW20215   4.266   2.522   6.499  0.2306 -0.4449  0.3658
 2860SOL    HW120216   4.318   2.505   6.421  1.4217  0.1056  1.0499
 2860SOL    HW220217   4.320   2.488   6.571  1.6598  0.1406 -0.4375
 2861SOL     OW20218   3.658   4.022   8.169  0.3449 -0.2163  0.2641
 2861SOL    HW120219   3.638   3.943   8.118  0.4554  0.5897 -1.0184
 2861SOL    HW220220   3.751   4.028   8.149  0.5339  1.0394  1.5022
 2862SOL     OW20221   1.577   2.974   7.496  0.0109  0.0651 -0.2878
 2862SOL    HW120222   1.590   3.063   7.530  2.1275  0.2572 -1.5767
 2862SOL    HW220223   1.502   2.986   7.438  1.2385  0.7259 -1.7565
 2863SOL     OW20224   2.851   1.328   1.702 -0.1680 -0.1071 -0.2831
 2863SOL    HW120225   2.868   1.422   1.707  1.3074 -0.4419  0.8862
 2863SOL    HW220226   2.899   1.302   1.623  0.9225 -1.3828  0.7874
 2864SOL     OW20227   3.076   0.023   9.717 -0.4124  0.2364  0.4812
 2864SOL    HW120228   3.058   0.078   9.793 -0.0256  2.1652 -0.8385
 2864SOL    HW220229   3.141   4.694   9.746  0.3960  0.2995 -1.1860
 2865SOL     OW20230   4.519   1.109   9.511 -0.0953 -0.1556  0.3714
 2865SOL    HW120231   4.488   1.026   9.476 -0.0480  0.8741 -2.1570
 2865SOL    HW220232   4.513   1.093   9.605  0.4743 -1.5032  0.1810
 2866SOL     OW20233   2.930   0.321  11.466  0.0497 -0.1921  0.2531
 2866SOL    HW120234   2.979   0.386  11.518  0.7993  1.4706 -2.4949
 2866SOL    HW220235   2.864   0.281  11.521 -0.1782 -1.4972 -0.9600
 2867SOL     OW20236   2.019   2.982  13.443  0.1815 -0.1121  0.4011
 2867SOL    HW120237   2.023   2.887  13.451 -1.3924 -0.2710 -0.6614
 2867SOL    HW220238   2.104   3.003  13.480 -0.7328 -1.6499  3.2930
 2868SOL     OW20239   3.717   4.000   0.240  0.1138  0.2751 -0.2746
 2868SOL    HW120240   3.629   3.962   0.248  0.8274 -1.0921  1.0802
 2868SOL    HW220241   3.690   4.090   0.223  1.5684  0.7300 -0.1525
 2869SOL     OW20242   2.926   3.374  13.306  0.0514 -0.2017 -0.6339
 2869SOL    HW120243   3.014   3.384  13.272  0.2168  0.5812  0.0333
 2869SOL    HW220244   2.937   3.325  13.388  1.2396  1.5151  0.2288
 2870SOL     OW20245   3.298   2.354   9.366 -0.3935  0.1562  0.8868
 2870SOL    HW120246   3.356   2.429   9.354  1.2996 -1.2915  0.1459
 2870SOL    HW220247   3.288   2.328   9.274  0.5013  0.4793  0.6993
 2871SOL     OW20248   2.264   3.768   7.224 -0.1069  0.2440  0.7156
 2871SOL    HW120249   2.315   3.745   7.147 -2.2480  0.0237 -0.6459
 2871SOL    HW220250   2.290   3.859   7.241 -0.0423  0.3960 -0.1817
 2872SOL     OW20251   0.772   3.011   5.733 -0.5177 -0.6236 -0.1044
 2872SOL    HW120252   0.831   3.080   5.702  0.7833 -1.4343  0.5843
 2872SOL    HW220253   0.747   3.044   5.819  2.2730 -0.2716  0.5474
 2873SOL     OW20254   1.533   3.484  11.917  0.2026  0.3055  0.1466
 2873SOL    HW120255   1.569   3.491  11.829 -2.1676  2.9320 -0.6163
 2873SOL    HW220256   1.572   3.561  11.958  1.6510 -1.8218  2.7617
 2874SOL     OW20257   2.860   3.490  16.108 -0.2148 -0.1881  0.1723
 2874SOL    HW120258   2.866   3.505  16.203  0.0065  1.1076 -0.0537
 2874SOL    HW220259   2.773   3.451  16.101 -1.2647  2.0062  1.1538
 2875SOL     OW20260   3.617   0.161   2.687 -0.0852  0.5398  0.1127
 2875SOL    HW120261   3.673   0.086   2.711 -0.3244  0.6331  0.9729
 2875SOL    HW220262   3.683   0.196   2.628 -0.8723 -1.0058 -1.6922
 2876SOL     OW20263   4.153   3.921   2.241 -0.3964  0.0916  0.0769
 2876SOL    HW120264   4.126   3.959   2.324 -1.0433  0.4100 -0.2794
 2876SOL    HW220265   4.081   3.859   2.225 -1.8643  1.7836  0.0721
 2877SOL     OW20266   4.001   2.911   9.013  0.2936 -0.0021  0.0039
 2877SOL    HW120267   4.069   2.845   9.026 -0.9283 -1.2009  0.2135
 2877SOL    HW220268   3.983   2.928   8.920 -0.5066 -0.0557  0.1517
 2878SOL     OW20269   2.524   0.791   8.553 -0.2282  0.1730 -0.2497
 2878SOL    HW120270   2.516   0.766   8.461 -1.3107  0.8694 -0.3510
 2878SOL    HW220271   2.581   0.724   8.590  0.9628  1.0935 -0.4371
 2879SOL     OW20272   1.937   3.062   7.773 -0.3479  0.0787  0.1932
 2879SOL    HW120273   1.870   3.027   7.832 -0.1154 -1.5653 -0.5108
 2879SOL    HW220274   1.985   2.980   7.760 -1.0515 -0.1299 -1.0405
 2880SOL     OW20275   4.167   0.054   3.990  0.5287  0.8934 -0.3228
 2880SOL    HW120276   4.124   0.024   4.070  1.7222 -0.1026 -0.0725
 2880SOL    HW220277   4.256   0.065   4.023  0.9689 -1.2677 -0.8286
 2881SOL     OW20278   1.108   0.464   4.893 -0.3624  0.7275  0.4342
 2881SOL    HW120279   1.123   0.499   4.805  1.3492 -1.9125 -0.3216
 2881SOL    HW220280   1.130   0.542   4.943  0.9930 -0.2012  1.2808
 2882SOL     OW20281   3.553   2.181   5.617  0.1648 -0.2437  0.4802
 2882SOL    HW120282   3.563   2.209   5.526  1.5564  0.9781  1.0154
 2882SOL    HW220283   3.646   2.178   5.639  0.9000  3.3854 -2.1858
 2883SOL     OW20284   2.780   1.190   9.336 -0.0713  0.2280 -0.0765
 2883SOL    HW120285   2.802   1.236   9.417  0.6241 -2.2823  1.1575
 2883SOL    HW220286   2.705   1.239   9.302 -1.0417 -0.9592  0.3679
 2884SOL     OW20287   2.139   1.258  12.199 -0.0999  0.3529  0.8659
 2884SOL    HW120288   2.052   1.261  12.238 -0.0633  1.2525  0.8700
 2884SOL    HW220289   2.127   1.290  12.110  0.3844 -0.1863  0.6011
 2885SOL     OW20290   1.751   1.846  10.722 -0.5371  0.3027  0.4189
 2885SOL    HW120291   1.669   1.831  10.675 -0.5855  0.7980  0.3367
 2885SOL    HW220292   1.753   1.767  10.776 -1.9315  0.8044  1.2072
 2886SOL     OW20293   1.396   4.400   5.634  0.7997  0.1945 -0.3124
 2886SOL    HW120294   1.358   4.393   5.547  1.4802  0.3528 -0.6207
 2886SOL    HW220295   1.484   4.434   5.616  0.5599  2.7715  3.3276
 2887SOL     OW20296   0.238   4.591  13.616  0.5858 -0.3572  0.3665
 2887SOL    HW120297   0.180   4.667  13.610  2.1834  1.0460  2.1950
 2887SOL    HW220298   0.244   4.557  13.527  0.0829 -2.0899  1.0078
 2888SOL     OW20299   0.902   2.755   7.216  0.3064 -0.1963  0.2229
 2888SOL    HW120300   0.974   2.812   7.188 -0.3866  0.5903  0.0224
 2888SOL    HW220301   0.881   2.701   7.140  0.7075 -0.5715  0.3828
 2889SOL     OW20302   2.400   1.006   7.711 -0.1995 -0.0765  0.1104
 2889SOL    HW120303   2.369   1.079   7.658  0.6758 -0.1131 -0.4554
 2889SOL    HW220304   2.316   0.962   7.727  0.5465 -1.8054 -0.7289
 2890SOL     OW20305   1.384   1.569   9.655 -0.1904 -0.4746 -0.1578
 2890SOL    HW120306   1.352   1.503   9.594 -0.7025 -0.2950 -0.0874
 2890SOL    HW220307   1.358   1.641   9.598  0.2437 -0.8341 -0.8105
 2891SOL     OW20308   1.614   0.766   8.807 -0.0346  0.3150  0.3275
 2891SOL    HW120309   1.525   0.734   8.791 -0.3176  0.2057  2.1711
 2891SOL    HW220310   1.633   0.816   8.727 -1.0724  0.3882  0.1264
 2892SOL     OW20311   1.383   1.717   8.133 -0.4007  0.5865 -0.1441
 2892SOL    HW120312   1.397   1.765   8.052 -0.0339  3.3541  1.5252
 2892SOL    HW220313   1.288   1.726   8.141 -0.3463  0.8518  0.2077
 2893SOL     OW20314   4.459   4.581   6.286 -0.1358 -0.1363  0.2984
 2893SOL    HW120315   4.388   4.519   6.305  0.4086 -1.1094 -0.8582
 2893SOL    HW220316   4.505   4.587   6.370 -0.6920 -1.5225  0.6998
 2894SOL     OW20317   1.611   0.046   2.507  0.2126  0.3804 -0.6686
 2894SOL    HW120318   1.666   0.079   2.578 -0.8628 -0.1514  0.4083
 2894SOL    HW220319   1.598   0.121   2.450 -0.0860  0.0745 -1.0085
 2895SOL     OW20320   1.349   1.755   7.098 -0.0514  0.2378 -0.0546
 2895SOL    HW120321   1.311   1.821   7.040 -0.5134 -1.3948 -1.6005
 2895SOL    HW220322   1.429   1.734   7.048  1.3260  2.3321  1.2794
 2896SOL     OW20323   1.751   4.405   4.745  0.6455  0.7412  0.6420
 2896SOL    HW120324   1.703   4.477   4.786  1.1247  2.1385 -1.2473
 2896SOL    HW220325   1.755   4.446   4.659 -0.9978  1.7774  1.0484
 2897SOL     OW20326   2.984   4.046   9.838  0.1558 -0.1690  0.4983
 2897SOL    HW120327   3.017   3.987   9.770 -0.5748  0.6678 -0.5902
 2897SOL    HW220328   3.059   4.069   9.892  1.0675 -0.8975 -0.4611
 2898SOL     OW20329   0.479   3.808   8.941 -0.0383 -0.1975  1.0991
 2898SOL    HW120330   0.453   3.877   9.003 -0.2495  0.0166  0.7677
 2898SOL    HW220331   0.420   3.739   8.971 -0.9918 -0.2549 -0.9159
 2899SOL     OW20332   4.226   1.604   3.565  0.6048 -1.2030 -0.2067
 2899SOL    HW120333   4.254   1.518   3.595 -0.5509 -1.4196  0.2554
 2899SOL    HW220334   4.179   1.568   3.490  0.7297 -2.3760  0.2752
 2900SOL     OW20335   0.752   2.271   4.204  0.1554  0.4910  0.4516
 2900SOL    HW120336   0.761   2.214   4.128 -1.7612 -0.5182  0.9619
 2900SOL    HW220337   0.806   2.346   4.181 -0.5676  0.3504 -1.6862
 2901SOL     OW20338   0.063   3.662  15.044 -0.2952  0.2613 -0.3266
 2901SOL    HW120339   0.109   3.593  15.091  0.8568  1.6213  0.5405
 2901SOL    HW220340   0.014   3.621  14.973  0.3522 -0.3200 -0.4345
 2902SOL     OW20341   4.616   2.631   7.613 -0.6179 -0.2387  0.4909
 2902SOL    HW120342   4.606   2.656   7.705  0.8682  2.2021 -0.0201
 2902SOL    HW220343   4.577   2.544   7.608 -1.3926  0.2790 -2.3711
 2903SOL     OW20344   2.680   0.373   5.247  0.6981 -0.1090 -1.1867
 2903SOL    HW120345   2.638   0.299   5.204 -1.4648 -0.1148  0.8778
 2903SOL    HW220346   2.609   0.397   5.308  0.5153 -3.1604 -0.1989
 2904SOL     OW20347   3.702   3.030   5.476  0.4800 -0.2500 -0.1225
 2904SOL    HW120348   3.669   2.970   5.543 -0.5590  0.4980  0.0338
 2904SOL    HW220349   3.764   2.965   5.442  0.9699  0.7678 -1.1807
 2905SOL     OW20350   1.675   4.216   5.754 -0.2150  0.2498  0.1100
 2905SOL    HW120351   1.766   4.201   5.780  0.3259  0.1482 -1.8661
 2905SOL    HW220352   1.650   4.152   5.687 -0.1782 -0.8789  1.1695
 2906SOL     OW20353   0.432   3.997   0.931 -0.0036  0.1717 -0.4191
 2906SOL    HW120354   0.525   3.978   0.947  0.5311  1.5828 -1.8804
 2906SOL    HW220355   0.434   4.072   0.872 -2.6671  0.9700  0.4856
 2907SOL     OW20356   4.382   3.556   6.966 -0.0883  0.7173 -0.5656
 2907SOL    HW120357   4.287   3.549   6.975 -0.1475 -0.0562 -1.7717
 2907SOL    HW220358   4.405   3.504   6.888 -1.3157  0.5146 -0.7837
 2908SOL     OW20359   0.443   0.301   9.760  0.1229 -0.3382  0.0780
 2908SOL    HW120360   0.465   0.231   9.698  0.3576  0.8621 -1.1909
 2908SOL    HW220361   0.490   0.372   9.718 -1.3421  1.7011  1.8243
 2909SOL     OW20362   0.228   4.370   3.833  0.2187  0.3324  0.3095
 2909SOL    HW120363   0.171   4.294   3.842 -0.2268  0.1019 -4.2649
 2909SOL    HW220364   0.249   4.386   3.925 -0.2944 -0.6959  0.6054
 2910SOL     OW20365   4.130   1.731   7.623 -0.1119 -0.7191  0.0963
 2910SOL    HW120366   4.111   1.775   7.706  0.3411  1.8002 -1.1453
 2910SOL    HW220367   4.046   1.688   7.608  0.4055 -1.8113  0.3434
 2911SOL     OW20368   2.972   0.532   0.714 -0.1173 -0.1203 -0.3065
 2911SOL    HW120369   2.972   0.442   0.747 -2.0602  0.4944  1.3044
 2911SOL    HW220370   2.900   0.576   0.758 -1.2895 -1.2215 -1.1314
 2912SOL     OW20371   3.016   1.195  12.493  0.1284 -0.1653  0.4399
 2912SOL    HW120372   2.937   1.247  12.509 -1.0022 -0.8865 -2.8744
 2912SOL    HW220373   2.993   1.146  12.414  0.7292 -1.0797  0.8329
 2913SOL     OW20374   3.965   1.727   3.077  0.2469  0.0047 -0.1180
 2913SOL    HW120375   4.038   1.693   3.024 -0.2955  0.2692 -1.0401
 2913SOL    HW220376   3.958   1.820   3.055 -1.0162  0.1804  1.0882
 2914SOL     OW20377   4.434   2.027   1.101 -0.5362 -0.0085  0.3986
 2914SOL    HW120378   4.373   1.992   1.165 -1.7829  1.4369  0.0084
 2914SOL    HW220379   4.385   2.101   1.064 -1.5160 -0.7853  0.1597
 2915SOL     OW20380   4.390   2.932   3.110  0.2436  0.2365 -0.0793
 2915SOL    HW120381   4.303   2.902   3.135  0.4823 -1.4764 -1.3143
 2915SOL    HW220382   4.440   2.954   3.189 -0.0669  1.3035 -0.1834
 2916SOL     OW20383   1.643   4.341   9.411  0.1246 -0.0840 -0.0694
 2916SOL    HW120384   1.625   4.269   9.472  2.5857  1.1439  2.1088
 2916SOL    HW220385   1.627   4.294   9.329  1.7000 -1.9742  0.6943
 2917SOL     OW20386   2.609   1.348  13.079  0.8323 -0.0253  0.0273
 2917SOL    HW120387   2.563   1.376  13.000 -0.0011  0.4759  0.6902
 2917SOL    HW220388   2.529   1.349  13.131 -0.5560 -2.2219 -2.1003
 2918SOL     OW20389   1.387   3.478   1.142  0.1690 -0.0278 -0.7888
 2918SOL    HW120390   1.376   3.438   1.056  0.6887 -0.6087 -0.5824
 2918SOL    HW220391   1.330   3.555   1.135  1.1039  0.4665 -3.0141
 2919SOL     OW20392   0.181   4.082   8.952 -0.5834  0.3439  0.0810
 2919SOL    HW120393   0.256   4.127   8.913 -0.4254 -0.5923 -0.6875
 2919SOL    HW220394   0.231   4.038   9.021  0.5485  0.6203 -0.5467
 2920SOL     OW20395   0.172   0.684   3.984  0.0970 -0.5933  0.0379
 2920SOL    HW120396   0.099   0.734   3.947  1.2669  0.9010 -0.2081
 2920SOL    HW220397   0.245   0.739   3.956 -1.4087  0.4497 -1.9226
 2921SOL     OW20398   2.448   3.533   5.469 -0.6349  0.0006 -0.1676
 2921SOL    HW120399   2.467   3.534   5.375 -0.4291  1.2156 -0.1105
 2921SOL    HW220400   2.524   3.486   5.504 -0.5947 -0.7398 -1.2594
 2922SOL     OW20401   1.889   0.612   5.764 -0.1490 -0.5300 -0.1381
 2922SOL    HW120402   1.975   0.598   5.723 -0.7980  1.4519 -2.1423
 2922SOL    HW220403   1.847   0.650   5.687  1.0670  0.6129 -0.2460
 2923SOL     OW20404   2.811   0.305   8.832 -0.0493 -0.6336  0.2496
 2923SOL    HW120405   2.863   0.268   8.904  1.2483 -0.8902 -0.8225
 2923SOL    HW220406   2.864   0.383   8.816  0.1977 -0.9973 -0.6782
 2924SOL     OW20407   2.957   3.738   8.634 -0.2989  0.7658 -0.1884
 2924SOL    HW120408   3.036   3.775   8.594  1.4837 -2.1927  0.6033
 2924SOL    HW220409   2.897   3.811   8.617 -0.6224  0.8854  1.5033
 2925SOL     OW20410   4.730   0.396   0.716 -0.5418  0.4243 -0.3620
 2925SOL    HW120411   0.013   0.314   0.671  1.0286  0.6421 -0.1161
 2925SOL    HW220412   4.658   0.361   0.768 -1.6329  0.5759 -1.7913
 2926SOL     OW20413   2.721   3.206  16.357 -0.2923  0.7139  0.9571
 2926SOL    HW120414   2.670   3.280  16.391 -0.2595  1.1355  0.0901
 2926SOL    HW220415   2.650   3.155  16.319  0.2226  0.8633 -0.1881
 2927SOL     OW20416   1.928   0.595   6.041 -0.2133  0.2116  0.3445
 2927SOL    HW120417   1.895   0.603   5.952 -0.4640  0.4519  0.4597
 2927SOL    HW220418   1.904   0.507   6.069  1.7550 -0.3611  0.2428
 2928SOL     OW20419   3.901   0.366   8.711  0.2039  0.2515  0.6348
 2928SOL    HW120420   3.893   0.273   8.691 -0.1028  0.9127 -2.2838
 2928SOL    HW220421   3.823   0.393   8.760  0.0945 -0.1843  0.6990
 2929SOL     OW20422   2.004   0.306  14.572  0.2264  0.1892 -0.3808
 2929SOL    HW120423   1.959   0.379  14.614  1.3677  1.5817 -1.5724
 2929SOL    HW220424   2.021   0.245  14.644 -0.1570 -0.2559 -0.6721
 2930SOL     OW20425   3.365   1.398   9.453  0.0135  0.2261  0.0482
 2930SOL    HW120426   3.369   1.375   9.546 -2.2470  0.8225  0.2873
 2930SOL    HW220427   3.456   1.370   9.441  0.3766  1.0220  0.9978
 2931SOL     OW20428   2.302   1.712   7.678 -0.2375  0.0707  0.1276
 2931SOL    HW120429   2.397   1.713   7.663 -0.3693 -0.0023 -0.7115
 2931SOL    HW220430   2.308   1.675   7.766 -0.6122 -1.2243 -0.3860
 2932SOL     OW20431   1.537   1.217   9.339 -0.1189 -0.1936  0.3963
 2932SOL    HW120432   1.599   1.226   9.411  0.3816  0.4967 -0.1185
 2932SOL    HW220433   1.584   1.273   9.277  1.3536 -2.3977 -0.4759
 2933SOL     OW20434   1.653   4.017  10.514  0.3417 -0.0191 -0.6061
 2933SOL    HW120435   1.678   4.104  10.482  2.2644  0.0660  1.1303
 2933SOL    HW220436   1.737   3.971  10.503  1.6536  1.7260  1.9942
 2934SOL     OW20437   4.550   4.297   0.295 -0.6608  0.1422 -0.2827
 2934SOL    HW120438   4.545   4.363   0.364 -0.4664  0.9989 -1.0829
 2934SOL    HW220439   4.640   4.267   0.308 -0.6914  0.6137  0.9966
 2935SOL     OW20440   1.717   1.739   0.367 -0.1542 -0.2239  0.3845
 2935SOL    HW120441   1.653   1.713   0.300 -0.4583  0.9429  0.2280
 2935SOL    HW220442   1.779   1.667   0.355  0.4702  0.8671 -3.0683
 2936SOL     OW20443   3.843   4.280   6.111  0.2059 -0.4059 -0.3013
 2936SOL    HW120444   3.859   4.331   6.032 -3.8160 -1.6507 -1.9713
 2936SOL    HW220445   3.913   4.215   6.108 -0.0821 -0.9003  3.1678
 2937SOL     OW20446   4.135   1.677  11.499 -0.0327 -0.4736  0.2494
 2937SOL    HW120447   4.138   1.772  11.487  1.2957 -0.5656 -0.1820
 2937SOL    HW220448   4.215   1.651  11.453  0.2165  0.4212  0.1757
 2938SOL     OW20449   3.313   2.730  17.361  0.2557 -0.3553 -0.0981
 2938SOL    HW120450   3.366   2.775  17.296  2.0395 -0.6501  1.1679
 2938SOL    HW220451   3.254   2.682  17.303  0.0881 -0.8562  0.4834
 2939SOL     OW20452   1.749   1.434   9.393 -0.4460  0.3764 -0.9309
 2939SOL    HW120453   1.758   1.450   9.299  1.9218 -2.1328 -1.1220
 2939SOL    HW220454   1.784   1.515   9.430 -1.6697 -0.3513  1.7870
 2940SOL     OW20455   1.624   1.396   9.134 -0.0231  0.6995  0.0742
 2940SOL    HW120456   1.537   1.395   9.095 -0.4337 -0.0799  1.0112
 2940SOL    HW220457   1.659   1.472   9.086 -2.1889  0.6091 -1.6515
 2941SOL     OW20458   3.527   3.777   0.100  0.4952 -0.6144 -0.6170
 2941SOL    HW120459   3.586   3.761   0.026  1.3230  0.1650 -0.1322
 2941SOL    HW220460   3.585   3.748   0.170 -1.5347 -0.6437  1.0488
 2942SOL     OW20461   1.377   2.210   7.070  0.2089 -0.2340  0.5353
 2942SOL    HW120462   1.442   2.166   7.016 -0.9746 -0.0706 -1.0248
 2942SOL    HW220463   1.425   2.242   7.147  1.1300 -0.1215 -0.0904
 2943SOL     OW20464   2.358   0.977   9.798 -0.4562  0.0131  0.3272
 2943SOL    HW120465   2.362   0.936   9.712  0.2332  0.0173  0.3538
 2943SOL    HW220466   2.423   0.924   9.845  0.2519  0.8050  0.2533
 2944SOL     OW20467   3.086   2.124   1.910 -0.0495 -0.2568  0.2547
 2944SOL    HW120468   3.063   2.049   1.965  0.8009  1.3075  2.8007
 2944SOL    HW220469   3.008   2.147   1.860  0.4923  2.2510  0.5186
 2945SOL     OW20470   4.119   2.347   4.739 -0.3842 -0.1614 -0.0164
 2945SOL    HW120471   4.156   2.283   4.800 -0.5436  0.0348  0.2814
 2945SOL    HW220472   4.079   2.291   4.673 -1.8462  1.2695 -0.3316
 2946SOL     OW20473   2.634   4.218   5.980  1.1003 -0.0518  0.0844
 2946SOL    HW120474   2.617   4.166   6.059 -1.8473 -0.2918 -0.7054
 2946SOL    HW220475   2.711   4.171   5.947  0.7119 -2.1652  2.1378
 2947SOL     OW20476   3.388   3.896  12.415  0.4925  0.0692  0.1438
 2947SOL    HW120477   3.347   3.817  12.380 -0.1806  0.6852 -0.4521
 2947SOL    HW220478   3.402   3.939  12.331  1.1820  0.0412  0.2394
 2948SOL     OW20479   2.527   2.655   5.428 -0.0198  0.4155 -0.2277
 2948SOL    HW120480   2.556   2.732   5.476  0.1894  1.7571 -2.5289
 2948SOL    HW220481   2.458   2.630   5.490  1.6481 -1.7138  0.7926
 2949SOL     OW20482   3.365   2.545   0.308  0.4049  0.4204  0.8313
 2949SOL    HW120483   3.436   2.608   0.294 -0.3404  1.0072 -0.3568
 2949SOL    HW220484   3.300   2.596   0.356 -0.9658 -1.5011  1.0063
 2950SOL     OW20485   3.128   3.771  14.288  0.0385 -0.1641  0.1974
 2950SOL    HW120486   3.125   3.790  14.195  1.0397  0.2096  0.2329
 2950SOL    HW220487   3.128   3.860  14.325 -0.7683  0.3085 -0.9511
 2951SOL     OW20488   4.402   2.210   7.766 -0.0283 -0.1063 -0.0431
 2951SOL    HW120489   4.444   2.129   7.796  0.2262  0.0458  0.0124
 2951SOL    HW220490   4.325   2.221   7.821 -0.7358 -1.9723 -0.6420
 2952SOL     OW20491   2.920   0.083   6.744  0.7989  0.6282 -0.9865
 2952SOL    HW120492   3.005   0.039   6.742  0.9279  0.5757  4.1695
 2952SOL    HW220493   2.914   0.070   6.839  1.0040 -0.2119 -1.0859
 2953SOL     OW20494   4.390   4.407   6.618  0.7064  0.2686 -0.2534
 2953SOL    HW120495   4.468   4.373   6.661  0.4558  0.8851  0.6769
 2953SOL    HW220496   4.399   4.374   6.528 -0.3211 -0.7167 -0.0010
 2954SOL     OW20497   2.097   4.393   3.504  0.0610 -0.4022 -0.0762
 2954SOL    HW120498   2.142   4.398   3.589 -2.0245 -2.7421  1.1528
 2954SOL    HW220499   2.073   4.485   3.496  0.7931 -0.2653 -0.7130
 2955SOL     OW20500   1.614   3.151   1.680 -0.4962 -0.0941 -0.8535
 2955SOL    HW120501   1.604   3.120   1.770 -2.5550 -0.2220 -1.1244
 2955SOL    HW220502   1.707   3.172   1.675 -0.7788  1.1746 -0.7148
 2956SOL     OW20503   1.435   2.943   5.005  0.2096 -0.6321  0.3556
 2956SOL    HW120504   1.457   2.893   5.084  0.5751  0.9464  1.2569
 2956SOL    HW220505   1.351   2.909   4.975 -0.5611  2.7442 -1.3736
 2957SOL     OW20506   0.043   4.045   4.247  0.2849  0.1800 -0.6186
 2957SOL    HW120507   4.690   4.012   4.265 -0.0220  0.9548 -0.6755
 2957SOL    HW220508   0.029   4.139   4.260 -4.7392 -0.5048 -1.1139
 2958SOL     OW20509   2.426   1.170   0.432  0.2072  0.4080 -0.1769
 2958SOL    HW120510   2.413   1.219   0.513  2.5249  0.2325  0.2853
 2958SOL    HW220511   2.337   1.151   0.402  0.5787 -1.0726 -0.3688
 2959SOL     OW20512   0.198   1.134   7.916 -0.2834  0.2023  0.0614
 2959SOL    HW120513   0.267   1.108   7.854 -0.1050 -0.7830  0.6716
 2959SOL    HW220514   0.241   1.168   7.994 -0.6757 -1.2809  0.9147
 2960SOL     OW20515   3.421   3.542   2.747 -0.1918  0.9493  0.6255
 2960SOL    HW120516   3.343   3.526   2.801 -0.8074 -0.8043 -0.8049
 2960SOL    HW220517   3.449   3.629   2.775  1.9905  1.2760 -2.6131
 2961SOL     OW20518   0.484   2.491  16.054 -0.4916  0.0867 -0.5227
 2961SOL    HW120519   0.534   2.504  15.973 -1.7753  0.5757 -1.2408
 2961SOL    HW220520   0.506   2.569  16.105  1.3937 -0.1045 -1.0370
 2962SOL     OW20521   4.410   4.060   3.642  0.5203 -0.1303  0.1421
 2962SOL    HW120522   4.385   4.153   3.640 -2.0720 -0.8180  0.9748
 2962SOL    HW220523   4.472   4.066   3.569  1.5514 -1.8979  0.9006
 2963SOL     OW20524   1.147   1.076   6.680  0.2383 -0.0789  0.2783
 2963SOL    HW120525   1.080   1.054   6.745 -0.7890  0.1245 -0.7112
 2963SOL    HW220526   1.226   1.027   6.702  0.7871  0.5852 -0.2064
 2964SOL     OW20527   3.902   0.674   3.367 -0.3717 -0.0623 -0.0583
 2964SOL    HW120528   3.891   0.613   3.293 -1.3975  0.1977 -0.1195
 2964SOL    HW220529   3.815   0.674   3.405 -0.5565 -0.1146 -0.4806
 2965SOL     OW20530   3.175   4.086  14.187 -0.3422  0.0893 -0.3591
 2965SOL    HW120531   3.219   4.136  14.257 -0.6665 -3.0145  2.0924
 2965SOL    HW220532   3.228   4.096  14.108  0.3383  1.7404  0.2868
 2966SOL     OW20533   2.565   0.632   8.907 -0.2247 -0.6432  0.1064
 2966SOL    HW120534   2.634   0.680   8.954  0.3596  0.0191 -1.4056
 2966SOL    HW220535   2.496   0.662   8.966 -1.0641 -2.7033  0.1614
 2967SOL     OW20536   3.860   4.180   2.302  0.3229 -0.2446 -0.1366
 2967SOL    HW120537   3.920   4.253   2.286 -1.2513  1.3689  1.2946
 2967SOL    HW220538   3.784   4.229   2.334 -0.1710 -2.0226  1.4305
 2968SOL     OW20539   3.011   2.730   1.788 -0.3553  0.2901 -0.2116
 2968SOL    HW120540   3.006   2.694   1.877 -1.0287 -1.1042 -0.8028
 2968SOL    HW220541   3.024   2.657   1.727 -0.5896  0.4977 -0.5120
 2969SOL     OW20542   3.317   2.024   2.456  0.5517  0.1426 -0.1033
 2969SOL    HW120543   3.314   2.030   2.360 -3.2455  0.6968  0.0390
 2969SOL    HW220544   3.312   1.931   2.479 -1.6608  0.5384  1.0455
 2970SOL     OW20545   2.485   2.535  11.450  0.4845 -0.0235 -0.1862
 2970SOL    HW120546   2.545   2.476  11.495 -1.2423  0.0037  2.1427
 2970SOL    HW220547   2.404   2.483  11.457  0.1503  0.7977  2.0765
 2971SOL     OW20548   3.053   0.821   8.367 -0.4540  0.2702  0.1575
 2971SOL    HW120549   3.137   0.814   8.413  0.1126 -1.5968 -1.1799
 2971SOL    HW220550   3.029   0.908   8.399 -1.0832 -0.6002  2.0666
 2972SOL     OW20551   1.829   2.433   3.090  0.7075  0.3185 -0.4763
 2972SOL    HW120552   1.751   2.436   3.034  1.4470 -0.7028 -1.5599
 2972SOL    HW220553   1.807   2.354   3.140  0.0252  0.0662 -1.1813
 2973SOL     OW20554   2.528   0.448   7.765  0.0636 -0.2703 -0.1266
 2973SOL    HW120555   2.457   0.385   7.778  0.0842 -0.3767 -0.5322
 2973SOL    HW220556   2.596   0.392   7.729  0.6682 -1.3742  2.7343
 2974SOL     OW20557   2.092   2.512   4.045 -1.0353 -0.4175  0.1377
 2974SOL    HW120558   2.162   2.560   4.002 -0.1233 -2.6461 -0.8652
 2974SOL    HW220559   2.150   2.446   4.084 -1.0784  0.7835  2.2498
 2975SOL     OW20560   0.265   0.100  15.418 -0.0066  0.0371  0.6919
 2975SOL    HW120561   0.213   0.130  15.493 -2.6828 -0.6354 -0.9202
 2975SOL    HW220562   0.199   0.121  15.352 -0.1728  2.8927  1.7862
 2976SOL     OW20563   3.139   2.471   1.728  0.3459  0.4083 -0.1048
 2976SOL    HW120564   3.120   2.490   1.820 -1.0599  0.3748 -0.3919
 2976SOL    HW220565   3.197   2.546   1.710  0.6612  0.5269  1.3606
 2977SOL     OW20566   1.920   0.224   3.100 -0.2964 -0.7819 -0.0205
 2977SOL    HW120567   1.930   0.292   3.033  1.7014  0.0980  1.1982
 2977SOL    HW220568   1.828   0.241   3.122  0.0581  0.2187  0.6988
 2978SOL     OW20569   2.929   1.354   5.722  0.0342 -0.1180 -0.8386
 2978SOL    HW120570   2.924   1.425   5.658 -4.3023  0.6534  0.3486
 2978SOL    HW220571   2.906   1.403   5.801 -0.1650 -0.2328 -0.8261
 2979SOL     OW20572   3.196   0.240   6.485 -0.2266  0.0847  0.3229
 2979SOL    HW120573   3.238   0.232   6.570  0.8666 -0.1723 -0.2440
 2979SOL    HW220574   3.203   0.148   6.460 -0.0895 -0.4047  2.2121
 2980SOL     OW20575   1.502   1.019   5.975  0.5199 -0.2814 -0.3546
 2980SOL    HW120576   1.494   0.974   6.059 -0.3404  1.6186  0.5672
 2980SOL    HW220577   1.453   0.953   5.925 -1.0230  0.1936  0.5457
 2981SOL     OW20578   1.020   2.032   8.533 -0.0312 -0.3671  0.4236
 2981SOL    HW120579   1.030   1.994   8.620  2.0253  0.1919  0.4309
 2981SOL    HW220580   1.088   2.097   8.549 -2.1916  1.7463  0.9315
 2982SOL     OW20581   0.124   2.471   3.239 -0.4193 -0.7696  0.2374
 2982SOL    HW120582   0.031   2.452   3.251 -0.5813  0.8518  1.4938
 2982SOL    HW220583   0.122   2.484   3.145  1.4237  2.9454  0.7390
 2983SOL     OW20584   4.692   1.072   3.948  0.0109 -0.1534 -0.8727
 2983SOL    HW120585   0.039   1.101   3.909  0.6817  0.0143  0.6979
 2983SOL    HW220586   4.707   0.978   3.960  0.7573 -0.0076 -0.6895
 2984SOL     OW20587   4.071   2.186   7.435  0.0685  0.2071 -0.2282
 2984SOL    HW120588   4.090   2.162   7.344  0.2574  1.9674 -0.6489
 2984SOL    HW220589   4.133   2.147   7.497 -0.7106  1.5266  1.4088
 2985SOL     OW20590   1.299   2.968   4.022 -0.1000 -0.0485  0.2705
 2985SOL    HW120591   1.254   2.932   3.945 -1.6966  0.7997  0.8118
 2985SOL    HW220592   1.231   2.963   4.089 -2.2306  1.7669 -1.7520
 2986SOL     OW20593   2.269   3.660   1.707  0.6406 -0.0191  0.6077
 2986SOL    HW120594   2.317   3.580   1.688 -2.3108 -1.0487 -2.3349
 2986SOL    HW220595   2.218   3.664   1.626  0.3763  0.4826  0.7963
 2987SOL     OW20596   2.695   3.577   5.256  0.2103 -0.3246 -0.5337
 2987SOL    HW120597   2.771   3.577   5.198  0.5186  2.4701 -0.1250
 2987SOL    HW220598   2.661   3.664   5.236 -0.5957 -0.7913 -1.2071
 2988SOL     OW20599   2.894   2.001   7.366 -0.2613 -0.3717 -0.4872
 2988SOL    HW120600   2.951   1.988   7.291  0.3595 -1.5997  0.1852
 2988SOL    HW220601   2.946   1.975   7.443 -0.7683 -3.1107 -1.0505
 2989SOL     OW20602   3.877   3.077   4.277  0.1091  0.6185 -0.4971
 2989SOL    HW120603   3.966   3.103   4.299 -0.5528  1.2156  1.4011
 2989SOL    HW220604   3.882   2.990   4.315  1.3084  1.2918  0.8698
 2990SOL     OW20605   3.704   0.942   8.914 -0.1429 -0.6918  0.4781
 2990SOL    HW120606   3.738   1.029   8.899 -0.0303 -1.1370 -1.7873
 2990SOL    HW220607   3.760   0.908   8.984  1.4463  0.8925 -0.0506
 2991SOL     OW20608   0.615   4.136   7.364  0.0751 -0.5875 -0.0864
 2991SOL    HW120609   0.698   4.119   7.320 -0.3375 -0.3704 -0.9365
 2991SOL    HW220610   0.579   4.202   7.306  0.5170  0.2660  0.6072
 2992SOL     OW20611   3.230   3.090   6.201  0.3572 -0.1621  0.6154
 2992SOL    HW120612   3.298   3.025   6.220 -0.1325 -0.0301  2.8410
 2992SOL    HW220613   3.193   3.109   6.287  1.1094  1.8680  0.4913
 2993SOL     OW20614   2.881   1.665  17.429  0.1174 -0.2318  0.1268
 2993SOL    HW120615   2.871   1.736  17.366  0.3053 -1.7325 -1.5692
 2993SOL    HW220616   2.796   1.638  17.465  0.9254 -2.1480  0.5787
 2994SOL     OW20617   2.622   4.375   3.169  0.0045 -0.1765  0.3070
 2994SOL    HW120618   2.687   4.429   3.124  1.0380  0.4656  2.5958
 2994SOL    HW220619   2.542   4.408   3.127 -0.8389 -3.0710 -0.3841
 2995SOL     OW20620   2.809   3.001  13.756  0.2615  0.1483  0.3353
 2995SOL    HW120621   2.848   2.915  13.769 -0.3255 -0.1023  0.4329
 2995SOL    HW220622   2.789   3.021  13.848  1.6780  0.7920  0.4935
 2996SOL     OW20623   1.464   1.719   1.775 -0.1341 -0.1225 -0.8007
 2996SOL    HW120624   1.553   1.685   1.772  0.4141  1.2341  0.4255
 2996SOL    HW220625   1.420   1.656   1.832  0.0468  0.6483  0.1727
 2997SOL     OW20626   0.932   2.239   3.244 -0.3989  0.2742  0.0563
 2997SOL    HW120627   0.938   2.210   3.153  0.4894  3.4455 -0.8841
 2997SOL    HW220628   0.984   2.171   3.288 -0.9050 -1.2982 -1.7572
 2998SOL     OW20629   0.622   3.792   1.131  0.4787 -0.0254  0.2153
 2998SOL    HW120630   0.544   3.744   1.104  0.5158  0.8480 -1.4873
 2998SOL    HW220631   0.679   3.805   1.055  0.1770 -1.6887 -0.2763
 2999SOL     OW20632   1.385   1.243   9.011  0.3461 -0.1775  0.1164
 2999SOL    HW120633   1.307   1.225   8.958  0.3986  2.3718 -0.8168
 2999SOL    HW220634   1.426   1.158   8.992 -2.6410 -1.6044  0.0268
 3000SOL     OW20635   3.583   2.529   7.669 -0.0207  0.1943 -0.3698
 3000SOL    HW120636   3.590   2.616   7.631 -0.1860  0.5139  0.3398
 3000SOL    HW220637   3.496   2.526   7.709 -0.1931  0.2033 -0.7363
 3001SOL     OW20638   4.634   2.443   0.905 -0.3386 -0.6169 -0.3715
 3001SOL    HW120639   4.651   2.407   0.817 -2.8377  2.3734 -2.0835
 3001SOL    HW220640   4.650   2.367   0.961  1.9106 -0.8409 -1.3313
 3002SOL     OW20641   1.768   0.562  10.081  0.2461  0.1529 -0.5413
 3002SOL    HW120642   1.769   0.467  10.091 -0.2604  0.4375  2.1111
 3002SOL    HW220643   1.714   0.583  10.157  0.5190  1.9037 -0.8308
 3003SOL     OW20644   1.990   0.960   4.962 -0.1974  0.1394  0.0586
 3003SOL    HW120645   2.058   0.911   4.916 -1.6816 -0.2468 -1.7002
 3003SOL    HW220646   2.039   1.003   5.032  0.4108 -0.7209  0.1637
 3004SOL     OW20647   1.291   0.464   6.949  0.2821  0.6339  0.3417
 3004SOL    HW120648   1.380   0.496   6.953  0.2546  0.9838 -1.8648
 3004SOL    HW220649   1.280   0.459   6.854 -0.1418 -2.1669  0.5337
 3005SOL     OW20650   4.586   3.851   3.153  0.0654  0.0933 -0.2090
 3005SOL    HW120651   4.535   3.799   3.092 -0.2186 -0.1467  0.2315
 3005SOL    HW220652   4.654   3.788   3.178  1.3958  0.4028 -3.0020
 3006SOL     OW20653   2.227   3.654   6.310  0.0981 -0.4178  0.7480
 3006SOL    HW120654   2.230   3.649   6.214 -0.9240  2.4054  0.5784
 3006SOL    HW220655   2.281   3.578   6.333 -0.7623 -1.0066  0.8372
 3007SOL     OW20656   2.919   0.044   6.332  0.2078 -0.4034  0.2783
 3007SOL    HW120657   2.913   0.026   6.239 -0.2224  2.7831 -0.2950
 3007SOL    HW220658   2.883   4.702   6.375 -1.4335  0.0496 -0.2972
 3008SOL     OW20659   1.520   0.282  16.014  0.4519 -0.1817  0.3344
 3008SOL    HW120660   1.564   0.329  16.084  0.9121 -0.7323  0.4104
 3008SOL    HW220661   1.481   0.357  15.969 -0.8055 -0.5218  0.8413
 3009SOL     OW20662   1.055   2.340   2.107  0.0820 -0.5349 -0.0929
 3009SOL    HW120663   1.145   2.357   2.138  0.5207 -3.1490  0.0306
 3009SOL    HW220664   1.027   2.278   2.174  1.6202 -2.1142 -0.9121
 3010SOL     OW20665   3.019   0.680  10.437  0.1749 -0.1739  0.3132
 3010SOL    HW120666   2.944   0.732  10.410 -1.2186 -1.8015  1.0616
 3010SOL    HW220667   3.068   0.690  10.356  0.1194 -0.2226  0.2731
 3011SOL     OW20668   4.017   3.090   1.203 -0.3275 -0.1942  0.0885
 3011SOL    HW120669   3.976   3.112   1.286 -3.6149  0.1081 -1.6371
 3011SOL    HW220670   4.064   3.013   1.235  1.9154  1.6345  1.2002
 3012SOL     OW20671   1.935   4.528   9.860 -0.2121 -0.4069 -0.7285
 3012SOL    HW120672   1.982   4.611   9.850  2.2426 -1.4588  2.2132
 3012SOL    HW220673   1.973   4.488   9.782  0.8434 -0.8300  0.0113
 3013SOL     OW20674   4.500   3.770   1.452  0.7814  0.3625  0.4502
 3013SOL    HW120675   4.486   3.690   1.401  0.9125  0.4675  0.2500
 3013SOL    HW220676   4.535   3.822   1.379 -1.3803 -0.7604 -1.3944
 3014SOL     OW20677   0.063   1.853   8.899 -0.4475  0.0210  0.1554
 3014SOL    HW120678   0.150   1.817   8.883 -0.8811 -0.7476 -0.5229
 3014SOL    HW220679   0.087   1.930   8.950 -1.5061  0.8495 -0.5971
 3015SOL     OW20680   1.956   4.412   3.223  0.1139  0.4739  0.4297
 3015SOL    HW120681   1.963   4.495   3.270  1.9045  0.5833 -0.0390
 3015SOL    HW220682   1.871   4.374   3.247 -0.6340  1.6727 -0.3138
 3016SOL     OW20683   4.009   2.522   1.427  0.3860 -0.6352  0.8639
 3016SOL    HW120684   3.925   2.487   1.396 -0.2187  0.8342  0.7954
 3016SOL    HW220685   4.012   2.483   1.514  0.3173 -2.3902  0.0686
 3017SOL     OW20686   1.085   1.570   3.153  0.0283 -0.1361  0.4211
 3017SOL    HW120687   1.040   1.493   3.188 -0.6350  0.0694  0.0192
 3017SOL    HW220688   1.172   1.560   3.191  0.6689 -0.5606 -1.1715
 3018SOL     OW20689   0.112   0.406   5.220 -0.6485 -0.2168  0.7128
 3018SOL    HW120690   0.043   0.471   5.233  0.9691  1.4573  0.8615
 3018SOL    HW220691   0.170   0.407   5.296  1.5815 -2.1524 -0.9734
 3019SOL     OW20692   0.148   1.351   6.353  0.4387 -0.2610  0.2772
 3019SOL    HW120693   0.089   1.376   6.424  0.8082  0.5391  0.3010
 3019SOL    HW220694   0.118   1.264   6.326  1.2837  0.2508 -2.2937
 3020SOL     OW20695   4.263   1.008   5.194 -0.3845 -0.3667 -0.4066
 3020SOL    HW120696   4.240   1.083   5.248 -1.8547 -1.7712  0.9143
 3020SOL    HW220697   4.313   1.050   5.124 -0.6077 -1.9002 -1.4866
 3021SOL     OW20698   3.568   1.621   4.697  0.7854  0.1579 -0.2547
 3021SOL    HW120699   3.582   1.695   4.756 -1.6069  0.8304 -0.5321
 3021SOL    HW220700   3.569   1.553   4.764  1.0822 -2.1429 -2.6140
 3022SOL     OW20701   3.463   4.456   8.986 -0.5550  1.0761 -0.3559
 3022SOL    HW120702   3.403   4.461   8.911  2.1808  1.6153 -2.5054
 3022SOL    HW220703   3.407   4.435   9.060  1.3738  0.6600  0.9678
 3023SOL     OW20704   3.690   2.990   3.709  0.0169  0.2427 -0.4340
 3023SOL    HW120705   3.630   2.934   3.660 -1.0568 -1.4073  2.8137
 3023SOL    HW220706   3.689   3.070   3.656  0.8656  1.2388  1.0498
 3024SOL     OW20707   3.688   1.007   3.190 -0.1185 -0.3076 -0.0569
 3024SOL    HW120708   3.659   1.021   3.280  0.5962  0.3457  0.0736
 3024SOL    HW220709   3.614   0.964   3.148 -0.1630 -0.9635  0.6933
 3025SOL     OW20710   4.054   2.069  11.565 -0.2383  0.2013  0.0504
 3025SOL    HW120711   4.105   2.010  11.510 -0.4189  1.7910 -1.8584
 3025SOL    HW220712   4.056   2.140  11.499  2.3743  0.1808  0.0952
 3026SOL     OW20713   2.222   4.170  10.749  0.1632 -1.0978  0.4343
 3026SOL    HW120714   2.158   4.242  10.748  2.9016  1.3391 -2.5626
 3026SOL    HW220715   2.217   4.136  10.660 -3.1438  0.7336 -0.0827
 3027SOL     OW20716   0.144   0.124   4.518 -0.2697  0.0473  0.2576
 3027SOL    HW120717   0.183   0.156   4.436 -0.5430 -3.3845 -1.2464
 3027SOL    HW220718   0.082   0.194   4.536  0.2197  0.5861 -0.1546
 3028SOL     OW20719   2.649   0.941   1.001  0.0850 -0.0647  0.1758
 3028SOL    HW120720   2.587   1.013   0.989  1.8743  0.9089 -3.2635
 3028SOL    HW220721   2.639   0.888   0.922  1.9676 -0.5670  0.2713
 3029SOL     OW20722   4.042   2.766   7.506 -0.4605 -0.0969 -0.2288
 3029SOL    HW120723   4.135   2.748   7.521 -0.2817  0.7971 -0.2701
 3029SOL    HW220724   4.055   2.840   7.447 -0.8583  1.5665  1.7335
 3030SOL     OW20725   0.989   3.682   1.263  0.0742  0.1875 -0.0075
 3030SOL    HW120726   0.912   3.738   1.275 -0.6638 -0.9189  0.4683
 3030SOL    HW220727   0.965   3.603   1.311  0.0967 -0.5172 -1.1353
 3031SOL     OW20728   4.317   0.844  10.376  0.4615 -0.4047 -0.1274
 3031SOL    HW120729   4.312   0.922  10.319  2.0030 -0.2316 -0.0224
 3031SOL    HW220730   4.285   0.876  10.460  0.6795 -2.5005  0.7439
 3032SOL     OW20731   2.491   2.910  16.997 -0.4430  0.3663  0.3142
 3032SOL    HW120732   2.508   2.886  17.088  1.1347  0.5425  0.0662
 3032SOL    HW220733   2.443   2.834  16.962  1.3784 -1.0777  0.9413
 3033SOL     OW20734   0.105   2.099   8.057  0.1823  0.3816  0.4313
 3033SOL    HW120735   0.189   2.122   8.018  1.5754 -2.3997  1.7783
 3033SOL    HW220736   0.136   2.081   8.146 -0.0304 -0.1389  0.4008
 3034SOL     OW20737   4.643   3.236   4.381  0.5097  0.1021 -0.6728
 3034SOL    HW120738   4.721   3.277   4.419 -0.0643 -0.3661  1.0214
 3034SOL    HW220739   4.686   3.151   4.370 -0.9807 -0.9786  1.7358
 3035SOL     OW20740   3.350   4.048   2.665 -0.5127  0.1217 -0.1078
 3035SOL    HW120741   3.419   4.089   2.612  2.4189 -2.6131  1.5982
 3035SOL    HW220742   3.306   3.985   2.609  1.8737 -1.8442  0.2112
 3036SOL     OW20743   0.672   1.079   6.616 -0.1545  0.7768 -0.0038
 3036SOL    HW120744   0.683   1.129   6.697  0.3905  0.0752  0.3569
 3036SOL    HW220745   0.611   1.136   6.570 -0.3721 -0.3604 -1.1434
 3037SOL     OW20746   3.941   0.634   5.966 -0.5167  0.3216 -0.2278
 3037SOL    HW120747   4.020   0.583   5.982 -0.4689  0.1811 -0.9309
 3037SOL    HW220748   3.960   0.685   5.887 -2.0434 -2.6244 -2.4814
 3038SOL     OW20749   3.469   2.250   6.391  0.4929  1.1640 -0.0538
 3038SOL    HW120750   3.410   2.210   6.455  2.1228 -0.5154  0.3982
 3038SOL    HW220751   3.419   2.221   6.315  3.8255  0.4238 -1.9599
 3039SOL     OW20752   0.232   1.482   3.526  0.7018  0.0491  0.3908
 3039SOL    HW120753   0.282   1.426   3.586  1.0097 -1.2447 -1.0565
 3039SOL    HW220754   0.148   1.479   3.572 -0.2927 -0.6814 -1.4588
 3040SOL     OW20755   3.634   1.295   9.491  0.4517 -0.5220  0.3857
 3040SOL    HW120756   3.638   1.350   9.570  0.4432  0.7476 -0.4878
 3040SOL    HW220757   3.696   1.341   9.433 -0.5359  0.9485  0.4931
 3041SOL     OW20758   1.688   2.678   2.626  0.0160 -1.1012  0.6278
 3041SOL    HW120759   1.700   2.675   2.531  1.3258 -0.3779  0.7793
 3041SOL    HW220760   1.614   2.735   2.646  0.8424  0.2417 -0.1323
 3042SOL     OW20761   4.262   3.349  13.312 -0.5694 -0.3034  0.2594
 3042SOL    HW120762   4.262   3.307  13.226 -0.4583  0.5633 -0.1617
 3042SOL    HW220763   4.244   3.278  13.373 -3.5339 -0.1472 -0.4203
 3043SOL     OW20764   2.252   3.751   2.776 -0.5226 -0.1513 -0.0858
 3043SOL    HW120765   2.198   3.694   2.831  1.6688 -2.9588 -0.8054
 3043SOL    HW220766   2.210   3.832   2.804 -1.3371 -0.4962 -0.3026
 3044SOL     OW20767   1.966   3.378  12.176  0.5543  0.1059  0.0111
 3044SOL    HW120768   2.036   3.399  12.238  0.7355 -1.1761  0.2314
 3044SOL    HW220769   1.951   3.470  12.152  1.0676 -0.3008 -1.8675
 3045SOL     OW20770   4.211   1.109   8.376  0.3917 -0.3102 -0.2343
 3045SOL    HW120771   4.180   1.022   8.399 -2.5442  0.9054  0.4764
 3045SOL    HW220772   4.136   1.150   8.333  0.2480 -0.0803  0.2382
 3046SOL     OW20773   1.786   0.601   3.940  0.0426  0.2238  0.2101
 3046SOL    HW120774   1.865   0.592   3.887 -1.0466 -1.3957 -1.1256
 3046SOL    HW220775   1.718   0.557   3.890  1.6421  0.2651 -1.9652
 3047SOL     OW20776   3.874   2.987   6.220 -0.1274 -0.5661 -0.4046
 3047SOL    HW120777   3.944   2.956   6.163 -0.1593  1.4752 -1.5559
 3047SOL    HW220778   3.919   3.057   6.269 -1.9135 -0.1313  0.6019
 3048SOL     OW20779   1.581   0.764   7.965  0.0897  0.2297  0.4968
 3048SOL    HW120780   1.596   0.856   7.987 -1.3158  0.6483 -0.3627
 3048SOL    HW220781   1.615   0.755   7.876 -0.0900 -0.0550  0.4591
 3049SOL     OW20782   1.089   1.349   6.789 -0.5681 -0.3677  0.1512
 3049SOL    HW120783   1.172   1.340   6.742 -0.4847  2.0013 -0.1917
 3049SOL    HW220784   1.091   1.273   6.847  1.7765 -0.6928 -0.3741
 3050SOL     OW20785   4.274   3.509  10.466 -0.1656 -0.2769  0.3702
 3050SOL    HW120786   4.295   3.431  10.517 -2.2952 -0.7869  0.4778
 3050SOL    HW220787   4.358   3.525  10.423  1.5436 -0.7090  3.5304
 3051SOL     OW20788   1.379   0.143   2.953  0.3240  0.0979 -0.4230
 3051SOL    HW120789   1.378   0.048   2.944  0.4059  0.0888 -0.3396
 3051SOL    HW220790   1.311   0.157   3.019 -0.2000 -0.9977 -0.7396
 3052SOL     OW20791   3.762   1.607  10.236 -0.0260 -0.1096  0.0375
 3052SOL    HW120792   3.725   1.532  10.284  1.9097 -0.8900  0.3227
 3052SOL    HW220793   3.846   1.618  10.280 -0.5276  1.6196  0.5815
 3053SOL     OW20794   2.431   4.520  13.052 -0.4498  0.0677  0.4987
 3053SOL    HW120795   2.404   4.610  13.033  1.8643  0.6370 -0.1200
 3053SOL    HW220796   2.423   4.484  12.963 -1.1943 -0.1285  0.6473
 3054SOL     OW20797   3.141   4.380   6.815 -0.4567 -0.0289  0.5499
 3054SOL    HW120798   3.088   4.335   6.750  0.4287 -2.3556  1.4377
 3054SOL    HW220799   3.202   4.430   6.761 -2.0460  0.5623 -0.6815
 3055SOL     OW20800   3.539   0.815   5.775 -0.3424 -0.2914  0.2314
 3055SOL    HW120801   3.447   0.809   5.803  0.0981 -0.2707  1.6922
 3055SOL    HW220802   3.576   0.759   5.843  1.8082  1.9834  0.9285
 3056SOL     OW20803   0.264   0.181   5.251 -0.3789 -0.4477 -0.5054
 3056SOL    HW120804   0.211   0.261   5.243 -0.2045 -0.4375 -1.5017
 3056SOL    HW220805   0.213   0.119   5.199 -1.5338  1.0896 -1.2026
 3057SOL     OW20806   1.820   2.730   0.680 -0.4099 -0.1293  0.1786
 3057SOL    HW120807   1.911   2.719   0.652 -0.9391  2.5229 -2.6787
 3057SOL    HW220808   1.779   2.660   0.630 -0.8626  1.3632 -1.5570
 3058SOL     OW20809   1.414   3.906   7.884  0.2894  0.2068 -0.0215
 3058SOL    HW120810   1.355   3.835   7.909 -1.5198  2.3892  1.8748
 3058SOL    HW220811   1.376   3.982   7.928  0.0028 -0.2146  0.4551
 3059SOL     OW20812   2.148   3.583   6.791  0.3169 -0.1257 -0.2540
 3059SOL    HW120813   2.225   3.530   6.770  0.7910  0.0891  0.9878
 3059SOL    HW220814   2.079   3.528   6.754  0.6908 -1.6206  1.3011
 3060SOL     OW20815   3.422   1.007   4.544 -0.0675 -0.2941  0.1510
 3060SOL    HW120816   3.378   1.091   4.534  0.6869  0.3111  1.8361
 3060SOL    HW220817   3.358   0.969   4.604  0.1434  0.4248  0.8402
 3061SOL     OW20818   4.131   0.973  12.606  0.5082  0.4005 -0.1992
 3061SOL    HW120819   4.050   0.921  12.612  1.1202 -0.4885  0.4020
 3061SOL    HW220820   4.136   1.019  12.522 -0.2677  0.6621 -0.1034
 3062SOL     OW20821   1.788   0.131   8.285 -0.0565 -0.2197  0.2795
 3062SOL    HW120822   1.699   0.096   8.272 -0.0979  0.3943 -1.0062
 3062SOL    HW220823   1.832   0.071   8.225  1.8618 -0.6525  2.1168
 3063SOL     OW20824   3.882   0.151  10.514  0.3417 -0.3269 -0.3747
 3063SOL    HW120825   3.917   0.081  10.568  0.6602 -0.7341 -1.1120
 3063SOL    HW220826   3.915   0.128  10.427  0.7402 -0.5434 -0.1682
 3064SOL     OW20827   2.530   1.075  11.412  0.1527 -0.0458  1.0419
 3064SOL    HW120828   2.571   1.148  11.459 -0.0183  1.5597 -1.3106
 3064SOL    HW220829   2.602   1.055  11.352  0.1719 -0.7291  1.2976
 3065SOL     OW20830   0.688   0.154   7.108 -1.0236 -0.2623  0.5098
 3065SOL    HW120831   0.661   0.062   7.120  1.8074 -0.8228  2.6068
 3065SOL    HW220832   0.783   0.149   7.115 -1.2556 -3.3760  1.4955
 3066SOL     OW20833   0.172   2.102  14.359  0.7915 -0.2988 -0.2205
 3066SOL    HW120834   0.121   2.160  14.303  3.5254  1.9829 -0.3368
 3066SOL    HW220835   0.248   2.156  14.340  0.7163 -0.4917 -1.0936
 3067SOL     OW20836   1.019   2.980   8.681 -0.0720 -0.2262 -0.1053
 3067SOL    HW120837   1.074   3.034   8.738 -2.5889  1.1401  1.0138
 3067SOL    HW220838   1.079   2.956   8.611 -0.2282 -4.4678  1.2085
 3068SOL     OW20839   2.030   2.279  16.051 -0.2355  0.1356 -0.0427
 3068SOL    HW120840   2.052   2.271  15.958 -1.2748  0.2543 -0.2921
 3068SOL    HW220841   2.095   2.219  16.088  0.1938  2.0230  2.1944
 3069SOL     OW20842   1.360   1.408   4.629  0.0298  0.0717  0.1177
 3069SOL    HW120843   1.420   1.378   4.561  0.0290  2.2611 -0.8469
 3069SOL    HW220844   1.294   1.448   4.572 -0.5749 -1.5965 -0.3532
 3070SOL     OW20845   0.149   3.629   4.217  0.1434  0.8834 -0.4294
 3070SOL    HW120846   0.135   3.655   4.308  0.9470  0.1448 -0.0961
 3070SOL    HW220847   0.072   3.665   4.173 -2.4334 -1.3033  2.3303
 3071SOL     OW20848   1.228   2.494   5.060  0.1772 -0.3515 -0.1062
 3071SOL    HW120849   1.318   2.506   5.090 -0.9829 -1.5207  3.9045
 3071SOL    HW220850   1.243   2.494   4.966 -0.9595 -1.1807 -0.2912
 3072SOL     OW20851   4.065   4.167   5.654 -0.2437 -0.0745  0.3161
 3072SOL    HW120852   4.072   4.237   5.719  1.5044 -2.2133  2.4217
 3072SOL    HW220853   4.153   4.157   5.618  0.1558 -0.1241  1.3243
 3073SOL     OW20854   0.122   1.491   8.353  0.0285 -0.2131  0.4589
 3073SOL    HW120855   0.122   1.545   8.433  1.8510 -0.3952  0.5942
 3073SOL    HW220856   0.030   1.496   8.330 -0.0401  0.7445  0.9486
 3074SOL     OW20857   0.692   2.147   9.142  0.7072  0.1182  0.2574
 3074SOL    HW120858   0.766   2.205   9.160  0.8411  0.0890 -0.2180
 3074SOL    HW220859   0.726   2.058   9.155  4.0708  1.3639 -0.0294
 3075SOL     OW20860   4.344   0.740   4.551 -0.3095  0.1809  0.3070
 3075SOL    HW120861   4.269   0.705   4.599  1.6659 -0.8179  2.6973
 3075SOL    HW220862   4.406   0.725   4.623 -0.8738  1.2555  1.0236
 3076SOL     OW20863   2.314   2.855   1.441 -0.4191 -0.3889  0.2358
 3076SOL    HW120864   2.324   2.826   1.351  0.4476  0.7357 -0.0388
 3076SOL    HW220865   2.352   2.778   1.483  1.4900  0.0407 -0.6642
 3077SOL     OW20866   1.845   0.171   3.437  0.7412  0.3458 -0.2465
 3077SOL    HW120867   1.852   0.182   3.532 -0.6482 -1.5331  0.0690
 3077SOL    HW220868   1.777   0.104   3.441  1.6909 -0.7157 -2.4100
 3078SOL     OW20869   0.340   3.151   8.137 -0.0504  0.1710  0.6655
 3078SOL    HW120870   0.390   3.130   8.215 -0.9694 -0.2021  1.1522
 3078SOL    HW220871   0.404   3.119   8.073 -0.2000 -1.2142  1.2243
 3079SOL     OW20872   4.592   0.583   5.279  0.2072 -0.6444  0.8878
 3079SOL    HW120873   4.518   0.550   5.331 -2.0823  0.8847 -1.3775
 3079SOL    HW220874   4.625   0.654   5.334 -0.5750  1.0230 -0.8042
 3080SOL     OW20875   4.142   2.365   3.890  0.0226  0.3355  0.0979
 3080SOL    HW120876   4.079   2.426   3.849 -0.6658  0.0026  0.6517
 3080SOL    HW220877   4.102   2.349   3.975 -1.0029  0.1883 -0.4045
 3081SOL     OW20878   1.782   3.768   5.763  0.2183  0.0412 -0.0295
 3081SOL    HW120879   1.823   3.823   5.696 -1.3483 -0.9045 -1.7392
 3081SOL    HW220880   1.808   3.683   5.728 -0.1262 -0.8793  1.9326
 3082SOL     OW20881   3.654   0.248   1.954 -0.2577 -0.0603 -0.5547
 3082SOL    HW120882   3.610   0.182   1.902 -2.3641 -0.5831  1.8797
 3082SOL    HW220883   3.695   0.195   2.024 -3.0163 -1.0358  0.3117
 3083SOL     OW20884   1.757   3.216   6.202 -0.1583 -0.0382 -0.8880
 3083SOL    HW120885   1.741   3.168   6.120  1.6217 -0.7663 -0.8140
 3083SOL    HW220886   1.775   3.140   6.258 -0.1944  0.4426 -0.2333
 3084SOL     OW20887   0.405   2.606   1.883 -0.4625 -0.0412  0.1869
 3084SOL    HW120888   0.428   2.556   1.805  0.9514  1.1806 -0.1857
 3084SOL    HW220889   0.489   2.617   1.927 -1.6542  1.2183  2.1354
 3085SOL     OW20890   0.808   3.607   5.673 -0.1658  0.4957 -0.2431
 3085SOL    HW120891   0.885   3.596   5.617  0.2563 -1.7554  0.8013
 3085SOL    HW220892   0.806   3.701   5.688  0.8608  0.6935 -1.3725
 3086SOL     OW20893   1.453   1.523   7.657  0.1459  0.4723  0.0834
 3086SOL    HW120894   1.410   1.563   7.733  0.9590  0.9156  0.3095
 3086SOL    HW220895   1.542   1.547   7.685 -0.1002 -0.4857  1.7424
 3087SOL     OW20896   3.026   0.159   3.706 -0.7038 -0.0677 -0.0445
 3087SOL    HW120897   3.107   0.203   3.731 -0.5394 -0.5772  0.3281
 3087SOL    HW220898   2.960   0.201   3.761 -1.3481  2.1109 -2.4685
 3088SOL     OW20899   3.820   2.308   3.073 -0.0053  0.2983  0.0525
 3088SOL    HW120900   3.816   2.354   3.157 -1.0644 -0.3610  0.3509
 3088SOL    HW220901   3.730   2.292   3.046 -0.4876 -2.1109  3.0843
 3089SOL     OW20902   0.664   0.111   4.558  0.0409  1.0015  0.1714
 3089SOL    HW120903   0.630   0.192   4.597 -1.0520  0.0488  1.1957
 3089SOL    HW220904   0.718   0.082   4.631  0.7524 -1.1569 -1.2215
 3090SOL     OW20905   4.093   1.819   5.140 -0.2863  0.1379  0.4480
 3090SOL    HW120906   4.113   1.738   5.094 -1.8477  1.7216 -2.9960
 3090SOL    HW220907   4.021   1.794   5.199 -0.8795 -0.7918 -0.6762
 3091SOL     OW20908   4.300   0.990   3.219  0.3548  0.1033 -0.0124
 3091SOL    HW120909   4.334   0.922   3.278 -0.1177 -0.2515 -0.1504
 3091SOL    HW220910   4.205   0.981   3.222  0.4034  0.0945  1.4380
 3092SOL     OW20911   4.169   1.828   7.366  0.4670  0.1707 -0.2224
 3092SOL    HW120912   4.262   1.821   7.344  0.2636 -2.1175 -0.4038
 3092SOL    HW220913   4.165   1.839   7.461 -1.0927 -0.0817 -0.2513
 3093SOL     OW20914   3.270   1.727   8.068  0.3390 -0.5208  0.4090
 3093SOL    HW120915   3.336   1.768   8.011 -0.0126 -0.0118  0.3650
 3093SOL    HW220916   3.190   1.758   8.026  1.6116  0.5559 -1.2469
 3094SOL     OW20917   3.059   0.978   2.101  0.2490  0.6232 -0.3173
 3094SOL    HW120918   3.001   1.042   2.061 -1.3233  0.0036  0.9895
 3094SOL    HW220919   3.101   1.044   2.157  1.0307  0.4173 -0.6657
 3095SOL     OW20920   4.127   4.440   2.925 -0.2713 -0.1168  0.2720
 3095SOL    HW120921   4.212   4.473   2.953 -0.6585 -0.2396  1.5655
 3095SOL    HW220922   4.145   4.348   2.908 -5.0510 -1.1798  0.9661
 3096SOL     OW20923   4.037   4.407   7.932 -0.3134  0.0830 -0.3164
 3096SOL    HW120924   3.951   4.398   7.891  0.1055  0.9036 -1.3660
 3096SOL    HW220925   4.082   4.323   7.916  0.1492  0.3107 -0.2057
 3097SOL     OW20926   2.202   0.359   7.122  0.5471  0.0086 -0.5595
 3097SOL    HW120927   2.284   0.402   7.098 -0.6999  2.6427 -0.0735
 3097SOL    HW220928   2.151   0.429   7.161  0.9136 -0.3260  0.5051
 3098SOL     OW20929   3.086   2.483   2.257  0.3320 -0.0106 -0.2996
 3098SOL    HW120930   3.162   2.456   2.308 -0.1787  1.2266  1.1031
 3098SOL    HW220931   3.006   2.467   2.307 -0.3893  1.9836 -0.8251
 3099SOL     OW20932   2.928   4.135   8.177  0.4196 -0.1561  0.5575
 3099SOL    HW120933   2.961   4.192   8.107  0.3055 -1.6252 -0.6809
 3099SOL    HW220934   2.933   4.048   8.138 -0.5765 -0.8466  1.9585
 3100SOL     OW20935   2.997   0.713   2.776  0.3700  0.8082  0.2106
 3100SOL    HW120936   2.942   0.776   2.822 -1.1524 -0.1521 -0.2778
 3100SOL    HW220937   2.934   0.650   2.740 -1.0856  2.4753 -0.1972
 3101SOL     OW20938   1.288   3.824   6.588 -0.2260 -0.1855  0.3508
 3101SOL    HW120939   1.363   3.778   6.627 -0.9179 -1.8644 -0.3111
 3101SOL    HW220940   1.252   3.875   6.660 -1.7625 -0.2461 -0.3677
 3102SOL     OW20941   1.009   0.610   9.398 -0.0867  0.0763  0.1687
 3102SOL    HW120942   0.923   0.652   9.402  0.7946  1.8935 -0.1237
 3102SOL    HW220943   1.017   0.569   9.484 -0.4213 -2.7808 -1.1504
 3103SOL     OW20944   3.310   4.336   3.498 -0.4415 -0.0785  0.1902
 3103SOL    HW120945   3.231   4.283   3.487 -1.4198  1.2494  0.8021
 3103SOL    HW220946   3.369   4.294   3.436 -0.5898 -1.9403  1.3038
 3104SOL     OW20947   1.982   0.940   1.578  0.2269 -0.7659 -0.4368
 3104SOL    HW120948   2.064   0.982   1.602  0.3006 -2.3231  1.9796
 3104SOL    HW220949   2.006   0.851   1.604 -0.6942 -0.3157  1.9076
 3105SOL     OW20950   4.396   1.909  14.020  0.0925 -0.4525 -0.0218
 3105SOL    HW120951   4.403   1.838  13.957 -2.6112  0.8033 -1.7676
 3105SOL    HW220952   4.308   1.896  14.056  0.2449  1.2756  0.9542
 3106SOL     OW20953   1.723   0.533   2.774 -0.3844  0.7236  0.3021
 3106SOL    HW120954   1.693   0.547   2.684 -0.4553  0.4530  0.2827
 3106SOL    HW220955   1.679   0.450   2.789  0.2301 -0.0071 -1.9963
 3107SOL     OW20956   0.056   3.751  17.472  0.1451  0.4207  0.0744
 3107SOL    HW120957   0.082   3.835  17.435 -2.6004  0.7222 -1.1047
 3107SOL    HW220958   4.707   3.746  17.428  0.3162  0.6356 -0.2715
 3108SOL     OW20959   0.869   1.383  15.737 -0.2704 -0.3689 -0.0900
 3108SOL    HW120960   0.890   1.303  15.689  1.0484  0.0445 -0.1890
 3108SOL    HW220961   0.782   1.394  15.698 -0.3710  1.1503  0.5482
 3109SOL     OW20962   1.509   2.505   1.995  0.5043 -0.1573  0.0870
 3109SOL    HW120963   1.445   2.563   1.954 -0.4946 -0.0854  1.7362
 3109SOL    HW220964   1.568   2.560   2.046 -0.3057  0.2906  0.5446
 3110SOL     OW20965   0.424   0.472   3.677  0.0594 -0.1735  0.0968
 3110SOL    HW120966   0.440   0.385   3.638  0.3581  0.8859 -2.1504
 3110SOL    HW220967   0.371   0.448   3.752  1.3927  0.6178  1.2907
 3111SOL     OW20968   3.027   0.667   5.751 -0.4059  0.1118 -0.1989
 3111SOL    HW120969   3.001   0.748   5.795  0.4947 -0.1510  0.8231
 3111SOL    HW220970   2.946   0.617   5.738  0.2932 -1.3676  1.1847
 3112SOL     OW20971   3.936   2.712   6.365  0.2498  0.0856 -0.6189
 3112SOL    HW120972   4.001   2.728   6.297  2.5777  1.6936  1.9615
 3112SOL    HW220973   3.857   2.728   6.315  0.8235  1.6166 -1.0430
 3113SOL     OW20974   0.415   1.173   1.057  0.2470 -0.6923  0.2595
 3113SOL    HW120975   0.398   1.245   0.997 -0.0714 -0.0257  1.1380
 3113SOL    HW220976   0.510   1.178   1.069  0.6616 -1.4566 -2.9341
 3114SOL     OW20977   2.437   4.483   7.240 -0.3632  0.2431 -0.0033
 3114SOL    HW120978   2.439   4.549   7.171 -0.3634 -0.2073 -0.4372
 3114SOL    HW220979   2.449   4.406   7.185 -3.2266  0.2282 -0.5784
 3115SOL     OW20980   2.096   4.400   9.636  0.4742 -0.0125 -0.3325
 3115SOL    HW120981   2.145   4.448   9.570  1.6725 -2.0534 -0.9454
 3115SOL    HW220982   2.006   4.402   9.603  1.2229  1.3038 -2.2693
 3116SOL     OW20983   3.401   2.379  17.582 -0.6188 -0.5909  0.1843
 3116SOL    HW120984   3.362   2.293  17.598 -0.3077 -0.9754 -1.0754
 3116SOL    HW220985   3.376   2.426  17.661  0.7089  2.7053 -1.3540
 3117SOL     OW20986   4.356   0.247   8.698  0.2689 -0.1395  0.1689
 3117SOL    HW120987   4.430   0.233   8.757  1.3656 -0.2940 -1.2200
 3117SOL    HW220988   4.291   0.285   8.757  0.5235  0.7308 -0.1105
 3118SOL     OW20989   1.164   2.062  13.354 -0.3222 -0.1460 -0.7975
 3118SOL    HW120990   1.155   1.976  13.313 -1.1965 -0.2055 -0.4776
 3118SOL    HW220991   1.253   2.083  13.324 -0.1711  2.7735  1.7829
 3119SOL     OW20992   0.254   0.090   7.045  0.0521 -0.0596  0.3928
 3119SOL    HW120993   0.327   0.151   7.048  0.8703 -0.8463 -3.0640
 3119SOL    HW220994   0.280   0.034   7.118  0.4123 -0.0608  0.2628
 3120SOL     OW20995   2.877   2.575  15.970  0.0606 -0.1981  0.1042
 3120SOL    HW120996   2.803   2.545  15.917  0.7790 -1.0132 -0.4528
 3120SOL    HW220997   2.950   2.519  15.944 -0.0083  0.2748 -1.1208
 3121SOL     OW20998   1.817   4.604   2.432  0.2192 -0.9363  0.1922
 3121SOL    HW120999   1.740   4.658   2.450 -0.0306 -1.4912  0.7881
 3121SOL    HW221000   1.786   4.513   2.430 -0.3277 -0.7802  1.3751
 3122SOL     OW21001   0.750   3.212  16.752 -0.6208  0.4851  0.4974
 3122SOL    HW121002   0.832   3.206  16.704 -0.7466  1.3338  0.1857
 3122SOL    HW221003   0.704   3.263  16.685  0.5052  1.8704  0.7946
 3123SOL     OW21004   3.179   0.705   4.587  0.0625  0.2745  0.3437
 3123SOL    HW121005   3.161   0.711   4.680 -0.2325  0.1588  0.2940
 3123SOL    HW221006   3.143   0.787   4.555 -1.3662  0.5292  2.6517
 3124SOL     OW21007   1.731   2.073   4.055  0.1725  0.0377  0.0086
 3124SOL    HW121008   1.817   2.056   4.018 -1.3440  0.7091 -3.8227
 3124SOL    HW221009   1.689   1.988   4.070  3.1717 -1.0629  2.1658
 3125SOL     OW21010   2.702   4.048   5.030 -0.9068  0.0997 -0.6222
 3125SOL    HW121011   2.706   4.123   5.089 -1.7847  0.0944 -0.5651
 3125SOL    HW221012   2.713   4.099   4.950  1.3935 -1.9013 -1.5866
 3126SOL     OW21013   3.518   3.646   4.393  0.3257 -0.2293 -0.4339
 3126SOL    HW121014   3.466   3.684   4.464  1.1090 -0.7881  0.4379
 3126SOL    HW221015   3.457   3.578   4.363  0.0538  1.0847 -2.9187
 3127SOL     OW21016   2.162   1.335   8.779  0.4612 -0.4757  0.4235
 3127SOL    HW121017   2.254   1.311   8.792 -0.2917 -3.0086  0.9652
 3127SOL    HW221018   2.127   1.295   8.858 -2.9876  2.0983  0.1930
 3128SOL     OW21019   3.837   3.007   2.429  0.1535  0.0948  0.4349
 3128SOL    HW121020   3.779   2.974   2.359 -0.0258  1.2235  0.0604
 3128SOL    HW221021   3.782   3.065   2.481 -0.4386 -1.1728  1.2254
 3129SOL     OW21022   3.575   1.528   4.011  0.6279 -0.6155 -0.5502
 3129SOL    HW121023   3.618   1.544   3.927  0.4113  0.1304 -0.5159
 3129SOL    HW221024   3.533   1.611   4.033  1.1468 -0.6057  0.4066
 3130SOL     OW21025   3.199   0.840   3.177  0.3643  0.1396 -0.2468
 3130SOL    HW121026   3.178   0.824   3.269  1.5529  0.8937  0.1672
 3130SOL    HW221027   3.169   0.762   3.130  0.3299 -0.1824  0.3098
 3131SOL     OW21028   0.183   2.163   6.540 -0.1103  0.1739 -0.1421
 3131SOL    HW121029   0.195   2.204   6.626 -1.7742  1.5843 -0.5928
 3131SOL    HW221030   0.110   2.217   6.508 -2.1648 -3.6908 -1.9131
 3132SOL     OW21031   3.825   2.605   2.889 -0.2073  0.7547  0.1463
 3132SOL    HW121032   3.805   2.569   2.803 -1.4765 -1.3494  1.3378
 3132SOL    HW221033   3.745   2.578   2.933  0.4303  1.5164  1.7805
 3133SOL     OW21034   1.093   4.641  14.984 -0.0619 -0.1694  0.1111
 3133SOL    HW121035   1.119   4.602  14.900 -1.0208  1.7819 -1.1087
 3133SOL    HW221036   1.012   4.682  14.955 -0.5265  0.2857  2.0513
 3134SOL     OW21037   4.202   0.155  14.810 -0.5070 -0.2069  0.2996
 3134SOL    HW121038   4.220   0.093  14.739  2.2623 -0.9057  1.6132
 3134SOL    HW221039   4.128   0.120  14.860  1.7978 -2.4346  2.1856
 3135SOL     OW21040   4.613   3.392   5.277  0.5651 -0.1271  0.4569
 3135SOL    HW121041   4.623   3.308   5.320 -0.3469 -0.1824  0.5545
 3135SOL    HW221042   4.524   3.382   5.244 -0.8468 -0.6853  4.5428
 3136SOL     OW21043   1.952   0.365  10.448 -0.4471  0.2210  0.4954
 3136SOL    HW121044   1.966   0.428  10.518  1.3514 -0.6146  0.8854
 3136SOL    HW221045   1.955   0.286  10.501  1.0876  0.2130  0.3924
 3137SOL     OW21046   2.343   2.866   8.857  0.0945 -0.3708 -0.1979
 3137SOL    HW121047   2.383   2.788   8.894 -0.7855 -1.5484 -1.7052
 3137SOL    HW221048   2.418   2.925   8.862  0.6915 -1.0321 -1.4355
 3138SOL     OW21049   0.707   2.284  16.830 -0.5993 -0.5897 -0.3224
 3138SOL    HW121050   0.713   2.375  16.803  0.8474 -0.1947  1.3398
 3138SOL    HW221051   0.625   2.292  16.879  1.0032  1.2657  2.0239
 3139SOL     OW21052   0.565   3.682   3.504 -0.1178  0.2579  0.0538
 3139SOL    HW121053   0.501   3.744   3.469  0.0517  1.0575  1.1677
 3139SOL    HW221054   0.573   3.625   3.427  0.4569  1.1514 -0.5387
 3140SOL     OW21055   1.023   4.523   8.028 -0.1143 -0.2273  0.2844
 3140SOL    HW121056   1.038   4.486   8.115  1.5849  0.4907  0.2971
 3140SOL    HW221057   0.986   4.452   7.975  0.6263  0.0102 -0.5554
 3141SOL     OW21058   4.405   2.654   2.760  0.5461  0.0370  0.9765
 3141SOL    HW121059   4.328   2.708   2.774  1.1218 -0.0389  4.5236
 3141SOL    HW221060   4.356   2.595   2.703  1.4362  0.8899 -0.6843
 3142SOL     OW21061   3.971   1.278   0.656  0.4948  0.0792 -0.1597
 3142SOL    HW121062   4.038   1.344   0.638 -0.4275  1.5563  1.7621
 3142SOL    HW221063   3.970   1.220   0.580  0.4830  1.3374 -1.1068
 3143SOL     OW21064   1.052   3.082   0.618 -0.2292  0.9900 -0.3937
 3143SOL    HW121065   0.998   3.037   0.683  1.6117  1.1831  1.2389
 3143SOL    HW221066   1.136   3.039   0.630  0.3600  1.7005 -1.9738
 3144SOL     OW21067   0.275   4.273   5.033  0.2931  0.0172 -0.0899
 3144SOL    HW121068   0.284   4.331   4.958 -0.9884  1.6906  1.0578
 3144SOL    HW221069   0.337   4.201   5.019  0.3086 -0.1512  0.8352
 3145SOL     OW21070   2.086   4.353   0.533  0.2448  0.2171  0.3547
 3145SOL    HW121071   2.126   4.422   0.480 -0.4634 -0.7508 -1.4612
 3145SOL    HW221072   2.098   4.391   0.620 -0.8530  0.7442  0.2687
 3146SOL     OW21073   3.221   2.500   0.065  0.6840 -0.4168  0.2645
 3146SOL    HW121074   3.276   2.525   0.139 -0.3816  0.2985  0.8123
 3146SOL    HW221075   3.153   2.447   0.105 -0.1294 -1.0093 -1.8769
 3147SOL     OW21076   1.247   1.295   6.568  0.7386  0.7583 -0.7231
 3147SOL    HW121077   1.171   1.317   6.515 -2.0956 -4.4213  1.2708
 3147SOL    HW221078   1.228   1.204   6.592 -0.0807  0.6282 -1.8607
 3148SOL     OW21079   0.688   3.073  15.094  0.0733 -0.3260  0.5644
 3148SOL    HW121080   0.692   3.164  15.064  2.5898  0.5506  3.4681
 3148SOL    HW221081   0.734   3.078  15.178 -0.6120 -0.6395  0.9508
 3149SOL     OW21082   4.225   4.719   1.988  0.0240 -0.3177 -0.0821
 3149SOL    HW121083   4.255   0.021   1.905  0.9185  0.4865  0.6092
 3149SOL    HW221084   4.260   0.052   2.045 -2.3742  0.9100 -0.1074
 3150SOL     OW21085   2.951   1.313   7.153 -0.6632 -0.3501  0.0495
 3150SOL    HW121086   2.875   1.256   7.139 -0.5167 -0.6765  0.5926
 3150SOL    HW221087   2.938   1.380   7.085 -2.0821  0.1429  0.7896
 3151SOL     OW21088   1.759   1.259   3.410  0.1472  0.0865 -0.3709
 3151SOL    HW121089   1.678   1.308   3.424 -0.4228 -0.7263 -0.8133
 3151SOL    HW221090   1.766   1.223   3.499 -2.9115  0.0803 -0.1200
 3152SOL     OW21091   0.947   0.750   3.644 -0.1667 -0.4636  0.2365
 3152SOL    HW121092   0.859   0.713   3.646  0.1170 -1.0952  0.9246
 3152SOL    HW221093   0.977   0.747   3.735  4.3227  1.4452 -1.1680
 3153SOL     OW21094   3.481   1.232   1.430 -0.1447 -0.6526  0.3525
 3153SOL    HW121095   3.430   1.307   1.460  0.4352  0.9325 -2.6575
 3153SOL    HW221096   3.421   1.181   1.375  1.3076 -0.4388 -1.3921
 3154SOL     OW21097   0.007   0.008  12.807 -0.3302  0.3451 -0.3263
 3154SOL    HW121098   0.053   0.061  12.872 -1.0203 -0.3188  0.7099
 3154SOL    HW221099   4.653   0.019  12.839  0.4512  0.5853  1.7938
 3155SOL     OW21100   1.868   2.705  12.149  0.6956  0.3578 -0.1440
 3155SOL    HW121101   1.870   2.798  12.128 -2.1130  0.3255 -0.6534
 3155SOL    HW221102   1.911   2.656  12.080 -0.3440  0.2415 -0.7178
 3156SOL     OW21103   4.439   3.580   5.532  0.3708  0.3317 -0.6095
 3156SOL    HW121104   4.354   3.545   5.557  0.9443  0.1168  1.0396
 3156SOL    HW221105   4.399   3.654   5.486  0.8634 -0.8466 -2.9825
 3157SOL     OW21106   3.672   1.841   5.536  0.6924 -0.2348 -0.0219
 3157SOL    HW121107   3.598   1.900   5.525  0.0722 -0.8948  0.6097
 3157SOL    HW221108   3.626   1.785   5.599  0.4320  0.0583  0.0445
 3158SOL     OW21109   3.468   4.396   2.594 -0.1221  0.2511 -0.1989
 3158SOL    HW121110   3.547   4.348   2.569  0.8729  0.1000  3.2295
 3158SOL    HW221111   3.419   4.377   2.514  2.2874 -1.2652 -1.3220
 3159SOL     OW21112   1.124   1.748   6.789  0.3126 -0.7859  0.0296
 3159SOL    HW121113   1.099   1.659   6.812  1.5844 -0.4495  2.7694
 3159SOL    HW221114   1.073   1.799   6.853 -0.2693  1.1959 -2.0105
 3160SOL     OW21115   0.403   0.502   2.775  0.4170 -0.0755 -0.1648
 3160SOL    HW121116   0.397   0.537   2.686  0.0054  0.4588  0.0765
 3160SOL    HW221117   0.402   0.586   2.821 -0.6949  0.0925 -0.4851
 3161SOL     OW21118   3.855   1.580   3.835 -0.2164  0.0495  0.2007
 3161SOL    HW121119   3.864   1.494   3.877  1.7232 -0.5467 -1.4368
 3161SOL    HW221120   3.865   1.550   3.745  0.5376  1.9316 -0.3221
 3162SOL     OW21121   1.834   2.673   6.471  0.2674 -0.1100 -0.2372
 3162SOL    HW121122   1.750   2.680   6.518  0.0678 -2.0587 -0.3074
 3162SOL    HW221123   1.815   2.616   6.396  2.5806 -0.0569 -0.8364
 3163SOL     OW21124   1.073   2.608   4.164  0.3839 -0.8578  0.6276
 3163SOL    HW121125   0.991   2.609   4.215 -0.0553  1.3482 -0.1291
 3163SOL    HW221126   1.055   2.540   4.099  2.8649 -0.6950 -0.2224
 3164SOL     OW21127   0.938   1.647  16.226 -0.4592  0.0432  0.2628
 3164SOL    HW121128   0.969   1.608  16.307 -0.8788  0.8029  0.7963
 3164SOL    HW221129   1.024   1.685  16.205 -1.2066  0.8501 -1.3847
 3165SOL     OW21130   0.427   2.669   5.769  0.1327  0.1137 -1.2339
 3165SOL    HW121131   0.411   2.705   5.856 -0.0867  0.8800 -1.5828
 3165SOL    HW221132   0.470   2.742   5.722  1.0424  1.4081  1.6117
 3166SOL     OW21133   2.179   3.215   7.951 -0.6840 -0.1292 -0.5353
 3166SOL    HW121134   2.231   3.152   7.900  0.6571 -0.2665  1.0112
 3166SOL    HW221135   2.162   3.281   7.884 -1.4811 -0.8460 -1.0554
 3167SOL     OW21136   2.617   1.501   8.002  0.3369  0.2812  0.2367
 3167SOL    HW121137   2.589   1.453   8.080  1.1337 -1.0789 -0.3034
 3167SOL    HW221138   2.634   1.424   7.948 -0.9907 -1.0607  1.7487
 3168SOL     OW21139   1.338   3.360   0.898 -0.4523 -0.1501 -0.1777
 3168SOL    HW121140   1.366   3.269   0.890 -0.0012 -0.2044  2.0558
 3168SOL    HW221141   1.256   3.359   0.849  1.2512  1.7429 -3.0986
 3169SOL     OW21142   0.299   3.886   5.927  0.0168 -0.3548 -0.3437
 3169SOL    HW121143   0.304   3.876   6.022 -2.4116 -0.5896 -0.2459
 3169SOL    HW221144   0.312   3.797   5.894 -0.9063 -0.1290 -1.3165
 3170SOL     OW21145   1.988   3.939   6.173 -0.1152 -0.6395 -0.7463
 3170SOL    HW121146   1.938   3.875   6.224 -1.4306  0.0285 -1.1935
 3170SOL    HW221147   1.948   3.931   6.086 -1.5484 -1.0441 -0.0494
 3171SOL     OW21148   2.073   1.348  13.963 -0.3791  0.3370  0.1613
 3171SOL    HW121149   2.071   1.263  14.006  0.1708  0.1962 -0.0885
 3171SOL    HW221150   2.103   1.403  14.035 -2.1358 -1.0145  1.9463
 3172SOL     OW21151   4.227   3.566   3.316 -0.3830 -0.0782  0.4830
 3172SOL    HW121152   4.223   3.657   3.343 -1.1244  0.3482 -1.1198
 3172SOL    HW221153   4.246   3.530   3.403  1.3206 -1.1779 -0.3449
 3173SOL     OW21154   0.294   0.400   5.446 -0.3673 -0.0941  0.1294
 3173SOL    HW121155   0.316   0.308   5.464 -1.1816 -0.2026  0.5938
 3173SOL    HW221156   0.343   0.440   5.518  1.1394 -1.8516  0.0926
 3174SOL     OW21157   1.240   0.877   9.430  0.0047  0.1955  0.2050
 3174SOL    HW121158   1.310   0.913   9.377  0.0630 -2.3835 -1.4976
 3174SOL    HW221159   1.300   0.855   9.502 -0.5869 -1.1837  0.2893
 3175SOL     OW21160   4.061   1.434   4.214 -0.4318  0.0315  0.1212
 3175SOL    HW121161   4.071   1.365   4.280  1.7635  1.7479  1.6002
 3175SOL    HW221162   3.966   1.426   4.207 -0.3715 -0.2983 -0.3151
 3176SOL     OW21163   0.417   1.313   3.693 -0.6904  0.1041  0.0880
 3176SOL    HW121164   0.456   1.249   3.633  0.5191 -0.3978  1.4130
 3176SOL    HW221165   0.484   1.307   3.761  0.9477  0.6067 -1.4861
 3177SOL     OW21166   1.576   2.466   2.424  0.2403  0.6148 -0.4332
 3177SOL    HW121167   1.651   2.422   2.384 -0.7202 -0.5914 -0.8980
 3177SOL    HW221168   1.591   2.558   2.399 -0.8820  0.4770 -1.6284
 3178SOL     OW21169   0.673   0.664   8.151  0.1220 -0.0967 -0.3404
 3178SOL    HW121170   0.674   0.751   8.191  1.3741 -1.0015  1.5964
 3178SOL    HW221171   0.605   0.615   8.198 -0.0232  0.4329 -0.0063
 3179SOL     OW21172   0.936   1.386   2.034  0.4724 -0.2874  0.3691
 3179SOL    HW121173   0.974   1.299   2.023 -3.9301 -2.2202  0.5161
 3179SOL    HW221174   0.977   1.432   2.107 -1.2172  0.5063  0.8335
 3180SOL     OW21175   2.761   1.259  12.741  0.4918  0.1237 -0.2505
 3180SOL    HW121176   2.726   1.178  12.704 -3.4184  1.5570  0.2869
 3180SOL    HW221177   2.681   1.302  12.772  0.3530  0.5062 -1.1427
 3181SOL     OW21178   0.352   1.698   6.527 -0.0644 -0.3556 -0.1412
 3181SOL    HW121179   0.398   1.616   6.545  2.7985  1.1491 -0.5597
 3181SOL    HW221180   0.283   1.672   6.466 -0.3524 -2.0382  0.8937
 3182SOL     OW21181   3.339   4.209  14.409 -0.3232 -0.4832 -0.2610
 3182SOL    HW121182   3.304   4.228  14.496  1.9710  3.8338 -0.3035
 3182SOL    HW221183   3.422   4.172  14.439 -0.6205 -0.2274  0.8709
 3183SOL     OW21184   0.164   3.496   2.558 -0.0432  0.4388  0.2539
 3183SOL    HW121185   0.209   3.451   2.487 -1.4526 -1.1750  0.3877
 3183SOL    HW221186   0.243   3.532   2.597  0.5049 -0.2740 -0.2126
 3184SOL     OW21187   4.615   0.761   1.766 -1.0957  0.7524 -0.2440
 3184SOL    HW121188   4.698   0.810   1.769 -0.3643 -0.2929 -3.1519
 3184SOL    HW221189   4.643   0.691   1.707  1.1369  0.4805  1.1465
 3185SOL     OW21190   1.074   1.324   7.808  0.0288  0.3730 -0.1466
 3185SOL    HW121191   1.015   1.337   7.882 -1.7193  0.3511 -1.5241
 3185SOL    HW221192   1.022   1.296   7.732  1.7363 -0.8938 -0.8494
 3186SOL     OW21193   2.394   2.842   6.614 -0.0893 -0.0298 -0.0167
 3186SOL    HW121194   2.381   2.928   6.653  1.2213  1.2227 -2.3315
 3186SOL    HW221195   2.405   2.785   6.691  0.2488  0.8325  0.5704
 3187SOL     OW21196   4.303   3.342   0.470  0.0040 -0.4413 -0.0751
 3187SOL    HW121197   4.312   3.349   0.565 -2.0497  1.5948 -0.0313
 3187SOL    HW221198   4.210   3.366   0.461  0.2877  0.9861  0.8001
 3188SOL     OW21199   3.694   0.192   6.134  0.2745  0.2319  0.1923
 3188SOL    HW121200   3.686   0.279   6.095  3.2115  0.8956  1.0525
 3188SOL    HW221201   3.615   0.151   6.098 -0.4141  1.3024  0.4950
 3189SOL     OW21202   3.761   3.062  11.965 -0.2935 -0.0042  0.3703
 3189SOL    HW121203   3.714   3.118  11.903 -0.2711 -0.6773 -0.2542
 3189SOL    HW221204   3.834   3.105  12.011  0.7183 -0.3073 -0.9288
 3190SOL     OW21205   0.429   2.048   8.502 -0.3965  0.0473  0.2281
 3190SOL    HW121206   0.467   1.978   8.555  2.9719  1.6113 -0.1524
 3190SOL    HW221207   0.457   2.006   8.421  0.7570  3.2919 -1.0486
 3191SOL     OW21208   3.036   3.173   1.713 -0.0829 -0.4226  0.0827
 3191SOL    HW121209   3.034   3.101   1.650  0.2898 -0.1193 -0.2749
 3191SOL    HW221210   3.094   3.235   1.670  0.2931 -0.3477  0.6953
 3192SOL     OW21211   2.355   3.780   2.330  0.2340  0.1627  0.0938
 3192SOL    HW121212   2.267   3.809   2.308 -0.3019 -1.0454  0.6420
 3192SOL    HW221213   2.384   3.744   2.246  1.8518 -0.4385  0.9020
 3193SOL     OW21214   3.782   0.730   2.879 -0.0551 -0.5280 -0.2268
 3193SOL    HW121215   3.726   0.798   2.841  1.4648  1.2380  0.7208
 3193SOL    HW221216   3.832   0.694   2.806 -2.2209 -2.8104 -0.6093
 3194SOL     OW21217   1.832   3.542   7.012  0.3707 -0.1246  0.3539
 3194SOL    HW121218   1.898   3.610   7.003 -1.1719  1.4876  1.3602
 3194SOL    HW221219   1.797   3.555   6.923 -1.4180  1.9245  1.3616
 3195SOL     OW21220   3.766   0.253  13.073 -0.1979  0.1748 -0.6534
 3195SOL    HW121221   3.756   0.333  13.125 -0.9732 -0.1009 -0.3796
 3195SOL    HW221222   3.736   0.186  13.134 -0.1138  1.2061  0.5112
 3196SOL     OW21223   4.332   3.622   2.409 -0.2079  0.2586 -0.0552
 3196SOL    HW121224   4.418   3.659   2.430 -0.2073 -0.3381  1.0515
 3196SOL    HW221225   4.348   3.576   2.327  0.0115  0.8548 -0.3461
 3197SOL     OW21226   0.958   4.294  16.836 -0.1608 -0.4366 -0.7513
 3197SOL    HW121227   0.931   4.259  16.751  1.1460  1.2860 -1.8768
 3197SOL    HW221228   0.888   4.273  16.898  0.8805  0.1493  0.6071
 3198SOL     OW21229   0.857   0.497   6.530  0.4088 -0.0627 -0.1364
 3198SOL    HW121230   0.943   0.473   6.496  0.9010 -0.7102  1.6037
 3198SOL    HW221231   0.844   0.419   6.583  1.9027  0.6159  1.2533
 3199SOL     OW21232   0.251   2.309   3.642  0.3575  0.5704 -0.5795
 3199SOL    HW121233   0.270   2.254   3.566 -1.5309 -0.0496 -0.6079
 3199SOL    HW221234   0.215   2.389   3.603 -0.3973 -0.1940 -1.4829
 3200SOL     OW21235   0.166   1.283   8.166  0.6970  0.0512 -0.2187
 3200SOL    HW121236   0.073   1.258   8.165  0.4220  1.0611 -0.4971
 3200SOL    HW221237   0.156   1.362   8.219 -1.8772 -0.1462 -0.4107
 3201SOL     OW21238   2.284   3.506   8.781 -0.3424 -0.0073  0.5491
 3201SOL    HW121239   2.320   3.568   8.718  0.0217 -0.1441  0.6263
 3201SOL    HW221240   2.200   3.483   8.740  1.2090 -1.6373 -1.6484
 3202SOL     OW21241   3.270   1.953   7.418 -0.0773 -0.3047  0.5936
 3202SOL    HW121242   3.209   1.889   7.455  1.8054 -0.8776  2.6499
 3202SOL    HW221243   3.339   1.961   7.483  2.2523 -0.2287 -1.9007
 3203SOL     OW21244   1.331   2.984   6.623  0.4088  0.2329 -0.0673
 3203SOL    HW121245   1.401   3.040   6.590  1.4167 -0.3481  1.0542
 3203SOL    HW221246   1.254   3.034   6.596 -2.0596 -2.8998  1.1362
 3204SOL     OW21247   2.123   3.396  16.565 -0.0317 -0.3755  0.5431
 3204SOL    HW121248   2.132   3.328  16.499  2.6038 -0.0155  0.5323
 3204SOL    HW221249   2.049   3.369  16.619 -0.3140  0.6870  0.6995
 3205SOL     OW21250   4.142   1.276   5.092 -0.1590  0.5634 -0.4046
 3205SOL    HW121251   4.107   1.187   5.107 -0.5984  1.0385  1.4146
 3205SOL    HW221252   4.062   1.329   5.088 -0.6043 -0.0948 -0.4356
 3206SOL     OW21253   2.376   0.846  15.935 -0.4638  0.3334 -0.7049
 3206SOL    HW121254   2.428   0.869  15.858  3.0064  2.2780  2.2240
 3206SOL    HW221255   2.417   0.765  15.965 -0.1829  0.9479  0.5763
 3207SOL     OW21256   0.118   2.042   9.331 -0.0576  0.1389  0.4759
 3207SOL    HW121257   0.124   2.046   9.236 -0.6000 -1.7905  0.3546
 3207SOL    HW221258   0.029   2.072   9.349  1.0648  2.4740  2.0398
 3208SOL     OW21259   3.161   1.548  13.038  0.2409 -0.3250  0.3945
 3208SOL    HW121260   3.227   1.617  13.052 -0.8824  0.8769 -0.2208
 3208SOL    HW221261   3.205   1.473  13.077  1.0953  0.5500  1.1257
 3209SOL     OW21262   1.750   3.619   2.537  0.0839 -0.3768  0.2630
 3209SOL    HW121263   1.694   3.569   2.597  0.1091  0.4876  1.0115
 3209SOL    HW221264   1.761   3.554   2.467  3.0104 -0.8234  1.1204
 3210SOL     OW21265   4.499   3.111   6.029  0.0524 -0.4112  0.1701
 3210SOL    HW121266   4.580   3.089   6.074 -0.9904 -0.5209  1.9639
 3210SOL    HW221267   4.537   3.164   5.958 -1.0861  1.7056  1.1519
 3211SOL     OW21268   2.393   3.170   3.934  0.1432 -0.3321  0.6950
 3211SOL    HW121269   2.455   3.097   3.939 -0.2261 -0.8531 -2.3961
 3211SOL    HW221270   2.438   3.235   3.989  1.4566 -0.4099 -0.2792
 3212SOL     OW21271   4.391   2.045   8.180 -0.3708  0.2032  0.2683
 3212SOL    HW121272   4.470   1.991   8.183  0.9406  2.3187  3.7745
 3212SOL    HW221273   4.412   2.132   8.214 -0.2274  1.4802 -3.0323
 3213SOL     OW21274   4.671   2.914   2.660  0.3917 -0.0133 -0.5097
 3213SOL    HW121275   4.620   2.995   2.656  0.4453  0.1419  2.2957
 3213SOL    HW221276   4.626   2.867   2.730 -1.6672 -0.3997 -2.0988
 3214SOL     OW21277   2.958   1.551  10.182  0.1298 -0.1399 -0.0014
 3214SOL    HW121278   2.957   1.457  10.165  0.4418 -0.1444  0.0103
 3214SOL    HW221279   2.872   1.564  10.223  0.4865 -1.8341  1.3024
 3215SOL     OW21280   2.378   0.162  14.486  0.6283 -0.1475  0.4642
 3215SOL    HW121281   2.382   0.104  14.562 -3.2609  0.9456  1.4829
 3215SOL    HW221282   2.367   0.093  14.420  1.0201 -1.0403  1.3272
 3216SOL     OW21283   3.433   1.023   9.853 -0.1603  0.2414  0.3206
 3216SOL    HW121284   3.511   0.969   9.837 -0.8108 -0.8075  0.6516
 3216SOL    HW221285   3.394   0.970   9.923 -0.2163  0.3130  0.3427
 3217SOL     OW21286   0.700   0.455  16.833 -0.3322 -0.2377 -0.6850
 3217SOL    HW121287   0.631   0.403  16.794 -1.0909  0.1496  0.1443
 3217SOL    HW221288   0.769   0.392  16.854 -0.7262  0.4163  2.5808
 3218SOL     OW21289   3.801   4.122   5.273  0.4365 -0.0586 -0.6773
 3218SOL    HW121290   3.737   4.052   5.286  1.4179 -0.6850  0.7561
 3218SOL    HW221291   3.808   4.149   5.364 -2.5287  0.0211 -0.4675
 3219SOL     OW21292   3.016   2.979   3.505 -0.1035 -0.2593 -0.6055
 3219SOL    HW121293   2.950   2.910   3.513 -0.9104  0.3785 -1.7281
 3219SOL    HW221294   2.988   3.026   3.426  1.3606  2.0233  0.2356
 3220SOL     OW21295   1.315   0.082   6.019  0.0277  0.1958 -0.0794
 3220SOL    HW121296   1.396   0.063   5.971 -0.0656  1.8810 -0.9264
 3220SOL    HW221297   1.306   0.002   6.070  1.2373 -0.5983 -1.1188
 3221SOL     OW21298   1.459   2.373   7.338  0.5593  0.3194 -1.0575
 3221SOL    HW121299   1.484   2.293   7.383  0.3231  0.5248 -0.5662
 3221SOL    HW221300   1.545   2.399   7.305  0.1109  1.6801 -1.1701
 3222SOL     OW21301   1.375   1.707   5.176  0.2107 -0.0265 -0.1662
 3222SOL    HW121302   1.299   1.743   5.221  0.0457 -0.5580 -0.0197
 3222SOL    HW221303   1.433   1.758   5.234 -0.2716  0.2078  0.1094
 3223SOL     OW21304   1.597   0.880  13.590 -0.2082  0.5114 -0.3448
 3223SOL    HW121305   1.544   0.821  13.536 -0.1959 -0.7763  1.0663
 3223SOL    HW221306   1.610   0.948  13.524 -0.3312  2.6819  1.8556
 3224SOL     OW21307   3.325   2.871   0.349 -0.1698  0.1135  0.0741
 3224SOL    HW121308   3.300   2.910   0.266 -0.6128 -1.1105 -0.3708
 3224SOL    HW221309   3.419   2.879   0.361  0.2319 -3.5923 -0.7475
 3225SOL     OW21310   0.648   3.690   7.634 -0.2256  0.5129  0.1471
 3225SOL    HW121311   0.668   3.602   7.605 -0.6889  0.7570 -0.8915
 3225SOL    HW221312   0.616   3.735   7.556  0.8771 -0.1291 -0.6800
 3226SOL     OW21313   3.717   2.467   2.644  0.6987 -0.0441  0.2327
 3226SOL    HW121314   3.661   2.398   2.607  0.0567  0.5252  0.1522
 3226SOL    HW221315   3.730   2.531   2.574  1.3652  1.9683  2.1934
 3227SOL     OW21316   1.626   4.353   8.812 -0.2855 -0.2269 -0.2381
 3227SOL    HW121317   1.677   4.410   8.870 -0.5030 -0.8612  0.5837
 3227SOL    HW221318   1.599   4.401   8.734  0.3380 -0.1892 -0.4246
 3228SOL     OW21319   0.406   3.381  12.213 -0.4345 -0.3279  0.0106
 3228SOL    HW121320   0.411   3.467  12.256  0.5842  0.1734 -1.0923
 3228SOL    HW221321   0.325   3.395  12.163 -1.2737 -2.7398  0.7414
 3229SOL     OW21322   0.458   0.289   7.056  0.0537 -0.9978 -0.2714
 3229SOL    HW121323   0.534   0.237   7.083  0.7006 -1.0277 -2.1837
 3229SOL    HW221324   0.481   0.379   7.080 -0.4867 -1.2329  1.1573
 3230SOL     OW21325   2.782   0.922  12.676  0.6383 -0.4489 -0.2739
 3230SOL    HW121326   2.859   0.973  12.699 -1.2194  1.7167  1.1904
 3230SOL    HW221327   2.761   0.966  12.593 -0.3457 -0.1461  0.1344
 3231SOL     OW21328   1.284   4.573  11.674  0.1921 -0.3123 -0.0025
 3231SOL    HW121329   1.373   4.598  11.649  0.5356 -0.8974  0.6264
 3231SOL    HW221330   1.242   4.586  11.589 -0.8913 -1.9888  0.2781
 3232SOL     OW21331   4.514   2.333   4.624  0.3103 -0.0996  0.1619
 3232SOL    HW121332   4.556   2.296   4.701 -2.4242 -3.7733 -0.0750
 3232SOL    HW221333   4.437   2.382   4.653  0.7907  1.2487 -0.8673
 3233SOL     OW21334   0.114   1.863   6.839  0.2394  0.3723 -0.2135
 3233SOL    HW121335   0.065   1.922   6.897  0.9021 -0.8642  1.6026
 3233SOL    HW221336   0.044   1.822   6.787  0.3243  0.9477 -0.7784
 3234SOL     OW21337   2.573   1.799   4.054 -0.1313  0.0810 -0.2146
 3234SOL    HW121338   2.618   1.835   4.130  2.0133 -0.4627 -1.2511
 3234SOL    HW221339   2.599   1.857   3.982 -0.7418  0.5664 -0.0511
 3235SOL     OW21340   0.726   3.353  15.349  0.3974  0.1840 -0.2800
 3235SOL    HW121341   0.711   3.409  15.425  0.0470 -0.2355 -0.0395
 3235SOL    HW221342   0.760   3.415  15.284  1.7693 -0.3042 -0.0412
 3236SOL     OW21343   1.610   4.024   5.564  0.5093 -0.2607  0.5223
 3236SOL    HW121344   1.595   3.930   5.576 -2.2071  0.2812  1.2630
 3236SOL    HW221345   1.572   4.040   5.477  1.3463  5.7251  1.2535
 3237SOL     OW21346   2.039   2.816   0.329 -0.3359  0.3661  0.5470
 3237SOL    HW121347   2.030   2.728   0.294  0.6552 -0.5233  2.5167
 3237SOL    HW221348   2.090   2.847   0.254 -2.5058 -0.0037 -1.0672
 3238SOL     OW21349   3.005   1.253   2.179  0.4346 -0.5109 -0.3656
 3238SOL    HW121350   2.920   1.288   2.151  0.7746 -0.2681 -1.0978
 3238SOL    HW221351   3.063   1.329   2.179 -0.6678  0.3442 -1.2732
 3239SOL     OW21352   0.923   3.862   7.486 -0.5208 -0.7277 -0.1824
 3239SOL    HW121353   0.995   3.831   7.541 -0.0832  0.9197  0.1784
 3239SOL    HW221354   0.861   3.885   7.555 -0.2970  0.5929 -0.4344
 3240SOL     OW21355   1.425   2.203  11.358  0.5052  0.1748 -0.0201
 3240SOL    HW121356   1.466   2.184  11.273  0.5046  1.2270 -0.2579
 3240SOL    HW221357   1.504   2.209  11.412  1.1970 -1.9223 -0.7924
 3241SOL     OW21358   3.932   0.873  17.185  0.0792  1.0135 -0.6375
 3241SOL    HW121359   3.947   0.857  17.278  0.2561  1.1938 -0.6338
 3241SOL    HW221360   3.962   0.794  17.141 -0.3188  0.5864 -0.1381
 3242SOL     OW21361   0.328   3.457   2.340  0.3370 -0.1694  0.1786
 3242SOL    HW121362   0.340   3.365   2.363 -0.2471 -0.1907  0.3927
 3242SOL    HW221363   0.414   3.499   2.328 -0.3049  1.2571  0.5033
 3243SOL     OW21364   3.740   2.176   6.406 -0.4456 -0.4313  0.3071
 3243SOL    HW121365   3.721   2.123   6.484 -1.9340  0.9144  0.8592
 3243SOL    HW221366   3.652   2.209   6.391 -0.4967 -0.5223  0.3983
 3244SOL     OW21367   4.398   2.968   5.256  0.3901 -0.7743  0.1668
 3244SOL    HW121368   4.372   2.894   5.311 -1.0600 -1.2972 -1.1966
 3244SOL    HW221369   4.317   2.984   5.207  1.0801  0.6450 -0.5201
 3245SOL     OW21370   1.491   4.180   0.025  0.5554  0.4053  0.0770
 3245SOL    HW121371   1.526   4.093   0.006 -1.6435 -1.3329  4.0290
 3245SOL    HW221372   1.397   4.163   0.013  1.4370 -2.0983 -3.2813
 3246SOL     OW21373   4.484   2.759  14.376 -0.1413 -0.5861  0.1174
 3246SOL    HW121374   4.483   2.693  14.445  1.4337 -1.0499 -0.3030
 3246SOL    HW221375   4.579   2.772  14.368 -0.2861 -0.0429 -0.7756
 3247SOL     OW21376   3.354   1.225   7.079 -0.0778 -0.0470  0.3533
 3247SOL    HW121377   3.275   1.171   7.072  1.0575 -1.5437 -0.8128
 3247SOL    HW221378   3.335   1.286   7.150 -1.2358  0.7991 -0.6816
 3248SOL     OW21379   4.423   3.972  14.744 -0.2838  0.3213 -0.0763
 3248SOL    HW121380   4.370   4.043  14.707 -1.3685  0.1545  1.1647
 3248SOL    HW221381   4.373   3.943  14.820  1.3860  1.0000  1.2680
 3249SOL     OW21382   2.979   4.248   6.634 -0.1939 -0.2974  0.2737
 3249SOL    HW121383   2.926   4.176   6.601 -0.8075  0.4306 -0.3425
 3249SOL    HW221384   3.045   4.240   6.565 -3.3353 -1.9600 -2.4768
 3250SOL     OW21385   0.899   0.054   5.211 -0.4488  0.5025 -0.2343
 3250SOL    HW121386   0.823   0.086   5.162 -1.2983 -0.4273  0.4558
 3250SOL    HW221387   0.959   0.127   5.200 -0.5921  0.4678 -1.2535
 3251SOL     OW21388   4.573   0.032   3.099 -0.0567  0.4912  0.2944
 3251SOL    HW121389   4.533   4.731   3.178 -0.0403 -1.5105 -0.6207
 3251SOL    HW221390   4.661   4.730   3.110 -0.8187 -0.8597  1.9131
 3252SOL     OW21391   1.322   2.125   3.034  0.0539  0.2376  0.2763
 3252SOL    HW121392   1.282   2.042   3.059 -0.2774  1.3249  3.4396
 3252SOL    HW221393   1.277   2.152   2.955  1.2836 -1.8000 -1.1297
 3253SOL     OW21394   2.499   4.564   8.728  0.0777  0.0677 -0.4463
 3253SOL    HW121395   2.439   4.633   8.757 -0.0366 -0.0818 -0.3274
 3253SOL    HW221396   2.577   4.613   8.704  0.1852 -0.8291 -1.9021
 3254SOL     OW21397   2.265   1.595  13.222  0.3742 -0.3026  0.3794
 3254SOL    HW121398   2.297   1.632  13.304 -2.3042  0.1778  1.1922
 3254SOL    HW221399   2.288   1.503  13.234  0.8047 -0.5781 -2.5128
 3255SOL     OW21400   0.137   1.401   7.689  0.2796  0.4125 -0.1488
 3255SOL    HW121401   0.127   1.336   7.758 -0.6409  3.3714  2.5253
 3255SOL    HW221402   0.071   1.467   7.713  1.1903  0.8562  1.1611
 3256SOL     OW21403   0.995   3.155   5.511  0.0182 -0.2007 -0.9117
 3256SOL    HW121404   1.020   3.220   5.445  0.7374 -1.4787 -1.8970
 3256SOL    HW221405   1.061   3.086   5.503 -0.9298 -1.2156  0.2598
 3257SOL     OW21406   2.601   1.908   8.129  0.0351 -0.1592  0.1494
 3257SOL    HW121407   2.517   1.895   8.086 -0.1186 -0.6189  0.5847
 3257SOL    HW221408   2.577   1.947   8.213 -0.4252 -1.4413  0.6201
 3258SOL     OW21409   3.008   0.305   7.702  0.1750 -0.3481 -0.0012
 3258SOL    HW121410   3.019   0.401   7.701  1.7021 -0.5624 -3.0739
 3258SOL    HW221411   3.084   0.276   7.652 -0.0394 -0.6105 -0.1734
 3259SOL     OW21412   2.600   0.892  13.007 -0.3371 -0.2490 -0.5435
 3259SOL    HW121413   2.690   0.919  12.986 -1.2691  2.8233 -0.5949
 3259SOL    HW221414   2.599   0.896  13.103 -0.4710 -1.3602 -0.5059
 3260SOL     OW21415   3.069   1.197   9.747  0.4904 -0.6572 -0.3219
 3260SOL    HW121416   3.019   1.115   9.752 -2.6205  1.2599 -0.2822
 3260SOL    HW221417   3.072   1.227   9.838 -3.3404 -1.5895  0.1205
 3261SOL     OW21418   2.410   3.693   3.340 -0.0257  0.0626  0.0916
 3261SOL    HW121419   2.476   3.679   3.408 -0.3156 -2.7256 -0.2305
 3261SOL    HW221420   2.385   3.785   3.356 -0.3954  0.3345 -2.0348
 3262SOL     OW21421   4.030   4.385  11.570  0.0279  0.2183  1.1452
 3262SOL    HW121422   4.051   4.407  11.661 -0.4257 -0.6097  1.4491
 3262SOL    HW221423   4.034   4.290  11.578 -1.2937  0.1969  1.5450
 3263SOL     OW21424   0.970   4.104   1.297  0.0241  0.5556 -0.3469
 3263SOL    HW121425   0.900   4.076   1.356 -0.2879  2.1186  0.0399
 3263SOL    HW221426   0.929   4.169   1.241 -2.2009 -0.2451  0.3535
 3264SOL     OW21427   4.002   3.125  13.498 -0.3938 -0.2336 -0.0530
 3264SOL    HW121428   4.084   3.082  13.477  1.0898  2.8845 -0.6148
 3264SOL    HW221429   3.994   3.108  13.592 -0.5922 -1.9742 -0.3922
 3265SOL     OW21430   3.897   2.798   1.424 -0.2719 -0.1586 -0.2588
 3265SOL    HW121431   3.903   2.703   1.436 -0.5904 -0.2541 -0.8622
 3265SOL    HW221432   3.958   2.824   1.356 -0.5878  1.8134  0.2109
 3266SOL     OW21433   1.016   3.577   5.490  0.5363  0.0201 -0.0170
 3266SOL    HW121434   1.080   3.509   5.510  1.3048  0.9323  0.5932
 3266SOL    HW221435   1.075   3.649   5.471  0.3016  0.5237  1.1584
 3267SOL     OW21436   3.756   1.130   4.121  0.0348 -0.6450  0.0241
 3267SOL    HW121437   3.839   1.090   4.145  1.0367  1.2524 -0.3003
 3267SOL    HW221438   3.697   1.056   4.133 -3.2326  2.1807  1.3757
 3268SOL     OW21439   3.479   0.333   5.397 -0.2066 -0.0873 -0.3122
 3268SOL    HW121440   3.511   0.244   5.408  1.8867  0.6408 -0.4253
 3268SOL    HW221441   3.472   0.360   5.489 -0.3957  0.1303 -0.3898
 3269SOL     OW21442   3.012   1.801   2.760  0.5961  0.0878  0.2371
 3269SOL    HW121443   2.988   1.709   2.768  0.0824  0.0654 -1.4136
 3269SOL    HW221444   3.074   1.812   2.832  2.6730 -2.0173 -1.2175
 3270SOL     OW21445   4.527   3.264   3.432 -0.2959  0.1790  0.0409
 3270SOL    HW121446   4.524   3.271   3.336  1.3701 -0.1463 -0.0379
 3270SOL    HW221447   4.444   3.221   3.447 -1.2615  1.7823 -0.6783
 3271SOL     OW21448   1.384   0.299  10.110  0.1134 -0.3048 -0.1569
 3271SOL    HW121449   1.418   0.372  10.162 -1.0695  0.8222 -0.9489
 3271SOL    HW221450   1.299   0.278  10.150 -0.3617  1.7280 -0.0836
 3272SOL     OW21451   3.668   2.704  16.489 -0.2436  0.3201  0.2965
 3272SOL    HW121452   3.695   2.791  16.460  0.6790 -0.7441 -2.0227
 3272SOL    HW221453   3.711   2.637  16.436  0.3095 -0.2236  1.4234
 3273SOL     OW21454   3.639   3.081   7.269 -0.0485 -0.3071  0.2295
 3273SOL    HW121455   3.661   3.047   7.355  1.3542 -3.1238 -1.2429
 3273SOL    HW221456   3.725   3.110   7.239  0.2380  0.5213  1.8753
 3274SOL     OW21457   2.922   4.517   6.412  0.2791 -0.1083  0.1598
 3274SOL    HW121458   2.920   4.466   6.492 -0.6148 -0.8106 -0.3110
 3274SOL    HW221459   2.862   4.469   6.355 -1.4973  1.5536  0.6177
 3275SOL     OW21460   2.822   3.133   7.985  0.3952  0.4875  1.0489
 3275SOL    HW121461   2.901   3.171   8.023 -1.0083  3.8643  0.5442
 3275SOL    HW221462   2.850   3.052   7.943  0.8307  0.8305  0.6919
 3276SOL     OW21463   3.681   1.408   9.082  0.2050 -0.1311  0.4349
 3276SOL    HW121464   3.671   1.412   8.986 -1.8587 -1.0751  0.5976
 3276SOL    HW221465   3.775   1.403   9.095 -0.1549 -1.8109  2.4392
 3277SOL     OW21466   1.424   0.705  15.795 -0.6503 -0.0168 -0.7969
 3277SOL    HW121467   1.514   0.715  15.825 -0.7586 -1.0788 -0.1160
 3277SOL    HW221468   1.407   0.799  15.798  3.5634  0.7963 -3.0820
 3278SOL     OW21469   2.036   0.340   4.016  0.3141  0.0080 -0.0564
 3278SOL    HW121470   2.114   0.395   4.022 -1.2311  1.8892  2.3149
 3278SOL    HW221471   2.064   0.253   4.046 -2.9228 -0.9645  0.0731
 3279SOL     OW21472   4.147   3.850   6.419  0.2746 -0.5061 -0.5751
 3279SOL    HW121473   4.172   3.842   6.327  1.9794  2.1025 -0.3208
 3279SOL    HW221474   4.210   3.915   6.449 -0.6547  0.3717 -0.5646
 3280SOL     OW21475   0.415   3.834  16.141  0.3288 -0.0237 -0.1985
 3280SOL    HW121476   0.462   3.905  16.098  0.8367  0.5761  1.3564
 3280SOL    HW221477   0.330   3.832  16.096  0.5305 -0.0690 -0.5709
 3281SOL     OW21478   1.747   0.405   3.377 -0.3113 -0.5137  0.3045
 3281SOL    HW121479   1.790   0.462   3.440 -0.3855 -1.0581  0.8492
 3281SOL    HW221480   1.798   0.324   3.382  0.9467  0.2779  0.2872
 3282SOL     OW21481   2.343   4.581   9.696  0.5090  0.2339  0.1032
 3282SOL    HW121482   2.347   4.524   9.619 -1.5866 -0.1386  0.2921
 3282SOL    HW221483   2.376   4.535   9.773 -1.0527 -1.8533 -0.4890
 3283SOL     OW21484   2.242   0.817   3.913  0.1468 -0.5873  0.4020
 3283SOL    HW121485   2.318   0.829   3.856 -1.9443  0.3972 -2.1771
 3283SOL    HW221486   2.247   0.903   3.955 -1.4187 -0.5329  0.4474
 3284SOL     OW21487   2.876   3.585   5.506  0.4825  0.1582  0.6371
 3284SOL    HW121488   2.811   3.597   5.437  0.5183 -1.2485  0.3705
 3284SOL    HW221489   2.851   3.500   5.540  1.7702 -0.4030  0.1793
 3285SOL     OW21490   1.137   4.022   1.010  0.5699 -0.2853 -0.2324
 3285SOL    HW121491   1.054   4.068   1.016 -0.6197 -2.6183  1.0132
 3285SOL    HW221492   1.181   4.031   1.094 -4.6448 -0.8298  2.5097
 3286SOL     OW21493   4.604   2.167   9.249  0.4489 -0.2380  0.4423
 3286SOL    HW121494   4.649   2.249   9.270  1.5652  0.2595 -3.7057
 3286SOL    HW221495   4.528   2.183   9.304  1.5171 -0.8141  2.0790
 3287SOL     OW21496   1.180   0.375   8.946 -0.3917  0.3830 -0.1785
 3287SOL    HW121497   1.132   0.396   9.026 -2.1811  3.8653 -2.1656
 3287SOL    HW221498   1.129   0.303   8.912 -0.5481 -0.8855  2.7316
 3288SOL     OW21499   0.407   4.371   4.437  0.3208 -0.2732  0.8813
 3288SOL    HW121500   0.331   4.428   4.430 -0.1952 -0.8471  1.7890
 3288SOL    HW221501   0.371   4.316   4.507  2.6842 -0.0030  2.3205
 3289SOL     OW21502   1.877   3.907   7.278  0.6430 -0.1575 -0.1600
 3289SOL    HW121503   1.815   3.884   7.347  0.3493  0.1960 -0.3079
 3289SOL    HW221504   1.880   3.840   7.210  2.0615 -1.7775  1.4772
 3290SOL     OW21505   3.828   2.341   8.707 -0.1027  0.3127 -0.7203
 3290SOL    HW121506   3.818   2.347   8.802 -1.1673  2.5119 -0.9718
 3290SOL    HW221507   3.742   2.372   8.679 -1.0999 -0.6502  1.2793
 3291SOL     OW21508   4.709   4.438  13.663 -0.4889 -0.2579  1.2157
 3291SOL    HW121509   4.719   4.517  13.609  0.6469 -1.5407 -0.4560
 3291SOL    HW221510   0.060   4.433  13.704  0.5606  1.8215 -0.7107
 3292SOL     OW21511   1.130   4.082   9.831 -0.1920 -0.3680 -0.3037
 3292SOL    HW121512   1.036   4.071   9.842  0.0213 -0.4837  1.4069
 3292SOL    HW221513   1.167   4.028   9.901  1.4932  1.6165  0.3341
 3293SOL     OW21514   3.193   3.471   3.798 -0.5747  0.1749  0.4614
 3293SOL    HW121515   3.261   3.405   3.813 -1.5400 -1.1110 -0.8916
 3293SOL    HW221516   3.126   3.452   3.864 -0.5311 -0.9528  0.1718
 3294SOL     OW21517   1.987   2.924   6.043  0.2080  0.1758 -0.6012
 3294SOL    HW121518   1.977   2.949   6.135 -1.0754 -1.3392 -0.3293
 3294SOL    HW221519   2.078   2.903   6.027 -0.7124 -1.7754 -3.1656
 3295SOL     OW21520   2.137   4.201   9.184 -0.0441 -0.6387 -0.1579
 3295SOL    HW121521   2.204   4.270   9.185  0.0679 -0.7480 -0.0803
 3295SOL    HW221522   2.193   4.123   9.179  1.4323  0.3742  0.3347
 3296SOL     OW21523   4.110   2.790   0.779 -0.9788  0.0993  0.0376
 3296SOL    HW121524   4.023   2.763   0.751 -2.3109  1.5109  2.7443
 3296SOL    HW221525   4.087   2.876   0.813  0.3419  0.2566  0.5118
 3297SOL     OW21526   3.398   0.440  16.863  0.0949  0.3813  0.1718
 3297SOL    HW121527   3.437   0.472  16.944  1.9388  0.9769 -0.9279
 3297SOL    HW221528   3.377   0.352  16.891  0.1401  0.5682  0.7805
 3298SOL     OW21529   2.282   4.368   6.751  0.0152  0.2261 -0.3895
 3298SOL    HW121530   2.227   4.289   6.752 -0.5183  0.5994  0.7470
 3298SOL    HW221531   2.218   4.434   6.780 -0.6918 -0.5872 -0.1033
 3299SOL     OW21532   3.988   0.873   2.610 -0.3184 -0.0933  0.2838
 3299SOL    HW121533   3.958   0.789   2.646  0.8160  0.2712  2.1354
 3299SOL    HW221534   4.036   0.845   2.532 -0.0107 -0.6625  0.6721
 3300SOL     OW21535   0.593   1.511   8.458  0.4568 -0.2023 -0.1433
 3300SOL    HW121536   0.632   1.424   8.448  1.7890  0.5311 -1.2375
 3300SOL    HW221537   0.660   1.572   8.428  2.1983 -2.2028 -0.2847
 3301SOL     OW21538   0.940   1.098  10.356  0.6098 -0.6214  0.3752
 3301SOL    HW121539   0.967   1.163  10.421  1.5739  0.6728 -1.2927
 3301SOL    HW221540   1.015   1.109  10.296  1.0900  0.3622  1.1496
 3302SOL     OW21541   0.613   1.105   2.513  0.0766 -0.2865 -0.2204
 3302SOL    HW121542   0.665   1.033   2.477  1.3323  0.4923  0.0283
 3302SOL    HW221543   0.684   1.165   2.536 -0.1920 -0.7164  1.7263
 3303SOL     OW21544   2.211   3.773   4.331 -0.1728 -0.2868 -0.3129
 3303SOL    HW121545   2.207   3.809   4.242 -1.1117  0.0319 -0.1395
 3303SOL    HW221546   2.233   3.681   4.315  2.1566  0.3253 -0.6995
 3304SOL     OW21547   2.633   1.730   6.567  0.3765 -0.2414  0.4901
 3304SOL    HW121548   2.605   1.698   6.481  0.1292 -2.4277  1.3857
 3304SOL    HW221549   2.713   1.779   6.546  0.4138 -0.3094  0.4703
 3305SOL     OW21550   3.387   1.344   5.205  0.3826 -0.3997 -0.3211
 3305SOL    HW121551   3.427   1.295   5.276  0.2233  0.6768  0.4980
 3305SOL    HW221552   3.399   1.288   5.128 -2.1209 -2.0831  0.5073
 3306SOL     OW21553   0.712   1.652   9.061 -0.3534 -0.2265  0.4171
 3306SOL    HW121554   0.711   1.616   8.972 -1.4689 -0.1400  0.3960
 3306SOL    HW221555   0.739   1.574   9.109 -0.5868 -0.0639  0.8075
 3307SOL     OW21556   2.962   1.553   1.272 -0.2925 -0.6221  0.0705
 3307SOL    HW121557   3.003   1.627   1.227  0.5465 -0.9892  0.2335
 3307SOL    HW221558   2.991   1.580   1.359 -0.9986 -2.0912  0.7452
 3308SOL     OW21559   1.974   4.331   5.630  0.2435  0.0133  0.1294
 3308SOL    HW121560   1.954   4.237   5.638  0.9308 -0.1492  0.0308
 3308SOL    HW221561   1.908   4.359   5.568  1.6549  0.0499 -1.3718
 3309SOL     OW21562   2.161   0.274  11.338  0.5810 -0.0506 -0.6626
 3309SOL    HW121563   2.120   0.193  11.368  1.8242 -1.0851 -1.7365
 3309SOL    HW221564   2.096   0.309  11.278  1.1549 -1.3304 -2.0297
 3310SOL     OW21565   1.504   0.767   2.665 -0.0408  0.0156  0.2132
 3310SOL    HW121566   1.597   0.788   2.654  0.0199 -0.7506 -0.8248
 3310SOL    HW221567   1.503   0.759   2.760 -2.2496 -1.2378  0.0821
 3311SOL     OW21568   3.116   3.441   9.760 -0.4903 -0.3660  0.9474
 3311SOL    HW121569   3.086   3.481   9.679  0.2802 -1.2087  0.2389
 3311SOL    HW221570   3.043   3.418   9.817 -2.2989  0.6201 -0.9772
 3312SOL     OW21571   4.107   1.942   7.827 -0.2689 -0.1494  0.4013
 3312SOL    HW121572   4.133   2.003   7.896 -0.6881 -0.6047  0.9618
 3312SOL    HW221573   4.065   1.874   7.881 -2.0880  1.2638  0.7785
 3313SOL     OW21574   3.993   0.525   3.954 -0.1402  0.0246  0.0292
 3313SOL    HW121575   3.934   0.500   3.884 -0.1142  0.2163 -0.0619
 3313SOL    HW221576   3.974   0.615   3.984  0.3271 -0.0669  0.6163
 3314SOL     OW21577   0.718   1.666  17.544 -0.2504  0.2580 -0.1643
 3314SOL    HW121578   0.706   1.593  17.606  0.8127 -0.0753 -0.3345
 3314SOL    HW221579   0.798   1.702  17.583 -0.1068 -0.0985 -0.1238
 3315SOL     OW21580   2.534   1.025   2.943 -0.1037 -0.1624 -0.1584
 3315SOL    HW121581   2.454   0.990   2.982  0.9814 -1.2006  1.0990
 3315SOL    HW221582   2.503   1.026   2.852  1.3126  0.4663 -0.6376
 3316SOL     OW21583   1.985   3.870   4.438 -0.2196 -0.0817  0.0546
 3316SOL    HW121584   2.069   3.859   4.393 -0.5485  3.9146 -1.5055
 3316SOL    HW221585   1.943   3.900   4.357  2.2880 -0.5326 -1.4221
 3317SOL     OW21586   1.782   3.063   8.260 -0.0615 -0.0643 -0.0001
 3317SOL    HW121587   1.736   3.009   8.196 -1.0626  1.3427 -0.4819
 3317SOL    HW221588   1.864   3.076   8.213 -0.7312 -0.4818 -1.3101
 3318SOL     OW21589   3.324   3.621  12.634 -0.5095 -0.0363  0.2370
 3318SOL    HW121590   3.308   3.540  12.585  3.1946 -0.4427 -0.3469
 3318SOL    HW221591   3.416   3.643  12.622 -0.4668  0.0102  0.6633
 3319SOL     OW21592   2.416   4.529   4.364  0.9229  0.3366 -0.5155
 3319SOL    HW121593   2.496   4.580   4.357  0.7271  0.2970 -2.8527
 3319SOL    HW221594   2.368   4.594   4.416  2.2821 -1.2725  2.7338
 3320SOL     OW21595   0.817   1.210   3.702  0.3468 -0.3029  0.6650
 3320SOL    HW121596   0.911   1.217   3.691  0.3722 -1.6818  0.0990
 3320SOL    HW221597   0.781   1.122   3.693 -0.0213  0.2708 -3.4012
 3321SOL     OW21598   0.267   0.047  14.682  0.0287 -0.2650 -0.0830
 3321SOL    HW121599   0.334   0.050  14.614  0.7789 -0.7695  0.6258
 3321SOL    HW221600   0.276   0.138  14.708  1.7013  0.0700 -1.8342
 3322SOL     OW21601   3.007   1.469   9.276 -0.4284  0.5176  0.0591
 3322SOL    HW121602   3.036   1.528   9.346  2.2287 -2.1527  1.1700
 3322SOL    HW221603   3.083   1.415   9.256 -1.3598 -0.4225 -0.9413
 3323SOL     OW21604   1.201   4.125   5.232 -0.3214  0.1434  0.4606
 3323SOL    HW121605   1.107   4.143   5.243 -0.0769  0.7882  1.4493
 3323SOL    HW221606   1.198   4.070   5.154 -0.3472 -0.9644  1.2299
 3324SOL     OW21607   2.424   3.683   0.504  0.1910  0.6062  0.2537
 3324SOL    HW121608   2.447   3.670   0.596 -0.0139 -0.8507  0.1057
 3324SOL    HW221609   2.335   3.715   0.520 -0.6932 -1.1251 -1.2463
 3325SOL     OW21610   1.750   2.644   9.495  0.1354 -0.5015 -0.2207
 3325SOL    HW121611   1.832   2.596   9.486 -0.6374 -2.0464  0.8610
 3325SOL    HW221612   1.770   2.699   9.571 -0.0061  1.3361 -1.5288
 3326SOL     OW21613   0.258   4.044   6.723  0.5067 -0.6355 -0.5233
 3326SOL    HW121614   0.338   4.056   6.773 -0.9601 -1.0158  1.9264
 3326SOL    HW221615   0.228   3.965   6.769 -1.6552  1.2067  1.2320
 3327SOL     OW21616   3.386   2.428  15.048 -0.6020 -0.1071 -0.3550
 3327SOL    HW121617   3.361   2.338  15.027  1.4448 -0.1978 -2.3429
 3327SOL    HW221618   3.418   2.444  14.959 -1.2896  1.8458 -0.2436
 3328SOL     OW21619   1.364   3.159   6.043 -0.3131 -0.0120  0.6362
 3328SOL    HW121620   1.400   3.240   6.008 -1.9557  0.2499 -0.4351
 3328SOL    HW221621   1.272   3.160   6.015 -0.8593 -0.7084  2.4268
 3329SOL     OW21622   3.003   1.745   8.398  0.1877  0.2337  0.1852
 3329SOL    HW121623   2.919   1.788   8.381 -0.2020 -2.0924 -3.9343
 3329SOL    HW221624   2.977   1.678   8.461 -2.0328  0.1064 -0.8479
 3330SOL     OW21625   2.553   3.819   7.857 -0.2104  0.3111 -0.4421
 3330SOL    HW121626   2.571   3.912   7.867  1.1001  0.1790 -1.5947
 3330SOL    HW221627   2.493   3.808   7.931 -1.0511  0.4809 -1.1007
 3331SOL     OW21628   2.893   4.115   1.810  0.1582  0.4954 -0.7437
 3331SOL    HW121629   2.939   4.125   1.727  1.9581  0.4704  0.2538
 3331SOL    HW221630   2.804   4.096   1.779  0.6631 -0.7642 -1.4606
 3332SOL     OW21631   2.997   1.297  13.867  0.1194 -0.0883  0.3913
 3332SOL    HW121632   2.955   1.271  13.949  1.1190  2.1568  1.6070
 3332SOL    HW221633   3.023   1.387  13.889  0.1512 -0.5195  2.1341
 3333SOL     OW21634   1.404   3.271   5.287  0.1559 -0.6130 -0.0757
 3333SOL    HW121635   1.350   3.347   5.267 -1.9854 -1.6297  1.8018
 3333SOL    HW221636   1.467   3.271   5.215 -0.4603 -0.0393 -0.6105
 3334SOL     OW21637   3.099   3.420   8.303 -0.0093  0.2686  0.2148
 3334SOL    HW121638   3.085   3.503   8.259 -3.3564 -0.8016 -0.7127
 3334SOL    HW221639   3.062   3.349   8.251  0.6852  0.6912 -0.8427
 3335SOL     OW21640   2.757   0.618   5.761 -0.4728 -0.4632 -0.2741
 3335SOL    HW121641   2.706   0.588   5.836  2.0380 -0.1736  1.5506
 3335SOL    HW221642   2.704   0.687   5.721 -1.0753 -1.7046 -1.6008
 3336SOL     OW21643   1.005   0.175   6.237  0.3844  0.2680 -1.0588
 3336SOL    HW121644   0.964   0.228   6.169  1.9732  1.0127 -1.4441
 3336SOL    HW221645   0.983   0.083   6.222 -2.1996  1.1940 -2.7690
 3337SOL     OW21646   4.552   0.919   8.914  0.1262  0.1598 -0.0240
 3337SOL    HW121647   4.513   0.932   9.000  1.6660 -1.0611  0.8618
 3337SOL    HW221648   4.604   0.843   8.940 -0.7644 -0.2289  0.6105
 3338SOL     OW21649   3.429   0.929  11.088  0.2241 -0.0972 -0.2475
 3338SOL    HW121650   3.520   0.946  11.114 -0.3064  1.6301  0.4348
 3338SOL    HW221651   3.442   0.933  10.993  0.8137 -2.9061 -0.3009
 3339SOL     OW21652   4.695   0.932  12.230 -0.1218  0.0415 -0.0790
 3339SOL    HW121653   4.643   1.011  12.245  2.1753  1.0672  2.6579
 3339SOL    HW221654   0.008   0.938  12.313  2.5172  2.2462 -1.7857
 3340SOL     OW21655   1.378   0.373   2.336  0.1040  0.0697  0.0524
 3340SOL    HW121656   1.296   0.418   2.315  0.8678  1.2311 -0.4050
 3340SOL    HW221657   1.339   0.297   2.381  0.2664  1.6492  2.8582
 3341SOL     OW21658   0.530   3.061   5.229 -0.0568  0.5872  0.2053
 3341SOL    HW121659   0.600   3.053   5.164 -0.8813  0.9855 -0.7312
 3341SOL    HW221660   0.583   3.065   5.309 -1.9217  1.7185  1.3747
 3342SOL     OW21661   2.601   3.193   9.167  0.2594  0.4724 -0.2025
 3342SOL    HW121662   2.609   3.286   9.145 -0.3811  0.6517  0.3335
 3342SOL    HW221663   2.643   3.204   9.253  0.0040 -0.3113  0.0211
 3343SOL     OW21664   1.103   1.024   4.382  0.5431  0.7687 -0.0051
 3343SOL    HW121665   1.062   1.108   4.365  1.9126  0.5648 -4.1656
 3343SOL    HW221666   1.131   1.045   4.471 -1.8367 -0.1079  0.9503
 3344SOL     OW21667   0.666   1.612   3.604 -0.7550  0.2526 -0.2232
 3344SOL    HW121668   0.713   1.529   3.595 -0.9818 -0.2303  2.7594
 3344SOL    HW221669   0.625   1.592   3.689  1.7329  1.4475  1.2698
 3345SOL     OW21670   2.544   0.599  10.144  0.0667 -0.3283  0.2219
 3345SOL    HW121671   2.460   0.600  10.191  0.5821 -0.1366  1.1341
 3345SOL    HW221672   2.604   0.579  10.216 -2.3529 -3.8051  1.2721
 3346SOL     OW21673   3.106   0.069   7.544 -0.1504 -0.8874  0.0274
 3346SOL    HW121674   3.157   0.022   7.477  3.4968  2.6717  0.2592
 3346SOL    HW221675   3.134   0.156   7.513 -1.2670 -0.4329  0.3070
 3347SOL     OW21676   2.630   3.259   4.043 -0.1052 -0.3285  0.3751
 3347SOL    HW121677   2.631   3.245   4.138 -2.1402 -0.7640  0.3302
 3347SOL    HW221678   2.725   3.245   4.033 -0.2893 -0.6847 -0.8193
 3348SOL     OW21679   0.131   2.173   2.847 -0.5003  0.2982 -1.0376
 3348SOL    HW121680   0.206   2.222   2.811 -1.4962  0.0906 -3.4263
 3348SOL    HW221681   0.130   2.089   2.801 -0.8288 -1.3395  2.0394
 3349SOL     OW21682   0.855   2.579   4.337 -0.0328  0.9261  0.3433
 3349SOL    HW121683   0.766   2.552   4.361  0.1215 -1.1790 -1.4387
 3349SOL    HW221684   0.903   2.557   4.417  0.5184 -0.4861 -0.3812
 3350SOL     OW21685   3.387   3.042   3.843  0.3610 -0.5817 -0.1079
 3350SOL    HW121686   3.356   3.063   3.755  0.3282  1.2306  0.3452
 3350SOL    HW221687   3.368   3.127   3.881  2.1507 -0.6949  1.0211
 3351SOL     OW21688   1.502   4.417  12.101 -0.4283 -0.0563  0.6402
 3351SOL    HW121689   1.509   4.452  12.190 -1.4936 -0.6759  0.9666
 3351SOL    HW221690   1.490   4.498  12.051  1.9786  1.1278  1.9705
 3352SOL     OW21691   2.127   1.430   7.775  0.2673  0.4200 -0.2576
 3352SOL    HW121692   2.163   1.475   7.851 -3.1789  1.5673  0.6932
 3352SOL    HW221693   2.137   1.337   7.798  0.2515  1.1527  2.6685
 3353SOL     OW21694   2.122   2.831   4.428 -0.4054 -0.6186 -0.3394
 3353SOL    HW121695   2.216   2.849   4.432 -0.6037 -0.4350  2.9548
 3353SOL    HW221696   2.124   2.738   4.446 -2.6674 -0.8747 -1.3710
 3354SOL     OW21697   4.533   4.165  13.859  0.4973  0.4757  0.5847
 3354SOL    HW121698   4.493   4.252  13.858  0.1665  0.3426  2.0627
 3354SOL    HW221699   4.561   4.162  13.767 -1.8189 -2.1707 -0.0233
 3355SOL     OW21700   0.562   0.610   7.239 -0.2388  0.2302 -0.5332
 3355SOL    HW121701   0.581   0.677   7.305 -0.2309 -0.7055  0.4148
 3355SOL    HW221702   0.500   0.660   7.185  1.0630 -1.1935 -3.3604
 3356SOL     OW21703   0.562   1.211  15.321  0.1352  0.8023  0.3949
 3356SOL    HW121704   0.471   1.183  15.330 -0.0035  1.4033  0.9022
 3356SOL    HW221705   0.569   1.294  15.369 -0.5052  0.2335  1.4607
 3357SOL     OW21706   3.907   4.265  15.775  0.3867 -0.4113 -0.0941
 3357SOL    HW121707   3.977   4.235  15.718  0.0218 -0.0367 -0.7472
 3357SOL    HW221708   3.950   4.279  15.859  2.4812 -0.1505 -1.2221
 3358SOL     OW21709   3.623   0.082   7.965  0.0391 -0.2470  0.4462
 3358SOL    HW121710   3.691   0.014   7.967 -0.2497 -0.4722  2.4468
 3358SOL    HW221711   3.617   0.090   8.060  2.2191 -2.1090  0.7679
 3359SOL     OW21712   2.318   3.560  11.108  0.6643 -0.5698 -0.3036
 3359SOL    HW121713   2.262   3.548  11.031  0.8599 -1.1676 -0.3509
 3359SOL    HW221714   2.252   3.603  11.163  0.7723 -0.6168 -0.1383
 3360SOL     OW21715   3.858   0.188   9.351 -0.1034  0.0477 -0.3511
 3360SOL    HW121716   3.829   0.149   9.269  0.0720 -0.8936  0.0390
 3360SOL    HW221717   3.948   0.157   9.347  0.3193  1.1896  0.2168
 3361SOL     OW21718   3.716   4.467   9.078 -0.1541 -0.4617 -0.1874
 3361SOL    HW121719   3.632   4.482   9.033 -1.0047 -1.1171  1.2039
 3361SOL    HW221720   3.749   4.394   9.025  1.0487 -0.4981  0.6284
 3362SOL     OW21721   2.384   4.439  10.391  0.7372  0.9202  0.1091
 3362SOL    HW121722   2.295   4.451  10.423 -0.4624 -0.4237 -2.6585
 3362SOL    HW221723   2.356   4.444  10.299 -2.7111 -2.7545  0.9651
 3363SOL     OW21724   0.044   1.069   2.724 -0.1248 -0.1138  0.0140
 3363SOL    HW121725   0.122   1.111   2.686  0.4826 -1.2835 -0.0080
 3363SOL    HW221726   4.725   1.141   2.757  1.8254  1.9300 -1.1506
 3364SOL     OW21727   0.635   3.307  15.991  0.2294 -0.3169  0.0255
 3364SOL    HW121728   0.718   3.346  16.021  0.9623 -2.6105  0.9771
 3364SOL    HW221729   0.640   3.291  15.897  1.0938  0.5462 -0.0833
 3365SOL     OW21730   1.349   2.110   8.218 -0.2568 -0.3048 -0.1091
 3365SOL    HW121731   1.378   2.045   8.154 -1.3751 -1.8649  0.9868
 3365SOL    HW221732   1.372   2.065   8.299 -0.2547  1.0139  0.6371
 3366SOL     OW21733   2.595   3.056   9.441 -0.1975  0.0080 -1.1142
 3366SOL    HW121734   2.643   3.021   9.516 -0.3933 -1.2835 -1.5955
 3366SOL    HW221735   2.641   2.999   9.380  0.4567 -0.0769 -0.5434
 3367SOL     OW21736   2.974   0.034  13.620  0.2009  0.1891 -0.2289
 3367SOL    HW121737   2.987   0.123  13.589 -2.5630  2.0203  3.7757
 3367SOL    HW221738   2.878   0.030  13.618  0.1926  0.5217 -0.4429
 3368SOL     OW21739   3.438   0.815  15.510  0.7341  0.5552 -0.4375
 3368SOL    HW121740   3.508   0.772  15.558  0.7857  1.2014  0.0616
 3368SOL    HW221741   3.416   0.752  15.441  1.6832  1.6373 -1.7407
 3369SOL     OW21742   2.761   1.025   8.913  0.1901  0.0904 -0.8097
 3369SOL    HW121743   2.710   1.075   8.978  1.8134  0.5344  0.1173
 3369SOL    HW221744   2.755   0.942   8.961 -0.2819  0.0116 -0.9972
 3370SOL     OW21745   0.509   1.887   1.785 -0.0369 -0.6790 -0.2413
 3370SOL    HW121746   0.598   1.894   1.819 -0.0123 -0.0594 -0.4294
 3370SOL    HW221747   0.494   1.960   1.724  1.6635  1.2996  1.7145
 3371SOL     OW21748   2.557   2.920  11.458  0.2433  0.0862  0.1935
 3371SOL    HW121749   2.627   2.983  11.474 -0.6679  0.7338  1.6463
 3371SOL    HW221750   2.489   2.946  11.521 -0.0470  3.0846 -1.3750
 3372SOL     OW21751   0.687   2.052   2.324 -0.1269 -1.0908  0.6216
 3372SOL    HW121752   0.603   2.007   2.317 -0.0739 -0.8862 -1.4145
 3372SOL    HW221753   0.715   2.041   2.415 -0.4093  0.9833  0.9573
 3373SOL     OW21754   0.725   0.943   7.925 -0.3786  0.1667  0.1290
 3373SOL    HW121755   0.701   0.854   7.897  0.7263 -0.1745  0.2522
 3373SOL    HW221756   0.820   0.945   7.924 -0.3700  0.0041  0.4127
 3374SOL     OW21757   4.596   4.481   5.426  0.7074  0.2068  0.3971
 3374SOL    HW121758   4.569   4.488   5.335  1.8277 -0.2410  0.0321
 3374SOL    HW221759   4.562   4.560   5.468 -1.3815 -0.3197 -0.3036
 3375SOL     OW21760   4.369   4.048   4.682 -0.0598  0.2284  0.3824
 3375SOL    HW121761   4.439   4.098   4.723  1.0485 -1.5519  0.6194
 3375SOL    HW221762   4.294   4.083   4.730 -0.1669  0.2214  0.2207
 3376SOL     OW21763   2.263   3.469   4.288 -0.0575  0.5797  0.3494
 3376SOL    HW121764   2.323   3.410   4.333  1.5804  2.4789  0.6678
 3376SOL    HW221765   2.183   3.428   4.319 -0.5934 -0.8943 -2.9653
 3377SOL     OW21766   2.059   4.412   0.816 -0.3752 -0.1784  0.1374
 3377SOL    HW121767   1.970   4.427   0.785  0.7391  1.0044 -2.4141
 3377SOL    HW221768   2.042   4.350   0.887 -3.4017  1.4899  0.8783
 3378SOL     OW21769   2.043   3.161   4.157  0.0166 -0.6449 -0.1277
 3378SOL    HW121770   2.000   3.180   4.074  0.3215  0.7783  0.0458
 3378SOL    HW221771   1.990   3.088   4.191 -0.2954  0.5497  1.9679
 3379SOL     OW21772   2.744   1.480   6.722  0.2071 -0.5329 -0.2382
 3379SOL    HW121773   2.796   1.561   6.722 -0.0152 -0.3914  1.8014
 3379SOL    HW221774   2.815   1.420   6.699 -0.5254 -1.5517  0.1816
 3380SOL     OW21775   2.797   4.344   6.226  1.2002  0.3860  0.1056
 3380SOL    HW121776   2.801   4.255   6.260 -0.7162  0.2295 -0.0937
 3380SOL    HW221777   2.879   4.339   6.178  0.9458  0.3204 -0.3195
 3381SOL     OW21778   2.719   2.630   5.211 -0.1490  0.0554 -0.2583
 3381SOL    HW121779   2.655   2.671   5.269  0.8765 -1.1138  1.6723
 3381SOL    HW221780   2.786   2.596   5.270 -0.6922 -0.3198  0.1359
 3382SOL     OW21781   1.077   4.007   5.022  0.2639  0.1383 -0.2816
 3382SOL    HW121782   0.983   4.021   5.031  0.2649 -0.0616  0.0425
 3382SOL    HW221783   1.113   4.086   4.981 -1.0599  0.9433  0.1042
 3383SOL     OW21784   0.022   0.639   2.677 -0.8602 -0.2396  0.1189
 3383SOL    HW121785   0.033   0.715   2.735  0.2192  0.9765 -1.6911
 3383SOL    HW221786   4.693   0.583   2.722 -0.0219 -2.8397 -1.9006
 3384SOL     OW21787   2.195   4.516   3.755 -0.5447 -0.2285  0.1419
 3384SOL    HW121788   2.125   4.569   3.793 -1.0664 -1.0235  0.3071
 3384SOL    HW221789   2.259   4.583   3.732  1.3322 -1.9453  0.3533
 3385SOL     OW21790   1.782   0.991   8.433 -0.1136 -0.0872  0.3683
 3385SOL    HW121791   1.832   0.915   8.460 -0.8476 -1.0519 -0.9944
 3385SOL    HW221792   1.745   1.016   8.518  0.5640 -3.1055  1.5246
 3386SOL     OW21793   0.829   3.190   7.839 -0.4810 -0.2020 -0.5725
 3386SOL    HW121794   0.756   3.130   7.823 -0.5739 -0.5369  1.0391
 3386SOL    HW221795   0.892   3.119   7.824 -1.0495 -0.8529  0.0833
 3387SOL     OW21796   2.112   1.603   7.523  0.3456  0.0270  0.0566
 3387SOL    HW121797   2.178   1.669   7.548  0.6557 -0.0650 -0.5188
 3387SOL    HW221798   2.131   1.532   7.584 -0.4406  0.1114  0.3965
 3388SOL     OW21799   1.112   1.785   8.170 -0.5173 -0.2023 -0.0261
 3388SOL    HW121800   1.077   1.868   8.136  1.1049  0.4428 -0.1312
 3388SOL    HW221801   1.079   1.726   8.102 -1.8524 -0.1544  0.5713
 3389SOL     OW21802   1.814   2.742   5.891  0.3857 -0.2959 -0.0255
 3389SOL    HW121803   1.871   2.668   5.909 -0.2577 -0.7971 -0.0467
 3389SOL    HW221804   1.841   2.801   5.961  2.6332  1.2795 -2.2417
 3390SOL     OW21805   1.093   2.379   4.824  0.0238 -0.3418  0.1220
 3390SOL    HW121806   1.080   2.286   4.843  0.1743 -0.3419  0.2267
 3390SOL    HW221807   1.187   2.379   4.843 -0.0722 -0.6732  0.5826
 3391SOL     OW21808   3.966   3.446   5.095  0.7190 -0.4185  0.3226
 3391SOL    HW121809   4.024   3.515   5.061  0.6312 -0.0364  0.9586
 3391SOL    HW221810   3.914   3.503   5.151 -2.2465 -0.0516 -2.7728
 3392SOL     OW21811   3.625   2.708   6.565  0.4711  0.2860  0.7186
 3392SOL    HW121812   3.541   2.704   6.610  0.6847  0.6386  1.1448
 3392SOL    HW221813   3.614   2.658   6.484 -1.5595  2.2654 -0.2180
 3393SOL     OW21814   4.272   2.821   8.768 -0.7823 -0.0294 -0.1718
 3393SOL    HW121815   4.205   2.820   8.700 -2.6851  2.6833  1.6925
 3393SOL    HW221816   4.308   2.732   8.764 -1.5178 -0.3590  0.5133
 3394SOL     OW21817   3.657   3.023  14.192 -0.1844 -0.0999 -0.0688
 3394SOL    HW121818   3.631   2.984  14.276 -1.0255  0.0841 -0.2428
 3394SOL    HW221819   3.663   3.115  14.219  1.0868 -0.5860  1.3265
 3395SOL     OW21820   3.839   3.570  16.255  0.2437  0.2693  0.2242
 3395SOL    HW121821   3.796   3.550  16.338 -1.2577  2.8911  0.0740
 3395SOL    HW221822   3.906   3.635  16.278  0.6917 -0.3452  0.6661
 3396SOL     OW21823   1.168   2.615   0.515 -0.0227  0.0469  0.1353
 3396SOL    HW121824   1.184   2.575   0.601  1.4368  1.4202  0.5087
 3396SOL    HW221825   1.073   2.628   0.519  0.1904  1.8834 -0.5837
 3397SOL     OW21826   1.061   4.677   3.328 -0.2399 -0.0357  0.4520
 3397SOL    HW121827   1.090   4.594   3.291  1.2214  1.1832 -1.1612
 3397SOL    HW221828   0.966   4.669   3.320 -0.0851  0.6186 -2.0921
 3398SOL     OW21829   3.419   4.637   3.115  0.4582  0.0959  0.3452
 3398SOL    HW121830   3.403   4.543   3.128 -1.5363  0.3854  0.0267
 3398SOL    HW221831   3.432   4.633   3.020  0.8913  0.6287  0.3811
 3399SOL     OW21832   3.341   2.255   2.809 -0.3837  0.2614  0.0804
 3399SOL    HW121833   3.305   2.184   2.862  0.4278  0.9327  1.5393
 3399SOL    HW221834   3.294   2.237   2.727  0.4708  1.4088 -0.6605
 3400SOL     OW21835   0.886   2.085   4.344 -0.0638 -0.0268  0.1616
 3400SOL    HW121836   0.962   2.084   4.287  0.3031 -1.6299  0.6843
 3400SOL    HW221837   0.834   2.156   4.306  1.7266  0.5089 -1.2754
 3401SOL     OW21838   4.633   0.585   8.705  0.4113 -0.0320  0.6112
 3401SOL    HW121839   4.702   0.617   8.763  0.3209 -1.2121  1.3746
 3401SOL    HW221840   4.564   0.599   8.770 -0.8762  0.3051 -0.8331
 3402SOL     OW21841   2.122   1.189  13.098 -0.3655 -0.0841 -0.1709
 3402SOL    HW121842   2.172   1.108  13.099 -1.6599 -0.8915 -1.5286
 3402SOL    HW221843   2.032   1.156  13.106 -0.9366  1.2076 -1.2066
 3403SOL     OW21844   1.452   0.654   6.570  0.1655 -0.1494  0.5684
 3403SOL    HW121845   1.449   0.653   6.474 -1.6699 -1.1120  0.6340
 3403SOL    HW221846   1.547   0.661   6.580  0.1567 -1.4155  1.5589
 3404SOL     OW21847   1.339   4.544   5.265 -0.6581 -0.1704 -0.4182
 3404SOL    HW121848   1.313   4.473   5.324  0.3798 -0.2967 -0.1103
 3404SOL    HW221849   1.282   4.612   5.299 -0.1808  0.1572 -0.2672
 3405SOL     OW21850   2.685   2.832   4.596  0.0683  0.4295 -0.3011
 3405SOL    HW121851   2.708   2.864   4.509  0.8265  0.1986 -0.1806
 3405SOL    HW221852   2.741   2.879   4.657 -0.8903 -0.3833  1.2089
 3406SOL     OW21853   0.520   3.464  11.509  0.2375 -0.4295  0.0175
 3406SOL    HW121854   0.512   3.384  11.562 -0.5292  0.2434  0.9052
 3406SOL    HW221855   0.429   3.463  11.481 -0.2916 -0.6533  1.7317
 3407SOL     OW21856   4.156   3.905   0.798  0.3702 -0.3937 -0.3485
 3407SOL    HW121857   4.137   3.972   0.733  0.4862  0.3463  0.3857
 3407SOL    HW221858   4.237   3.866   0.765  0.8919 -0.2171  0.7237
 3408SOL     OW21859   0.801   4.210  14.486  0.6568 -0.5529  0.2260
 3408SOL    HW121860   0.712   4.187  14.459  1.2539 -0.3547 -1.8856
 3408SOL    HW221861   0.850   4.135  14.453  1.2806  0.6700 -1.6390
 3409SOL     OW21862   3.715   1.786   9.079  0.6447  0.2930 -0.3808
 3409SOL    HW121863   3.750   1.875   9.070  0.2261  0.6625  1.5915
 3409SOL    HW221864   3.789   1.730   9.055 -0.1522 -0.7936 -0.2613
 3410SOL     OW21865   1.092   3.171   2.259  0.1176  0.0322 -0.0456
 3410SOL    HW121866   1.072   3.079   2.273 -0.6985 -0.0062 -1.4838
 3410SOL    HW221867   1.031   3.228   2.305  0.1663  0.0122  0.0427
 3411SOL     OW21868   3.146   3.395   1.612  0.0370 -0.0283  0.4944
 3411SOL    HW121869   3.085   3.461   1.648  0.7784 -0.1840  2.0555
 3411SOL    HW221870   3.230   3.437   1.627  0.3747 -0.8717  0.9326
 3412SOL     OW21871   3.673   3.818   2.648  0.6769  0.5122 -0.3069
 3412SOL    HW121872   3.606   3.799   2.714 -0.8308  0.7865 -1.7533
 3412SOL    HW221873   3.618   3.812   2.569  0.5924  1.1172 -0.2892
 3413SOL     OW21874   4.580   2.426   3.264 -0.1160 -0.4359 -0.2843
 3413SOL    HW121875   4.499   2.461   3.227  0.9041  1.4709 -0.7496
 3413SOL    HW221876   4.550   2.339   3.289 -0.5323 -0.7173 -1.7759
 3414SOL     OW21877   0.946   2.868   5.977 -0.4021 -0.0076  0.1356
 3414SOL    HW121878   0.872   2.886   6.035  1.2489 -0.7225  2.4133
 3414SOL    HW221879   0.998   2.946   5.995 -1.1383 -0.2810  3.4396
 3415SOL     OW21880   4.346   1.318   4.348 -0.4366  0.2974 -0.0742
 3415SOL    HW121881   4.330   1.369   4.427 -0.7244 -1.7110  1.1721
 3415SOL    HW221882   4.426   1.268   4.364 -1.7926 -2.5916 -2.3827
 3416SOL     OW21883   4.554   4.268   0.021 -0.3516 -0.0145 -0.0024
 3416SOL    HW121884   4.548   4.300   0.111  1.6002 -0.2197  0.1999
 3416SOL    HW221885   4.552   4.355  17.722 -2.1890 -0.5159 -1.0424
 3417SOL     OW21886   3.024   2.193   4.761  0.2186  0.0393 -0.1913
 3417SOL    HW121887   3.119   2.190   4.768  0.2656 -2.5465 -2.1637
 3417SOL    HW221888   3.000   2.286   4.766  1.6412  0.5566 -2.9801
 3418SOL     OW21889   0.607   3.241   6.235 -0.3871  0.2693 -0.3695
 3418SOL    HW121890   0.579   3.332   6.221 -0.8048  0.2531  0.3739
 3418SOL    HW221891   0.634   3.257   6.325  1.2473  0.1432 -0.8261
 3419SOL     OW21892   3.710   3.413   6.248  0.6296  0.7488 -0.8122
 3419SOL    HW121893   3.634   3.439   6.196 -0.3449 -1.1700 -0.3511
 3419SOL    HW221894   3.771   3.379   6.182  1.3400 -1.5434  0.9991
 3420SOL     OW21895   3.027   1.352  16.369 -0.0442  0.5054 -0.3173
 3420SOL    HW121896   3.047   1.438  16.331 -2.0965  0.8199 -0.6917
 3420SOL    HW221897   3.117   1.320  16.370  0.0510  0.7769 -0.0216
 3421SOL     OW21898   2.572   2.822  16.062 -0.4474 -0.3035  0.5960
 3421SOL    HW121899   2.573   2.809  15.967  1.9940 -0.8961  0.7002
 3421SOL    HW221900   2.504   2.761  16.091  1.0022 -1.3535  1.7827
 3422SOL     OW21901   1.317   1.222   6.106  0.2973 -0.1183  0.1847
 3422SOL    HW121902   1.355   1.237   6.019 -0.4390  0.1628 -0.0871
 3422SOL    HW221903   1.377   1.273   6.162 -0.3882  0.0559  0.7578
 3423SOL     OW21904   0.709   0.956  12.972 -0.2808  0.3520  0.2013
 3423SOL    HW121905   0.711   1.046  13.002 -0.8654  0.5570 -0.3758
 3423SOL    HW221906   0.732   0.919  13.057 -0.7100 -2.5197 -0.9307
 3424SOL     OW21907   1.070   4.703  11.548 -0.2381 -0.1703  0.3759
 3424SOL    HW121908   1.100   0.053  11.516 -0.2331 -0.1715  0.3774
 3424SOL    HW221909   0.977   4.690  11.530  0.0254 -1.1221 -0.3246
 3425SOL     OW21910   1.101   0.244  11.486  0.4171 -0.1364 -0.0525
 3425SOL    HW121911   1.087   0.295  11.406  0.5970 -0.5744 -0.3696
 3425SOL    HW221912   1.083   0.307  11.555  1.3373 -0.0968  0.1621
 3426SOL     OW21913   4.517   0.273   5.529 -0.1089 -0.2164 -0.2102
 3426SOL    HW121914   4.550   0.325   5.602 -2.4922  2.9794 -1.4238
 3426SOL    HW221915   4.462   0.344   5.497 -1.9262 -1.1113  0.9277
 3427SOL     OW21916   4.632   0.425   3.953  0.6820  0.3509  0.5559
 3427SOL    HW121917   4.706   0.366   3.968 -0.9624 -1.8873 -0.0701
 3427SOL    HW221918   4.556   0.367   3.954  1.5828 -0.8224  0.4496
 3428SOL     OW21919   4.094   3.055  10.335 -0.0963  0.1693 -0.1255
 3428SOL    HW121920   4.056   2.972  10.305  0.2316 -0.6099  1.6120
 3428SOL    HW221921   4.060   3.115  10.269  1.1399  0.0860 -0.8228
 3429SOL     OW21922   2.773   2.170  16.034  0.6016  0.0112  0.6605
 3429SOL    HW121923   2.744   2.261  16.024  0.6484  0.0919  1.2744
 3429SOL    HW221924   2.753   2.126  15.951  0.4778 -1.1831  1.3379
 3430SOL     OW21925   0.004   2.605   0.418  0.2751 -0.0975 -0.6020
 3430SOL    HW121926   0.006   2.656   0.337  1.1452 -1.8780 -1.6813
 3430SOL    HW221927   4.667   2.646   0.466 -0.6007 -2.3272 -0.0301
 3431SOL     OW21928   0.533   0.558   1.637  0.0310 -0.4130  0.0195
 3431SOL    HW121929   0.496   0.647   1.639  0.8432 -0.0572 -0.6072
 3431SOL    HW221930   0.573   0.549   1.551 -2.1280  0.2417 -1.0514
 3432SOL     OW21931   2.013   0.540   2.707  0.0382  0.3733  0.0134
 3432SOL    HW121932   1.918   0.550   2.711 -0.2577 -1.4141 -2.2417
 3432SOL    HW221933   2.036   0.547   2.799 -2.7717 -0.7943  0.7916
 3433SOL     OW21934   2.049   4.540   8.309  0.1721 -0.0767  0.6723
 3433SOL    HW121935   1.993   4.541   8.386 -0.4186 -0.4616  0.2489
 3433SOL    HW221936   2.084   4.629   8.308 -0.9496  0.3536 -3.0572
 3434SOL     OW21937   3.198   2.024  16.044 -0.2291 -0.7497 -0.6550
 3434SOL    HW121938   3.233   2.013  15.955 -0.0292 -1.7347 -0.4485
 3434SOL    HW221939   3.259   1.975  16.098  0.6101  0.2035 -0.7262
 3435SOL     OW21940   1.446   0.683   4.839 -0.1767  0.3177 -0.4124
 3435SOL    HW121941   1.460   0.597   4.880  1.8714 -0.4172 -2.6496
 3435SOL    HW221942   1.514   0.672   4.772  0.0621  2.2865 -0.4895
 3436SOL     OW21943   2.544   4.154   4.159 -0.4698  0.2745 -0.5187
 3436SOL    HW121944   2.609   4.207   4.205  1.2212 -1.2304 -1.1708
 3436SOL    HW221945   2.475   4.217   4.137 -2.6952 -1.2340  2.1261
 3437SOL     OW21946   0.056   1.871   6.479  0.3405 -0.3210 -0.4132
 3437SOL    HW121947   0.112   1.948   6.474 -0.8380  0.5859  0.3156
 3437SOL    HW221948   0.113   1.802   6.445 -2.0730 -2.2602 -0.4981
 3438SOL     OW21949   3.208   3.682   6.990 -0.0558  0.3609  0.1856
 3438SOL    HW121950   3.231   3.774   7.001  0.0224  0.3996 -0.2975
 3438SOL    HW221951   3.167   3.668   7.075  0.6651  0.3876  0.5423
 3439SOL     OW21952   0.670   3.761   4.440  0.0883  0.5035 -0.7418
 3439SOL    HW121953   0.677   3.853   4.414  0.3395  0.5297 -0.5883
 3439SOL    HW221954   0.673   3.717   4.355 -0.2151 -0.3543 -0.3067
 3440SOL     OW21955   0.504   2.950   2.899 -0.4055 -0.0095  0.3188
 3440SOL    HW121956   0.541   2.895   2.967 -3.5378 -1.9123  0.4961
 3440SOL    HW221957   0.434   2.995   2.946 -1.8969 -2.6971  0.6739
 3441SOL     OW21958   1.409   0.853   9.653  0.1754 -0.7134  0.2289
 3441SOL    HW121959   1.485   0.808   9.690  0.2335 -1.4769 -0.8117
 3441SOL    HW221960   1.431   0.943   9.675 -1.1242 -0.2920 -0.1678
 3442SOL     OW21961   1.473   1.809   5.927 -0.5628  0.0750  0.0276
 3442SOL    HW121962   1.441   1.746   5.993 -0.6764 -1.1102 -1.1614
 3442SOL    HW221963   1.403   1.874   5.929 -0.6449 -0.0391  0.9306
 3443SOL     OW21964   2.054   0.443   7.778 -0.4187  0.3866  0.5096
 3443SOL    HW121965   2.120   0.406   7.837  0.8803  1.0581 -0.5147
 3443SOL    HW221966   1.975   0.428   7.830 -0.6643  3.5944  1.1089
 3444SOL     OW21967   4.190   3.191   3.439 -0.3521 -0.3863  0.4713
 3444SOL    HW121968   4.116   3.216   3.495 -0.0868  0.4003  0.4709
 3444SOL    HW221969   4.155   3.111   3.399  0.7003 -1.4865  1.7728
 3445SOL     OW21970   0.779   0.453   7.235 -0.7051  0.1400  0.0640
 3445SOL    HW121971   0.781   0.411   7.149  1.5643 -1.5439  0.9384
 3445SOL    HW221972   0.703   0.511   7.230 -0.2047  0.5596 -2.6965
 3446SOL     OW21973   3.560   4.121   1.954 -0.1436 -0.0514 -0.2187
 3446SOL    HW121974   3.622   4.126   1.882  0.6701 -1.1987  0.4066
 3446SOL    HW221975   3.482   4.083   1.913  1.8164 -0.2276 -3.7435
 3447SOL     OW21976   4.051   3.353  17.553 -0.2070 -0.2036 -0.1962
 3447SOL    HW121977   3.971   3.319  17.514 -0.2052 -0.1861 -0.2146
 3447SOL    HW221978   4.113   3.284  17.528  1.4697  1.5432 -0.7934
 3448SOL     OW21979   2.030   2.901  11.946 -0.1190  0.0179 -0.2114
 3448SOL    HW121980   2.123   2.894  11.925 -0.6730  0.2998 -2.7412
 3448SOL    HW221981   2.034   2.980  11.999 -0.6114  0.2736 -0.5592
 3449SOL     OW21982   1.308   4.343   2.374 -0.1030  0.0078 -0.6065
 3449SOL    HW121983   1.220   4.344   2.337 -0.1500  0.2624 -0.4891
 3449SOL    HW221984   1.317   4.435   2.400  0.1876 -1.1084  3.3380
 3450SOL     OW21985   2.893   4.398   9.115 -0.0407  0.8121 -0.3224
 3450SOL    HW121986   2.921   4.480   9.074  0.5982  0.8613  0.2091
 3450SOL    HW221987   2.831   4.427   9.182 -0.5618 -1.0812 -0.0025
 3451SOL     OW21988   0.551   1.822   6.681 -0.0187  0.0485 -0.2858
 3451SOL    HW121989   0.498   1.758   6.633 -1.2059  1.7017 -1.2203
 3451SOL    HW221990   0.614   1.770   6.729  1.6911  2.3204 -0.0731
 3452SOL     OW21991   2.200   1.601   4.424 -0.1747  0.2278  0.1042
 3452SOL    HW121992   2.294   1.594   4.407 -0.6406 -0.8254 -2.0110
 3452SOL    HW221993   2.172   1.636   4.340  1.9930  1.6302 -0.0372
 3453SOL     OW21994   0.211   3.094   0.198 -0.2548  0.1842 -0.0447
 3453SOL    HW121995   0.220   3.189   0.190  0.2395  0.1330 -0.0468
 3453SOL    HW221996   0.260   3.079   0.278 -1.3272 -2.2563  0.1586
 3454SOL     OW21997   1.822   2.101   6.368 -0.2103  0.2212 -0.3253
 3454SOL    HW121998   1.774   2.058   6.298 -2.3806  0.4630  1.0110
 3454SOL    HW221999   1.753   2.090   6.434  0.1627 -0.5898 -0.0763
 3455SOL     OW22000   2.192   1.378   9.378 -0.4841 -0.0591 -0.5709
 3455SOL    HW122001   2.274   1.363   9.331  0.1008 -0.2612  0.5132
 3455SOL    HW222002   2.236   1.409   9.457 -2.6234 -1.1956  1.0562
 3456SOL     OW22003   0.623   1.136   8.095 -0.3713  0.1914 -0.1490
 3456SOL    HW122004   0.615   1.216   8.042 -1.0316 -1.5649 -2.6994
 3456SOL    HW222005   0.651   1.079   8.023 -0.1335 -1.1301  1.0032
 3457SOL     OW22006   3.941   2.201   4.599  0.0999 -0.0731  0.3749
 3457SOL    HW122007   3.872   2.163   4.654 -0.1281  0.6523  0.5907
 3457SOL    HW222008   3.987   2.121   4.574 -1.6169 -1.0548  0.3550
 3458SOL     OW22009   3.161   0.615   4.877 -0.0163 -0.1777 -0.4591
 3458SOL    HW122010   3.194   0.678   4.942  0.9038  2.9581 -3.9997
 3458SOL    HW222011   3.227   0.546   4.867  0.4722  0.0038  1.4189
 3459SOL     OW22012   0.041   3.648  10.318 -0.4187 -0.3537  0.2521
 3459SOL    HW122013   4.716   3.711  10.279 -1.9650 -1.2447  1.1833
 3459SOL    HW222014   0.015   3.629  10.409 -0.9743 -2.6819 -0.3900
 3460SOL     OW22015   3.375   4.232   4.278  0.1784 -0.2606  0.7304
 3460SOL    HW122016   3.412   4.287   4.347 -2.6623  3.1137 -0.4568
 3460SOL    HW222017   3.448   4.170   4.271  1.5123  1.4878 -0.9679
 3461SOL     OW22018   2.348   0.531   1.698  0.2889 -0.5898  0.2078
 3461SOL    HW122019   2.415   0.462   1.697  1.9157  0.9731  1.8520
 3461SOL    HW222020   2.296   0.515   1.776 -0.1619  0.3411  0.0920
 3462SOL     OW22021   2.878   1.158  16.231 -0.0848 -0.0630 -0.1291
 3462SOL    HW122022   2.860   1.108  16.310  1.7179  0.4904  0.6404
 3462SOL    HW222023   2.912   1.238  16.272 -3.0169  0.8142  0.5763
 3463SOL     OW22024   0.357   1.582   4.146 -0.2616  0.1479  0.3757
 3463SOL    HW122025   0.319   1.663   4.179 -0.9690  0.2657 -0.7428
 3463SOL    HW222026   0.400   1.551   4.226  0.1257  0.9236  0.4751
 3464SOL     OW22027   0.652   2.020  16.797 -0.1515  0.1151 -0.1424
 3464SOL    HW122028   0.724   2.078  16.772 -0.3691 -1.2086 -3.8425
 3464SOL    HW222029   0.621   2.051  16.882 -0.3613 -0.7292  0.0900
 3465SOL     OW22030   0.188   3.008   6.920  0.5679 -0.3529 -0.2644
 3465SOL    HW122031   0.228   3.080   6.968 -1.5498  2.7326 -3.1764
 3465SOL    HW222032   0.238   3.024   6.840 -0.2836  1.7288 -0.3624
 3466SOL     OW22033   2.097   1.108   4.533 -0.3632  0.5516 -0.2519
 3466SOL    HW122034   2.130   1.134   4.619  0.9725 -1.9476 -0.0053
 3466SOL    HW222035   2.133   1.020   4.519  1.8624  1.1709  1.6203
 3467SOL     OW22036   1.988   0.407  11.170 -0.1181 -0.0755 -0.2122
 3467SOL    HW122037   1.923   0.388  11.237  0.3540  0.0876  0.2925
 3467SOL    HW222038   1.993   0.503  11.169 -0.3647 -0.0717 -1.4349
 3468SOL     OW22039   1.518   0.635  13.945 -0.1613  0.1956  0.0123
 3468SOL    HW122040   1.545   0.547  13.974  0.9068  0.9515  1.3369
 3468SOL    HW222041   1.594   0.673  13.902  0.5771 -0.3485  0.8123
 3469SOL     OW22042   3.919   2.489   3.422  0.1420 -0.2155  0.8338
 3469SOL    HW122043   3.880   2.543   3.490  0.4803  0.3340  0.5847
 3469SOL    HW222044   3.886   2.526   3.340  0.1697 -1.3776  0.2952
 3470SOL     OW22045   2.048   1.571   3.156 -0.1272 -0.0662 -0.4379
 3470SOL    HW122046   2.009   1.490   3.190 -0.7460  0.2288 -0.4370
 3470SOL    HW222047   2.117   1.545   3.096  0.1739  0.6225 -0.3813
 3471SOL     OW22048   4.669   3.454   6.596 -0.2374 -0.0463  0.1214
 3471SOL    HW122049   0.014   3.406   6.611  0.2608  0.9531  0.6886
 3471SOL    HW222050   4.698   3.543   6.618  1.0549 -0.6006  0.5892
 3472SOL     OW22051   0.724   0.150   2.676 -0.0839  0.1769 -0.2301
 3472SOL    HW122052   0.721   0.055   2.664 -1.9583  0.4379 -1.7909
 3472SOL    HW222053   0.745   0.176   2.586 -2.5553  0.2846 -0.7643
 3473SOL     OW22054   1.354   4.260  13.107 -0.2401 -0.1649  0.5625
 3473SOL    HW122055   1.402   4.239  13.027 -0.9825  0.3172 -0.0109
 3473SOL    HW222056   1.422   4.278  13.172  0.4441  0.8817 -0.4437
 3474SOL     OW22057   1.213   1.298  10.769  0.4024 -0.2037  0.4852
 3474SOL    HW122058   1.255   1.369  10.819  0.1739 -0.2179  0.6963
 3474SOL    HW222059   1.258   1.309  10.685  0.7353  0.1786  0.7090
 3475SOL     OW22060   0.300   0.350   4.737  0.3535  0.3625  0.1560
 3475SOL    HW122061   0.258   0.424   4.694 -0.8799 -0.3444  0.1663
 3475SOL    HW222062   0.233   0.283   4.724  1.1864 -0.1528 -1.4439
 3476SOL     OW22063   4.127   3.507   2.989  0.0048  0.2123  0.2300
 3476SOL    HW122064   4.079   3.585   2.960 -0.2077  0.6679  1.7858
 3476SOL    HW222065   4.070   3.480   3.061 -0.6804 -0.1093 -0.4310
 3477SOL     OW22066   1.094   3.397   7.089 -0.0910  0.2550  0.6295
 3477SOL    HW122067   1.028   3.329   7.078  0.0991 -0.1264  1.8354
 3477SOL    HW222068   1.135   3.396   7.003 -3.0351  0.7645 -0.7845
 3478SOL     OW22069   3.435   2.555  12.009  0.3905 -0.1065  0.3826
 3478SOL    HW122070   3.347   2.529  12.037  0.3362 -1.2063 -0.7981
 3478SOL    HW222071   3.480   2.585  12.088  1.7763  1.9355 -1.1800
 3479SOL     OW22072   2.239   4.144   4.935  0.1232 -0.0834  0.4142
 3479SOL    HW122073   2.306   4.105   4.879  0.0078 -0.4109  0.5029
 3479SOL    HW222074   2.163   4.091   4.911  0.7761 -0.3067 -1.1902
 3480SOL     OW22075   0.628   3.363   7.829 -0.0864 -0.7008  0.2588
 3480SOL    HW122076   0.698   3.302   7.852  0.0172 -1.7244 -2.7919
 3480SOL    HW222077   0.658   3.435   7.885  0.6598  0.1953 -1.2991
 3481SOL     OW22078   4.180   1.596   2.937  0.3351 -0.1048 -0.2823
 3481SOL    HW122079   4.213   1.526   2.992  0.2680 -1.6667 -2.2310
 3481SOL    HW222080   4.263   1.624   2.897  1.1071 -1.8212  0.1236
 3482SOL     OW22081   1.805   1.536   2.854 -0.5205  0.6906 -0.7985
 3482SOL    HW122082   1.851   1.619   2.845  1.0444  0.3278  3.7377
 3482SOL    HW222083   1.841   1.487   2.780 -1.9438 -1.5300 -0.0172
 3483SOL     OW22084   2.093   3.283   6.108  0.4983  0.0476  0.1699
 3483SOL    HW122085   2.008   3.278   6.065  1.0409  1.6676 -1.1240
 3483SOL    HW222086   2.149   3.328   6.044  0.1150  2.2756  1.4154
 3484SOL     OW22087   1.395   2.372   8.826  0.2105 -0.0826  0.6009
 3484SOL    HW122088   1.328   2.307   8.848 -0.2144  0.3421  0.5618
 3484SOL    HW222089   1.345   2.440   8.783 -1.2719  1.0795  4.1366
 3485SOL     OW22090   1.788   4.679   8.069  0.4703  0.2574  0.0032
 3485SOL    HW122091   1.732   4.602   8.082 -0.9659  1.4274  0.7782
 3485SOL    HW222092   1.804   4.674   7.975 -1.4159  0.2637 -0.3331
 3486SOL     OW22093   4.368   3.352   4.579 -0.2295 -0.5086 -0.6979
 3486SOL    HW122094   4.449   3.317   4.544 -2.2401 -3.9649 -1.9027
 3486SOL    HW222095   4.395   3.339   4.670  0.3246  1.6251 -0.5765
 3487SOL     OW22096   2.588   1.407   9.302  0.2168  0.1800  0.2534
 3487SOL    HW122097   2.550   1.409   9.214 -0.7832 -0.5368  0.6781
 3487SOL    HW222098   2.607   1.501   9.307 -0.6576  0.3030  1.2814
 3488SOL     OW22099   4.430   2.364   6.684 -0.4767 -0.1700 -0.3845
 3488SOL    HW122100   4.361   2.303   6.660  0.5688 -0.8144 -1.7845
 3488SOL    HW222101   4.414   2.386   6.775 -4.2257 -0.6067 -0.9311
 3489SOL     OW22102   0.313   3.695   7.129 -0.1968  0.1508  0.2955
 3489SOL    HW122103   0.255   3.691   7.204  0.2763  0.3022  0.6674
 3489SOL    HW222104   0.375   3.625   7.153 -0.4054  0.6257  2.1575
 3490SOL     OW22105   3.550   0.205   9.537  0.3513 -0.1903  0.3546
 3490SOL    HW122106   3.595   0.136   9.587 -0.2484 -0.5387  0.4161
 3490SOL    HW222107   3.458   0.176   9.536 -0.1151  1.3211 -0.3141
 3491SOL     OW22108   0.437   1.984   1.525 -0.0909  0.5839  0.2251
 3491SOL    HW122109   0.445   1.995   1.430 -2.0874  0.1195 -0.0034
 3491SOL    HW222110   0.343   2.003   1.526 -0.1084  0.3953  1.3685
 3492SOL     OW22111   1.035   2.131  14.985  0.0105  0.1476  0.4153
 3492SOL    HW122112   1.108   2.086  14.942 -0.9902 -0.7161 -0.3919
 3492SOL    HW222113   1.076   2.216  14.996  0.4362 -0.1907  1.3958
 3493SOL     OW22114   0.154   0.259   8.271 -0.0587  0.2530 -0.3348
 3493SOL    HW122115   0.059   0.252   8.270 -0.1975  1.9391  0.3582
 3493SOL    HW222116   0.181   0.167   8.272  0.2437  0.3481  0.1569
 3494SOL     OW22117   0.401   3.814   1.406  0.2446 -0.3727 -0.0608
 3494SOL    HW122118   0.318   3.857   1.426  0.4392  0.4164 -0.9725
 3494SOL    HW222119   0.364   3.726   1.419 -0.7904  0.1317  0.3394
 3495SOL     OW22120   4.648   4.071  12.129  0.0484 -0.4216  0.4480
 3495SOL    HW122121   4.712   4.109  12.069  2.5656 -2.7090  1.6585
 3495SOL    HW222122   4.711   4.036  12.192  0.3829  0.1416  0.4282
 3496SOL     OW22123   1.434   1.178  11.153 -0.1323 -0.4293  0.1089
 3496SOL    HW122124   1.490   1.221  11.218 -0.0286  0.7228 -0.7382
 3496SOL    HW222125   1.354   1.232  11.155 -1.0646 -1.7720 -0.9816
 3497SOL     OW22126   2.699   4.519   5.033  0.3755  0.3783  0.3063
 3497SOL    HW122127   2.735   4.554   5.114 -0.8251  1.4749  0.3718
 3497SOL    HW222128   2.674   4.429   5.056  2.1084 -0.4041 -0.9045
 3498SOL     OW22129   2.325   1.847  11.850  0.2918  0.1433  0.4519
 3498SOL    HW122130   2.409   1.806  11.870  0.0989 -1.1373 -1.3235
 3498SOL    HW222131   2.333   1.931  11.895 -0.1195 -1.2449  3.1185
 3499SOL     OW22132   2.808   1.546  13.142  0.5767 -0.0151 -0.5991
 3499SOL    HW122133   2.764   1.475  13.095  0.0171 -0.3599  0.4355
 3499SOL    HW222134   2.817   1.501  13.226  0.5918  1.9133  0.4362
 3500SOL     OW22135   0.875   0.136   8.994  0.3090 -0.0469  0.1440
 3500SOL    HW122136   0.948   0.084   9.029  1.3943 -0.0163 -2.0657
 3500SOL    HW222137   0.900   0.134   8.902 -2.9823 -0.5502 -0.7421
 3501SOL     OW22138   2.653   2.796  15.805  0.2777 -0.2791  0.5784
 3501SOL    HW122139   2.722   2.751  15.755  1.2856  3.7492 -1.6305
 3501SOL    HW222140   2.653   2.881  15.763  2.1954  1.6745  4.4622
 3502SOL     OW22141   2.226   2.962   3.810  0.0281  0.8291 -0.1633
 3502SOL    HW122142   2.282   3.030   3.848 -0.4932  0.8589  0.5448
 3502SOL    HW222143   2.160   3.015   3.766  1.5076  1.1905 -1.9704
 3503SOL     OW22144   0.563   3.015   6.602 -0.4562  0.0419  0.1782
 3503SOL    HW122145   0.478   2.972   6.591  0.1477 -2.1176  3.7482
 3503SOL    HW222146   0.526   3.103   6.608  0.6724  0.5107  0.2157
 3504SOL     OW22147   1.145   3.104  12.781 -0.5581  0.1563  0.1120
 3504SOL    HW122148   1.134   3.110  12.876  0.8424 -0.9149  0.3351
 3504SOL    HW222149   1.081   3.169  12.751  0.6680  1.4612  0.2976
 3505SOL     OW22150   1.093   1.124   8.302  0.2996  0.2768  0.4177
 3505SOL    HW122151   1.175   1.101   8.260  0.5172 -0.7887  1.4347
 3505SOL    HW222152   1.040   1.044   8.300  0.8009 -0.0568  0.6001
 3506SOL     OW22153   2.003   4.193  13.826 -0.0825 -0.2579  0.0847
 3506SOL    HW122154   2.012   4.198  13.731  0.5451 -0.9095  0.1114
 3506SOL    HW222155   1.970   4.282  13.841 -0.7380 -1.1341  3.9689
 3507SOL     OW22156   3.504   0.170   8.424 -0.0539  0.6890  0.2815
 3507SOL    HW122157   3.458   0.217   8.494  1.0700  1.8604  0.2300
 3507SOL    HW222158   3.593   0.200   8.443  0.4446 -0.6480 -0.0228
 3508SOL     OW22159   0.693   0.746   7.453  0.2371  0.0059 -0.2924
 3508SOL    HW122160   0.708   0.681   7.521  0.0644 -0.2536 -0.5041
 3508SOL    HW222161   0.715   0.829   7.496  0.4222 -0.6119  0.7881
 3509SOL     OW22162   0.993   0.193  15.255 -0.3194 -0.1601  0.1160
 3509SOL    HW122163   1.006   0.249  15.179 -0.2300 -1.2625 -0.6810
 3509SOL    HW222164   1.020   0.107  15.224 -1.4005 -0.2242 -0.6626
 3510SOL     OW22165   4.173   0.865   7.362  0.3443  0.4920 -0.5794
 3510SOL    HW122166   4.124   0.935   7.405  1.5021  1.2428 -0.4805
 3510SOL    HW222167   4.111   0.793   7.371  0.3783  0.5820  0.4441
 3511SOL     OW22168   0.192   0.478   1.833 -0.1348  0.2453 -0.0851
 3511SOL    HW122169   0.280   0.456   1.863  1.0546  1.5171 -2.7077
 3511SOL    HW222170   0.213   0.489   1.740 -0.8927  0.0116 -0.2861
 3512SOL     OW22171   2.680   2.671   4.222 -0.1488 -0.2567 -0.4263
 3512SOL    HW122172   2.631   2.592   4.198  2.5134 -1.3122 -2.5236
 3512SOL    HW222173   2.690   2.699   4.131  1.3227 -2.9544 -1.1182
 3513SOL     OW22174   1.074   0.244   7.471 -0.1012  0.2024  0.1065
 3513SOL    HW122175   1.112   0.271   7.388  1.0493 -0.4407  0.4180
 3513SOL    HW222176   0.980   0.258   7.465  0.3755  2.9128 -0.6816
 3514SOL     OW22177   2.535   0.731   8.280  0.1144 -0.3169  0.0304
 3514SOL    HW122178   2.528   0.676   8.202  0.9150 -0.6544  0.1983
 3514SOL    HW222179   2.544   0.814   8.232  0.0145  1.0180  2.3236
 3515SOL     OW22180   0.007   2.817   2.323 -0.2097 -0.2647  0.0400
 3515SOL    HW122181   4.678   2.751   2.347 -0.4311 -0.0324  0.0915
 3515SOL    HW222182   0.004   2.868   2.404 -0.0371  1.8196 -1.2661
 3516SOL     OW22183   3.209   3.884  16.424 -0.3944  0.1202 -0.0740
 3516SOL    HW122184   3.184   3.924  16.341 -0.3091  0.6819  0.1667
 3516SOL    HW222185   3.249   3.800  16.401  3.5620  2.0990 -0.4445
 3517SOL     OW22186   4.075   3.112   3.062 -0.0884  0.4760  0.1735
 3517SOL    HW122187   4.129   3.182   3.098 -1.4759  0.9556  1.3122
 3517SOL    HW222188   4.026   3.160   2.995  0.7905  1.7514  0.4353
 3518SOL     OW22189   2.020   0.883   3.470  0.0725  0.1017 -0.4344
 3518SOL    HW122190   2.064   0.950   3.523 -0.5007 -2.2929  3.0412
 3518SOL    HW222191   2.038   0.919   3.383 -2.1881  2.8699  0.2298
 3519SOL     OW22192   4.673   2.541  15.154 -0.0516 -0.3060  0.5068
 3519SOL    HW122193   4.666   2.604  15.226 -1.3018  0.3805 -0.2412
 3519SOL    HW222194   4.611   2.476  15.188  1.3521 -1.5437  0.7215
 3520SOL     OW22195   0.125   3.065   7.435 -0.2639 -0.3695 -0.3412
 3520SOL    HW122196   0.128   3.056   7.530 -2.5884 -2.3256 -0.4590
 3520SOL    HW222197   0.088   3.153   7.424 -0.0312 -0.6817 -3.5765
 3521SOL     OW22198   0.978   0.861   8.272 -0.0149 -0.5012 -0.6565
 3521SOL    HW122199   1.019   0.814   8.345  0.3745  0.8924  0.0216
 3521SOL    HW222200   1.020   0.823   8.194 -1.9622 -2.1097 -0.9068
 3522SOL     OW22201   1.456   2.421   5.350  0.1655  0.6480 -0.0650
 3522SOL    HW122202   1.381   2.450   5.402  0.9882 -2.1942  2.7341
 3522SOL    HW222203   1.444   2.478   5.274 -0.0363 -1.2825 -1.4832
 3523SOL     OW22204   1.455   0.982   8.970 -0.2644 -0.3394 -0.2940
 3523SOL    HW122205   1.418   0.902   8.933  1.5432 -1.6039  0.6406
 3523SOL    HW222206   1.543   0.986   8.932  0.7715  0.0336  2.1628
 3524SOL     OW22207   1.675   3.668   3.950  0.0143 -0.1537  0.2637
 3524SOL    HW122208   1.762   3.704   3.932  0.8472 -1.1616  2.2116
 3524SOL    HW222209   1.675   3.605   3.878 -0.8588 -0.6076  0.6526
 3525SOL     OW22210   1.184   2.193   6.803  0.1341 -0.1076  0.3235
 3525SOL    HW122211   1.220   2.267   6.851  0.1961  1.0037 -1.4302
 3525SOL    HW222212   1.213   2.113   6.847 -1.1191  0.4932  2.2453
 3526SOL     OW22213   1.524   1.473   8.657  0.1056 -0.2405  0.0726
 3526SOL    HW122214   1.599   1.463   8.598  1.2662  0.6634  1.4079
 3526SOL    HW222215   1.482   1.392   8.629  0.0892  0.4276 -1.8471
 3527SOL     OW22216   0.783   1.365   5.523 -0.8890  0.2130 -0.1436
 3527SOL    HW122217   0.731   1.296   5.565  2.9224 -2.5249  0.0967
 3527SOL    HW222218   0.722   1.437   5.507 -0.0050  1.1294  0.5880
 3528SOL     OW22219   3.373   1.209  16.876  0.3828 -0.0033 -0.3978
 3528SOL    HW122220   3.334   1.288  16.839 -0.8823 -1.1326 -1.4637
 3528SOL    HW222221   3.353   1.140  16.812  0.1203 -0.4676  0.1858
 3529SOL     OW22222   2.241   0.303  14.157 -0.2054 -0.4012 -0.8110
 3529SOL    HW122223   2.212   0.343  14.239  0.1215 -1.0900 -0.3592
 3529SOL    HW222224   2.270   0.216  14.187  1.5136  1.3275  2.5390
 3530SOL     OW22225   1.081   4.126   9.428 -0.0541  0.1071 -0.4180
 3530SOL    HW122226   1.089   4.042   9.472 -1.6862  1.3022  2.1620
 3530SOL    HW222227   1.169   4.163   9.431 -0.3238  0.5014  2.8639
 3531SOL     OW22228   2.218   3.305   5.371 -0.2045  0.2134  0.2088
 3531SOL    HW122229   2.203   3.379   5.430  1.2068 -0.2357  1.1345
 3531SOL    HW222230   2.304   3.272   5.395  0.1114  0.3558 -0.7043
 3532SOL     OW22231   3.293   0.996   5.224 -0.9019 -0.3723  0.4858
 3532SOL    HW122232   3.339   0.976   5.305 -0.5275 -0.3501  0.2844
 3532SOL    HW222233   3.221   1.052   5.254 -1.1046 -0.6488  0.5080
 3533SOL     OW22234   2.125   2.377   7.006 -0.0305  0.3983 -0.0682
 3533SOL    HW122235   2.043   2.352   6.962  0.3196 -0.7050 -0.0868
 3533SOL    HW222236   2.133   2.306   7.069 -2.3939  0.4357  0.3078
 3534SOL     OW22237   3.551   3.106  14.555  0.4205  0.0751 -0.6018
 3534SOL    HW122238   3.476   3.094  14.497  0.6601 -3.0740 -0.2628
 3534SOL    HW222239   3.608   3.153  14.495  0.4511 -0.2893 -0.8563
 3535SOL     OW22240   0.832   1.712   4.673 -0.4582 -0.3862  0.0335
 3535SOL    HW122241   0.817   1.643   4.609 -2.4871  0.7284 -0.6691
 3535SOL    HW222242   0.756   1.768   4.660  0.4024  0.1549 -2.6679
 3536SOL     OW22243   2.202   2.466  14.807  0.2689  0.5017 -0.4564
 3536SOL    HW122244   2.159   2.398  14.860 -0.3721  0.0141 -1.6169
 3536SOL    HW222245   2.134   2.502  14.750 -1.5848 -0.8572  0.8902
 3537SOL     OW22246   0.902   2.400   3.982  0.4871  0.1239 -0.0705
 3537SOL    HW122247   0.843   2.475   3.981 -0.4118 -0.6237 -1.6130
 3537SOL    HW222248   0.895   2.366   3.893 -0.6419  1.4238 -0.4621
 3538SOL     OW22249   1.047   3.817   0.838  0.1672 -0.2219  0.3166
 3538SOL    HW122250   0.954   3.838   0.837 -0.2673 -2.1615  0.3845
 3538SOL    HW222251   1.079   3.881   0.901  1.0976 -0.9401  0.5776
 3539SOL     OW22252   2.906   3.013  14.731  0.2987 -0.2711 -0.2405
 3539SOL    HW122253   2.967   2.977  14.666  0.9750 -1.4132  1.0224
 3539SOL    HW222254   2.894   3.100  14.692 -3.4268 -0.5300  0.3593
 3540SOL     OW22255   2.498   0.684  10.431 -0.7475 -0.2196  0.7667
 3540SOL    HW122256   2.429   0.623  10.404 -0.0129 -1.0799  0.8295
 3540SOL    HW222257   2.449   0.765  10.419 -0.4918 -0.0338  0.9674
 3541SOL     OW22258   3.233   2.789   3.529  0.2418 -0.0562  0.3922
 3541SOL    HW122259   3.203   2.880   3.534  2.5959  0.7496 -0.3157
 3541SOL    HW222260   3.246   2.780   3.435 -0.4865 -1.4993  0.4341
 3542SOL     OW22261   2.993   0.981   6.865  0.1048 -0.1383 -0.3150
 3542SOL    HW122262   2.966   0.915   6.930  0.1319 -0.8899 -1.0651
 3542SOL    HW222263   3.011   1.050   6.929  1.4708 -2.7933  2.1842
 3543SOL     OW22264   0.744   4.333   9.072 -0.2006 -0.3720  0.0522
 3543SOL    HW122265   0.788   4.288   8.999  0.3621  1.7203 -0.8986
 3543SOL    HW222266   0.769   4.287   9.152  0.5312  1.1449  0.6746
 3544SOL     OW22267   3.181   0.862   3.459  0.0333  0.1234  0.2681
 3544SOL    HW122268   3.140   0.864   3.545 -0.1601  1.2387  0.1540
 3544SOL    HW222269   3.250   0.928   3.458 -0.9769  1.1606 -0.8019
 3545SOL     OW22270   3.405   3.265   9.342 -0.7353  0.3913  0.6092
 3545SOL    HW122271   3.462   3.330   9.383  0.3513 -0.3012  0.1917
 3545SOL    HW222272   3.430   3.279   9.251 -1.1602  0.7764  0.5512
 3546SOL     OW22273   0.771   0.566  14.988  0.0026  0.0995  0.0672
 3546SOL    HW122274   0.813   0.560  15.074  3.1566 -4.0571 -1.7070
 3546SOL    HW222275   0.759   0.474  14.962 -1.2969  0.4857 -0.7139
 3547SOL     OW22276   2.677   2.405   9.313  0.0101  0.9049  0.0894
 3547SOL    HW122277   2.640   2.477   9.261 -2.1516 -0.2205  0.0801
 3547SOL    HW222278   2.742   2.446   9.370  1.6083  1.7623 -2.3136
 3548SOL     OW22279   3.241   3.452   4.796 -0.2023 -0.3116  0.1222
 3548SOL    HW122280   3.213   3.405   4.874 -1.9783 -0.1222 -0.4163
 3548SOL    HW222281   3.215   3.543   4.807 -1.0838 -0.2576 -2.2967
 3549SOL     OW22282   0.061   1.392   0.441  0.5160 -0.0507  0.0569
 3549SOL    HW122283   0.098   1.404   0.528 -2.2297 -1.1228  1.3653
 3549SOL    HW222284   4.726   1.456   0.447 -0.0535 -0.7402  0.7070
 3550SOL     OW22285   0.131   3.382  15.529  0.2839 -0.4222  0.3794
 3550SOL    HW122286   0.083   3.300  15.542 -1.6108  0.7446  0.8443
 3550SOL    HW222287   0.103   3.435  15.604 -0.9681 -2.9107  1.6641
 3551SOL     OW22288   0.552   0.150  10.888  0.3276 -0.3986  0.3887
 3551SOL    HW122289   0.470   0.100  10.897  2.2694 -3.4162  1.3489
 3551SOL    HW222290   0.609   0.086  10.930 -1.6891 -2.3419  0.1469
 3552SOL     OW22291   3.881   1.068   2.809 -0.1422  0.2750  0.1508
 3552SOL    HW122292   3.877   1.139   2.745 -2.5490 -1.3019 -1.4342
 3552SOL    HW222293   3.960   1.023   2.780 -0.0927  0.8098 -0.5442
 3553SOL     OW22294   2.099   0.577   7.244 -0.2537 -0.0384 -0.3146
 3553SOL    HW122295   2.084   0.531   7.327  1.5006 -0.8870 -0.4565
 3553SOL    HW222296   2.152   0.649   7.278 -0.4300  0.1724 -0.4920
 3554SOL     OW22297   0.175   2.947   3.814 -0.2129  0.3250 -0.2182
 3554SOL    HW122298   0.095   2.999   3.820  0.3986  0.9295  2.4392
 3554SOL    HW222299   0.167   2.919   3.722 -1.2815 -1.2424  0.3479
 3555SOL     OW22300   1.184   0.550  17.360  0.2664  0.2466 -0.4695
 3555SOL    HW122301   1.106   0.562  17.306 -0.0560 -1.0193 -0.2829
 3555SOL    HW222302   1.146   0.514  17.440 -0.6078 -1.2655 -1.5609
 3556SOL     OW22303   0.350   3.123  15.481 -0.5553 -0.0671 -0.0641
 3556SOL    HW122304   0.378   3.199  15.430  2.7481 -0.9319  0.4455
 3556SOL    HW222305   0.345   3.051  15.419 -0.6452 -0.6125  0.5719
 3557SOL     OW22306   3.039   2.313   5.600 -0.4825 -0.1484  0.2090
 3557SOL    HW122307   2.945   2.295   5.590 -0.4570  0.5988 -1.3314
 3557SOL    HW222308   3.034   2.395   5.649  0.8065  0.1263 -0.1258
 3558SOL     OW22309   0.345   4.375   4.101  0.3618  0.1302 -0.3533
 3558SOL    HW122310   0.361   4.462   4.137  2.5597 -0.4165  0.0144
 3558SOL    HW222311   0.304   4.334   4.176  0.3645  1.2793  0.2747
 3559SOL     OW22312   0.972   0.916   9.409 -0.1128  0.6657  0.2354
 3559SOL    HW122313   0.932   0.841   9.364  0.6220  1.4267 -1.6731
 3559SOL    HW222314   1.063   0.889   9.422 -0.7922 -0.7886  2.0380
 3560SOL     OW22315   3.502   1.375   2.372 -0.3767  0.0913 -0.0439
 3560SOL    HW122316   3.457   1.339   2.448  0.6489 -2.0040 -0.4192
 3560SOL    HW222317   3.526   1.299   2.319  2.8800  1.9132 -1.1828
 3561SOL     OW22318   1.028   2.628   2.169  0.6043 -0.3887  0.2347
 3561SOL    HW122319   1.006   2.656   2.080  0.2755  0.4877  0.5857
 3561SOL    HW222320   1.005   2.537   2.147 -0.1445 -0.7102  2.3582
 3562SOL     OW22321   4.728   0.092   3.928 -0.4932 -0.1450  0.3904
 3562SOL    HW122322   0.082   0.081   3.894  0.2400  2.0892  1.6369
 3562SOL    HW222323   4.725   0.037   4.007  0.5605  0.0849  0.6009
 3563SOL     OW22324   3.479   2.052  12.129  0.0228  0.0823  0.4087
 3563SOL    HW122325   3.563   2.057  12.175  1.5753  0.4574 -2.4917
 3563SOL    HW222326   3.458   1.960  12.148  0.9570 -0.6819 -2.2572
 3564SOL     OW22327   2.209   2.126   8.363 -0.1304 -0.1699 -0.3036
 3564SOL    HW122328   2.258   2.208   8.353  1.0905 -1.0760 -1.6532
 3564SOL    HW222329   2.123   2.147   8.328 -1.3311 -2.9376  0.9732
 3565SOL     OW22330   0.045   2.142   5.083 -0.5922 -0.0517  0.3549
 3565SOL    HW122331   0.028   2.236   5.087 -0.6235 -0.0464  0.1223
 3565SOL    HW222332   0.140   2.133   5.073 -0.4840  2.1210 -0.7123
 3566SOL     OW22333   0.449   1.919   9.910  0.0308 -0.7174  0.6057
 3566SOL    HW122334   0.469   2.005   9.947 -2.5315 -0.2036  0.7723
 3566SOL    HW222335   0.355   1.921   9.893  0.3338  1.9135 -0.7291
 3567SOL     OW22336   2.831   2.266   8.627  0.1045  0.1155  0.1905
 3567SOL    HW122337   2.778   2.339   8.595  1.4214  1.1139  0.2904
 3567SOL    HW222338   2.811   2.199   8.561  2.1006 -0.0229 -0.2566
 3568SOL     OW22339   3.169   3.713   2.992 -0.0172  0.2364 -0.1806
 3568SOL    HW122340   3.197   3.804   2.983  1.7684 -0.1899  1.2402
 3568SOL    HW222341   3.232   3.678   3.054  0.0306  0.6206 -0.0124
 3569SOL     OW22342   4.520   1.988   5.584 -0.4773 -0.2698 -0.3985
 3569SOL    HW122343   4.615   1.986   5.578 -0.3794  0.5508  0.7449
 3569SOL    HW222344   4.498   2.081   5.574 -1.5963 -0.5004 -0.1378
 3570SOL     OW22345   3.211   2.643   9.124 -0.0040 -0.5163  0.5603
 3570SOL    HW122346   3.178   2.556   9.100  0.4496 -0.4608 -0.2756
 3570SOL    HW222347   3.280   2.611   9.183 -0.8076  0.1076  1.8306
 3571SOL     OW22348   4.708   1.369   9.086 -0.4791 -0.0487  0.5240
 3571SOL    HW122349   0.050   1.402   9.041 -0.0442 -0.8952  0.6492
 3571SOL    HW222350   4.637   1.406   9.034 -1.6515 -1.9061  0.8188
 3572SOL     OW22351   0.268   1.794  13.657  0.2710  0.1067  0.1911
 3572SOL    HW122352   0.270   1.755  13.745  4.0537 -0.6310 -0.2354
 3572SOL    HW222353   0.334   1.735  13.620  0.9928 -0.0976  1.8010
 3573SOL     OW22354   2.167   4.242   4.067 -0.5389 -0.0395 -0.0661
 3573SOL    HW122355   2.143   4.218   4.157  3.4847 -1.3597  0.6653
 3573SOL    HW222356   2.077   4.251   4.036 -0.6496 -0.9448 -0.0045
 3574SOL     OW22357   2.842   3.759  17.291 -0.0749  0.0917  0.0939
 3574SOL    HW122358   2.808   3.796  17.210 -1.6726  2.1068  1.6728
 3574SOL    HW222359   2.895   3.832  17.322  1.6992 -1.7634  1.4626
 3575SOL     OW22360   1.365   3.505   8.256 -0.1076 -0.0143  0.1731
 3575SOL    HW122361   1.317   3.549   8.326  0.4447  1.6111 -0.4882
 3575SOL    HW222362   1.455   3.523   8.283 -0.3508  2.1581 -0.4954
 3576SOL     OW22363   4.667   2.399   5.109 -0.6216  0.1609 -0.3219
 3576SOL    HW122364   4.626   2.480   5.079  1.4497  0.9631 -0.9503
 3576SOL    HW222365   4.657   2.404   5.204  0.4445  2.1021 -0.3212
 3577SOL     OW22366   2.319   2.486  11.833  0.4202  0.4181 -0.1330
 3577SOL    HW122367   2.356   2.569  11.802  2.7439 -0.7330 -0.4740
 3577SOL    HW222368   2.378   2.462  11.904 -0.3385  1.3267  0.7936
 3578SOL     OW22369   2.932   0.057   5.393 -0.1039  0.1517  0.7392
 3578SOL    HW122370   2.857   0.024   5.343 -1.3978  1.7844  1.6186
 3578SOL    HW222371   2.908   0.027   5.481 -2.9488 -0.0278 -0.0945
 3579SOL     OW22372   0.224   2.327   7.239  0.2075 -0.3316 -0.4754
 3579SOL    HW122373   0.257   2.360   7.156  0.7858  0.1883 -0.0323
 3579SOL    HW222374   0.204   2.401   7.296 -0.1589 -0.7355 -0.0775
 3580SOL     OW22375   2.303   0.071  10.080  0.0791  0.2092  0.1471
 3580SOL    HW122376   2.251   0.143  10.117  2.5672  1.9410  0.2421
 3580SOL    HW222377   2.391   0.077  10.117 -0.6603 -0.0099  1.9688
 3581SOL     OW22378   3.590   3.958   5.318 -0.2357 -0.5729 -0.4447
 3581SOL    HW122379   3.588   3.897   5.391  3.9199 -1.1543 -0.8327
 3581SOL    HW222380   3.500   3.993   5.321  0.1032  0.4786 -2.2695
 3582SOL     OW22381   1.304   4.190   8.585 -0.0711 -0.2241  0.3963
 3582SOL    HW122382   1.272   4.160   8.669  0.0565 -0.8191  0.2315
 3582SOL    HW222383   1.360   4.264   8.608  1.4521 -1.4807  0.7529
 3583SOL     OW22384   4.694   3.080   6.187  0.3464 -0.6693  0.6992
 3583SOL    HW122385   4.648   3.095   6.269 -0.8610 -0.8290  0.0515
 3583SOL    HW222386   0.045   3.116   6.208 -0.0236  0.1204  0.8865
 3584SOL     OW22387   2.342   2.115   7.766  0.0514 -0.1148 -0.0369
 3584SOL    HW122388   2.306   2.029   7.787  0.3380 -0.0618  0.6873
 3584SOL    HW222389   2.432   2.097   7.738  0.2340  2.2884 -1.0154
 3585SOL     OW22390   3.886   0.670   7.726 -0.2628  0.0575 -0.5402
 3585SOL    HW122391   3.875   0.759   7.692  1.9616  0.5403  0.0178
 3585SOL    HW222392   3.863   0.610   7.655  0.5094 -0.0464 -0.6990
 3586SOL     OW22393   2.023   0.555  15.836 -0.2466 -0.3141 -0.0193
 3586SOL    HW122394   1.955   0.491  15.857 -0.4961  0.5134  1.7080
 3586SOL    HW222395   2.092   0.492  15.818  0.9437  0.0191  3.3792
 3587SOL     OW22396   0.413   4.673  15.108  0.0861 -0.5177 -0.6309
 3587SOL    HW122397   0.461   4.692  15.028 -0.7219 -0.1942 -1.0397
 3587SOL    HW222398   0.469   4.602  15.140  0.3062  0.0599  0.2658
 3588SOL     OW22399   3.736   4.362   3.551  0.5001 -0.7695  0.3370
 3588SOL    HW122400   3.795   4.402   3.488  0.5217  0.8977  1.4194
 3588SOL    HW222401   3.759   4.412   3.630 -0.1274  0.2230 -0.1105
 3589SOL     OW22402   4.702   1.981   5.297  0.4915 -0.4711 -0.0094
 3589SOL    HW122403   4.711   2.046   5.228 -0.3658 -1.2875 -0.8800
 3589SOL    HW222404   4.644   1.915   5.259 -0.4851  1.5131 -1.9819
 3590SOL     OW22405   3.531   3.449   2.516  0.4625 -0.1038  0.1698
 3590SOL    HW122406   3.480   3.492   2.585  1.3121  1.1400  0.0214
 3590SOL    HW222407   3.466   3.458   2.446  1.6776  1.7317 -0.7479
 3591SOL     OW22408   2.250   0.953   6.783 -0.2995  0.1782 -0.2598
 3591SOL    HW122409   2.160   0.929   6.807 -0.8763  0.8507 -1.7605
 3591SOL    HW222410   2.251   0.918   6.694  1.9401  1.3181 -0.6687
 3592SOL     OW22411   2.031   1.336   5.064  0.0718 -0.3371 -0.5654
 3592SOL    HW122412   2.015   1.301   4.976 -1.7223  0.8518 -0.7065
 3592SOL    HW222413   2.060   1.256   5.107  0.8820  0.7320  0.8958
 3593SOL     OW22414   3.267   1.577   8.310  0.4122 -0.7400  0.4697
 3593SOL    HW122415   3.230   1.638   8.375  1.5010 -0.5500  0.9158
 3593SOL    HW222416   3.282   1.637   8.237 -0.5925 -0.8539  0.1761
 3594SOL     OW22417   2.496   0.328  10.480  0.2557  0.1675  0.2726
 3594SOL    HW122418   2.557   0.276  10.427  0.3495 -1.1515  1.6614
 3594SOL    HW222419   2.523   0.294  10.566  0.7987  1.1482  0.4884
 3595SOL     OW22420   4.631   3.859   1.239  1.0175  0.1133  0.0030
 3595SOL    HW122421   4.575   3.887   1.167  1.4877 -1.8346 -1.1139
 3595SOL    HW222422   4.644   3.770   1.207 -0.1036 -0.1641  0.3475
 3596SOL     OW22423   1.918   3.817   4.033 -0.5639  0.2486  0.4958
 3596SOL    HW122424   1.968   3.853   4.107 -2.6439  0.9358  1.5833
 3596SOL    HW222425   1.942   3.724   4.038 -0.8509  0.1426 -0.0937
 3597SOL     OW22426   3.449   0.004   7.762 -0.0316 -0.1156 -0.4148
 3597SOL    HW122427   3.381   0.068   7.784  0.4105 -0.3815  1.7177
 3597SOL    HW222428   3.517   0.034   7.823 -1.3088  1.6849  0.1246
 3598SOL     OW22429   4.100   2.611  14.140 -0.3785 -0.4833  0.0802
 3598SOL    HW122430   4.130   2.688  14.189 -2.4014  0.3229  0.0671
 3598SOL    HW222431   4.114   2.545  14.208 -1.3518  1.7341  2.4375
 3599SOL     OW22432   1.474   0.911   5.646 -0.5059  0.2373 -0.3383
 3599SOL    HW122433   1.404   0.974   5.627  0.0841  1.6760  2.2428
 3599SOL    HW222434   1.489   0.888   5.554 -1.6941 -0.3450 -0.3925
 3600SOL     OW22435   3.639   3.116   6.206  0.1347  0.2586 -0.0683
 3600SOL    HW122436   3.728   3.081   6.212 -0.2238 -0.2399  2.3827
 3600SOL    HW222437   3.651   3.205   6.172  0.2452  0.2055 -0.1666
 3601SOL     OW22438   3.433   4.415   4.904  0.1522  0.2776 -0.0541
 3601SOL    HW122439   3.452   4.435   4.996  0.3467  1.9626 -0.4599
 3601SOL    HW222440   3.343   4.449   4.896 -0.2923 -1.3682 -2.1208
 3602SOL     OW22441   0.933   3.236  15.143 -0.0290 -0.3383  0.6193
 3602SOL    HW122442   0.957   3.269  15.230 -1.9548 -0.2952  1.1323
 3602SOL    HW222443   0.937   3.316  15.091  1.7452 -0.2020  0.9890
 3603SOL     OW22444   2.380   2.637   7.974  0.1396  0.1242 -0.4936
 3603SOL    HW122445   2.402   2.607   7.886  1.3267 -1.5092  0.3378
 3603SOL    HW222446   2.469   2.637   8.011 -0.0286 -0.3853 -0.0841
 3604SOL     OW22447   3.451   4.161   8.801 -0.9219  0.1368 -0.4120
 3604SOL    HW122448   3.392   4.198   8.867  1.1668  0.7286  1.1213
 3604SOL    HW222449   3.508   4.101   8.849 -1.8539 -2.0559 -2.0261
 3605SOL     OW22450   0.174   2.704   2.586  0.3372  0.4027 -0.3195
 3605SOL    HW122451   0.231   2.675   2.657  0.0153  1.0361  0.1951
 3605SOL    HW222452   0.085   2.701   2.619 -0.1163 -0.7573 -1.6531
 3606SOL     OW22453   2.631   1.988   3.873 -0.2145  0.2128  0.4370
 3606SOL    HW122454   2.709   2.021   3.919  0.0647  2.3867 -1.6139
 3606SOL    HW222455   2.564   2.055   3.878 -1.0466 -0.2816 -3.7441
 3607SOL     OW22456   3.297   3.391   0.411 -0.7599  0.4452 -0.0619
 3607SOL    HW122457   3.221   3.360   0.361 -2.0653  2.1964  0.8602
 3607SOL    HW222458   3.357   3.319   0.394  0.2042  0.7001  2.2666
 3608SOL     OW22459   1.521   4.245   5.036  0.1846  0.2984 -0.1473
 3608SOL    HW122460   1.439   4.284   5.007  0.3504  0.1826 -0.7676
 3608SOL    HW222461   1.547   4.315   5.096 -1.6103  1.5855 -0.8853
 3609SOL     OW22462   2.623   0.587   3.215 -0.6117  0.2208  1.0627
 3609SOL    HW122463   2.527   0.588   3.218 -0.6342 -1.1920  0.7092
 3609SOL    HW222464   2.641   0.680   3.202 -1.7071  0.2290 -0.4718
 3610SOL     OW22465   2.801   1.267   4.178 -0.1975 -0.7131 -0.0726
 3610SOL    HW122466   2.820   1.175   4.161  1.0247 -0.2595 -1.2120
 3610SOL    HW222467   2.875   1.304   4.130 -1.5760  1.5996 -0.3984
 3611SOL     OW22468   1.219   1.228   2.514 -0.2731 -0.0672  0.3713
 3611SOL    HW122469   1.286   1.290   2.485 -0.9920  1.3284  1.7125
 3611SOL    HW222470   1.221   1.249   2.607 -1.4428  2.3984 -0.1445
 3612SOL     OW22471   4.006   3.865   4.465  0.3819  0.2543  0.1651
 3612SOL    HW122472   3.940   3.817   4.514 -0.2064  0.3540 -0.5207
 3612SOL    HW222473   3.978   3.853   4.374  3.1519  1.2208 -0.8255
 3613SOL     OW22474   3.660   0.263   7.563 -0.5269 -0.0292 -0.0329
 3613SOL    HW122475   3.726   0.292   7.625 -1.2387 -1.1236  1.2247
 3613SOL    HW222476   3.678   0.169   7.559 -0.5827 -0.0402 -0.0235
 3614SOL     OW22477   2.984   2.087   1.425 -0.1054 -0.4160 -0.0204
 3614SOL    HW122478   3.054   2.146   1.452 -0.7750  0.8038 -0.9676
 3614SOL    HW222479   3.003   2.013   1.483  1.2051  1.2889  1.6983
 3615SOL     OW22480   3.215   1.338   8.424 -0.1246 -0.1448 -0.4535
 3615SOL    HW122481   3.126   1.322   8.393 -0.0414 -0.0680 -0.7356
 3615SOL    HW222482   3.229   1.427   8.393  4.3620 -0.9024 -0.6552
 3616SOL     OW22483   4.639   1.075   3.425 -0.3460  0.4940  0.4684
 3616SOL    HW122484   4.570   1.109   3.368  1.1059  0.1908 -1.4777
 3616SOL    HW222485   4.652   1.158   3.471  0.6401  1.4500 -1.5209
 3617SOL     OW22486   0.694   4.477   7.416  0.1080  0.6277  0.2988
 3617SOL    HW122487   0.631   4.547   7.434 -1.6191 -0.7367 -0.4806
 3617SOL    HW222488   0.666   4.428   7.339 -0.2388  2.3565 -0.6690
 3618SOL     OW22489   0.280   1.108   8.944  0.4781 -0.0646  0.7048
 3618SOL    HW122490   0.350   1.161   8.980 -1.0972  2.5928 -0.0974
 3618SOL    HW222491   0.326   1.037   8.901  0.6389 -0.7977  2.0931
 3619SOL     OW22492   4.669   3.503   5.038  0.7593 -0.3570  0.0780
 3619SOL    HW122493   4.632   3.508   5.126 -1.6834 -1.5816 -0.8878
 3619SOL    HW222494   4.726   3.429   5.060 -0.7475 -1.3720  0.5429
 3620SOL     OW22495   0.789   3.980   5.024 -0.1148  0.4934  0.2882
 3620SOL    HW122496   0.779   3.943   5.112 -1.5414 -1.6395 -0.7821
 3620SOL    HW222497   0.764   3.897   4.985  0.7168  0.5209 -0.2928
 3621SOL     OW22498   1.705   3.051   5.126 -0.1601  0.0795  0.6048
 3621SOL    HW122499   1.795   3.019   5.139 -0.7728 -2.4703 -1.4376
 3621SOL    HW222500   1.665   2.979   5.077  0.3495  2.3133 -3.0513
 3622SOL     OW22501   2.100   0.354   3.341  0.4714  0.0816  0.0277
 3622SOL    HW122502   2.195   0.354   3.329  0.4739 -2.3117  0.0186
 3622SOL    HW222503   2.082   0.276   3.288  2.0812  0.6165 -1.3238
 3623SOL     OW22504   3.561   0.540   9.211 -1.1360  0.2552 -0.1790
 3623SOL    HW122505   3.532   0.454   9.182 -2.4465  0.8764 -0.7547
 3623SOL    HW222506   3.588   0.525   9.302  0.2174 -0.1985 -0.6620
 3624SOL     OW22507   4.729   3.202  10.702 -0.7108 -0.6238  0.5280
 3624SOL    HW122508   0.009   3.148  10.779 -2.1183 -0.3875  0.9844
 3624SOL    HW222509   4.661   3.148  10.663 -0.8926  0.4805 -0.6779
 3625SOL     OW22510   2.433   3.371   7.194  0.0571 -0.3787  0.2174
 3625SOL    HW122511   2.375   3.319   7.250 -1.6696  1.0726 -0.2484
 3625SOL    HW222512   2.515   3.379   7.242  0.0585 -2.3282  0.5424
 3626SOL     OW22513   2.092   4.107   7.875  0.3414  0.2458 -0.4467
 3626SOL    HW122514   2.172   4.139   7.833  0.4860 -0.6858 -0.8760
 3626SOL    HW222515   2.071   4.027   7.826  0.0093  1.9820 -3.1592
 3627SOL     OW22516   0.613   1.457   0.947  0.1786  0.0012 -0.3172
 3627SOL    HW122517   0.650   1.461   0.859 -1.4549 -1.4818 -1.0700
 3627SOL    HW222518   0.658   1.381   0.984 -2.9623 -1.6922  0.0185
 3628SOL     OW22519   0.542   1.244   1.621 -0.2008 -0.1079 -0.4530
 3628SOL    HW122520   0.574   1.263   1.533  1.5119 -0.9641 -0.0153
 3628SOL    HW222521   0.469   1.183   1.612 -1.9407  1.8362  0.3033
 3629SOL     OW22522   4.198   3.310   9.784 -0.2812  0.2580  0.0407
 3629SOL    HW122523   4.185   3.291   9.877  0.7436 -0.0267  0.1278
 3629SOL    HW222524   4.213   3.404   9.789 -0.4942  0.0906  3.7778
 3630SOL     OW22525   2.906   2.966  10.323 -0.2816 -0.2118  0.0257
 3630SOL    HW122526   2.940   2.953  10.412  0.3730 -1.7707 -0.4587
 3630SOL    HW222527   2.820   2.925  10.329  0.2361 -1.4330 -0.8461
 3631SOL     OW22528   1.167   0.960   5.281  0.3550 -0.4678 -0.0253
 3631SOL    HW122529   1.075   0.934   5.277  0.0746  0.6002 -0.6050
 3631SOL    HW222530   1.190   0.904   5.355  0.2364 -1.3446 -0.6513
 3632SOL     OW22531   2.646   3.525  15.745 -0.1266  0.5132 -0.6043
 3632SOL    HW122532   2.602   3.491  15.823 -1.3748  1.1516 -1.0292
 3632SOL    HW222533   2.639   3.455  15.680  0.2773  0.4914 -0.6217
 3633SOL     OW22534   4.055   1.569   8.856  0.0151 -0.2498 -0.0546
 3633SOL    HW122535   3.988   1.581   8.789 -0.9645  1.1291  1.1741
 3633SOL    HW222536   4.096   1.490   8.820  1.3545  0.4841 -0.1608
 3634SOL     OW22537   3.341   0.515   8.711  0.4919  0.1727  0.0548
 3634SOL    HW122538   3.311   0.593   8.664 -1.5519 -0.7466 -0.1479
 3634SOL    HW222539   3.420   0.559   8.742  1.0390 -1.0677  0.4247
 3635SOL     OW22540   3.788   0.240  14.593 -0.0722  0.5836  0.3072
 3635SOL    HW122541   3.848   0.228  14.520  0.6595 -0.7150  1.1105
 3635SOL    HW222542   3.742   0.156  14.598  0.6623  0.1914  0.5145
 3636SOL     OW22543   3.886   0.140  16.229  0.3868 -0.3412 -0.6491
 3636SOL    HW122544   3.942   0.068  16.259 -2.0905 -1.4179  1.4041
 3636SOL    HW222545   3.927   0.162  16.146 -2.8014 -1.7661 -2.5725
 3637SOL     OW22546   0.659   1.300   9.105  0.4147 -0.3303  0.1841
 3637SOL    HW122547   0.691   1.309   9.195 -1.9490  0.6709  0.9086
 3637SOL    HW222548   0.569   1.331   9.109  0.2670 -0.7948  0.4950
 3638SOL     OW22549   4.585   4.153   9.502  0.5239  0.1742 -0.6830
 3638SOL    HW122550   4.576   4.248   9.489 -1.4138 -0.0621 -0.9930
 3638SOL    HW222551   4.675   4.140   9.533  0.6715  2.5660 -0.1137
 3639SOL     OW22552   1.843   1.677   9.453 -0.0165  0.1144 -0.1056
 3639SOL    HW122553   1.889   1.703   9.373  0.5375 -2.9453 -0.7729
 3639SOL    HW222554   1.850   1.760   9.500 -0.6671  0.6624 -0.9991
 3640SOL     OW22555   0.422   1.016   2.666  0.5885 -0.8227  0.4362
 3640SOL    HW122556   0.505   1.052   2.633 -0.2620  0.4040 -0.3564
 3640SOL    HW222557   0.363   1.091   2.670 -0.6581 -1.8019  0.2173
 3641SOL     OW22558   2.678   4.703   3.484 -0.4311  0.8127  0.1764
 3641SOL    HW122559   2.666   4.616   3.523 -0.1329  0.2279 -1.0412
 3641SOL    HW222560   2.617   4.700   3.411 -0.7316  0.6018  0.4352
 3642SOL     OW22561   4.166   3.680   0.067 -0.0962 -0.7554 -0.1382
 3642SOL    HW122562   4.183   3.736  17.732  1.2490 -1.4800 -0.3745
 3642SOL    HW222563   4.072   3.700   0.065  0.6338  2.6710  0.0272
 3643SOL     OW22564   0.115   1.086  14.708  0.2359  0.3295 -0.1834
 3643SOL    HW122565   0.086   1.077  14.799  0.7287  0.9886  0.0385
 3643SOL    HW222566   0.175   1.013  14.694  1.0482  0.4566  2.5348
 3644SOL     OW22567   3.325   0.280   8.609 -0.5140  0.4531  0.2709
 3644SOL    HW122568   3.346   0.372   8.623  3.5479 -0.2966 -0.9958
 3644SOL    HW222569   3.307   0.260   8.701 -1.6857  3.3411  0.6501
 3645SOL     OW22570   1.649   2.725  14.536 -0.2487 -0.7490 -0.4312
 3645SOL    HW122571   1.637   2.743  14.443  3.0449 -0.7014 -0.8692
 3645SOL    HW222572   1.638   2.631  14.546 -2.3099 -0.6010 -1.3501
 3646SOL     OW22573   4.595   1.452   2.661 -0.3849 -0.1375  0.1519
 3646SOL    HW122574   4.670   1.504   2.692  0.7226 -1.8921  0.3858
 3646SOL    HW222575   4.527   1.519   2.671  1.6458  1.9895 -0.3031
 3647SOL     OW22576   4.680   1.457   6.060  0.6475 -0.0892  0.2191
 3647SOL    HW122577   4.641   1.509   5.989  0.9220 -0.9278 -0.5476
 3647SOL    HW222578   4.704   1.528   6.119  2.4882 -0.0049 -0.6259
 3648SOL     OW22579   4.329   2.907   3.494 -0.1122  0.2315  0.4845
 3648SOL    HW122580   4.249   2.937   3.450 -0.3161 -1.4389 -0.2938
 3648SOL    HW222581   4.301   2.899   3.586 -0.4748  0.6867  0.4139
 3649SOL     OW22582   3.211   1.082   6.244  0.4679 -0.5283 -0.3413
 3649SOL    HW122583   3.215   1.050   6.334  1.3998 -1.5641 -0.7473
 3649SOL    HW222584   3.177   1.171   6.247 -0.5735 -0.9277 -0.3908
 3650SOL     OW22585   3.797   3.387   8.177 -0.5413 -0.1233 -0.8206
 3650SOL    HW122586   3.794   3.295   8.203  5.0003 -0.4954 -1.4716
 3650SOL    HW222587   3.705   3.403   8.153 -0.0261  2.2773 -1.2412
 3651SOL     OW22588   0.650   3.664  16.436  0.3960  0.0941  0.2994
 3651SOL    HW122589   0.658   3.607  16.359 -3.6326  2.4661 -1.8875
 3651SOL    HW222590   0.611   3.603  16.499 -1.9887  1.1250 -0.1966
 3652SOL     OW22591   0.444   1.099   8.280 -0.2947  0.6305 -0.0864
 3652SOL    HW122592   0.512   1.076   8.217 -0.1553  1.5657 -0.2874
 3652SOL    HW222593   0.458   1.194   8.276 -2.2454  0.8509 -1.6074
 3653SOL     OW22594   4.157   2.166   7.178  0.4474 -0.0549  0.0597
 3653SOL    HW122595   4.231   2.109   7.155  1.0521 -0.1066  2.1060
 3653SOL    HW222596   4.141   2.220   7.101 -0.8703  0.7258  0.8873
 3654SOL     OW22597   1.227   0.856   2.227  0.3703  0.0303 -0.0836
 3654SOL    HW122598   1.264   0.813   2.149  1.0691 -0.9592  0.7836
 3654SOL    HW222599   1.303   0.844   2.284 -1.0546 -0.9394  1.6131
 3655SOL     OW22600   1.104   0.180   8.771 -0.6246  0.0826 -0.2207
 3655SOL    HW122601   1.175   0.205   8.711 -1.5440 -0.6675 -1.6187
 3655SOL    HW222602   1.028   0.164   8.715 -0.4665 -1.1001 -0.1027
 3656SOL     OW22603   4.652   2.243   1.064  0.2033 -0.2623 -1.0459
 3656SOL    HW122604   4.571   2.192   1.057 -0.0900  0.0115  0.5063
 3656SOL    HW222605   4.713   2.175   1.092  0.1008  0.6794  1.4528
 3657SOL     OW22606   4.678   0.324   4.546  0.2022 -0.7961  0.2714
 3657SOL    HW122607   4.640   0.331   4.633 -0.0048  2.0914 -0.0553
 3657SOL    HW222608   4.636   0.400   4.507 -1.4098 -0.5725  2.4650
 3658SOL     OW22609   0.178   0.597   8.354  0.1414 -0.5365  0.3446
 3658SOL    HW122610   0.252   0.650   8.326 -1.5514  1.1116 -1.0697
 3658SOL    HW222611   0.212   0.524   8.406 -0.0790 -0.8206  0.0907
 3659SOL     OW22612   4.172   1.068   9.544 -0.0487  0.3725 -0.7652
 3659SOL    HW122613   4.174   1.127   9.619 -0.8705 -0.1605 -0.3231
 3659SOL    HW222614   4.081   1.086   9.520 -0.4762  1.4095  1.6540
 3660SOL     OW22615   1.758   3.317  13.142  0.0994  0.5148 -0.0855
 3660SOL    HW122616   1.777   3.238  13.193 -1.1948  1.8063  2.3499
 3660SOL    HW222617   1.817   3.383  13.176 -2.1347  2.2173  0.4396
 3661SOL     OW22618   3.901   3.093  10.989  0.0621  0.1028 -0.3270
 3661SOL    HW122619   3.935   3.099  11.078  0.2886 -0.0740 -0.4021
 3661SOL    HW222620   3.981   3.083  10.937  1.5909  0.8508  1.8675
 3662SOL     OW22621   2.815   2.964   0.317  0.0003  0.1431 -0.3705
 3662SOL    HW122622   2.837   2.965   0.224  3.1726 -1.2370  0.3582
 3662SOL    HW222623   2.858   3.045   0.346  0.5458 -0.8592  1.6066
 3663SOL     OW22624   4.561   3.981   7.189  0.3964  0.2168 -0.1621
 3663SOL    HW122625   4.539   4.060   7.139  3.6707  0.3076 -1.4682
 3663SOL    HW222626   4.632   4.012   7.244  1.9546 -1.5536 -1.1735
 3664SOL     OW22627   3.520   4.637   4.708 -0.3544  0.1421  0.7208
 3664SOL    HW122628   3.542   4.705   4.772  1.6804  0.4778 -0.3320
 3664SOL    HW222629   3.503   4.566   4.770 -0.1036 -0.3203  0.2525
 3665SOL     OW22630   1.294   1.133  11.516  0.2909  0.0608  0.5169
 3665SOL    HW122631   1.383   1.127  11.553 -0.3668  1.4893  2.3159
 3665SOL    HW222632   1.289   1.216  11.468 -0.8427 -0.7051 -0.6729
 3666SOL     OW22633   0.492   4.089   8.004  0.1783  0.3131 -0.0402
 3666SOL    HW122634   0.493   4.177   8.042  2.0859  0.5812 -0.7166
 3666SOL    HW222635   0.585   4.071   7.988 -0.4634 -1.9057 -1.2872
 3667SOL     OW22636   1.790   4.676   7.770  0.3197  0.2006 -0.7709
 3667SOL    HW122637   1.796   0.007   7.701  2.3006 -0.2277 -0.9913
 3667SOL    HW222638   1.830   4.600   7.729 -0.1460  0.0752 -0.9946
 3668SOL     OW22639   0.344   4.478  10.810 -0.1190 -0.0258  0.3700
 3668SOL    HW122640   0.249   4.471  10.811 -0.2777  2.3043  1.4411
 3668SOL    HW222641   0.362   4.414  10.741 -0.8277 -0.6656  0.7758
 3669SOL     OW22642   2.925   3.379   6.273  0.0337  0.3400  0.7958
 3669SOL    HW122643   3.017   3.386   6.298  0.3666 -0.9695 -0.0839
 3669SOL    HW222644   2.922   3.284   6.279  0.0401  0.4538  2.6303
 3670SOL     OW22645   0.325   3.858   0.219  0.1746 -0.0252  0.2955
 3670SOL    HW122646   0.321   3.767   0.251  2.2013 -0.5878 -1.0937
 3670SOL    HW222647   0.265   3.855   0.145  0.7898  1.8572 -0.2656
 3671SOL     OW22648   3.911   3.214   4.918  0.6856  0.0073  0.0404
 3671SOL    HW122649   3.826   3.170   4.914  0.0370  1.2999 -0.7727
 3671SOL    HW222650   3.894   3.295   4.967  3.6052 -0.4736  1.8129
 3672SOL     OW22651   2.292   0.462   1.967 -0.0266 -0.0497  0.1817
 3672SOL    HW122652   2.271   0.386   2.022  0.7655  0.1994  0.8269
 3672SOL    HW222653   2.386   0.450   1.954 -0.0615  1.3710 -1.3835
 3673SOL     OW22654   3.407   4.425   0.574 -0.3312 -0.1562 -0.4007
 3673SOL    HW122655   3.390   4.333   0.553 -1.5317  0.2279 -1.1608
 3673SOL    HW222656   3.365   4.428   0.660  1.2807  1.9986  0.3106
 3674SOL     OW22657   3.255   0.170   9.578 -0.4287 -0.2435 -0.3934
 3674SOL    HW122658   3.205   0.251   9.572  0.1530  0.0537 -1.0878
 3674SOL    HW222659   3.188   0.123   9.629 -0.1270 -1.9001 -1.5332
 3675SOL     OW22660   2.144   1.800   2.492  0.0949  0.5735 -0.0956
 3675SOL    HW122661   2.093   1.875   2.525  0.0564  0.6000 -0.2166
 3675SOL    HW222662   2.141   1.755   2.576  0.0876  3.4230  1.4557
 3676SOL     OW22663   2.269   2.003  16.425 -0.3911 -0.4871 -0.1854
 3676SOL    HW122664   2.232   1.978  16.510  2.9766 -0.5328  1.2398
 3676SOL    HW222665   2.332   2.073  16.441 -1.5040  0.5749 -0.4065
 3677SOL     OW22666   0.127   0.340   7.682  0.2949  0.1757 -0.1570
 3677SOL    HW122667   0.159   0.250   7.693  1.1276  0.6119  0.9961
 3677SOL    HW222668   0.035   0.333   7.711  1.3173  1.5635  3.3494
 3678SOL     OW22669   0.364   0.305   9.456  0.3019  0.1891 -0.0132
 3678SOL    HW122670   0.338   0.396   9.439  0.8270  0.0668 -1.4468
 3678SOL    HW222671   0.363   0.270   9.367  1.7405  0.5204 -0.1551
 3679SOL     OW22672   3.372   3.660   0.429  0.3788 -0.0388 -0.6956
 3679SOL    HW122673   3.324   3.582   0.405 -1.8195  0.6117  1.5800
 3679SOL    HW222674   3.459   3.633   0.398  1.1429 -0.5146  1.8226
 3680SOL     OW22675   0.325   0.852   6.728 -0.3366  0.1425 -0.0953
 3680SOL    HW122676   0.318   0.937   6.683 -0.9700 -0.7739 -1.7424
 3680SOL    HW222677   0.256   0.870   6.791  1.4914 -1.3902  2.3189
 3681SOL     OW22678   1.337   0.890   1.013 -0.6580 -0.0663  0.1556
 3681SOL    HW122679   1.358   0.966   1.067 -0.5840 -0.8408  1.2232
 3681SOL    HW222680   1.416   0.836   1.011 -1.9291 -1.9092 -0.2029
 3682SOL     OW22681   2.224   0.249   2.174 -0.1069  0.5085  0.3341
 3682SOL    HW122682   2.309   0.214   2.198  0.0296  0.0998 -0.7386
 3682SOL    HW222683   2.195   0.203   2.095  0.4544  0.3111  0.2471
 3683SOL     OW22684   0.638   4.235   3.767 -0.0350 -0.3456  0.4569
 3683SOL    HW122685   0.605   4.324   3.752 -1.2537 -0.5928  1.6260
 3683SOL    HW222686   0.591   4.218   3.849 -0.4907  0.0651  0.2818
 3684SOL     OW22687   3.138   1.427   8.046  0.6586 -0.1617  0.2842
 3684SOL    HW122688   3.195   1.493   8.084  0.8565  0.3253 -0.8354
 3684SOL    HW222689   3.077   1.425   8.119 -0.1753 -0.7033 -0.4287
 3685SOL     OW22690   2.874   1.888   3.432 -0.0317 -0.2659  0.4263
 3685SOL    HW122691   2.939   1.950   3.464  1.0396  0.1518 -2.5690
 3685SOL    HW222692   2.802   1.902   3.494 -1.3072  1.8959 -1.5346
 3686SOL     OW22693   2.066   2.208   0.836  0.2944  0.4678  0.1802
 3686SOL    HW122694   2.114   2.290   0.847 -1.8250  2.0787 -2.3461
 3686SOL    HW222695   2.035   2.225   0.747 -0.8104 -0.3954  0.3947
 3687SOL     OW22696   0.916   0.032  12.964  0.2941  0.8398 -0.0981
 3687SOL    HW122697   1.007   0.060  12.972  0.3003  1.2148 -1.6303
 3687SOL    HW222698   0.883   0.073  12.884 -1.6279  0.7104  0.6242
 3688SOL     OW22699   0.982   3.310  12.641  0.0053 -0.3186 -0.2687
 3688SOL    HW122700   1.034   3.350  12.571  0.0131  0.1567  0.0147
 3688SOL    HW222701   0.893   3.331  12.614  0.6410  0.5122 -1.6989
 3689SOL     OW22702   0.464   0.661   8.763  0.2798  0.7440  0.1224
 3689SOL    HW122703   0.479   0.568   8.745 -1.2169  0.8529 -1.7699
 3689SOL    HW222704   0.519   0.708   8.700 -0.7278  1.0508 -0.5376
 3690SOL     OW22705   1.051   1.779   4.192 -0.0548  0.2847  0.2515
 3690SOL    HW122706   1.067   1.833   4.115 -2.3895  1.6402  0.7049
 3690SOL    HW222707   1.102   1.821   4.261  1.6906 -1.4428  0.0267
 3691SOL     OW22708   1.006   0.110  13.676  0.5016 -0.1124 -0.0096
 3691SOL    HW122709   0.935   0.156  13.722  0.4235 -0.6245  0.3853
 3691SOL    HW222710   0.999   0.034  13.733 -1.7096  0.9064  1.0855
 3692SOL     OW22711   2.682   0.297   8.356 -0.2942  0.0659 -0.5491
 3692SOL    HW122712   2.748   0.264   8.417  0.5128 -0.5412 -1.7529
 3692SOL    HW222713   2.739   0.346   8.295  1.5125 -1.2186  0.0967
 3693SOL     OW22714   1.777   3.740   9.197  0.7121  0.3649  0.0561
 3693SOL    HW122715   1.722   3.740   9.118 -0.4033 -0.1532  0.8310
 3693SOL    HW222716   1.864   3.739   9.156  0.9041  2.3224  0.4336
 3694SOL     OW22717   1.593   2.452   6.874 -0.2753 -0.5587 -0.0536
 3694SOL    HW122718   1.504   2.450   6.909 -0.0512  0.2183  0.5647
 3694SOL    HW222719   1.606   2.546   6.863 -2.8971  0.1674  3.2423
 3695SOL     OW22720   2.544   0.772  12.729  0.1811  0.7019  0.3126
 3695SOL    HW122721   2.488   0.814  12.663 -2.1212 -0.6758  1.3524
 3695SOL    HW222722   2.612   0.838  12.742 -0.6261  1.7735 -0.8707
 3696SOL     OW22723   4.432   3.883  14.110  0.0045 -0.7400  0.9705
 3696SOL    HW122724   4.369   3.913  14.175  0.9879  0.6190  1.3059
 3696SOL    HW222725   4.429   3.788  14.119 -0.5952 -0.5293  2.8763
 3697SOL     OW22726   2.904   4.029   6.478 -1.0122 -0.2057  0.1711
 3697SOL    HW122727   2.859   3.958   6.523 -0.7064 -0.6149 -0.1722
 3697SOL    HW222728   2.981   3.981   6.448 -2.2806 -2.2568  0.1891
 3698SOL     OW22729   2.974   0.255   0.789 -0.2109 -0.1903 -0.0526
 3698SOL    HW122730   2.998   0.166   0.761  1.0615  0.8679 -2.3543
 3698SOL    HW222731   2.890   0.241   0.831 -0.9737 -1.5094 -2.0003
 3699SOL     OW22732   0.331   0.949   6.325  1.0299 -0.2905  0.0782
 3699SOL    HW122733   0.336   0.875   6.263  1.7365  0.1637 -0.4062
 3699SOL    HW222734   0.270   0.908   6.387 -0.6720 -1.9684 -2.6742
 3700SOL     OW22735   3.914   0.812  16.543  0.3165  0.8239 -0.6698
 3700SOL    HW122736   3.953   0.820  16.629  0.9034 -3.4540 -0.5599
 3700SOL    HW222737   3.844   0.747  16.551  2.7933 -1.7770 -0.5191
 3701SOL     OW22738   3.978   3.067   5.613  0.1116 -0.0238 -0.4296
 3701SOL    HW122739   3.888   3.051   5.585 -0.2309  1.8953 -0.4374
 3701SOL    HW222740   3.999   2.990   5.665 -0.5642  0.3131  0.3406
 3702SOL     OW22741   4.431   3.951  12.668  0.1892  0.1941  0.0346
 3702SOL    HW122742   4.416   3.905  12.585 -0.5853  0.8305 -0.1800
 3702SOL    HW222743   4.479   3.884  12.716  0.2631 -1.8289 -2.8497
 3703SOL     OW22744   1.383   1.812   4.130 -0.2911  0.4254 -0.0918
 3703SOL    HW122745   1.359   1.790   4.220 -1.3174 -2.7868 -1.1606
 3703SOL    HW222746   1.477   1.791   4.134 -0.9543 -2.2237  1.1664
 3704SOL     OW22747   1.524   4.687   7.708  0.1799  0.0633 -0.2665
 3704SOL    HW122748   1.618   4.701   7.719 -0.0925  0.7012  1.2698
 3704SOL    HW222749   1.518   4.607   7.761 -2.7305 -0.3934 -1.3306
 3705SOL     OW22750   0.878   2.632   5.137 -0.3002 -0.3607 -0.1538
 3705SOL    HW122751   0.895   2.721   5.169 -1.1554 -0.3982  0.4290
 3705SOL    HW222752   0.789   2.642   5.103 -1.7883  0.1072  3.8079
 3706SOL     OW22753   1.674   4.148   7.430 -0.3411 -0.2898  0.0867
 3706SOL    HW122754   1.651   4.190   7.512 -1.1621 -1.0858  0.2564
 3706SOL    HW222755   1.770   4.146   7.435 -0.4038  1.2419  1.5721
 3707SOL     OW22756   0.092   4.445  10.743 -0.3573  0.7075 -0.3039
 3707SOL    HW122757   0.036   4.452  10.820  1.5143 -1.2859  1.2328
 3707SOL    HW222758   0.050   4.371  10.699  1.4025 -1.6861  2.0579
 3708SOL     OW22759   0.872   0.396  13.532  0.3568  0.6180  0.7214
 3708SOL    HW122760   0.942   0.385  13.467 -1.5446  3.8307 -1.8957
 3708SOL    HW222761   0.919   0.425  13.610  2.0466  1.2641 -0.5133
 3709SOL     OW22762   3.388   3.494   3.531 -0.1114  0.0578  0.3706
 3709SOL    HW122763   3.411   3.544   3.609  1.4850  1.5181 -1.0159
 3709SOL    HW222764   3.293   3.490   3.534 -0.2013  0.4599 -1.5557
 3710SOL     OW22765   2.211   2.044   6.972 -0.0048 -0.4795  0.0829
 3710SOL    HW122766   2.142   1.990   6.933 -0.8253  1.3101 -0.9592
 3710SOL    HW222767   2.279   1.980   6.990  1.8554  1.0076 -1.6857
 3711SOL     OW22768   1.849   0.428   9.058 -0.4549 -0.0737  0.1194
 3711SOL    HW122769   1.787   0.429   8.986  2.0290 -2.8956 -2.0284
 3711SOL    HW222770   1.835   0.512   9.103  2.4063  0.0879  0.7761
 3712SOL     OW22771   3.717   1.634   2.458 -0.3940 -0.5648  0.4076
 3712SOL    HW122772   3.650   1.565   2.459 -0.7568 -0.2250 -0.4311
 3712SOL    HW222773   3.674   1.696   2.399  0.4951  0.8818  1.2998
 3713SOL     OW22774   4.514   0.679   5.885 -0.6971  0.0293  0.4070
 3713SOL    HW122775   4.530   0.590   5.852  0.8261  0.7579 -0.7807
 3713SOL    HW222776   4.584   0.720   5.834 -1.5340  1.7580  0.6758
 3714SOL     OW22777   0.029   4.375   6.116 -0.1253  0.0938 -0.4194
 3714SOL    HW122778   4.677   4.341   6.136  0.1959 -0.0811  0.6583
 3714SOL    HW222779   0.088   4.300   6.110 -0.1074  0.0282  0.6008
 3715SOL     OW22780   1.793   2.407  14.085  0.1438  0.4237  0.2340
 3715SOL    HW122781   1.802   2.368  13.998 -0.3692  2.0451 -0.5454
 3715SOL    HW222782   1.775   2.499  14.064  1.5279  1.2407  2.6121
 3716SOL     OW22783   3.273   3.960   3.493  0.2265  0.5790  0.3321
 3716SOL    HW122784   3.322   4.014   3.555 -0.2161 -0.1990  1.3453
 3716SOL    HW222785   3.200   4.021   3.482 -1.1631 -0.8720  1.5732
 3717SOL     OW22786   0.233   0.793   6.088  0.3501 -0.2264  0.0430
 3717SOL    HW122787   0.223   0.702   6.058 -1.3826  0.4225 -1.3457
 3717SOL    HW222788   0.226   0.849   6.010  1.1355 -1.2743 -0.7922
 3718SOL     OW22789   3.911   4.461  14.201  0.1061  0.0243 -0.3354
 3718SOL    HW122790   3.998   4.483  14.236  0.1877 -1.5218  0.4238
 3718SOL    HW222791   3.872   4.547  14.182  0.2205 -0.3574 -2.3217
 3719SOL     OW22792   2.723   0.798   9.060 -0.1390  0.3209 -0.2755
 3719SOL    HW122793   2.674   0.823   9.138  1.9747 -0.1583  1.1958
 3719SOL    HW222794   2.803   0.762   9.098 -0.0207  1.3127  0.4280
 3720SOL     OW22795   1.730   2.357   6.553  0.3534 -0.7786  0.4463
 3720SOL    HW122796   1.708   2.314   6.470  0.3797  0.4110 -0.1858
 3720SOL    HW222797   1.641   2.379   6.579 -0.4242 -1.2716 -1.8023
 3721SOL     OW22798   1.255   4.540   5.849  0.4330  0.1228 -0.2080
 3721SOL    HW122799   1.271   4.468   5.789  2.7335  1.6384 -1.4272
 3721SOL    HW222800   1.330   4.598   5.832  0.0566  0.4753 -0.6515
 3722SOL     OW22801   3.154   1.701  15.491  0.3391 -0.0276  0.1893
 3722SOL    HW122802   3.060   1.681  15.492  0.2602  0.4512  2.1891
 3722SOL    HW222803   3.193   1.620  15.524  0.2624  0.0327  0.4318
 3723SOL     OW22804   2.434   4.186  11.654 -0.3319 -0.3220 -0.3967
 3723SOL    HW122805   2.374   4.164  11.725  0.2591 -0.0560  0.1954
 3723SOL    HW222806   2.398   4.123  11.592 -2.9654 -1.3544  2.1633
 3724SOL     OW22807   1.029   1.821   7.551 -0.2846 -0.0857 -0.0705
 3724SOL    HW122808   1.014   1.902   7.600  1.3139 -0.3815  0.9186
 3724SOL    HW222809   1.032   1.851   7.460  0.6176  0.6004  0.1865
 3725SOL     OW22810   0.823   4.489  16.367 -0.5275 -0.0314 -0.2121
 3725SOL    HW122811   0.737   4.526  16.350 -1.2389 -2.4743 -2.0118
 3725SOL    HW222812   0.857   4.452  16.286 -1.4117 -0.7781 -0.2461
 3726SOL     OW22813   3.153   2.484   4.126  0.4146  0.0768 -0.0959
 3726SOL    HW122814   3.088   2.497   4.195  0.7062 -1.4276  0.4719
 3726SOL    HW222815   3.204   2.564   4.141  1.3096 -0.4520 -0.2948
 3727SOL     OW22816   2.156   2.904  17.547 -0.6463  0.7816 -0.2531
 3727SOL    HW122817   2.107   2.835  17.502  0.7072  0.4093 -1.1434
 3727SOL    HW222818   2.135   2.980  17.491 -3.7967 -0.4814 -0.7901
 3728SOL     OW22819   2.121   2.843   2.395  0.3659  0.1487 -0.1366
 3728SOL    HW122820   2.196   2.902   2.396 -0.8592  1.6946  0.1978
 3728SOL    HW222821   2.076   2.866   2.314 -2.4977 -1.1847  1.0915
 3729SOL     OW22822   0.089   4.217  15.957 -0.0138  0.2857  0.5173
 3729SOL    HW122823   0.126   4.253  16.038  1.8078  1.4123 -0.8079
 3729SOL    HW222824   0.003   4.195  15.992  0.4430  1.3011  2.3337
 3730SOL     OW22825   2.262   2.784  12.666 -0.3632  0.6174  0.0611
 3730SOL    HW122826   2.168   2.775  12.651 -0.1814 -1.8243  0.3010
 3730SOL    HW222827   2.297   2.766  12.578  0.3408  1.8264  0.0949
 3731SOL     OW22828   1.654   2.848   5.519  0.9591  0.1351 -0.3013
 3731SOL    HW122829   1.733   2.883   5.561  1.1217  0.0955 -0.5761
 3731SOL    HW222830   1.685   2.771   5.471  0.1500 -0.5568  0.2850
 3732SOL     OW22831   0.686   2.290   1.381  0.0735 -0.4103  0.3591
 3732SOL    HW122832   0.618   2.355   1.395  1.4215  1.0794 -0.0275
 3732SOL    HW222833   0.680   2.262   1.472  0.7281  1.5813  1.0184
 3733SOL     OW22834   3.937   3.978   3.468  0.4273 -0.0968 -0.4435
 3733SOL    HW122835   3.945   4.007   3.559  0.1538 -0.3675 -0.3323
 3733SOL    HW222836   4.029   3.957   3.455  0.3925 -1.1486  0.9964
 3734SOL     OW22837   4.180   3.999   5.029 -0.1840  0.7794  0.1946
 3734SOL    HW122838   4.106   3.952   5.066  0.6228 -0.7913 -0.2110
 3734SOL    HW222839   4.180   3.974   4.936 -0.6238  2.7747 -0.3471
 3735SOL     OW22840   2.653   3.365   5.586 -0.3510  0.5855  0.5478
 3735SOL    HW122841   2.594   3.291   5.569  1.1455  0.1219 -2.5738
 3735SOL    HW222842   2.667   3.359   5.681 -0.6719 -2.7289  0.3814
 3736SOL     OW22843   2.825   0.400   2.451  0.0494 -0.0407 -0.0821
 3736SOL    HW122844   2.782   0.426   2.532  0.5367  0.7068 -0.0653
 3736SOL    HW222845   2.756   0.430   2.391 -1.0504  1.5677  1.9693
 3737SOL     OW22846   3.411   0.290  10.389 -0.9345 -0.3206  0.2057
 3737SOL    HW122847   3.401   0.384  10.373 -0.5374 -0.3699 -0.3454
 3737SOL    HW222848   3.500   0.283  10.422 -0.7660  0.1107 -0.1464
 3738SOL     OW22849   1.968   0.253   7.472 -0.1644 -0.0335 -0.3962
 3738SOL    HW122850   2.043   0.200   7.497  0.9939  2.6418  1.7911
 3738SOL    HW222851   1.962   0.221   7.382 -2.2778  0.7032 -0.5154
 3739SOL     OW22852   3.389   0.171  17.199 -0.3222  0.5102  0.0671
 3739SOL    HW122853   3.445   0.160  17.276 -1.3623  0.2398  0.7839
 3739SOL    HW222854   3.333   0.240  17.234 -1.1761 -1.3706  2.4216
 3740SOL     OW22855   1.263   3.834   4.195 -0.1180  0.1815  0.1490
 3740SOL    HW122856   1.206   3.870   4.127 -0.8361 -0.7426  0.2494
 3740SOL    HW222857   1.236   3.871   4.279 -1.8909  0.2046 -0.4336
 3741SOL     OW22858   0.665   2.977   7.785 -0.1557  0.4967  0.4200
 3741SOL    HW122859   0.611   2.979   7.706  1.4506  0.0423 -0.6790
 3741SOL    HW222860   0.630   2.891   7.812  0.2186  0.3039  0.2894
 3742SOL     OW22861   0.464   4.255   6.939  0.6964 -1.0103 -0.1557
 3742SOL    HW122862   0.495   4.294   6.858  0.6364 -1.9922 -0.6555
 3742SOL    HW222863   0.484   4.163   6.923  2.0697 -0.7842  0.1889
 3743SOL     OW22864   0.968   3.371  12.903 -0.1826  0.1722  0.0554
 3743SOL    HW122865   0.987   3.352  12.811 -2.4311 -1.5482 -0.0559
 3743SOL    HW222866   1.054   3.353  12.940  0.9990  2.5712 -1.5677
 3744SOL     OW22867   2.180   1.587  12.976 -0.1297  0.0339 -0.0109
 3744SOL    HW122868   2.190   1.627  13.062 -1.0626  0.2893 -0.0236
 3744SOL    HW222869   2.092   1.551  12.982  0.0901 -0.2361  1.6173
 3745SOL     OW22870   4.424   4.664   3.806 -0.8440 -0.6694 -0.4731
 3745SOL    HW122871   4.353   4.665   3.742  0.0261 -1.5146 -1.4257
 3745SOL    HW222872   4.469   0.013   3.802  0.2880 -1.2207  0.8565
 3746SOL     OW22873   4.188   3.917   3.432 -0.5150  0.5531 -0.5000
 3746SOL    HW122874   4.261   3.876   3.386 -1.4814 -1.1578 -0.4709
 3746SOL    HW222875   4.250   3.963   3.488 -1.3728 -1.0332  1.7302
 3747SOL     OW22876   2.902   0.514   6.940 -0.4141 -0.1577 -0.8211
 3747SOL    HW122877   2.868   0.488   7.026  1.8493  0.1610  0.1804
 3747SOL    HW222878   2.823   0.547   6.897  0.6281  1.1033 -1.7617
 3748SOL     OW22879   3.800   4.286   3.249 -0.3702  0.1229  0.0557
 3748SOL    HW122880   3.877   4.300   3.305 -0.5405 -1.7049  0.7400
 3748SOL    HW222881   3.831   4.343   3.179  0.7975 -1.4936 -0.7620
 3749SOL     OW22882   1.056   0.639   9.699  0.5125  0.4324  0.2480
 3749SOL    HW122883   1.059   0.610   9.790 -0.6229 -1.9973 -0.4755
 3749SOL    HW222884   1.143   0.673   9.680 -0.0699  2.5839  1.4004
 3750SOL     OW22885   0.211   2.542   3.503 -0.0101 -0.9730  0.8626
 3750SOL    HW122886   0.179   2.531   3.413  1.0774 -0.6153  0.4408
 3750SOL    HW222887   0.281   2.603   3.482 -0.8640 -0.2669  0.0749
 3751SOL     OW22888   3.349   0.911   2.709  0.4879  0.2035  0.4009
 3751SOL    HW122889   3.351   0.885   2.617 -0.2663  0.3633  0.3361
 3751SOL    HW222890   3.439   0.909   2.740  0.0774 -0.4733  1.5870
 3752SOL     OW22891   1.984   0.560   8.120  0.0040  0.3638 -0.8850
 3752SOL    HW122892   1.922   0.521   8.058 -2.0422  0.3872  1.1448
 3752SOL    HW222893   1.992   0.483   8.177 -0.6568  1.4043  0.6144
 3753SOL     OW22894   2.881   2.357   2.438  0.3435 -0.2677 -0.0652
 3753SOL    HW122895   2.817   2.309   2.490  0.4035 -1.6259 -1.2289
 3753SOL    HW222896   2.890   2.432   2.496  0.2167 -1.1639  1.0966
 3754SOL     OW22897   2.090   1.704  15.034  0.9868 -0.2823 -0.0855
 3754SOL    HW122898   2.178   1.677  15.006  1.4317  1.8517 -0.7165
 3754SOL    HW222899   2.055   1.619  15.060 -0.7682  0.1155 -1.1899
 3755SOL     OW22900   1.916   2.682  10.538 -0.4500  0.4907 -0.2810
 3755SOL    HW122901   1.920   2.654  10.629 -1.9052 -1.6754 -0.8924
 3755SOL    HW222902   1.944   2.603  10.492 -0.3415 -0.7702  2.0080
 3756SOL     OW22903   0.839   0.636   7.008  0.1224  0.3030  0.3932
 3756SOL    HW122904   0.842   0.668   7.098  0.5465 -2.2848  1.2969
 3756SOL    HW222905   0.853   0.722   6.970 -0.8105  0.9965  1.6084
 3757SOL     OW22906   1.929   4.464  13.851 -0.1776 -0.0039  0.1600
 3757SOL    HW122907   1.911   4.551  13.818  1.3575  0.5572  0.7755
 3757SOL    HW222908   1.872   4.462  13.928 -0.5013 -1.2935 -0.1085
 3758SOL     OW22909   2.566   4.244   5.476  0.5015 -0.4803 -0.4377
 3758SOL    HW122910   2.607   4.186   5.540  2.0716 -0.7188 -1.6514
 3758SOL    HW222911   2.598   4.331   5.499  0.0954  0.0377 -1.8239
 3759SOL     OW22912   1.907   0.772   8.498 -0.9051  0.1030  0.1237
 3759SOL    HW122913   1.994   0.771   8.457 -1.7490  1.8387 -1.7543
 3759SOL    HW222914   1.922   0.770   8.592 -1.4319  1.2697  0.2348
 3760SOL     OW22915   0.331   1.564   9.224  0.4080  0.5107 -0.0148
 3760SOL    HW122916   0.375   1.624   9.164  4.0841  0.2745  2.4396
 3760SOL    HW222917   0.344   1.611   9.306  1.6927 -1.9943  1.2235
 3761SOL     OW22918   1.477   1.747   4.904  0.2292 -0.0115 -0.1835
 3761SOL    HW122919   1.400   1.792   4.869  1.3471  1.4911 -0.7108
 3761SOL    HW222920   1.440   1.737   4.992  3.3396  1.5002  1.3245
 3762SOL     OW22921   1.473   3.492   0.069  0.1187  0.0899  0.5171
 3762SOL    HW122922   1.550   3.435   0.064  0.3156  0.6245 -2.6528
 3762SOL    HW222923   1.397   3.435   0.070 -1.6926  2.4176 -1.9907
 3763SOL     OW22924   1.484   4.258   6.423  0.0381  0.8517  0.2814
 3763SOL    HW122925   1.402   4.232   6.380  1.1646 -1.4195 -0.5097
 3763SOL    HW222926   1.470   4.349   6.447 -1.8664  0.7378 -0.3385
 3764SOL     OW22927   3.991   0.955   4.474  0.2825  0.3889 -0.1166
 3764SOL    HW122928   4.047   0.891   4.430  1.5131  2.7491 -1.9988
 3764SOL    HW222929   3.910   0.938   4.425  0.4790  0.5904 -0.5099
 3765SOL     OW22930   3.510   1.025   4.149  0.0712 -0.2596 -0.4550
 3765SOL    HW122931   3.423   1.013   4.110 -0.7767 -0.1550  1.4449
 3765SOL    HW222932   3.532   0.936   4.177  2.4766  1.5554  3.3075
 3766SOL     OW22933   4.559   0.232   5.960 -0.3350  0.2757  0.6153
 3766SOL    HW122934   4.511   0.170   6.015 -1.8436 -1.4495 -2.6730
 3766SOL    HW222935   4.644   0.190   5.945 -0.3033 -0.0605  1.7840
 3767SOL     OW22936   1.757   4.547   2.140  0.1136 -0.2424  0.4029
 3767SOL    HW122937   1.682   4.488   2.131  0.8652 -0.9506 -1.2705
 3767SOL    HW222938   1.824   4.494   2.183  0.7057 -1.3237 -1.7971
 3768SOL     OW22939   4.601   0.542   9.259 -0.5345  0.1125 -0.1990
 3768SOL    HW122940   4.536   0.472   9.252 -2.0170  1.3145  1.6445
 3768SOL    HW222941   4.575   0.586   9.340 -0.4740  0.0006 -0.1181
 3769SOL     OW22942   0.332   3.442  10.365 -0.3346  0.0868 -0.4000
 3769SOL    HW122943   0.313   3.482  10.280  1.6625 -2.0259 -1.8295
 3769SOL    HW222944   0.275   3.490  10.426  0.7706 -0.6469  1.2218
 3770SOL     OW22945   1.061   2.416   6.448  0.0683 -0.5815  0.4028
 3770SOL    HW122946   1.035   2.388   6.536  0.2206 -1.2129  0.2428
 3770SOL    HW222947   1.003   2.491   6.433  1.3618  0.6991  1.7548
 3771SOL     OW22948   2.294   3.071   4.245  0.2019 -0.3831  0.2627
 3771SOL    HW122949   2.216   3.083   4.190 -1.7381 -1.8284  2.7137
 3771SOL    HW222950   2.268   3.121   4.322  0.9732  1.6784 -0.8181
 3772SOL     OW22951   2.362   1.802  12.922 -0.2181  0.0692  0.1773
 3772SOL    HW122952   2.283   1.761  12.957 -1.0801 -0.5886 -2.5259
 3772SOL    HW222953   2.422   1.754  12.979 -0.6427  1.2726  1.6238
 3773SOL     OW22954   2.267   3.732   5.499  0.0491  0.0047 -0.2206
 3773SOL    HW122955   2.236   3.760   5.413  0.6679  1.2319 -0.0426
 3773SOL    HW222956   2.330   3.662   5.486  0.0966  0.1994 -1.0293
 3774SOL     OW22957   2.847   0.793   8.172  0.3360  0.1563 -0.0894
 3774SOL    HW122958   2.804   0.720   8.215  1.5086 -1.0713 -1.0328
 3774SOL    HW222959   2.900   0.828   8.243  1.7295 -0.3269 -0.8886
 3775SOL     OW22960   3.262   0.889  16.400  0.0425  0.4176 -0.3223
 3775SOL    HW122961   3.190   0.895  16.463 -0.1055  2.3094 -0.6757
 3775SOL    HW222962   3.325   0.955  16.430  0.7484 -0.8150  0.9289
 3776SOL     OW22963   4.357   2.667   3.363  0.5367 -0.3789  0.1339
 3776SOL    HW122964   4.385   2.736   3.423 -0.5229 -0.7358  1.0439
 3776SOL    HW222965   4.294   2.621   3.418 -0.3440  0.7327  0.0335
 3777SOL     OW22966   1.855   1.061   6.043  0.3726 -0.2205 -0.0064
 3777SOL    HW122967   1.899   1.029   5.964 -0.0399  1.2413 -0.8222
 3777SOL    HW222968   1.931   1.094   6.091  1.1581 -0.1702 -1.2985
 3778SOL     OW22969   4.150   0.208   5.693  0.3322  0.1028  0.0037
 3778SOL    HW122970   4.195   0.138   5.741 -0.3710  0.4299  1.1250
 3778SOL    HW222971   4.170   0.190   5.601 -1.6937 -1.3902 -0.1477
 3779SOL     OW22972   1.980   1.229  16.764 -0.0054  0.0366 -0.2808
 3779SOL    HW122973   1.995   1.264  16.852 -0.7479 -0.3558 -0.0030
 3779SOL    HW222974   1.893   1.190  16.769  0.8668 -1.8328  0.7754
 3780SOL     OW22975   3.830   2.360   4.083  0.7729 -0.4762 -0.1711
 3780SOL    HW122976   3.775   2.407   4.021  0.4409 -1.5499 -0.7027
 3780SOL    HW222977   3.775   2.340   4.159  3.2150 -1.2026  1.3864
 3781SOL     OW22978   2.095   3.338  13.129 -0.0531  0.0462 -0.0032
 3781SOL    HW122979   2.064   3.305  13.214  0.9707 -0.6938  0.0755
 3781SOL    HW222980   2.072   3.430  13.133 -0.2620 -0.0440  0.8804
 3782SOL     OW22981   2.966   3.546   6.600  0.4458  0.0955 -0.2582
 3782SOL    HW122982   2.966   3.574   6.692  2.0888 -2.0164  0.3879
 3782SOL    HW222983   2.955   3.454   6.622 -0.5399  0.0671 -0.8823
 3783SOL     OW22984   1.550   2.465  16.104  0.2606  0.8060 -0.0555
 3783SOL    HW122985   1.633   2.422  16.125 -0.8104 -1.7320 -1.0060
 3783SOL    HW222986   1.522   2.428  16.021 -0.3577 -0.8659  0.8999
 3784SOL     OW22987   2.516   3.567   4.045 -0.2739 -0.7439  0.1205
 3784SOL    HW122988   2.436   3.526   4.079 -1.8036  2.4682  0.3846
 3784SOL    HW222989   2.585   3.502   4.055  1.7195  1.2016 -1.1574
 3785SOL     OW22990   3.415   4.378   3.073  0.9352  0.3592 -0.2108
 3785SOL    HW122991   3.423   4.287   3.102  1.8233  1.0672  1.7041
 3785SOL    HW222992   3.452   4.367   2.985  1.2356  1.2710 -0.1979
 3786SOL     OW22993   0.939   4.058   4.604  0.2249  0.0111  0.4197
 3786SOL    HW122994   0.971   4.122   4.668  1.3819 -1.0312  0.8702
 3786SOL    HW222995   0.884   4.002   4.658 -1.9563  2.6498  0.9732
 3787SOL     OW22996   3.940   1.597   6.893 -0.2337  0.5078  0.1020
 3787SOL    HW122997   3.974   1.547   6.819 -0.2072 -0.4834  0.7821
 3787SOL    HW222998   3.998   1.569   6.964  0.3516  1.3246 -0.0574
 3788SOL     OW22999   0.715   0.047   4.119  0.0579 -0.4403  0.1877
 3788SOL    HW123000   0.632   0.085   4.092  1.3915  3.3769  1.5320
 3788SOL    HW223001   0.736   4.712   4.057  0.4197 -0.4526  0.3192
 3789SOL     OW23002   3.171   2.322  11.345  0.1065 -0.1876 -0.2044
 3789SOL    HW123003   3.092   2.331  11.399 -0.3864 -1.0940 -0.7688
 3789SOL    HW223004   3.223   2.272  11.407  1.6364  1.5627 -0.0747
 3790SOL     OW23005   0.038   2.041   7.732 -0.1196 -0.5288 -0.7478
 3790SOL    HW123006   4.689   2.018   7.773 -0.4736 -0.4725 -1.4414
 3790SOL    HW223007   0.014   2.104   7.664 -1.1106  1.5145  1.4929
 3791SOL     OW23008   3.597   2.596   4.873  0.5805 -0.7841 -0.3395
 3791SOL    HW123009   3.503   2.587   4.887  0.5734  0.7392  0.6061
 3791SOL    HW223010   3.622   2.507   4.899 -3.0016 -1.3106  1.2928
 3792SOL     OW23011   3.378   1.897  12.388  0.2633  0.3292 -0.2240
 3792SOL    HW123012   3.318   1.938  12.326 -1.0186 -0.1726  0.6967
 3792SOL    HW223013   3.467   1.930  12.374  1.3522 -1.7776  1.7473
 3793SOL     OW23014   1.076   2.319  17.023 -0.7664 -0.0300  0.2292
 3793SOL    HW123015   1.086   2.406  16.984  1.9091 -0.0067  0.9728
 3793SOL    HW223016   1.047   2.339  17.112  0.4726  1.3178  0.3248
 3794SOL     OW23017   2.077   0.536   6.417  0.5040 -0.5519 -0.2144
 3794SOL    HW123018   2.124   0.572   6.342 -3.4853  1.9766 -1.5408
 3794SOL    HW223019   1.992   0.580   6.413  2.0480  2.3130 -1.2975
 3795SOL     OW23020   1.779   1.956   4.386  0.2007  0.4640 -0.7996
 3795SOL    HW123021   1.840   1.919   4.450 -1.5918 -1.0360  0.0290
 3795SOL    HW223022   1.730   2.019   4.438 -1.7143 -1.9151  0.2580
 3796SOL     OW23023   1.110   1.802   1.637  0.2902 -0.2007 -0.3764
 3796SOL    HW123024   1.195   1.832   1.607 -0.3404 -1.1597 -3.1436
 3796SOL    HW223025   1.094   1.736   1.569 -0.7580 -0.7223  0.3655
 3797SOL     OW23026   1.512   0.146  13.968  0.0431  0.3154 -0.2011
 3797SOL    HW123027   1.474   0.103  14.045  1.0910  0.7752  0.5706
 3797SOL    HW223028   1.550   0.072  13.922  0.3476 -0.3443  1.1024
 3798SOL     OW23029   0.915   0.230   5.606  0.2383 -0.4377 -0.2626
 3798SOL    HW123030   1.005   0.206   5.629  0.2116 -1.4638 -1.2275
 3798SOL    HW223031   0.914   0.325   5.622 -1.0289 -0.6540  0.9393
 3799SOL     OW23032   2.291   4.540   0.450  0.1981  0.7784 -0.3243
 3799SOL    HW123033   2.379   4.506   0.465 -0.6290 -1.0568  0.3977
 3799SOL    HW223034   2.309   4.632   0.469 -2.6379  0.8495  2.0470
 3800SOL     OW23035   2.612   3.460   8.636  0.2607  0.1579  1.1486
 3800SOL    HW123036   2.666   3.453   8.558  1.2408  1.4787  1.7086
 3800SOL    HW223037   2.639   3.543   8.675  0.5043  1.6196 -2.1386
 3801SOL     OW23038   2.279   2.162   3.338  0.8428  0.0246  0.3634
 3801SOL    HW123039   2.191   2.184   3.368 -0.0585 -1.1681 -1.4159
 3801SOL    HW223040   2.264   2.149   3.244 -1.6938  2.9430  0.3784
 3802SOL     OW23041   4.295   0.738   5.570 -0.2490 -0.0604 -0.5091
 3802SOL    HW123042   4.213   0.749   5.618  0.2804 -2.4272  0.9271
 3802SOL    HW223043   4.265   0.794   5.499  1.1315  0.7794 -0.4268
 3803SOL     OW23044   0.880   3.312   2.441  0.2447 -0.2539 -0.6253
 3803SOL    HW123045   0.808   3.255   2.413  0.4049 -0.7373 -0.0418
 3803SOL    HW223046   0.846   3.382   2.384  1.8121  0.6062 -0.4912
 3804SOL     OW23047   1.469   0.726   8.210 -0.3000 -0.3378  0.1956
 3804SOL    HW123048   1.559   0.732   8.243 -0.0263 -2.3659 -0.1981
 3804SOL    HW223049   1.483   0.750   8.118 -1.5053 -1.3920 -0.2627
 3805SOL     OW23050   3.650   0.448   4.442  0.3627 -0.4364  0.1827
 3805SOL    HW123051   3.735   0.489   4.458  0.2224 -0.7078  1.6806
 3805SOL    HW223052   3.606   0.496   4.513  1.8669 -0.8829  1.4207
 3806SOL     OW23053   1.879   0.078   8.827  0.1640 -0.5014  0.0763
 3806SOL    HW123054   1.865   0.105   8.736  3.2183 -3.0360 -1.1328
 3806SOL    HW223055   1.950   0.139   8.851 -1.9295  0.9695  2.5183
 3807SOL     OW23056   1.400   3.091  12.708  0.2670 -0.2688 -0.4717
 3807SOL    HW123057   1.315   3.093  12.750 -1.3215  0.5542 -3.7321
 3807SOL    HW223058   1.448   3.167  12.740  0.4492 -0.7042  0.2788
 3808SOL     OW23059   1.316   2.676   1.922 -0.0568 -0.4152  0.3583
 3808SOL    HW123060   1.252   2.696   1.990 -2.3352 -0.3287 -1.8058
 3808SOL    HW223061   1.351   2.762   1.898 -5.2208  1.2875 -0.9745
 3809SOL     OW23062   1.534   4.058   1.872  0.1731 -0.6341  0.2435
 3809SOL    HW123063   1.542   4.042   1.966  0.9081 -2.2786 -0.0928
 3809SOL    HW223064   1.452   4.013   1.850  0.5051 -0.2442 -1.8600
 3810SOL     OW23065   1.902   3.319   1.778  0.0211 -0.3471 -0.3572
 3810SOL    HW123066   1.954   3.366   1.843  2.3880 -1.8732 -1.1688
 3810SOL    HW223067   1.817   3.320   1.823  0.5825 -0.0839  0.6749
 3811SOL     OW23068   4.119   2.425   8.812 -0.5679  0.3163 -0.6868
 3811SOL    HW123069   4.111   2.362   8.740 -2.7431  0.4963 -0.6086
 3811SOL    HW223070   4.043   2.480   8.791  0.0190  0.5611 -2.1879
 3812SOL     OW23071   0.999   3.658   4.233  0.2830  0.1623 -0.7576
 3812SOL    HW123072   1.032   3.629   4.148  0.4491 -0.4063 -0.4954
 3812SOL    HW223073   1.013   3.752   4.219  0.6518  0.2258  0.1114
 3813SOL     OW23074   0.912   4.228   9.277  0.5414 -0.4700  0.0452
 3813SOL    HW123075   0.952   4.310   9.251 -4.1012  1.5976 -0.6346
 3813SOL    HW223076   0.974   4.189   9.338  2.5945  1.1404 -1.0392
 3814SOL     OW23077   0.337   0.138  17.622  0.2224  0.2047  0.3562
 3814SOL    HW123078   0.275   0.075  17.660  0.7694  0.7065  2.0678
 3814SOL    HW223079   0.275   0.193  17.574  0.5305 -0.5560 -0.9303
 3815SOL     OW23080   0.862   0.352   6.071  0.0564 -0.7045 -0.4225
 3815SOL    HW123081   0.784   0.365   6.126  0.6337  0.0885  0.2034
 3815SOL    HW223082   0.826   0.373   5.984  1.4985  1.9519 -0.4038
 3816SOL     OW23083   3.696   4.095   6.940  0.4222 -0.4339  0.4403
 3816SOL    HW123084   3.762   4.143   6.990  0.0490 -0.1139  0.6265
 3816SOL    HW223085   3.639   4.084   7.016 -0.9209  0.3773 -0.4497
 3817SOL     OW23086   2.432   4.236   8.483 -0.1185  0.7986  0.1627
 3817SOL    HW123087   2.419   4.142   8.491  0.8171  0.6003 -0.7467
 3817SOL    HW223088   2.345   4.260   8.453  0.7763  2.1300 -1.3531
 3818SOL     OW23089   0.386   0.787   2.829 -0.3653  0.2416  0.0665
 3818SOL    HW123090   0.316   0.824   2.882  2.1937  3.2731  1.3488
 3818SOL    HW223091   0.407   0.850   2.760  2.3339  1.9022  2.4012
 3819SOL     OW23092   3.352   2.669   5.245 -0.2301 -0.7427 -0.9222
 3819SOL    HW123093   3.447   2.658   5.238 -0.2825  0.8820 -4.2262
 3819SOL    HW223094   3.330   2.576   5.258  1.4534 -0.9675  0.2770
 3820SOL     OW23095   2.537   4.073   9.040  0.3797 -0.6507 -0.8806
 3820SOL    HW123096   2.587   4.133   9.095 -0.3140 -0.3216 -0.6155
 3820SOL    HW223097   2.545   4.102   8.949  1.9405  1.1139 -0.1803
 3821SOL     OW23098   2.401   3.579   7.022  0.0423  0.3999  0.2249
 3821SOL    HW123099   2.427   3.516   7.090 -0.6408 -0.3044 -0.1693
 3821SOL    HW223100   2.380   3.530   6.943 -0.0705 -0.2370  0.6529
 3822SOL     OW23101   0.495   1.503   4.403  0.3214 -0.5434  0.5935
 3822SOL    HW123102   0.575   1.544   4.370 -0.0336 -0.9521 -0.7377
 3822SOL    HW223103   0.493   1.533   4.494  1.2522  1.0853  0.0955
 3823SOL     OW23104   0.919   2.787  17.570  0.4278 -0.1229 -0.1751
 3823SOL    HW123105   0.895   2.770  17.479  0.5455 -0.2842 -0.1772
 3823SOL    HW223106   0.870   2.867  17.587 -1.5744 -2.0378  3.0579
 3824SOL     OW23107   0.313   4.435   6.716 -0.6586  0.1672  0.1573
 3824SOL    HW123108   0.286   4.494   6.646  1.0433  1.4482  0.5779
 3824SOL    HW223109   0.370   4.373   6.669  0.9443  2.6469 -1.1588
 3825SOL     OW23110   1.328   3.205  10.378  0.2683  0.0718  0.0032
 3825SOL    HW123111   1.299   3.268  10.444 -0.8038 -0.9312  0.4975
 3825SOL    HW223112   1.407   3.165  10.415  1.3358  0.8658 -1.4357
 3826SOL     OW23113   3.809   3.029  12.800 -0.7750 -0.1079 -0.1363
 3826SOL    HW123114   3.776   3.001  12.885 -1.4712 -1.6839 -0.9337
 3826SOL    HW223115   3.889   2.978  12.790 -1.1519 -0.4955 -1.2390
 3827SOL     OW23116   4.416   2.695   0.184 -0.2435  0.4356 -0.0392
 3827SOL    HW123117   4.413   2.765   0.250  1.3898  1.2277 -0.8083
 3827SOL    HW223118   4.506   2.688   0.151  0.7811 -1.0880  3.1502
 3828SOL     OW23119   0.975   3.712   3.019  0.5242 -0.3852 -0.2220
 3828SOL    HW123120   0.967   3.769   3.095  1.0896 -0.2711 -0.2440
 3828SOL    HW223121   1.070   3.700   3.017  0.5634  0.0803 -1.0939
 3829SOL     OW23122   0.733   4.226   8.250  0.1187 -0.0793  0.3015
 3829SOL    HW123123   0.667   4.228   8.319 -1.8353 -2.6760 -1.5185
 3829SOL    HW223124   0.790   4.289   8.295  1.7098 -1.4088  0.1458
 3830SOL     OW23125   4.369   3.567   5.077 -0.0987  0.0492 -0.2077
 3830SOL    HW123126   4.281   3.606   5.079  0.6349  1.5974  1.4663
 3830SOL    HW223127   4.347   3.487   5.124  0.1624  0.1596  0.1036
 3831SOL     OW23128   2.357   0.852  10.658  0.4963  0.1662 -0.1112
 3831SOL    HW123129   2.423   0.920  10.674  1.8971 -1.1020 -0.5250
 3831SOL    HW223130   2.402   0.779  10.698  1.9831  0.7598 -0.6912
 3832SOL     OW23131   0.493   0.718  13.385 -0.6722  0.1732  0.4595
 3832SOL    HW123132   0.496   0.736  13.479 -0.6621 -0.9183  0.6731
 3832SOL    HW223133   0.461   0.628  13.373  3.5117 -1.1954 -0.3497
 3833SOL     OW23134   4.296   2.662   7.536 -0.1042  0.2425  0.2799
 3833SOL    HW123135   4.331   2.631   7.620 -1.1296  0.7636  0.9039
 3833SOL    HW223136   4.279   2.583   7.484 -0.3281  0.3369  0.2111
 3834SOL     OW23137   4.494   4.666   8.688  0.0823 -0.4524  0.4048
 3834SOL    HW123138   4.553   4.602   8.728  1.0747 -0.2713 -0.7637
 3834SOL    HW223139   4.464   4.708   8.768  1.9372  0.0240  0.8509
 3835SOL     OW23140   3.864   1.975   7.628  0.0599  0.1115  0.4401
 3835SOL    HW123141   3.850   2.030   7.550  2.9040 -1.4818 -1.2032
 3835SOL    HW223142   3.957   1.957   7.615  0.1611  0.9736 -0.0845
 3836SOL     OW23143   1.738   0.699   2.996 -0.0626 -0.3036 -0.1365
 3836SOL    HW123144   1.756   0.647   2.917  1.1353 -3.1111  1.9751
 3836SOL    HW223145   1.699   0.628   3.046  0.9322 -1.5781 -1.1653
 3837SOL     OW23146   3.040   4.470   4.086 -0.1421 -0.4375 -0.7350
 3837SOL    HW123147   2.975   4.404   4.112 -1.8933  0.8934 -1.7792
 3837SOL    HW223148   3.049   4.456   3.992  0.9603  0.4998 -0.7664
 3838SOL     OW23149   4.411   0.091   4.099  0.4558  0.0981  0.2697
 3838SOL    HW123150   4.438   0.150   4.029  0.1011  0.3690  0.3564
 3838SOL    HW223151   4.470   0.117   4.169  0.2474  1.8467 -0.2067
 3839SOL     OW23152   1.587   2.947   2.930 -0.2152  0.0393 -0.0024
 3839SOL    HW123153   1.682   2.963   2.925 -0.2894  0.5073  0.1379
 3839SOL    HW223154   1.587   2.915   3.020  0.0586  0.2739  0.0818
 3840SOL     OW23155   4.276   0.162   1.789  0.2025  0.2801  0.5021
 3840SOL    HW123156   4.347   0.152   1.725 -0.9424 -0.2856 -0.6686
 3840SOL    HW223157   4.323   0.228   1.840 -0.8132  0.2731  1.4384
 3841SOL     OW23158   1.690   0.245   5.504 -0.2930 -0.0767 -0.3672
 3841SOL    HW123159   1.595   0.252   5.508 -0.3070  1.0874 -2.9468
 3841SOL    HW223160   1.717   0.281   5.589 -0.8498  0.1355 -0.2843
 3842SOL     OW23161   4.274   0.446   3.740 -0.5286 -0.4810  0.0477
 3842SOL    HW123162   4.266   0.518   3.802  0.1033 -2.4445  2.3958
 3842SOL    HW223163   4.212   0.460   3.668 -0.2537  0.4547 -0.0182
 3843SOL     OW23164   3.818   0.584   2.200  0.0226 -0.1970  0.1071
 3843SOL    HW123165   3.807   0.561   2.292  0.5126 -0.5724  0.0697
 3843SOL    HW223166   3.734   0.560   2.162  0.5334 -1.8328  0.0206
 3844SOL     OW23167   1.337   0.301  12.352  0.5552  0.5241  0.2120
 3844SOL    HW123168   1.425   0.266  12.337  1.0966  2.2707 -0.7008
 3844SOL    HW223169   1.360   0.350  12.432  0.6217  2.0240 -0.7233
 3845SOL     OW23170   4.475   3.549  16.500  0.1070 -0.4922  0.1129
 3845SOL    HW123171   4.506   3.550  16.409 -0.2837  2.8502  0.0242
 3845SOL    HW223172   4.401   3.607  16.517  1.6435  0.7239  2.6055
 3846SOL     OW23173   3.779   0.793   1.884 -0.2793  0.4856 -0.1129
 3846SOL    HW123174   3.843   0.840   1.939  1.0847 -2.7816  1.1252
 3846SOL    HW223175   3.830   0.766   1.807 -0.7695  0.2195 -0.3403
 3847SOL     OW23176   0.707   2.197   8.190  0.3103 -0.3534  0.0214
 3847SOL    HW123177   0.717   2.200   8.285 -2.5137  1.1278  0.2694
 3847SOL    HW223178   0.784   2.241   8.154  1.2018 -1.7576  0.2093
 3848SOL     OW23179   0.383   0.562   6.718  0.6881 -0.0198 -0.0282
 3848SOL    HW123180   0.371   0.657   6.720  2.5746  0.2269 -1.0621
 3848SOL    HW223181   0.421   0.560   6.806  0.0458  0.5724  0.2654
 3849SOL     OW23182   1.638   2.568  10.449  0.3077 -0.0353 -0.0645
 3849SOL    HW123183   1.561   2.553  10.393  0.6678  1.7961 -1.0683
 3849SOL    HW223184   1.641   2.484  10.495  0.2550 -0.2135 -0.3824
 3850SOL     OW23185   1.473   1.099   3.003 -0.1550  0.4724  0.7018
 3850SOL    HW123186   1.451   1.152   3.079  0.8582  0.8485  0.7337
 3850SOL    HW223187   1.463   1.166   2.935 -0.6111 -0.4444 -0.1310
 3851SOL     OW23188   1.650   2.402  15.059  0.4000  0.0924 -0.1291
 3851SOL    HW123189   1.740   2.434  15.072  1.2327 -2.1303 -0.3329
 3851SOL    HW223190   1.660   2.311  15.088 -3.3770 -0.5020 -0.8230
 3852SOL     OW23191   4.598   3.097   0.669 -0.0751  0.1113  0.0521
 3852SOL    HW123192   4.646   3.097   0.586  0.7245  1.8162  0.5088
 3852SOL    HW223193   4.670   3.118   0.728 -2.4854  2.3207  2.1969
 3853SOL     OW23194   1.588   3.298  16.269 -0.6024  0.3528 -0.3291
 3853SOL    HW123195   1.587   3.203  16.284 -0.9946  0.7347  2.2040
 3853SOL    HW223196   1.496   3.323  16.271 -0.5113  0.7349 -1.0199
 3854SOL     OW23197   3.043   2.171   9.113 -0.0575 -0.6668 -0.0074
 3854SOL    HW123198   3.055   2.110   9.186  3.0619 -1.4399 -1.1552
 3854SOL    HW223199   3.121   2.149   9.063 -0.8617  0.8854 -1.9330
 3855SOL     OW23200   3.767   2.383  14.444 -0.7552 -0.9656  0.0902
 3855SOL    HW123201   3.831   2.407  14.511 -1.6495  1.1835  0.1882
 3855SOL    HW223202   3.721   2.466  14.435  1.1096  0.1049  0.3427
 3856SOL     OW23203   2.745   4.392   8.186 -0.2221 -0.5008  0.0482
 3856SOL    HW123204   2.692   4.471   8.195 -0.5121 -0.5796 -1.0667
 3856SOL    HW223205   2.726   4.360   8.274 -0.1408 -1.1552 -0.1760
 3857SOL     OW23206   0.713   3.120   0.893 -0.0117 -0.4682  0.1542
 3857SOL    HW123207   0.803   3.102   0.922 -0.3232 -0.5473  1.0895
 3857SOL    HW223208   0.705   3.198   0.948 -0.2716 -0.3852 -0.0034
 3858SOL     OW23209   4.525   1.773   7.476  0.1266  0.3151  0.0217
 3858SOL    HW123210   4.613   1.739   7.486 -0.8930 -1.6393  2.1467
 3858SOL    HW223211   4.484   1.734   7.553 -1.1635  1.1770 -0.2106
 3859SOL     OW23212   3.850   2.307   1.244 -0.1675  0.1537 -0.6341
 3859SOL    HW123213   3.857   2.273   1.333 -0.7241 -1.1992 -1.0957
 3859SOL    HW223214   3.794   2.383   1.255  0.5944  0.8706 -1.7009
 3860SOL     OW23215   4.105   3.031   0.948 -0.4785  0.3338  0.4178
 3860SOL    HW123216   4.181   3.090   0.943 -0.1977 -0.2057 -1.6500
 3860SOL    HW223217   4.070   3.037   1.037  0.9409 -0.2156  1.0252
 3861SOL     OW23218   2.052   4.421   7.834 -0.2249 -0.0367 -0.6351
 3861SOL    HW123219   2.020   4.369   7.908  1.6437 -0.5673 -0.1901
 3861SOL    HW223220   2.073   4.351   7.773 -2.5368 -0.5086 -0.8857
 3862SOL     OW23221   3.710   0.776   9.199  0.2058 -0.0501 -0.3210
 3862SOL    HW123222   3.734   0.755   9.289  0.8758 -0.5318 -0.6117
 3862SOL    HW223223   3.659   0.699   9.174 -0.7234  0.0039  1.3992
 3863SOL     OW23224   0.764   3.518   3.072 -0.4884  0.3304  0.1155
 3863SOL    HW123225   0.796   3.605   3.049  0.7942 -0.6755 -1.8879
 3863SOL    HW223226   0.700   3.542   3.139 -1.1579  0.1404 -0.4470
 3864SOL     OW23227   0.666   2.648  16.446 -0.0306  0.1054 -0.0599
 3864SOL    HW123228   0.615   2.729  16.443 -1.2945 -0.7127 -0.6010
 3864SOL    HW223229   0.684   2.636  16.352 -0.3312  0.8528 -0.2186
 3865SOL     OW23230   0.301   2.461   9.684 -0.2372  0.2838 -0.2347
 3865SOL    HW123231   0.338   2.377   9.712 -1.0358 -0.0543 -0.1837
 3865SOL    HW223232   0.282   2.503   9.767 -1.3471 -1.2440  0.2913
 3866SOL     OW23233   2.489   0.830   4.675  0.1539 -0.3845  0.9924
 3866SOL    HW123234   2.461   0.891   4.743 -1.8015 -1.4994  1.2039
 3866SOL    HW223235   2.431   0.845   4.600  2.2960  0.2920 -0.5379
 3867SOL     OW23236   2.682   3.432   2.492  0.3715 -0.3157 -0.2091
 3867SOL    HW123237   2.622   3.486   2.441 -0.0552  2.2747  3.0734
 3867SOL    HW223238   2.617   3.371   2.525  1.0123 -0.1200  1.4011
 3868SOL     OW23239   4.220   3.566   9.817 -0.4158 -0.2443 -0.0775
 3868SOL    HW123240   4.289   3.632   9.809 -0.2064 -0.1411  2.6728
 3868SOL    HW223241   4.154   3.628   9.849  0.8727  0.6156  0.9294
 3869SOL     OW23242   4.302   2.636   0.685  0.0307 -0.4328  0.4175
 3869SOL    HW123243   4.323   2.581   0.760  0.6492 -2.1427 -1.0104
 3869SOL    HW223244   4.246   2.686   0.744  2.8320  1.8249  1.1776
 3870SOL     OW23245   3.192   3.300   1.378 -0.0498  0.1198  0.2038
 3870SOL    HW123246   3.170   3.350   1.456  2.3442 -0.5794  1.3455
 3870SOL    HW223247   3.253   3.356   1.329 -1.1890 -0.1429 -1.5290
 3871SOL     OW23248   2.566   3.173   8.074  0.4234  0.1463 -0.3396
 3871SOL    HW123249   2.652   3.150   8.037  0.4438 -0.7890  0.2980
 3871SOL    HW223250   2.522   3.194   7.992 -1.0308 -2.7774 -0.2898
 3872SOL     OW23251   2.463   2.650   7.700 -0.1132  0.0060 -0.0423
 3872SOL    HW123252   2.530   2.647   7.632 -0.7100  0.5187 -0.6597
 3872SOL    HW223253   2.495   2.723   7.753  0.0400  0.7569 -1.1682
 3873SOL     OW23254   0.121   3.157   0.575  0.4622 -0.4964  0.0009
 3873SOL    HW123255   0.160   3.238   0.542 -3.8337  0.2635 -3.3137
 3873SOL    HW223256   0.184   3.116   0.634  0.0415 -0.2270  0.6384
 3874SOL     OW23257   3.054   2.716   8.855 -0.4454 -0.6404  0.5174
 3874SOL    HW123258   3.136   2.675   8.880  0.2795  1.4407  1.5418
 3874SOL    HW223259   3.070   2.802   8.893 -1.7240 -1.0088  1.9218
 3875SOL     OW23260   0.631   0.279  13.770  0.2923  0.2293  0.7926
 3875SOL    HW123261   0.551   0.258  13.722  0.3992 -0.4884  0.9286
 3875SOL    HW223262   0.651   0.368  13.741  0.8076  0.1475  0.8863
 3876SOL     OW23263   1.436   3.523   7.651 -0.2902 -0.1899 -0.0846
 3876SOL    HW123264   1.457   3.595   7.593  0.5692  1.1505  1.9212
 3876SOL    HW223265   1.371   3.473   7.601 -2.3567 -1.2381  3.6438
 3877SOL     OW23266   1.527   4.197  11.934 -0.2638  0.6302 -0.8598
 3877SOL    HW123267   1.485   4.259  11.994  0.2373 -0.2063  0.3364
 3877SOL    HW223268   1.618   4.224  11.935  0.6150 -2.3668 -0.6917
 3878SOL     OW23269   0.679   3.765   7.351  0.4747  0.2007  0.2255
 3878SOL    HW123270   0.765   3.748   7.389 -0.0380 -0.2183  1.2029
 3878SOL    HW223271   0.660   3.852   7.387 -0.8173  0.5365 -1.2839
 3879SOL     OW23272   0.730   0.155   3.481 -0.2079  0.3143  0.2444
 3879SOL    HW123273   0.739   0.071   3.527 -0.0759 -0.3948 -1.0830
 3879SOL    HW223274   0.824   0.166   3.464 -0.4349  0.8557 -0.6236
 3880SOL     OW23275   3.201   4.317   8.260 -0.5690  1.0678  0.2170
 3880SOL    HW123276   3.280   4.356   8.296  0.2435  0.0518 -0.4734
 3880SOL    HW223277   3.238   4.283   8.179 -1.4358  0.2719  0.1520
 3881SOL     OW23278   4.662   3.027   0.222  0.5305 -0.6878 -0.7681
 3881SOL    HW123279   0.013   3.064   0.203  0.9587 -0.8905  0.7162
 3881SOL    HW223280   4.611   3.039   0.142  2.0507  0.5457 -1.5713
 3882SOL     OW23281   3.256   1.796   8.497  0.0320  0.1155 -0.4301
 3882SOL    HW123282   3.254   1.767   8.588 -1.1179 -0.6466 -0.6953
 3882SOL    HW223283   3.162   1.779   8.484  0.2801 -0.9257 -0.8423
 3883SOL     OW23284   0.932   2.014   3.830 -0.5957 -0.2373 -0.2802
 3883SOL    HW123285   0.866   2.051   3.889  1.6720  0.4086  1.8602
 3883SOL    HW223286   0.957   1.938   3.883  0.4911  0.8753  0.8169
 3884SOL     OW23287   1.426   2.549  15.496 -0.3151  0.1806  0.7799
 3884SOL    HW123288   1.408   2.621  15.434  0.3367 -0.0295  0.3492
 3884SOL    HW223289   1.409   2.477  15.434 -0.8557 -1.0978  2.4285
 3885SOL     OW23290   3.115   1.740   8.711 -0.0128 -0.0674 -0.1535
 3885SOL    HW123291   3.137   1.781   8.795  0.2755  0.6311 -0.5749
 3885SOL    HW223292   3.024   1.712   8.720  0.5824 -1.3725  1.8169
 3886SOL     OW23293   3.653   1.968  12.295  0.3839 -0.1573  0.1594
 3886SOL    HW123294   3.727   1.955  12.236  0.4120 -0.0538  0.1720
 3886SOL    HW223295   3.676   1.920  12.375  1.7576 -3.4133 -2.2121
 3887SOL     OW23296   1.489   3.489   3.568 -0.3218  0.2484 -0.1859
 3887SOL    HW123297   1.472   3.397   3.586  0.6376 -0.4380 -2.8390
 3887SOL    HW223298   1.405   3.531   3.587  0.0208  1.7609 -2.0440
 3888SOL     OW23299   0.707   2.455   5.495  0.3918 -0.3046  0.1362
 3888SOL    HW123300   0.637   2.514   5.468 -1.2287 -1.7829  1.1550
 3888SOL    HW223301   0.782   2.504   5.460 -1.6459  0.9979 -2.3946
 3889SOL     OW23302   4.190   2.476   4.358 -0.7103 -0.3186  0.7275
 3889SOL    HW123303   4.190   2.419   4.281 -1.7212 -0.6478  0.9605
 3889SOL    HW223304   4.143   2.552   4.325  0.8094  0.6265  0.7711
 3890SOL     OW23305   3.973   3.899   1.019 -0.2440 -0.3690  0.5394
 3890SOL    HW123306   4.032   3.848   0.962 -1.7635 -0.6943 -0.7534
 3890SOL    HW223307   3.939   3.965   0.959  1.5282  0.8461  0.8530
 3891SOL     OW23308   4.690   4.070   0.844  0.4017  0.2128 -0.0834
 3891SOL    HW123309   4.638   3.994   0.870  1.0183 -0.4278 -0.7319
 3891SOL    HW223310   0.038   4.031   0.818  1.1076  1.6315  0.0559
 3892SOL     OW23311   2.513   0.205   6.386 -0.0066 -0.4440 -0.4970
 3892SOL    HW123312   2.556   0.281   6.425 -1.0795  1.3622 -2.8149
 3892SOL    HW223313   2.528   0.149   6.461 -1.6219 -2.5925 -1.7760
 3893SOL     OW23314   0.553   4.481   2.299 -0.2567  0.1064  0.2715
 3893SOL    HW123315   0.554   4.473   2.204  2.2833  0.4747  0.2588
 3893SOL    HW223316   0.460   4.466   2.312 -0.7464  1.8832 -1.2144
 3894SOL     OW23317   2.700   0.029   2.482 -0.5228 -0.1797  0.2307
 3894SOL    HW123318   2.621   0.068   2.519 -1.0932 -1.2017  0.0812
 3894SOL    HW223319   2.725   4.717   2.561  1.0960 -0.6028 -0.5301
 3895SOL     OW23320   0.294   1.132   0.009  0.0162  1.0801  0.6106
 3895SOL    HW123321   0.258   1.131   0.097 -1.2150  0.6675  0.0987
 3895SOL    HW223322   0.267   1.223  17.734 -0.5047  0.9767  0.9456
 3896SOL     OW23323   4.497   2.405   7.559  0.1041  0.4860 -0.7845
 3896SOL    HW123324   4.465   2.358   7.636  0.7767  1.0820 -0.1420
 3896SOL    HW223325   4.433   2.404   7.488 -1.6278 -0.7781  0.7908
 3897SOL     OW23326   1.678   1.677  14.313  0.6213 -0.3858 -0.2915
 3897SOL    HW123327   1.726   1.758  14.296 -0.1204 -0.0277 -0.6952
 3897SOL    HW223328   1.656   1.686  14.406 -0.7367 -1.2730 -0.5210
 3898SOL     OW23329   0.933   0.529   8.403 -0.1298  0.3006  0.2186
 3898SOL    HW123330   1.019   0.536   8.361  0.2396 -0.3765  0.8547
 3898SOL    HW223331   0.892   0.454   8.361  0.7596  0.0152 -0.1385
 3899SOL     OW23332   3.193   2.303   5.014  0.3095  0.0142 -0.0028
 3899SOL    HW123333   3.122   2.255   5.056  1.7416  0.4915  2.9475
 3899SOL    HW223334   3.222   2.230   4.959 -0.8948 -0.2175 -0.3358
 3900SOL     OW23335   4.614   3.125   5.382  0.0311  0.2837 -0.3039
 3900SOL    HW123336   4.547   3.071   5.340  1.2944  0.1119 -2.0837
 3900SOL    HW223337   4.596   3.102   5.473 -2.6202  0.8906 -0.6642
 3901SOL     OW23338   4.705   0.523   1.588  0.1921 -0.7135 -0.6594
 3901SOL    HW123339   4.725   0.549   1.498 -1.6698  2.4325 -0.1508
 3901SOL    HW223340   0.064   0.518   1.606 -0.3222  2.5430  2.9137
 3902SOL     OW23341   0.887   1.508  11.508 -0.1790  0.9008  0.1191
 3902SOL    HW123342   0.930   1.480  11.428  1.3251  0.1314  1.2060
 3902SOL    HW223343   0.955   1.561  11.550 -0.5356 -0.7451  2.7836
 3903SOL     OW23344   1.096   3.180   8.870  0.4750 -0.0843 -1.1748
 3903SOL    HW123345   1.123   3.270   8.848 -0.4293  0.4092 -0.2559
 3903SOL    HW223346   1.160   3.169   8.940  1.2528  0.6128 -1.7796
 3904SOL     OW23347   1.780   0.739   4.970 -0.0671  0.0636  0.5189
 3904SOL    HW123348   1.764   0.715   4.879  2.7899 -2.3954  0.6460
 3904SOL    HW223349   1.827   0.819   4.947 -1.6021  0.2246 -2.0702
 3905SOL     OW23350   3.771   3.624  16.504  0.2178  0.4243  0.2983
 3905SOL    HW123351   3.851   3.597  16.547  0.4930  0.0125 -0.4712
 3905SOL    HW223352   3.708   3.638  16.575 -3.2484  3.3156 -3.2393
 3906SOL     OW23353   3.349   2.926   2.344  0.1271  0.1372 -0.1192
 3906SOL    HW123354   3.278   2.892   2.398  0.3662 -1.8533 -1.0339
 3906SOL    HW223355   3.313   2.892   2.262 -0.6457 -0.6801  0.5509
 3907SOL     OW23356   4.684   2.045   8.703 -0.1161  0.2508 -0.6255
 3907SOL    HW123357   4.730   1.969   8.738 -1.2255 -0.4808 -0.7558
 3907SOL    HW223358   4.636   2.081   8.778 -0.6177  0.2038 -0.9209
 3908SOL     OW23359   2.497   3.805   1.804 -0.4276  1.0822 -0.1517
 3908SOL    HW123360   2.438   3.747   1.756  0.6265 -1.4919  1.6510
 3908SOL    HW223361   2.572   3.748   1.821 -1.1332 -0.3271 -1.7152
 3909SOL     OW23362   1.395   1.748  16.327 -0.1658 -0.1368  0.3816
 3909SOL    HW123363   1.318   1.739  16.270  0.0781 -1.0704  0.1878
 3909SOL    HW223364   1.360   1.780  16.410 -3.0369  3.1293 -2.1193
 3910SOL     OW23365   0.415   2.939   3.496 -0.3862 -1.0737 -0.1703
 3910SOL    HW123366   0.388   2.972   3.410  1.8565  1.4813  0.1084
 3910SOL    HW223367   0.341   2.967   3.550 -0.5551  0.0449 -0.9940
 3911SOL     OW23368   3.983   3.130   1.805 -0.1420  0.7498  0.3829
 3911SOL    HW123369   3.987   3.053   1.748 -0.7292 -0.5635  2.1041
 3911SOL    HW223370   3.963   3.092   1.891  0.8339 -1.8218 -0.5395
 3912SOL     OW23371   4.636   3.509   7.111 -0.4800  0.4882 -0.0082
 3912SOL    HW123372   4.550   3.536   7.079 -0.8813 -0.1336  0.5500
 3912SOL    HW223373   4.602   3.454   7.182 -1.9048  3.0336  1.2599
 3913SOL     OW23374   0.884   1.153   4.269 -0.7032  0.5574  0.4442
 3913SOL    HW123375   0.898   1.207   4.191 -2.1891 -3.1521 -2.3905
 3913SOL    HW223376   0.828   1.207   4.325 -0.7430  1.9612 -0.9497
 3914SOL     OW23377   1.795   4.048   4.256 -0.5504 -0.5843  0.2960
 3914SOL    HW123378   1.750   3.964   4.256 -1.7697  0.0432 -1.5496
 3914SOL    HW223379   1.885   4.037   4.224  0.2223  1.2390  1.8230
 3915SOL     OW23380   1.894   2.980  10.521 -0.6705  0.1384  0.3642
 3915SOL    HW123381   1.907   3.044  10.591  0.6006  0.6493 -0.3438
 3915SOL    HW223382   1.917   2.894  10.556  2.6206  0.6355 -0.5815
 3916SOL     OW23383   0.599   3.380   5.480  0.7254 -0.7541 -0.0620
 3916SOL    HW123384   0.667   3.443   5.458 -0.1344 -0.1103 -0.8514
 3916SOL    HW223385   0.597   3.393   5.575  1.0676 -0.8313 -0.0436
 3917SOL     OW23386   1.940   0.487   3.528  0.4769  0.4330 -0.4155
 3917SOL    HW123387   1.998   0.544   3.579  0.1633 -0.0608  0.4905
 3917SOL    HW223388   1.999   0.447   3.463  1.1840  3.4946 -1.6741
 3918SOL     OW23389   0.232   3.557   6.134  0.3908  0.3478  0.0543
 3918SOL    HW123390   0.184   3.589   6.057  0.2253 -3.2777 -1.3654
 3918SOL    HW223391   0.204   3.467   6.116  1.0040  0.0387  0.6384
 3919SOL     OW23392   2.700   2.174   3.555  0.1443 -0.0482 -0.2782
 3919SOL    HW123393   2.617   2.130   3.568  0.9190 -1.2068  0.6920
 3919SOL    HW223394   2.671   2.238   3.490 -2.1721  0.6459  1.4872
 3920SOL     OW23395   0.431   4.288   1.549 -0.2101  0.0580 -0.6175
 3920SOL    HW123396   0.417   4.236   1.471 -2.4477 -0.5537  0.2040
 3920SOL    HW223397   0.398   4.372   1.518 -3.8853 -0.9171  0.6253
 3921SOL     OW23398   3.631   2.013  12.631  0.1593 -0.2025  0.1198
 3921SOL    HW123399   3.683   1.944  12.591 -0.1907 -2.6789  3.9746
 3921SOL    HW223400   3.698   2.069  12.670 -1.3949  0.6710  1.5194
 3922SOL     OW23401   2.607   3.142   3.703  0.0823 -0.1429 -0.0073
 3922SOL    HW123402   2.539   3.203   3.729 -1.6837 -1.6753 -1.0212
 3922SOL    HW223403   2.626   3.089   3.780  1.2292 -0.2129 -0.3362
 3923SOL     OW23404   4.086   2.757   6.661 -0.1842  0.4947 -0.1641
 3923SOL    HW123405   4.058   2.751   6.569 -1.8510 -0.7787  0.4186
 3923SOL    HW223406   4.016   2.812   6.696 -2.0478 -1.4720 -0.7455
 3924SOL     OW23407   1.501   3.886   6.828  0.3682  0.1798 -0.3433
 3924SOL    HW123408   1.525   3.918   6.915  1.4600  1.3904 -1.0891
 3924SOL    HW223409   1.548   3.940   6.765  1.3849  1.4933  1.5482
 3925SOL     OW23410   4.694   3.887   5.243  0.0920  0.0451 -0.0991
 3925SOL    HW123411   4.698   3.846   5.156  1.1197  0.1173 -0.0867
 3925SOL    HW223412   0.018   3.962   5.235  0.3585 -0.0748  0.7792
 3926SOL     OW23413   0.270   1.488  14.384  0.0666  0.0859 -0.0368
 3926SOL    HW123414   0.179   1.473  14.408  0.1371  0.6120  0.5675
 3926SOL    HW223415   0.274   1.458  14.294 -1.9396  1.9318 -0.7558
 3927SOL     OW23416   3.699   4.143  11.164  0.6284  0.1213 -0.6982
 3927SOL    HW123417   3.673   4.083  11.233 -1.7055  0.4096 -1.3230
 3927SOL    HW223418   3.723   4.225  11.208 -0.3112 -1.0435  1.9531
 3928SOL     OW23419   2.240   3.191   4.806  0.1198 -0.1330 -0.4707
 3928SOL    HW123420   2.194   3.261   4.852 -0.0114 -1.3031  1.1686
 3928SOL    HW223421   2.321   3.191   4.857  1.4275 -0.2529 -2.5540
 3929SOL     OW23422   1.513   0.010   3.899  0.1242  0.2994  0.4839
 3929SOL    HW123423   1.547   4.680   3.838  1.5959  1.2978  0.2542
 3929SOL    HW223424   1.509   4.693   3.979  1.0397  0.6205  0.7331
 3930SOL     OW23425   4.600   3.250   1.366 -0.0926 -0.3192  0.0896
 3930SOL    HW123426   4.605   3.167   1.414  0.1161  0.1211  0.8197
 3930SOL    HW223427   4.505   3.262   1.359  0.1030  2.0258  1.6965
 3931SOL     OW23428   0.410   4.243   1.819 -0.2980  0.0831 -0.3187
 3931SOL    HW123429   0.429   4.261   1.727  0.3849 -1.8292 -0.5415
 3931SOL    HW223430   0.358   4.163   1.820  0.7719 -0.6115 -1.0804
 3932SOL     OW23431   1.963   2.535   5.895  0.4527  0.6310 -0.5067
 3932SOL    HW123432   1.898   2.473   5.928  2.2447 -2.5630 -2.9614
 3932SOL    HW223433   2.042   2.481   5.886 -0.4310 -0.6612 -0.4114
 3933SOL     OW23434   2.786   3.745   3.144  0.0727  0.3443 -0.6047
 3933SOL    HW123435   2.794   3.793   3.061  1.7995 -1.9869 -1.7906
 3933SOL    HW223436   2.854   3.678   3.136 -0.7749 -0.7681  1.6467
 3934SOL     OW23437   4.458   0.442   1.677 -0.2671 -0.6159  0.6411
 3934SOL    HW123438   4.544   0.483   1.670 -0.1504 -0.6286  1.8931
 3934SOL    HW223439   4.470   0.378   1.607 -2.7831 -0.0814 -0.2733
 3935SOL     OW23440   4.225   1.032  17.379 -0.9457 -0.0388  0.1640
 3935SOL    HW123441   4.247   0.945  17.346  2.3092  1.5674 -1.9367
 3935SOL    HW223442   4.173   1.062  17.304 -1.4141 -1.9882 -0.2982
 3936SOL     OW23443   0.608   1.414   9.675 -0.1636  0.1279  0.2429
 3936SOL    HW123444   0.551   1.351   9.630 -2.7186  1.5346  1.4551
 3936SOL    HW223445   0.631   1.375   9.759 -2.1224  0.2660  0.8541
 3937SOL     OW23446   0.743   4.044   0.725  0.4315  0.3005  0.2135
 3937SOL    HW123447   0.704   4.128   0.750  0.2899 -0.2606  1.8652
 3937SOL    HW223448   0.755   4.052   0.631 -1.2958  0.7962  0.0301
 3938SOL     OW23449   0.747   1.090   2.030 -0.1804  0.2355 -0.0795
 3938SOL    HW123450   0.699   1.012   2.054  1.0200 -0.4438  0.1101
 3938SOL    HW223451   0.808   1.100   2.104 -1.7529  1.0325  1.1022
 3939SOL     OW23452   0.258   0.724  14.886 -0.3345  0.4242  0.2662
 3939SOL    HW123453   0.341   0.705  14.931 -0.8741 -0.2813  0.9464
 3939SOL    HW223454   0.301   0.752  14.804  1.4964 -1.2389  0.6505
 3940SOL     OW23455   3.577   3.578  16.748  0.0095 -0.2219 -0.1292
 3940SOL    HW123456   3.582   3.645  16.817  0.5038  0.4195 -0.7911
 3940SOL    HW223457   3.487   3.574  16.717 -0.2033 -0.2560  0.4886
 3941SOL     OW23458   3.379   2.234   1.865  0.5700  0.2558  0.1596
 3941SOL    HW123459   3.342   2.152   1.831 -1.1429  0.6094  1.1847
 3941SOL    HW223460   3.311   2.263   1.925 -0.0676 -0.9801  0.0489
 3942SOL     OW23461   2.158   2.107   4.542  0.1348 -0.4168 -0.4695
 3942SOL    HW123462   2.191   2.076   4.457 -0.8575  0.0705 -1.0326
 3942SOL    HW223463   2.074   2.061   4.546 -1.1027  1.9374  0.4485
 3943SOL     OW23464   1.070   3.518   9.213 -0.8066  0.6137  0.5938
 3943SOL    HW123465   1.000   3.459   9.186  0.4528 -1.2865  1.5372
 3943SOL    HW223466   1.043   3.603   9.177 -0.2688 -0.5552 -2.5653
 3944SOL     OW23467   3.020   0.321  15.834 -0.2537  0.0679 -0.5532
 3944SOL    HW123468   3.091   0.377  15.862  0.0189 -0.6061  0.1017
 3944SOL    HW223469   2.946   0.381  15.843 -1.2914 -1.0221 -1.6348
 3945SOL     OW23470   3.865   1.548   3.570 -0.1578  0.1660  0.4641
 3945SOL    HW123471   3.832   1.458   3.573 -0.4068  0.2396  0.0277
 3945SOL    HW223472   3.911   1.552   3.486  1.2525 -3.0240  1.0694
 3946SOL     OW23473   1.908   2.177   2.197  0.6791  0.6958 -0.0711
 3946SOL    HW123474   1.890   2.209   2.108 -3.7536 -1.4773  0.0830
 3946SOL    HW223475   1.871   2.249   2.248 -1.4388  0.4556 -1.2640
 3947SOL     OW23476   0.923   3.944   6.838  0.2296  0.4101  0.8052
 3947SOL    HW123477   0.914   4.039   6.839  0.7869  0.4800 -0.9629
 3947SOL    HW223478   1.011   3.933   6.874  0.6794 -2.9833 -1.3753
 3948SOL     OW23479   1.463   1.768  10.326  0.2414 -0.0053 -0.4788
 3948SOL    HW123480   1.555   1.794  10.314  0.3078  0.0328  0.0980
 3948SOL    HW223481   1.452   1.682  10.285 -0.5625 -0.2848  0.3322
 3949SOL     OW23482   4.257   2.887   0.040 -0.3244  0.4794 -0.1328
 3949SOL    HW123483   4.268   2.877  17.686 -2.1883 -1.4670 -0.1242
 3949SOL    HW223484   4.306   2.810   0.068 -0.4668  0.8983  1.2836
 3950SOL     OW23485   2.498   3.261   3.310 -0.5216  0.5422 -0.5184
 3950SOL    HW123486   2.485   3.327   3.379  1.4172 -0.1181  0.4651
 3950SOL    HW223487   2.585   3.280   3.277 -0.8169 -0.4504 -1.8641
 3951SOL     OW23488   3.641   0.183   7.254 -0.4265  0.0698 -0.3649
 3951SOL    HW123489   3.605   0.166   7.341  1.5203 -2.5165 -0.0403
 3951SOL    HW223490   3.730   0.148   7.267 -1.0704 -1.1188  0.7895
 3952SOL     OW23491   0.420   2.790   1.376  0.0495 -0.5006 -0.2121
 3952SOL    HW123492   0.392   2.829   1.459  1.2767  1.0939 -0.5497
 3952SOL    HW223493   0.402   2.700   1.402  0.2604 -0.9898 -1.7611
 3953SOL     OW23494   3.317   0.699   4.345 -0.0433  0.4510  0.0655
 3953SOL    HW123495   3.249   0.713   4.279 -1.3391  1.0225  1.5164
 3953SOL    HW223496   3.266   0.695   4.426 -0.4793  0.1318 -0.2262
 3954SOL     OW23497   4.259   0.766  17.287 -0.3176  0.0834 -0.6764
 3954SOL    HW123498   4.280   0.693  17.345 -1.6598  0.4828  0.3203
 3954SOL    HW223499   4.249   0.733  17.198  1.2473 -1.8856 -0.1080
 3955SOL     OW23500   0.168   0.353   6.296  0.7546 -0.0106  0.8957
 3955SOL    HW123501   0.112   0.331   6.371 -0.1114 -1.6702 -0.2559
 3955SOL    HW223502   0.226   0.420   6.333  0.5395  0.5745  0.1925
 3956SOL     OW23503   0.471   3.266   9.971  0.1956 -0.2049 -0.0509
 3956SOL    HW123504   0.547   3.222   9.934 -1.3253 -1.3942 -1.7842
 3956SOL    HW223505   0.406   3.198   9.951 -0.1794  0.2515 -0.3789
 3957SOL     OW23506   4.455   3.680   0.761 -0.4590  0.0483 -0.2270
 3957SOL    HW123507   4.506   3.615   0.713  0.4657  1.1830 -0.7909
 3957SOL    HW223508   4.445   3.754   0.700  2.2196  0.7758  0.2087
 3958SOL     OW23509   1.496   2.594  16.583 -0.2171  0.2023  0.5468
 3958SOL    HW123510   1.480   2.513  16.535 -1.7442  1.7578 -1.5724
 3958SOL    HW223511   1.480   2.583  16.677 -1.4878  0.0045  0.3064
 3959SOL     OW23512   2.318   2.437   7.320 -0.0179  0.3862 -0.1378
 3959SOL    HW123513   2.326   2.345   7.293  3.6917  1.2809 -1.9762
 3959SOL    HW223514   2.379   2.429   7.393  0.9797  0.3758 -0.9776
 3960SOL     OW23515   0.986   3.831   8.356  0.5756 -0.2538  0.1936
 3960SOL    HW123516   1.033   3.834   8.272  2.1454 -0.8433  1.0539
 3960SOL    HW223517   0.977   3.923   8.382  2.0897 -0.6447  2.0874
 3961SOL     OW23518   0.916   0.225   4.906 -0.1113  0.2225 -0.1799
 3961SOL    HW123519   0.827   0.250   4.881  0.0620  0.8510 -0.1689
 3961SOL    HW223520   0.931   0.289   4.975  1.2661  0.9020 -1.1052
 3962SOL     OW23521   1.726   1.758   1.970  0.1850  0.4794  0.1943
 3962SOL    HW123522   1.690   1.774   2.057 -1.2832  1.3458 -0.5968
 3962SOL    HW223523   1.800   1.819   1.964  1.4261 -1.0147  0.1791
 3963SOL     OW23524   3.893   0.961   9.739 -0.4423  0.2157 -0.3506
 3963SOL    HW123525   3.897   0.969   9.644 -1.5913  0.3881 -0.3819
 3963SOL    HW223526   3.910   1.049   9.774 -0.9595  0.2727 -0.2429
 3964SOL     OW23527   1.173   1.821   6.193 -0.2489 -0.2934  0.0147
 3964SOL    HW123528   1.147   1.844   6.282  0.4568 -1.7926  0.6040
 3964SOL    HW223529   1.129   1.736   6.189 -0.0649 -0.3912  0.0744
 3965SOL     OW23530   0.153   4.689  17.325  0.4977 -0.4242 -0.2900
 3965SOL    HW123531   0.147   4.596  17.344 -1.3617 -0.2477 -0.0119
 3965SOL    HW223532   0.248   4.704  17.333  0.6657 -1.2994 -0.7153
 3966SOL     OW23533   0.086   0.416   0.329 -0.2165  0.3993 -0.2190
 3966SOL    HW123534   0.156   0.466   0.370  1.4283 -0.7720 -1.5923
 3966SOL    HW223535   0.051   0.366   0.403 -0.3712  2.3349  0.9953
 3967SOL     OW23536   0.637   4.643   8.214  0.0308  0.4424 -0.1142
 3967SOL    HW123537   0.555   4.688   8.193 -0.8035  0.2139  2.7171
 3967SOL    HW223538   0.689   4.692   8.151 -0.0056  1.7745  0.8884
 3968SOL     OW23539   0.525   3.679   0.488 -0.3634  0.6308 -0.0807
 3968SOL    HW123540   0.452   3.660   0.430  0.1890  0.9662 -0.8852
 3968SOL    HW223541   0.602   3.648   0.441 -0.6032 -0.5107  0.2897
 3969SOL     OW23542   3.806   0.597  15.464 -0.0681  0.0648 -0.2889
 3969SOL    HW123543   3.855   0.679  15.467  0.7485 -0.3480 -2.7545
 3969SOL    HW223544   3.751   0.606  15.542  1.6378  0.7648  0.8376
 3970SOL     OW23545   4.379   1.844   2.311  0.1360  0.1191 -0.6426
 3970SOL    HW123546   4.382   1.850   2.216  2.5125 -1.1385 -0.6586
 3970SOL    HW223547   4.296   1.796   2.313  1.4712 -2.2370 -0.9284
 3971SOL     OW23548   3.414   1.311   6.411 -0.7604  0.6894  0.1349
 3971SOL    HW123549   3.359   1.336   6.336 -1.4271  0.3487  0.5112
 3971SOL    HW223550   3.502   1.326   6.378 -0.4383 -3.1704 -0.6880
 3972SOL     OW23551   1.360   1.953   2.207  0.1313 -0.1013 -0.1706
 3972SOL    HW123552   1.288   1.952   2.144  0.1110 -0.6831 -0.1381
 3972SOL    HW223553   1.311   1.986   2.282 -0.0955  1.8265 -1.1637
 3973SOL     OW23554   1.361   4.300   8.059 -0.1197  0.4170 -0.0005
 3973SOL    HW123555   1.418   4.225   8.041 -1.4212 -0.1948 -1.6485
 3973SOL    HW223556   1.390   4.326   8.146 -0.1656 -0.6946  0.3441
 3974SOL     OW23557   0.339   0.356   3.904  0.4886  0.2027 -0.0544
 3974SOL    HW123558   0.288   0.389   3.978 -0.1105 -0.6141 -0.0978
 3974SOL    HW223559   0.427   0.386   3.929  0.8714 -0.9950  0.0701
 3975SOL     OW23560   2.187   0.118   9.160 -0.5548  1.1622 -0.1383
 3975SOL    HW123561   2.150   0.157   9.081 -1.0663  0.8825 -0.0361
 3975SOL    HW223562   2.109   0.101   9.212 -0.5782  0.3237 -0.4492
 3976SOL     OW23563   2.648   0.161   7.148 -0.0044 -0.0696  0.3654
 3976SOL    HW123564   2.623   0.228   7.085 -2.3938 -0.5770  0.7806
 3976SOL    HW223565   2.642   0.216   7.226 -3.2940  0.5946 -0.3433
 3977SOL     OW23566   2.828   0.434   8.177 -0.0585 -0.5880  0.0412
 3977SOL    HW123567   2.846   0.344   8.150 -2.6896 -1.0329 -0.1969
 3977SOL    HW223568   2.905   0.478   8.142  0.5267  0.4532  2.5813
 3978SOL     OW23569   3.823   2.065   3.591 -0.0428 -0.0123  0.3163
 3978SOL    HW123570   3.816   1.970   3.602  1.1630 -0.1119  0.2190
 3978SOL    HW223571   3.800   2.092   3.681 -0.8494 -0.6786  0.3050
 3979SOL     OW23572   2.462   1.949  15.477 -0.0296 -0.8588  0.2886
 3979SOL    HW123573   2.538   1.971  15.531 -0.7084  0.2157  0.7871
 3979SOL    HW223574   2.404   1.920  15.547 -2.2147  1.3607 -0.6166
 3980SOL     OW23575   1.923   1.925  11.518  0.0846 -0.2654  0.6774
 3980SOL    HW123576   1.920   1.978  11.438 -1.8434 -3.6757 -1.5181
 3980SOL    HW223577   1.902   1.836  11.490 -1.8167  0.5544 -0.5247
 3981SOL     OW23578   4.510   3.525  16.191  0.4307 -0.0720 -0.4745
 3981SOL    HW123579   4.573   3.533  16.120 -0.2361 -1.0082 -1.1666
 3981SOL    HW223580   4.443   3.474  16.146 -0.5714  0.9347 -0.1400
 3982SOL     OW23581   4.315   1.841   2.026 -0.4377 -0.2058  0.2150
 3982SOL    HW123582   4.395   1.823   1.978 -0.2576 -0.0255  0.4469
 3982SOL    HW223583   4.258   1.773   1.990 -0.7270  0.4328 -0.5346
 3983SOL     OW23584   0.416   2.069   1.251 -0.3224 -0.3257  0.0343
 3983SOL    HW123585   0.400   1.978   1.226 -0.4612  0.2269 -1.9545
 3983SOL    HW223586   0.423   2.117   1.168 -0.2089 -0.8153 -0.2452
 3984SOL     OW23587   4.102   2.750   6.157  0.1060  1.0682 -0.4924
 3984SOL    HW123588   4.172   2.815   6.148  2.3425 -1.1974  0.6986
 3984SOL    HW223589   4.141   2.682   6.103 -1.5797 -0.0248 -0.3239
 3985SOL     OW23590   1.977   0.692  11.741  0.1568 -0.8337 -0.3539
 3985SOL    HW123591   1.928   0.619  11.780 -1.3643  1.1105  1.3881
 3985SOL    HW223592   2.066   0.660  11.746  1.1838  1.8665 -1.0966
 3986SOL     OW23593   0.254   0.429   8.889  0.3773 -0.1104  0.3328
 3986SOL    HW123594   0.218   0.516   8.909  0.1215 -0.0493 -0.3779
 3986SOL    HW223595   0.230   0.384   8.970  1.3273  0.7420  1.1029
 3987SOL     OW23596   1.876   2.361   2.634  0.2962 -0.5298 -0.1510
 3987SOL    HW123597   1.811   2.425   2.664 -0.0436 -0.6682 -0.5932
 3987SOL    HW223598   1.900   2.410   2.555  0.6856 -1.6063 -0.6885
 3988SOL     OW23599   4.638   2.665  14.665 -0.0536  0.7396  0.4522
 3988SOL    HW123600   4.666   2.756  14.679  1.9023  0.3190 -0.6887
 3988SOL    HW223601   4.709   2.626  14.614  0.2084  0.9723  0.6406
 3989SOL     OW23602   2.694   4.370   8.464 -0.0513  0.1531 -0.2842
 3989SOL    HW123603   2.713   4.453   8.509  2.5304  0.1692 -1.3650
 3989SOL    HW223604   2.607   4.353   8.500 -0.3169  0.3982 -0.8084
 3990SOL     OW23605   1.869   1.152  11.293 -0.9562 -0.2219  0.1103
 3990SOL    HW123606   1.898   1.067  11.260  3.6480  1.1331  0.6917
 3990SOL    HW223607   1.892   1.143  11.386  0.4643  1.0373 -0.1144
 3991SOL     OW23608   2.670   3.529   6.125  0.6212  0.2585  0.3223
 3991SOL    HW123609   2.712   3.607   6.161  1.2322  0.6794 -1.3387
 3991SOL    HW223610   2.662   3.476   6.205  0.5964  0.6497  0.5783
 3992SOL     OW23611   1.809   3.491   5.947 -0.3571  0.3603 -0.0954
 3992SOL    HW123612   1.822   3.396   5.949  0.0390  0.4581  1.5978
 3992SOL    HW223613   1.765   3.496   5.862 -1.7509 -1.0545  0.5262
 3993SOL     OW23614   1.340   3.086   2.480 -0.0436 -0.5189 -0.5322
 3993SOL    HW123615   1.297   3.047   2.556 -1.2924  0.4925 -0.7029
 3993SOL    HW223616   1.262   3.134   2.450 -1.9231 -2.2203  1.6441
 3994SOL     OW23617   3.404   1.645  16.163  0.2747  0.3926  0.6071
 3994SOL    HW123618   3.357   1.648  16.080  2.2134  0.9549 -0.4689
 3994SOL    HW223619   3.434   1.555  16.156  1.5678  0.9115 -0.5335
 3995SOL     OW23620   4.159   1.494   5.848 -0.2011 -0.0617 -0.3966
 3995SOL    HW123621   4.238   1.548   5.843 -1.5166  1.7883 -1.2522
 3995SOL    HW223622   4.117   1.557   5.906 -0.0874 -0.1130 -0.2585
 3996SOL     OW23623   0.752   2.942   0.320  0.6448  0.0200  0.3488
 3996SOL    HW123624   0.840   2.973   0.343 -0.0414  0.2742  2.6439
 3996SOL    HW223625   0.785   2.855   0.298 -0.5506 -0.1509 -0.7926
 3997SOL     OW23626   2.849   4.330   4.610  0.1977 -0.5509 -0.6276
 3997SOL    HW123627   2.792   4.398   4.575  1.3908  1.3399  1.0944
 3997SOL    HW223628   2.870   4.268   4.540  0.8217 -0.1074 -0.8337
 3998SOL     OW23629   2.941   2.784   8.367 -0.2605  0.2896 -0.3300
 3998SOL    HW123630   2.999   2.858   8.349 -1.7900  1.4479 -0.5421
 3998SOL    HW223631   2.855   2.824   8.377 -0.2098  1.3451 -4.1162
 3999SOL     OW23632   2.041   3.818  11.666  0.1370 -0.2708 -1.0163
 3999SOL    HW123633   2.064   3.794  11.756  0.1722 -0.7460 -1.1517
 3999SOL    HW223634   2.092   3.759  11.612  0.2666 -0.3015 -0.8625
 4000SOL     OW23635   2.228   4.075   8.220  0.2137 -0.1080  0.0078
 4000SOL    HW123636   2.136   4.069   8.195  0.5812 -2.5045 -0.7299
 4000SOL    HW223637   2.227   4.166   8.250 -1.1295 -0.2074  0.2482
 4001SOL     OW23638   0.164   2.531   8.964  0.1984  0.2871  0.7348
 4001SOL    HW123639   0.232   2.533   9.032  1.4677 -1.3166 -0.5071
 4001SOL    HW223640   0.105   2.483   9.023  0.2804  0.0086  0.5889
 4002SOL     OW23641   0.244   2.263   1.358 -0.2623  0.1657 -0.5283
 4002SOL    HW123642   0.315   2.211   1.321 -0.7320  0.1129 -1.3586
 4002SOL    HW223643   0.225   2.215   1.439 -0.2981  0.9758 -0.0534
 4003SOL     OW23644   3.386   2.457   3.888 -0.2705 -0.2871 -0.6813
 4003SOL    HW123645   3.328   2.387   3.859  0.8206 -1.7314  0.5370
 4003SOL    HW223646   3.358   2.541   3.853  0.6358  0.3812  0.1887
 4004SOL     OW23647   4.339   3.982  10.050  0.5240 -0.2143 -0.2487
 4004SOL    HW123648   4.263   3.946  10.095  0.5578 -0.2775 -0.2421
 4004SOL    HW223649   4.325   3.949   9.961  4.0343  0.9841 -1.2180
 4005SOL     OW23650   4.251   0.602   6.403 -0.1517 -0.0965 -0.0328
 4005SOL    HW123651   4.237   0.508   6.390  0.0891 -0.5410  2.8633
 4005SOL    HW223652   4.317   0.624   6.337  0.3940  0.9299  0.8560
 4006SOL     OW23653   3.310   4.190   8.063  0.3649 -0.8476 -0.4443
 4006SOL    HW123654   3.361   4.179   7.984 -1.9439 -2.1842 -1.7457
 4006SOL    HW223655   3.320   4.106   8.107 -0.1941 -0.5115  0.3403
 4007SOL     OW23656   0.118   0.632   4.432 -0.4886 -0.2048  0.5480
 4007SOL    HW123657   0.041   0.605   4.383  1.2357 -0.9201 -1.7545
 4007SOL    HW223658   0.159   0.546   4.423  0.0677  0.0462  0.6464
 4008SOL     OW23659   3.617   1.404   5.579 -0.2954 -0.4708  0.3579
 4008SOL    HW123660   3.665   1.444   5.651  0.2449 -0.0390 -0.2397
 4008SOL    HW223661   3.543   1.364   5.624  0.3634 -3.5359 -1.2450
 4009SOL     OW23662   4.508   2.373   2.606  0.1329 -0.2472 -0.1400
 4009SOL    HW123663   4.413   2.366   2.603  0.0176  1.5445 -0.4439
 4009SOL    HW223664   4.530   2.317   2.680  0.3290  0.3564  0.2548
 4010SOL     OW23665   2.572   2.397  16.009  0.3030  0.4163  0.5275
 4010SOL    HW123666   2.484   2.434  16.005 -1.0931 -3.0047  0.0685
 4010SOL    HW223667   2.564   2.370  15.918  1.1967 -0.2888  0.6599
 4011SOL     OW23668   3.601   4.378   2.054 -0.2454  0.1635 -0.4197
 4011SOL    HW123669   3.570   4.289   2.042 -0.1088  0.2954 -1.8047
 4011SOL    HW223670   3.552   4.428   1.988  1.3162  1.6558 -0.4486
 4012SOL     OW23671   3.503   3.513   7.756 -0.2254 -0.2427 -0.2578
 4012SOL    HW123672   3.463   3.426   7.752 -0.1496 -0.2060 -1.7205
 4012SOL    HW223673   3.463   3.560   7.829 -0.4729  0.5707 -0.9205
 4013SOL     OW23674   1.029   0.234   2.523 -0.3855  0.0875  0.0446
 4013SOL    HW123675   1.026   0.329   2.514 -2.0070 -0.0897 -1.2305
 4013SOL    HW223676   0.953   0.210   2.470 -1.4318  1.5022  0.9135
 4014SOL     OW23677   1.276   0.258   3.503 -0.2526 -0.3704  0.1492
 4014SOL    HW123678   1.365   0.290   3.493  0.0663 -1.3279 -0.0060
 4014SOL    HW223679   1.264   0.236   3.596 -1.8840  0.0586  0.0484
 4015SOL     OW23680   1.516   3.578   7.071  0.0627  0.0387  0.1029
 4015SOL    HW123681   1.507   3.513   7.141 -2.7342  0.4495  0.0983
 4015SOL    HW223682   1.557   3.526   7.002 -1.8748 -0.4574 -0.6666
 4016SOL     OW23683   1.738   2.547   6.246  0.1641  0.0470 -0.5042
 4016SOL    HW123684   1.670   2.522   6.183  0.8832  0.6981 -1.5430
 4016SOL    HW223685   1.798   2.473   6.246  3.2247  2.5358  0.5459
 4017SOL     OW23686   2.901   2.460   2.710  0.1046 -0.2563  0.1318
 4017SOL    HW123687   2.838   2.398   2.673 -0.2963 -0.4249  1.0952
 4017SOL    HW223688   2.849   2.515   2.768 -0.5210  0.2328 -0.8764
 4018SOL     OW23689   0.994   3.249   8.352 -0.1319  0.5172  0.2954
 4018SOL    HW123690   0.972   3.159   8.376  1.7111 -0.4626 -1.7100
 4018SOL    HW223691   0.923   3.271   8.292 -0.2384  3.7052  1.5372
 4019SOL     OW23692   0.614   4.388   2.709  0.6077  0.2269  1.0932
 4019SOL    HW123693   0.699   4.391   2.752  1.4467  3.1333 -0.7424
 4019SOL    HW223694   0.561   4.427   2.779 -1.0549  0.5728 -0.3511
 4020SOL     OW23695   4.003   1.898   8.216  0.2045  0.0964  0.2810
 4020SOL    HW123696   4.052   1.818   8.199  0.3503  0.8268 -2.7051
 4020SOL    HW223697   3.912   1.869   8.208 -0.1024  0.9671  0.5899
 4021SOL     OW23698   4.210   1.064  14.482  0.6016 -0.7670  0.0654
 4021SOL    HW123699   4.214   1.157  14.459  2.6240 -0.8935 -0.1553
 4021SOL    HW223700   4.261   1.027  14.410 -1.5075 -0.3368 -1.6416
 4022SOL     OW23701   0.864   3.579   6.338  0.3591  0.4774 -0.8831
 4022SOL    HW123702   0.853   3.616   6.251 -1.8714  0.4638 -0.6238
 4022SOL    HW223703   0.918   3.644   6.384 -0.7236 -1.1273  2.6326
 4023SOL     OW23704   2.675   1.346   3.787 -0.2531  0.0048 -0.4754
 4023SOL    HW123705   2.702   1.346   3.695 -0.5988  0.5878 -0.5786
 4023SOL    HW223706   2.732   1.410   3.829 -1.4162 -0.1841  1.3618
 4024SOL     OW23707   0.274   3.999   1.800 -0.1181 -0.2526 -0.2187
 4024SOL    HW123708   0.188   3.983   1.762  0.2598 -0.5077 -0.9515
 4024SOL    HW223709   0.273   3.937   1.872  1.7982 -1.1238 -0.9548
 4025SOL     OW23710   0.007   4.089   6.427  0.3363 -0.4956 -0.5768
 4025SOL    HW123711   0.038   4.180   6.420  0.1701 -0.2566  1.7645
 4025SOL    HW223712   0.055   4.054   6.501 -0.1471  1.4953  0.6808
 4026SOL     OW23713   1.424   3.118  11.897  0.4553 -0.0613 -0.1146
 4026SOL    HW123714   1.483   3.125  11.822  1.2725  0.0275  0.5341
 4026SOL    HW223715   1.482   3.152  11.965 -1.7502  2.1149  0.7002
 4027SOL     OW23716   2.234   0.641  14.615  0.3325  0.3055 -0.2492
 4027SOL    HW123717   2.226   0.561  14.562 -0.5870 -0.3468  0.8807
 4027SOL    HW223718   2.316   0.624  14.662  0.2149  1.2990  0.3145
 4028SOL     OW23719   4.353   4.228  10.360 -0.8161  0.2682  0.2100
 4028SOL    HW123720   4.313   4.309  10.391 -0.2464  0.8520 -0.5947
 4028SOL    HW223721   4.350   4.182  10.444 -0.7839  0.8096  0.5077
 4029SOL     OW23722   4.086   2.835   8.497  0.2565  0.1073 -0.1034
 4029SOL    HW123723   4.154   2.776   8.466  0.8202  1.5618 -1.6157
 4029SOL    HW223724   4.054   2.875   8.416 -1.5919  0.9389  1.0389
 4030SOL     OW23725   2.630   0.585   4.410  0.1716 -0.0037  0.3309
 4030SOL    HW123726   2.701   0.540   4.456 -1.0701 -1.9210  0.3452
 4030SOL    HW223727   2.640   0.556   4.319  0.2386  1.1542 -0.0405
 4031SOL     OW23728   2.361   1.353  12.899  0.4031 -0.1873 -0.6933
 4031SOL    HW123729   2.303   1.423  12.931 -0.5681 -0.7279 -1.2605
 4031SOL    HW223730   2.321   1.277  12.940  2.1112  0.2117  1.7043
 4032SOL     OW23731   4.298   3.201   1.877  0.5939  0.3814  0.4028
 4032SOL    HW123732   4.236   3.251   1.824 -1.8317 -0.4914  2.4520
 4032SOL    HW223733   4.327   3.260   1.946  0.3811  2.5176 -1.3278
 4033SOL     OW23734   4.241   2.443   7.394  0.2036 -0.3340 -0.1122
 4033SOL    HW123735   4.191   2.364   7.417 -1.8155  1.3447  1.2761
 4033SOL    HW223736   4.286   2.414   7.315 -0.0606  2.1141 -1.1448
 4034SOL     OW23737   4.721   4.093   7.609  0.0742 -0.1378 -0.2980
 4034SOL    HW123738   4.633   4.129   7.621  0.7169  0.9333  1.3061
 4034SOL    HW223739   0.013   4.082   7.700 -3.1385 -0.1294  0.6686
 4035SOL     OW23740   3.853   0.277  11.746 -0.6772  0.3654 -0.6005
 4035SOL    HW123741   3.811   0.194  11.728 -0.4396  0.8791 -3.6234
 4035SOL    HW223742   3.865   0.307  11.655  2.4653  2.5585  0.5170
 4036SOL     OW23743   2.161   0.109   4.080 -0.5769 -0.0259 -0.0505
 4036SOL    HW123744   2.254   0.114   4.062 -0.4154  1.3807  1.1507
 4036SOL    HW223745   2.159   0.074   4.169  1.2315  0.0972  0.0276
 4037SOL     OW23746   3.764   3.888   3.826  0.1320  0.2593 -0.2589
 4037SOL    HW123747   3.855   3.897   3.799  0.0065  0.6466 -0.5509
 4037SOL    HW223748   3.717   3.963   3.791  1.2723  0.3015 -1.6848
 4038SOL     OW23749   1.303   1.568   6.335  0.2044  0.1982 -0.3187
 4038SOL    HW123750   1.269   1.636   6.393 -1.5117 -1.2465  0.4041
 4038SOL    HW223751   1.246   1.495   6.361  1.1505 -0.6251 -0.5749
 4039SOL     OW23752   4.410   4.554   0.203 -0.0222 -0.1463  0.3303
 4039SOL    HW123753   4.491   4.525   0.161  0.9911  0.2262  2.0172
 4039SOL    HW223754   4.362   4.584   0.126 -2.2110  0.4716  1.9061
 4040SOL     OW23755   1.432   2.762   0.575  0.4707 -0.1280 -0.0495
 4040SOL    HW123756   1.455   2.670   0.569  0.5693 -0.2225  2.0746
 4040SOL    HW223757   1.499   2.805   0.521  1.7202 -0.6047  1.1304
 4041SOL     OW23758   3.268   3.147   1.027  0.2638  0.9545 -0.4344
 4041SOL    HW123759   3.356   3.122   1.055  0.0540  0.0552 -0.5738
 4041SOL    HW223760   3.292   3.221   0.973  2.9393  1.0986  0.9729
 4042SOL     OW23761   3.645   0.884   9.815 -0.1389  0.1101  0.1681
 4042SOL    HW123762   3.630   0.860   9.724  1.0352  0.6838 -0.1857
 4042SOL    HW223763   3.737   0.910   9.812  0.4315 -2.1126 -1.7785
 4043SOL     OW23764   0.983   1.734   8.629  0.3846 -0.2063  0.1554
 4043SOL    HW123765   1.022   1.698   8.549 -1.6187  0.7789 -1.2666
 4043SOL    HW223766   1.030   1.692   8.701  0.2445  1.6581  1.3307
 4044SOL     OW23767   3.041   4.700   3.126  0.1471  0.2226  0.1491
 4044SOL    HW123768   3.028   0.037   3.187  0.0064  0.1915  0.1542
 4044SOL    HW223769   3.102   4.642   3.172  1.7416  1.7050 -0.0997
 4045SOL     OW23770   1.564   3.401   0.687  0.1604  0.1759  0.4989
 4045SOL    HW123771   1.533   3.490   0.673  1.4201  0.7811  1.4537
 4045SOL    HW223772   1.509   3.376   0.761 -0.6696 -0.8629 -0.4666
 4046SOL     OW23773   0.173   3.922   6.184  0.0610 -0.2068  0.7070
 4046SOL    HW123774   0.206   3.945   6.271 -0.9995  1.3344  0.7092
 4046SOL    HW223775   0.160   4.014   6.160 -0.7655 -0.1688  1.3301
 4047SOL     OW23776   3.696   2.592   4.413 -0.1091 -0.5686  0.4230
 4047SOL    HW123777   3.742   2.512   4.438 -0.4670 -1.2042 -0.9366
 4047SOL    HW223778   3.629   2.603   4.480 -0.2089  1.4116 -0.0011
 4048SOL     OW23779   3.089   3.669   4.350  0.2433  0.2015  0.3343
 4048SOL    HW123780   3.149   3.671   4.275  1.6354  1.3011  1.4795
 4048SOL    HW223781   3.131   3.597   4.397  1.8663 -0.3081 -1.8475
 4049SOL     OW23782   2.797   2.599  16.294 -0.6968  0.5961  0.0898
 4049SOL    HW123783   2.855   2.603  16.218  0.0579  1.2549  0.7022
 4049SOL    HW223784   2.813   2.511  16.329  0.5188 -0.2707 -2.5594
 4050SOL     OW23785   3.298   0.579   5.786  0.0332 -0.7944 -0.1781
 4050SOL    HW123786   3.273   0.515   5.853  2.3513  0.7893  2.2005
 4050SOL    HW223787   3.210   0.618   5.786  1.5194  2.5121 -1.9638
 4051SOL     OW23788   2.792   3.949   8.582 -0.2166 -0.1933 -0.0917
 4051SOL    HW123789   2.703   3.915   8.593 -1.2050  2.5831  0.4409
 4051SOL    HW223790   2.809   3.934   8.489  1.3936  0.3860  0.1011
 4052SOL     OW23791   1.564   4.488   5.145  0.4900 -0.2640  0.4669
 4052SOL    HW123792   1.491   4.518   5.199  2.0822  1.8293  1.4384
 4052SOL    HW223793   1.638   4.535   5.185  0.4442 -1.3515  1.8148
 4053SOL     OW23794   0.599   4.719   0.763 -0.4704  0.0501  0.2042
 4053SOL    HW123795   0.652   0.001   0.840 -0.8416 -0.0789  0.4895
 4053SOL    HW223796   0.651   4.660   0.708  2.6667  1.8694  1.2651
 4054SOL     OW23797   1.474   0.969   9.245 -0.0444 -0.1468  0.0783
 4054SOL    HW123798   1.506   1.057   9.264  1.7459 -0.9004  0.5288
 4054SOL    HW223799   1.450   0.982   9.153 -0.1051 -3.8489 -0.4332
 4055SOL     OW23800   2.928   2.104   2.335  0.2255 -0.1975 -0.0745
 4055SOL    HW123801   2.951   2.074   2.423 -0.1372 -3.0488 -0.9323
 4055SOL    HW223802   2.905   2.196   2.349  0.7652 -0.3744  1.9597
 4056SOL     OW23803   2.205   0.950  12.662  0.0353 -0.7042  0.1416
 4056SOL    HW123804   2.220   0.916  12.750  1.5218  0.2576  0.2641
 4056SOL    HW223805   2.164   0.878  12.614 -1.7608  0.4898 -0.1228
 4057SOL     OW23806   2.538   4.480   1.179 -1.0511 -0.7965 -0.4226
 4057SOL    HW123807   2.580   4.431   1.250  1.6003  1.8939 -0.1063
 4057SOL    HW223808   2.446   4.460   1.194 -2.1610  2.2668 -3.0719
 4058SOL     OW23809   0.164   3.674   1.505 -0.4789  0.1895  0.3563
 4058SOL    HW123810   0.109   3.617   1.452 -0.7091  1.0307 -0.2988
 4058SOL    HW223811   0.098   3.729   1.547 -0.7900 -1.1122  1.5906
 4059SOL     OW23812   2.258   4.123  12.541 -0.1092 -0.0652 -0.6826
 4059SOL    HW123813   2.268   4.034  12.576 -0.7340 -0.0690 -0.5080
 4059SOL    HW223814   2.294   4.170  12.616  1.9961  1.2782 -2.5404
 4060SOL     OW23815   2.896   2.779   3.069  0.8565 -0.6837 -0.2433
 4060SOL    HW123816   2.820   2.837   3.060  0.9617 -0.2804  1.4929
 4060SOL    HW223817   2.949   2.812   2.997  1.3750  0.1709  0.5370
 4061SOL     OW23818   1.007   0.627   2.909  0.0845  0.4924  0.2166
 4061SOL    HW123819   1.057   0.548   2.892 -2.0519 -1.1258  1.5924
 4061SOL    HW223820   1.081   0.688   2.901  1.3616 -1.0683  0.2706
 4062SOL     OW23821   3.038   0.482   6.030  0.4407 -0.1665  0.4165
 4062SOL    HW123822   3.070   0.432   6.105 -0.0998 -1.0387  0.0668
 4062SOL    HW223823   2.981   0.419   5.987  2.6635 -0.6912 -1.7776
 4063SOL     OW23824   0.072   3.580   5.898  0.6247 -0.1449  0.0003
 4063SOL    HW123825   4.731   3.530   5.927 -0.7476  1.1427 -1.4152
 4063SOL    HW223826   0.035   3.657   5.854 -0.0667 -0.3376  0.2404
 4064SOL     OW23827   1.354   4.308  13.468 -0.3237 -0.2567  0.9283
 4064SOL    HW123828   1.298   4.231  13.455  1.2331 -0.8063 -2.6094
 4064SOL    HW223829   1.312   4.376  13.415  0.5888 -2.5475 -2.7422
 4065SOL     OW23830   3.650   3.839   2.026 -0.0274 -0.1962 -0.4003
 4065SOL    HW123831   3.682   3.756   2.061 -1.4329  0.3278  2.1632
 4065SOL    HW223832   3.696   3.897   2.086  1.1068  0.8317 -2.2799
 4066SOL     OW23833   2.399   2.041  13.613 -0.0144  0.7010 -0.3092
 4066SOL    HW123834   2.329   2.064  13.674  0.3374  1.0515 -0.0331
 4066SOL    HW223835   2.457   2.116  13.629  0.9693 -0.2967  0.7513
 4067SOL     OW23836   2.840   1.521   5.940  0.6959  0.1898  0.2544
 4067SOL    HW123837   2.817   1.612   5.925  2.0691  0.4169 -0.5094
 4067SOL    HW223838   2.764   1.489   5.987  1.0548  1.3503  1.6068
 4068SOL     OW23839   0.104   0.210   4.850 -0.3462  0.4429  0.1902
 4068SOL    HW123840   0.056   0.249   4.923  2.7959  0.0536  2.5006
 4068SOL    HW223841   0.102   0.117   4.873 -0.1065 -0.2780 -2.8176
 4069SOL     OW23842   2.658   4.089   2.514  0.5336  0.1959  0.6734
 4069SOL    HW123843   2.674   4.181   2.495 -0.3190  0.1388 -0.3060
 4069SOL    HW223844   2.678   4.071   2.606 -1.1301 -0.2398  0.9367
 4070SOL     OW23845   2.274   1.042   4.035 -0.3160  0.1504  0.1810
 4070SOL    HW123846   2.219   1.058   4.112 -1.1153  0.2480 -0.4066
 4070SOL    HW223847   2.344   1.107   4.036  1.0276 -1.3081  0.5530
 4071SOL     OW23848   4.605   1.702   5.945 -0.6200  0.3993  0.6156
 4071SOL    HW123849   4.648   1.763   5.885  0.9151 -0.2339  1.0759
 4071SOL    HW223850   4.561   1.766   6.001 -0.2541  0.5386  0.7465
 4072SOL     OW23851   1.249   4.642   7.304 -0.4462 -0.3892 -0.1268
 4072SOL    HW123852   1.202   4.595   7.372  0.4538  0.0557  0.8050
 4072SOL    HW223853   1.308   4.694   7.358  0.3983 -2.5667  1.0311
 4073SOL     OW23854   2.071   2.874   8.311  0.4914  0.2234  0.4137
 4073SOL    HW123855   2.045   2.801   8.367 -0.3634  0.2946  0.1072
 4073SOL    HW223856   2.042   2.944   8.370 -2.3665 -0.2781 -0.4185
 4074SOL     OW23857   1.528   3.047  10.499 -0.1816 -0.4055 -0.5780
 4074SOL    HW123858   1.559   2.958  10.520 -0.6632 -0.1659  1.1179
 4074SOL    HW223859   1.453   3.058  10.557  2.6962  1.8976  2.7287
 4075SOL     OW23860   3.339   2.749   5.534  0.3211 -0.0255 -0.5003
 4075SOL    HW123861   3.322   2.662   5.571  0.0809  0.4306  0.4354
 4075SOL    HW223862   3.404   2.732   5.466 -0.1718 -0.7291 -0.7958
 4076SOL     OW23863   2.819   4.320   9.533 -0.2605  0.6838  0.2255
 4076SOL    HW123864   2.903   4.311   9.577 -0.8846  0.9603  1.4778
 4076SOL    HW223865   2.813   4.414   9.518 -2.0004 -0.0034 -3.2505
 4077SOL     OW23866   3.004   1.137   9.146  0.0548  0.0631 -0.0913
 4077SOL    HW123867   3.071   1.198   9.178  0.2267  0.3794 -1.0667
 4077SOL    HW223868   2.926   1.177   9.185  0.5487  1.5911 -0.6530
 4078SOL     OW23869   0.461   0.782   5.740 -0.1728  0.2574  0.0660
 4078SOL    HW123870   0.474   0.766   5.833  1.2798 -2.0523 -0.5220
 4078SOL    HW223871   0.410   0.863   5.739  0.7014  0.8287  1.5693
 4079SOL     OW23872   4.098   3.587   6.967 -0.0090 -0.2902  0.1237
 4079SOL    HW123873   4.023   3.551   6.920 -1.0429  3.0566 -0.8268
 4079SOL    HW223874   4.065   3.672   6.997  1.0721 -0.7268  2.5090
 4080SOL     OW23875   2.191   1.954  16.683 -0.0934  0.1178 -0.1180
 4080SOL    HW123876   2.157   2.005  16.756 -1.4661  1.3602 -1.6406
 4080SOL    HW223877   2.137   1.875  16.689  0.6062 -0.5080 -2.1462
 4081SOL     OW23878   3.775   1.460   2.195 -0.1075  0.5939  0.1052
 4081SOL    HW123879   3.796   1.403   2.268 -1.0047 -0.8524 -0.7718
 4081SOL    HW223880   3.854   1.440   2.144  0.1676  0.5239  0.5643
 4082SOL     OW23881   2.425   3.261  16.201 -0.3977  0.6108 -0.2228
 4082SOL    HW123882   2.392   3.211  16.127 -0.9529 -0.6573  0.8817
 4082SOL    HW223883   2.446   3.185  16.256 -1.8074 -0.2018 -0.8097
 4083SOL     OW23884   1.376   2.859   8.988 -0.2106 -0.1416 -0.6522
 4083SOL    HW123885   1.383   2.804   9.067 -0.2951  0.2088 -0.4015
 4083SOL    HW223886   1.462   2.830   8.958 -0.0071 -0.1128 -0.1094
 4084SOL     OW23887   3.317   4.171  17.601  0.2256 -0.0577  0.2149
 4084SOL    HW123888   3.273   4.090  17.576 -4.1061  2.1121  0.6575
 4084SOL    HW223889   3.402   4.157  17.559 -0.3770 -0.9782 -0.7102
 4085SOL     OW23890   1.117   0.375   3.986 -0.0094 -0.6047 -0.2834
 4085SOL    HW123891   1.170   0.385   4.065 -2.7717 -3.1163  1.8778
 4085SOL    HW223892   1.056   0.305   4.008 -1.0999  0.2534 -0.5756
 4086SOL     OW23893   2.507   2.669  12.625 -0.7015  0.2365  0.5220
 4086SOL    HW123894   2.494   2.594  12.568 -0.8114 -0.7261  1.8057
 4086SOL    HW223895   2.599   2.687  12.605 -1.4093  1.3765 -1.7264
 4087SOL     OW23896   1.424   4.636  11.959  1.0224  0.3136  0.5126
 4087SOL    HW123897   1.381   4.715  11.991  0.5159 -0.5853  2.0194
 4087SOL    HW223898   1.364   4.598  11.894  1.5816  1.9531 -0.9947
 4088SOL     OW23899   3.634   2.980  10.349  0.0363 -0.2322  0.3237
 4088SOL    HW123900   3.656   3.066  10.314 -0.6900 -1.4284 -3.0753
 4088SOL    HW223901   3.583   2.995  10.428 -1.6327  1.0716 -0.9980
 4089SOL     OW23902   3.376   3.196   5.997 -0.3100  0.3169 -0.8159
 4089SOL    HW123903   3.372   3.289   6.020 -0.4511 -0.3581  1.8736
 4089SOL    HW223904   3.322   3.168   6.071  1.0587  0.6134  0.2944
 4090SOL     OW23905   2.678   0.319  11.608 -0.3867 -0.1511  0.3696
 4090SOL    HW123906   2.630   0.374  11.670 -0.5816 -1.2367  1.1746
 4090SOL    HW223907   2.675   0.238  11.659  1.0582 -2.6745 -3.5943
 4091SOL     OW23908   4.371   4.700  17.108 -0.9938 -0.7286 -0.1813
 4091SOL    HW123909   4.423   4.620  17.108 -0.3157 -0.2799  2.5560
 4091SOL    HW223910   4.397   0.010  17.027 -1.0851 -0.1617  0.1124
 4092SOL     OW23911   1.625   1.626   3.812  0.8220 -0.1999 -0.7752
 4092SOL    HW123912   1.679   1.688   3.762 -0.3675  2.7737  1.6142
 4092SOL    HW223913   1.685   1.553   3.821 -1.3034 -1.7414  0.8738
 4093SOL     OW23914   0.972   3.261   2.698 -0.3905  0.2189  0.7124
 4093SOL    HW123915   1.052   3.313   2.695  0.3704 -1.0627 -1.2855
 4093SOL    HW223916   0.921   3.299   2.626  0.7723 -0.8351 -0.6731
 4094SOL     OW23917   3.159   0.599   0.552 -0.1806 -0.0398 -0.2418
 4094SOL    HW123918   3.100   0.568   0.620  0.2001  2.7106  1.3424
 4094SOL    HW223919   3.164   0.693   0.571 -0.5745 -0.0319 -0.1683
 4095SOL     OW23920   0.070   3.194   2.805 -0.4955  0.4780 -0.1536
 4095SOL    HW123921   4.722   3.176   2.762  0.4875 -1.7953 -1.0819
 4095SOL    HW223922   0.097   3.111   2.844 -0.1553  1.7305  2.3048
 4096SOL     OW23923   4.362   2.559   3.108 -0.1054 -0.9200 -0.1569
 4096SOL    HW123924   4.367   2.611   3.188  1.4549 -0.4419 -0.5516
 4096SOL    HW223925   4.287   2.601   3.065 -0.2880  1.1600  2.2234
 4097SOL     OW23926   0.017   0.811  14.824  0.6519  0.1755 -0.4338
 4097SOL    HW123927   0.108   0.787  14.840  0.8021  1.0781  0.0587
 4097SOL    HW223928   4.705   0.750  14.880 -0.6839 -1.2229 -3.0767
 4098SOL     OW23929   2.694   3.112   1.986  0.2477  0.1574  0.4368
 4098SOL    HW123930   2.608   3.091   1.950 -0.0433  6.1135 -2.2583
 4098SOL    HW223931   2.752   3.053   1.938 -1.6600 -1.6854  0.3944
 4099SOL     OW23932   3.334   2.885   7.690  0.2369 -0.3469  0.1969
 4099SOL    HW123933   3.360   2.936   7.613 -1.3187 -2.5134 -1.7704
 4099SOL    HW223934   3.239   2.882   7.695  0.1751 -0.4320 -0.8672
 4100SOL     OW23935   0.812   3.593   0.582 -0.1617 -0.1109 -0.3269
 4100SOL    HW123936   0.900   3.626   0.560 -0.1981 -0.7929 -1.5143
 4100SOL    HW223937   0.779   3.564   0.497  1.1505  0.2922 -0.9926
 4101SOL     OW23938   1.562   0.498   6.932  0.1508 -0.0817 -0.2625
 4101SOL    HW123939   1.573   0.403   6.941 -2.0765 -0.3916 -0.6803
 4101SOL    HW223940   1.653   0.516   6.911  0.1565  3.0545  2.3376
 4102SOL     OW23941   0.608   0.798   2.981 -0.7541  0.0838 -0.2184
 4102SOL    HW123942   0.544   0.769   2.916 -0.6042 -0.4981 -0.1069
 4102SOL    HW223943   0.673   0.728   2.973 -0.3634  0.5885 -1.4990
 4103SOL     OW23944   4.551   4.627   7.089  0.1828 -0.5364  0.7276
 4103SOL    HW123945   4.555   4.535   7.062  1.8706  0.2541 -1.6936
 4103SOL    HW223946   4.597   4.667   7.015 -0.6836 -0.7143  0.0933
 4104SOL     OW23947   3.786   0.174   3.766 -0.5172 -0.0280  0.0395
 4104SOL    HW123948   3.745   0.101   3.720 -0.2976 -0.6800  0.8728
 4104SOL    HW223949   3.880   0.156   3.756 -0.7637 -1.5645  0.5002
 4105SOL     OW23950   1.938   3.827   2.870 -0.4162 -0.1327  0.3217
 4105SOL    HW123951   1.954   3.758   2.934 -1.6572 -0.7204 -0.0033
 4105SOL    HW223952   2.004   3.891   2.895 -0.1496 -0.3281  0.1147
 4106SOL     OW23953   1.452   2.751   0.903  0.1488  0.1638 -0.3603
 4106SOL    HW123954   1.486   2.687   0.840  1.9977  0.2992  0.5219
 4106SOL    HW223955   1.532   2.799   0.924  0.4300 -0.8865  0.9631
 4107SOL     OW23956   4.310   4.325   7.254  0.3576  0.0325 -0.1422
 4107SOL    HW123957   4.390   4.369   7.284 -1.1327  2.2067  0.6711
 4107SOL    HW223958   4.273   4.295   7.337  0.2174 -1.8214 -0.8744
 4108SOL     OW23959   2.064   3.042   8.520 -0.2802 -0.3673  0.5926
 4108SOL    HW123960   2.134   3.099   8.487 -1.0205 -0.9009 -1.9104
 4108SOL    HW223961   2.077   3.056   8.614 -2.5048  1.8003  0.5722
 4109SOL     OW23962   2.410   2.562   3.867  0.8384 -0.5208  0.1894
 4109SOL    HW123963   2.417   2.608   3.784 -0.0776  0.5377  0.7045
 4109SOL    HW223964   2.353   2.622   3.914  0.6013 -0.7219  0.1574
 4110SOL     OW23965   1.911   2.694   4.277  0.6670  0.4830  0.7603
 4110SOL    HW123966   1.978   2.755   4.308  0.7157  0.1827  1.2349
 4110SOL    HW223967   1.953   2.624   4.227  0.1586  0.2939  0.6057
 4111SOL     OW23968   4.712   1.828  13.889  0.4807 -0.2037  0.3731
 4111SOL    HW123969   4.618   1.843  13.890  0.0580 -2.7739 -0.9917
 4111SOL    HW223970   4.711   1.772  13.811  0.8724 -0.0798  0.2804
 4112SOL     OW23971   2.397   1.428   2.155  0.0287  0.3783 -0.3232
 4112SOL    HW123972   2.452   1.426   2.077  1.5861 -1.7066  0.8444
 4112SOL    HW223973   2.316   1.464   2.118 -0.7476 -1.2547 -0.2177
 4113SOL     OW23974   0.013   1.604   7.840 -0.3432  0.3800  0.2209
 4113SOL    HW123975   0.065   1.655   7.778 -0.7629  0.6290  0.0714
 4113SOL    HW223976   0.028   1.656   7.919 -3.9577 -0.4958  1.4803
 4114SOL     OW23977   3.869   3.661   4.712  0.1283 -0.3277 -0.1171
 4114SOL    HW123978   3.806   3.675   4.641 -1.1264 -1.1502  0.8534
 4114SOL    HW223979   3.929   3.592   4.683 -0.2581 -1.4911  1.8556
 4115SOL     OW23980   1.402   1.323   3.685 -0.3457 -0.2103 -0.3535
 4115SOL    HW123981   1.319   1.325   3.734  0.4305 -0.8764  0.9839
 4115SOL    HW223982   1.452   1.248   3.718  3.0486  1.6608 -1.2561
 4116SOL     OW23983   3.421   3.015   7.467  0.0767  0.7006  0.2582
 4116SOL    HW123984   3.446   3.105   7.486 -0.3040  1.1006 -1.1870
 4116SOL    HW223985   3.353   3.018   7.400  0.0441 -0.1024  0.2528
 4117SOL     OW23986   0.255   3.205   1.343  0.5845  0.5283  0.1430
 4117SOL    HW123987   0.281   3.125   1.298  1.2498  0.7015  0.2294
 4117SOL    HW223988   0.224   3.159   1.421 -1.0172  1.0350 -0.1903
 4118SOL     OW23989   4.234   2.508   2.228  0.0417 -0.5450  0.3388
 4118SOL    HW123990   4.212   2.601   2.219 -1.0150 -0.9047 -0.7113
 4118SOL    HW223991   4.151   2.479   2.192  0.2958 -2.1445  1.0523
 4119SOL     OW23992   1.335   0.301   7.548 -0.1902  0.0211  0.5379
 4119SOL    HW123993   1.240   0.291   7.561  0.3731 -2.1298  2.9637
 4119SOL    HW223994   1.360   0.208   7.551 -0.2325  0.0495  1.6448
 4120SOL     OW23995   2.876   1.879   6.545  0.4557  0.4575  0.1300
 4120SOL    HW123996   2.832   1.962   6.525 -0.4231  0.0539  0.3822
 4120SOL    HW223997   2.906   1.845   6.460  0.6727  0.7799  0.0812
 4121SOL     OW23998   0.136   0.902   7.348 -0.6765  0.1142  0.4182
 4121SOL    HW123999   0.123   0.847   7.426 -0.2129 -1.8293 -0.8834
 4121SOL    HW224000   0.213   0.954   7.373  1.2734 -3.3475  1.6339
 4122SOL     OW24001   2.778   1.763  12.911 -0.1239  0.3494  0.1831
 4122SOL    HW124002   2.748   1.847  12.947 -0.5675 -0.6592  2.1696
 4122SOL    HW224003   2.777   1.783  12.818 -1.7081 -0.1987  0.0913
 4123SOL     OW24004   0.785   1.979  16.509  0.2268 -0.1210 -0.7146
 4123SOL    HW124005   0.769   1.979  16.414 -0.5527  1.4175 -0.6044
 4123SOL    HW224006   0.792   2.072  16.532 -0.5671  0.1537 -1.5360
 4124SOL     OW24007   2.753   1.042  13.750 -0.2533  0.1569 -0.2122
 4124SOL    HW124008   2.837   1.049  13.795 -0.6722  2.5503  0.1766
 4124SOL    HW224009   2.693   1.050  13.824 -0.6897  1.6993 -0.7428
 4125SOL     OW24010   2.994   1.623   9.508  0.5421  0.3639  0.1113
 4125SOL    HW124011   2.982   1.708   9.551 -1.2046 -0.7457  1.7967
 4125SOL    HW224012   2.908   1.583   9.515  0.1572  1.0420 -0.6899
 4126SOL     OW24013   1.631   0.800   4.443  0.3048  0.3207  0.2141
 4126SOL    HW124014   1.695   0.870   4.452  0.6146 -0.0325  0.7565
 4126SOL    HW224015   1.683   0.744   4.385  0.4078  1.6105 -0.9537
 4127SOL     OW24016   4.733   1.805   5.729  0.3146 -0.0285 -0.0074
 4127SOL    HW124017   0.083   1.761   5.723  0.2559 -0.0714 -0.4986
 4127SOL    HW224018   0.006   1.883   5.674 -2.5185  0.3093  0.0715
 4128SOL     OW24019   2.342   0.809   8.911  0.1304  0.1149 -0.0840
 4128SOL    HW124020   2.416   0.864   8.885  0.3368  0.1686  0.6300
 4128SOL    HW224021   2.298   0.787   8.829  0.4061  2.0458 -0.7652
 4129SOL     OW24022   0.336   4.725   4.699  0.6072  0.5142 -0.5757
 4129SOL    HW124023   0.391   4.710   4.622 -0.0763  1.8142 -1.3194
 4129SOL    HW224024   0.275   0.045   4.651 -2.5488  0.0389  2.9252
 4130SOL     OW24025   2.878   3.478  16.365 -0.3158  0.4410  0.3540
 4130SOL    HW124026   2.794   3.523  16.374 -0.9080 -1.0076  2.3292
 4130SOL    HW224027   2.841   3.392  16.388 -0.9631 -0.3586 -3.7877
 4131SOL     OW24028   0.937   4.355   5.876 -0.5091  0.7000 -0.6992
 4131SOL    HW124029   0.869   4.334   5.940  0.8043 -2.8645 -0.5253
 4131SOL    HW224030   0.893   4.415   5.815 -1.2733 -0.1865 -1.0151
 4132SOL     OW24031   4.035   3.440   4.687 -0.0604 -0.5566  0.2941
 4132SOL    HW124032   4.068   3.382   4.756  0.7569 -1.2637 -0.6866
 4132SOL    HW224033   4.106   3.500   4.666 -0.1225 -0.6243 -0.0947
 4133SOL     OW24034   1.805   2.501  13.321  0.0857  0.7381  0.2204
 4133SOL    HW124035   1.738   2.464  13.377 -1.4948  2.7941 -0.3072
 4133SOL    HW224036   1.800   2.596  13.332 -0.3686  0.7986 -0.4924
 4134SOL     OW24037   1.183   1.460  16.816  0.2602  0.2321 -0.0786
 4134SOL    HW124038   1.245   1.432  16.883  0.3122 -0.0225 -0.2296
 4134SOL    HW224039   1.117   1.514  16.858  0.9750  2.4039 -1.7157
 4135SOL     OW24040   1.516   1.007  10.956 -0.4152  0.1164 -0.5450
 4135SOL    HW124041   1.492   1.056  11.035  0.0018 -0.5602 -0.0028
 4135SOL    HW224042   1.427   0.978  10.933 -0.5580 -0.3744  0.6183
 4136SOL     OW24043   1.988   3.958  16.860 -0.1025 -0.2208  0.5622
 4136SOL    HW124044   1.903   3.936  16.821 -0.7967  1.7166  0.9585
 4136SOL    HW224045   2.022   3.879  16.901 -2.4041 -0.9823  1.0300
 4137SOL     OW24046   0.462   2.971  15.965  0.0323  0.0162  0.2666
 4137SOL    HW124047   0.399   2.916  15.918  0.9587 -0.9338  0.1358
 4137SOL    HW224048   0.466   3.054  15.917  3.1129 -1.3282 -1.7773
 4138SOL     OW24049   1.452   3.232   4.522  0.8514 -0.2596 -0.1651
 4138SOL    HW124050   1.431   3.288   4.597  1.3778  0.2017 -0.3686
 4138SOL    HW224051   1.372   3.245   4.471  1.2586  1.3357 -0.3946
 4139SOL     OW24052   2.600   0.332   7.365 -0.3346  0.4015  0.2810
 4139SOL    HW124053   2.657   0.339   7.441  1.8462 -0.3163 -1.2783
 4139SOL    HW224054   2.519   0.379   7.383 -0.1171  1.2239 -0.8384
 4140SOL     OW24055   3.923   1.457   8.444  0.4660  0.5038  0.0248
 4140SOL    HW124056   3.829   1.439   8.440  0.5357 -0.1676  1.4691
 4140SOL    HW224057   3.941   1.426   8.533  2.4678 -0.7417 -0.8324
 4141SOL     OW24058   0.228   0.471   4.128 -0.5342  0.4069 -0.0044
 4141SOL    HW124059   0.164   0.521   4.077 -2.1233  1.3789  2.9963
 4141SOL    HW224060   0.307   0.523   4.118 -0.8618  0.9195  0.0671
 4142SOL     OW24061   1.769   0.041   4.726 -0.0993 -0.0183  0.0086
 4142SOL    HW124062   1.766   0.106   4.797 -1.9682  1.3181 -1.3325
 4142SOL    HW224063   1.701   4.718   4.758 -0.3575 -0.5405 -1.5055
 4143SOL     OW24064   4.539   0.848   2.014  0.5356 -0.2546 -0.0177
 4143SOL    HW124065   4.595   0.805   2.079 -1.4531 -2.3562  0.2954
 4143SOL    HW224066   4.564   0.803   1.933  0.1038  1.0459 -0.8712
 4144SOL     OW24067   3.050   2.872  17.231 -0.3999  0.2630  0.3346
 4144SOL    HW124068   2.967   2.854  17.188  1.3643 -1.3790 -2.3416
 4144SOL    HW224069   3.095   2.822  17.163 -1.5392 -1.4708  0.8480
 4145SOL     OW24070   1.595   4.529  11.622  0.0496  0.0624  0.4616
 4145SOL    HW124071   1.601   4.433  11.623  0.9905  0.1245  0.9582
 4145SOL    HW224072   1.536   4.532  11.547  1.1864  0.3678 -0.4225
 4146SOL     OW24073   4.612   4.173   9.788  0.0323  0.0142  0.3665
 4146SOL    HW124074   4.533   4.175   9.842 -0.1204  0.2760  0.1272
 4146SOL    HW224075   4.580   4.174   9.698 -0.7609  0.1236  0.6528
 4147SOL     OW24076   4.710   0.872   4.193  0.0980  0.6630 -0.1624
 4147SOL    HW124077   4.692   0.787   4.153  0.7378  0.6327 -0.3936
 4147SOL    HW224078   0.059   0.884   4.149  0.2372 -3.5242 -1.0397
 4148SOL     OW24079   4.719   2.612   4.096  0.1333  0.3698 -0.8205
 4148SOL    HW124080   4.722   2.549   4.024 -1.1275  0.6735 -1.1477
 4148SOL    HW224081   4.719   2.550   4.169  0.9913  1.6900  0.3146
 4149SOL     OW24082   1.539   2.406   2.712 -0.1990 -0.2543 -0.0819
 4149SOL    HW124083   1.489   2.484   2.735  0.3723  0.4307 -1.1918
 4149SOL    HW224084   1.561   2.411   2.620 -0.7434 -0.9939 -0.2573
 4150SOL     OW24085   4.072   0.330   4.125 -0.0719  0.2459 -0.2610
 4150SOL    HW124086   4.100   0.274   4.053 -1.7976  0.5971 -1.2160
 4150SOL    HW224087   4.055   0.409   4.073 -0.8823 -0.5862 -1.2372
 4151SOL     OW24088   2.541   3.678  10.885  0.2433 -0.0679  0.3907
 4151SOL    HW124089   2.628   3.667  10.923 -0.2570 -2.6069  0.7887
 4151SOL    HW224090   2.500   3.597  10.917  1.5741  0.5505  3.6669
 4152SOL     OW24091   4.252   2.522   2.536  0.3943 -0.3293 -0.4108
 4152SOL    HW124092   4.272   2.525   2.442 -0.3344 -2.7681 -0.6569
 4152SOL    HW224093   4.172   2.574   2.546 -0.0870 -1.4395  1.4519
 4153SOL     OW24094   2.604   1.153   1.300  0.2817  0.3301 -0.0936
 4153SOL    HW124095   2.656   1.229   1.274 -0.0016  0.4223 -0.3899
 4153SOL    HW224096   2.674   1.100   1.338  0.6608 -0.4756 -1.9179
 4154SOL     OW24097   0.881   4.170   2.550  0.1117  0.7330  0.2534
 4154SOL    HW124098   0.974   4.192   2.558  0.1333  1.1095 -1.0262
 4154SOL    HW224099   0.858   4.226   2.476 -0.6619 -0.6132 -0.5216
 4155SOL     OW24100   4.677   1.511   6.867  0.6606  0.2995  0.6958
 4155SOL    HW124101   4.610   1.497   6.933  0.0741 -0.6945 -0.1151
 4155SOL    HW224102   4.644   1.585   6.815  1.4548 -0.4091 -0.8069
 4156SOL     OW24103   4.201   0.203   6.633 -0.2414  0.0627  0.0963
 4156SOL    HW124104   4.288   0.212   6.672 -0.4747  1.9366  0.1783
 4156SOL    HW224105   4.152   0.229   6.711 -1.2824 -0.3453 -0.4334
 4157SOL     OW24106   3.841   4.022   2.627  0.8348 -0.1719  0.2532
 4157SOL    HW124107   3.906   3.989   2.689 -0.0938  0.7199  1.6959
 4157SOL    HW224108   3.785   3.945   2.633 -1.6172  1.5580 -0.3395
 4158SOL     OW24109   2.699   3.238  13.179 -0.1397  0.1685 -0.2484
 4158SOL    HW124110   2.775   3.291  13.200 -0.1450  0.3330 -0.6592
 4158SOL    HW224111   2.719   3.145  13.188 -0.8306 -0.0732 -1.1634
 4159SOL     OW24112   0.051   3.731   2.789 -0.5826  0.1505 -0.4414
 4159SOL    HW124113   4.729   3.656   2.776  0.4743 -0.9928  1.5157
 4159SOL    HW224114   0.027   3.764   2.703 -0.9879 -2.8057 -1.4720
 4160SOL     OW24115   4.627   1.762   6.688 -0.1882 -0.0157 -0.5810
 4160SOL    HW124116   4.545   1.794   6.650 -0.6846 -0.5828  0.0071
 4160SOL    HW224117   4.687   1.794   6.621 -0.3318 -1.5938 -1.4807
 4161SOL     OW24118   0.347   4.035   3.768 -0.1127  0.0629  0.0004
 4161SOL    HW124119   0.404   4.062   3.696  1.5900 -0.6009  1.0893
 4161SOL    HW224120   0.381   4.092   3.837 -2.0437  0.9961  0.1888
 4162SOL     OW24121   2.526   0.048   4.755  0.4390  0.0153  0.3068
 4162SOL    HW124122   2.501   0.002   4.835  0.7736  0.3552  0.6110
 4162SOL    HW224123   2.547   0.135   4.789  0.9247  0.2907 -0.6739
 4163SOL     OW24124   2.523   0.236  12.835 -0.1157  0.7264 -0.2500
 4163SOL    HW124125   2.569   0.153  12.833 -1.9813 -0.3380  0.4389
 4163SOL    HW224126   2.513   0.243  12.739  0.1554 -0.6442 -0.3664
 4164SOL     OW24127   1.375   1.214   8.653 -0.3238 -0.1396 -0.5309
 4164SOL    HW124128   1.345   1.140   8.600 -0.5077 -0.1094 -0.4717
 4164SOL    HW224129   1.310   1.205   8.723  2.2467  0.0252  1.8673
 4165SOL     OW24130   4.455   0.740   9.134 -0.4421  0.3372  0.7415
 4165SOL    HW124131   4.525   0.680   9.159 -0.2349 -1.3461 -3.9606
 4165SOL    HW224132   4.390   0.684   9.092  1.5345 -1.3712 -0.0423
 4166SOL     OW24133   0.570   2.512   4.418 -0.4207 -0.6374 -0.0511
 4166SOL    HW124134   0.550   2.423   4.389  1.4932 -0.9925 -0.2704
 4166SOL    HW224135   0.486   2.540   4.455 -1.2076 -1.6155 -1.0625
 4167SOL     OW24136   1.462   2.878   8.694 -0.1765  0.3153 -0.0093
 4167SOL    HW124137   1.384   2.904   8.744 -1.6283  1.4449 -2.8406
 4167SOL    HW224138   1.517   2.835   8.759 -1.5330 -0.1150  0.8677
 4168SOL     OW24139   0.722   4.176  12.230 -0.2026 -0.0329  0.0916
 4168SOL    HW124140   0.811   4.177  12.196  0.4629 -1.9742  1.7888
 4168SOL    HW224141   0.727   4.222  12.314  1.4184 -0.5518  0.2752
 4169SOL     OW24142   4.570   4.570   1.600 -0.2042 -0.6297 -0.1795
 4169SOL    HW124143   4.559   4.475   1.599  2.0472 -0.9160  1.3094
 4169SOL    HW224144   4.558   4.581   1.505  0.8815  1.4109 -0.0786
 4170SOL     OW24145   0.691   2.543  16.735 -0.2368 -0.6481 -0.2983
 4170SOL    HW124146   0.619   2.598  16.766  0.2992 -0.2749  0.2855
 4170SOL    HW224147   0.690   2.582  16.647 -1.0863  0.4836  0.1991
 4171SOL     OW24148   3.245   2.085   7.747 -0.1114 -0.9147 -0.1792
 4171SOL    HW124149   3.323   2.141   7.747 -1.2906  0.7310  0.9593
 4171SOL    HW224150   3.184   2.150   7.712 -0.7259 -0.7909  1.1084
 4172SOL     OW24151   1.042   4.328  13.168  0.0462  0.1061 -0.2522
 4172SOL    HW124152   1.103   4.321  13.095  0.0569  0.9782 -0.3271
 4172SOL    HW224153   1.104   4.366  13.230 -1.2978 -0.1764  1.2644
 4173SOL     OW24154   0.385   2.259   2.801  0.6716  0.0237 -0.7013
 4173SOL    HW124155   0.363   2.311   2.879 -2.7161 -2.1061 -0.1957
 4173SOL    HW224156   0.465   2.214   2.827  0.9773 -0.1307 -1.8959
 4174SOL     OW24157   0.010   2.227  12.079  0.0461  0.7771  0.2554
 4174SOL    HW124158   0.022   2.321  12.091  1.3422  0.6348  0.0821
 4174SOL    HW224159   0.103   2.208  12.066 -0.3741 -1.7809  1.0079
 4175SOL     OW24160   3.842   3.162   4.631  0.2140  0.2632 -0.6037
 4175SOL    HW124161   3.933   3.148   4.660 -0.5812 -0.7901  1.4255
 4175SOL    HW224162   3.836   3.251   4.664 -1.7018  0.8214 -2.4976
 4176SOL     OW24163   2.584   2.329   6.559 -0.0438 -0.6117  0.5404
 4176SOL    HW124164   2.634   2.304   6.481 -0.0750  0.8842  0.0501
 4176SOL    HW224165   2.525   2.396   6.525  1.1834 -0.2037 -0.7732
 4177SOL     OW24166   0.582   4.489  15.205  0.0500  0.2963  0.2910
 4177SOL    HW124167   0.659   4.483  15.149 -1.0206 -0.9193 -1.0429
 4177SOL    HW224168   0.621   4.479  15.292  0.6725  1.1022  0.1071
 4178SOL     OW24169   2.757   2.507   7.853 -0.1759 -0.0160  0.3448
 4178SOL    HW124170   2.702   2.524   7.930  0.6873  1.8291  0.5446
 4178SOL    HW224171   2.699   2.444   7.810  1.3037 -2.8051  2.4268
 4179SOL     OW24172   2.460   4.289   1.727  0.2773  0.1607  0.3469
 4179SOL    HW124173   2.366   4.288   1.748  0.5403 -0.4843  1.4837
 4179SOL    HW224174   2.466   4.197   1.702  0.2455  0.4158 -0.6158
 4180SOL     OW24175   1.325   0.672   3.107 -0.2760 -0.5270 -0.0005
 4180SOL    HW124176   1.280   0.739   3.054 -0.0729 -1.4623 -1.3502
 4180SOL    HW224177   1.348   0.610   3.038  0.3998 -0.7633  0.4462
 4181SOL     OW24178   3.260   2.722   6.347 -0.1867 -0.5798 -0.1187
 4181SOL    HW124179   3.338   2.774   6.331  0.5244 -1.4703  0.4454
 4181SOL    HW224180   3.248   2.692   6.257  2.3922  1.3314 -1.1068
 4182SOL     OW24181   1.389   0.454  15.854 -0.1935 -0.0552  0.5775
 4182SOL    HW124182   1.392   0.545  15.825 -0.0412 -0.0998  0.4521
 4182SOL    HW224183   1.296   0.444  15.873  0.1309 -1.3639  1.5243
 4183SOL     OW24184   3.418   3.690   8.205  0.7480  0.3259 -0.1304
 4183SOL    HW124185   3.409   3.621   8.140  0.1261  2.8373 -2.6851
 4183SOL    HW224186   3.450   3.767   8.157  1.0694 -0.7053 -1.5545
 4184SOL     OW24187   1.691   2.363   9.293 -0.1456  0.1556  0.4810
 4184SOL    HW124188   1.761   2.332   9.235 -2.2088 -1.0320 -1.4005
 4184SOL    HW224189   1.706   2.325   9.379 -1.1840  0.3617  0.7577
 4185SOL     OW24190   1.926   3.553   8.039  0.5002  0.1704  0.0004
 4185SOL    HW124191   1.910   3.493   7.966 -0.3990 -0.2369  0.5342
 4185SOL    HW224192   1.982   3.499   8.094 -0.6713 -1.2963 -0.2406
 4186SOL     OW24193   4.216   1.132   1.776  0.3588 -0.2060  0.0749
 4186SOL    HW124194   4.279   1.199   1.804 -0.0882  0.0425  0.4832
 4186SOL    HW224195   4.262   1.050   1.788  0.7510 -0.1997 -1.4267
 4187SOL     OW24196   0.299   1.967   4.836 -0.7849  0.1410  0.0369
 4187SOL    HW124197   0.309   1.971   4.741  0.5062  1.8495  0.2541
 4187SOL    HW224198   0.335   2.052   4.862  0.1316 -0.5513  1.0158
 4188SOL     OW24199   1.039   4.396   2.229  0.2688 -0.1743 -0.3686
 4188SOL    HW124200   1.077   4.355   2.151 -0.0221  0.0361 -0.6199
 4188SOL    HW224201   1.009   4.480   2.196 -1.1362 -0.2633  0.7020
 4189SOL     OW24202   3.378   1.211   4.822 -0.1093  0.0399 -0.1819
 4189SOL    HW124203   3.360   1.244   4.734 -3.8323 -0.1611  0.4836
 4189SOL    HW224204   3.344   1.121   4.820 -1.2511  0.4558  0.1949
 4190SOL     OW24205   3.951   4.006  17.584  0.1847 -0.0390  0.0176
 4190SOL    HW124206   3.976   3.987  17.674 -0.1861 -1.2526 -0.1393
 4190SOL    HW224207   3.857   4.013  17.597  0.0689 -0.5827 -0.5379
 4191SOL     OW24208   3.731   1.890   6.234 -0.3219 -0.0112 -0.2807
 4191SOL    HW124209   3.706   1.945   6.160 -3.3666 -1.4054 -0.3127
 4191SOL    HW224210   3.802   1.948   6.260 -0.7243  0.2983  0.1189
 4192SOL     OW24211   3.414   3.400   8.065  0.0300 -0.3055  0.5972
 4192SOL    HW124212   3.378   3.458   7.998  2.6958  1.6902  0.9016
 4192SOL    HW224213   3.415   3.315   8.022  2.5174 -0.0634  0.1442
 4193SOL     OW24214   1.119   3.116   7.240 -0.8287  0.4106  0.0582
 4193SOL    HW124215   1.044   3.104   7.297  0.3360 -1.2461  1.2479
 4193SOL    HW224216   1.082   3.150   7.158  0.5423  1.3098 -0.2001
 4194SOL     OW24217   3.274   2.908  10.441 -0.4782  0.1498 -0.4865
 4194SOL    HW124218   3.192   2.860  10.432  0.2452 -1.1048 -0.4691
 4194SOL    HW224219   3.251   2.996  10.414 -2.9474 -0.4229 -0.2460
 4195SOL     OW24220   3.980   0.710   5.036 -0.1968 -0.6942  0.2138
 4195SOL    HW124221   3.925   0.756   4.973 -0.6825  1.9774  2.6178
 4195SOL    HW224222   3.925   0.714   5.114 -0.6527  1.1886 -0.2252
 4196SOL     OW24223   0.646   0.021   1.789 -0.0129 -0.0138 -0.5005
 4196SOL    HW124224   0.598   0.103   1.775  2.1063  1.2429 -0.2802
 4196SOL    HW224225   0.728   0.044   1.745  0.5807 -1.8009 -0.3409
 4197SOL     OW24226   0.666   4.413   4.495 -0.1195 -0.0834 -0.2007
 4197SOL    HW124227   0.689   4.419   4.588 -2.2058  1.5424  0.2008
 4197SOL    HW224228   0.572   4.406   4.484  0.1733  0.2600 -3.0300
 4198SOL     OW24229   3.815   1.204   8.874  0.6312  0.0549  0.0845
 4198SOL    HW124230   3.859   1.227   8.956  1.2233 -0.1501 -0.1786
 4198SOL    HW224231   3.765   1.285   8.861 -0.8600 -0.5278  2.0269
 4199SOL     OW24232   4.612   0.171   4.280  0.3666 -0.0944 -0.2995
 4199SOL    HW124233   4.665   0.094   4.259  0.4742  0.0983 -0.7306
 4199SOL    HW224234   4.678   0.195   4.345  1.0044 -0.5539 -0.7665
 4200SOL     OW24235   1.459   2.663   6.285 -0.1668 -0.3397 -0.4573
 4200SOL    HW124236   1.389   2.616   6.240 -1.5617  0.3218  1.0155
 4200SOL    HW224237   1.502   2.606   6.348  0.2576  1.3350  0.7709
 4201SOL     OW24238   0.899   4.389   7.827 -0.0003 -0.1699 -0.3257
 4201SOL    HW124239   0.880   4.335   7.750  0.7903  0.5620 -1.0440
 4201SOL    HW224240   0.891   4.472   7.780 -0.4491 -0.9100 -1.5666
 4202SOL     OW24241   1.824   2.752  11.592  0.0609 -0.2636  0.0009
 4202SOL    HW124242   1.779   2.835  11.610 -1.4673 -0.9543 -0.6638
 4202SOL    HW224243   1.807   2.704  11.673 -0.5663 -1.2434 -0.7230
 4203SOL     OW24244   1.818   0.501   7.446  0.0040 -0.1141 -0.4772
 4203SOL    HW124245   1.874   0.425   7.459 -2.5752 -1.4704  2.6767
 4203SOL    HW224246   1.787   0.515   7.536  0.0103  0.4683 -0.5629
 4204SOL     OW24247   3.139   2.481  14.832 -0.3983 -0.0414  0.5682
 4204SOL    HW124248   3.172   2.393  14.851  0.5340  0.1284 -0.2903
 4204SOL    HW224249   3.160   2.543  14.901 -0.3332  0.9119 -0.3146
 4205SOL     OW24250   2.224   4.210   3.790  0.5498 -0.2852 -0.5145
 4205SOL    HW124251   2.231   4.205   3.885 -0.5102 -2.6110 -0.5702
 4205SOL    HW224252   2.251   4.300   3.770  1.5296 -0.7018 -1.0952
 4206SOL     OW24253   2.851   1.862   6.267  0.3735 -0.1131 -0.4768
 4206SOL    HW124254   2.762   1.864   6.231  1.2005 -0.9706 -2.6120
 4206SOL    HW224255   2.849   1.771   6.297  1.6290 -0.6183 -1.9132
 4207SOL     OW24256   3.872   2.210   6.999 -0.0972  0.5385 -0.3100
 4207SOL    HW124257   3.942   2.262   6.958  0.5690 -0.3122 -0.2377
 4207SOL    HW224258   3.875   2.253   7.084 -0.4054 -0.9220  0.4307
 4208SOL     OW24259   1.237   2.834   1.557  0.5756  0.9581 -0.6229
 4208SOL    HW124260   1.257   2.922   1.589  0.0416  0.6401  0.5474
 4208SOL    HW224261   1.147   2.828   1.526  1.0748 -1.3361 -1.5820
 4209SOL     OW24262   2.849   0.494   4.544 -0.3698 -0.1474  0.5982
 4209SOL    HW124263   2.928   0.446   4.521 -0.1356  0.5482 -0.0381
 4209SOL    HW224264   2.866   0.521   4.634  3.5304  0.4198 -0.3090
 4210SOL     OW24265   4.308   2.969  10.469  0.4124  0.6644  0.0845
 4210SOL    HW124266   4.237   3.001  10.413 -0.5059  0.1342  0.9469
 4210SOL    HW224267   4.278   3.011  10.549 -0.2120  0.8145 -0.2268
 4211SOL     OW24268   2.694   4.716   8.973 -0.0675  0.5731  0.7555
 4211SOL    HW124269   2.784   4.692   8.951 -0.3924 -0.2895  0.3711
 4211SOL    HW224270   2.672   0.032   8.895  0.9451  1.8012  1.2715
 4212SOL     OW24271   3.166   2.997  17.450  0.8331  0.2031  0.1091
 4212SOL    HW124272   3.216   2.922  17.481  0.1232  0.1387  1.0910
 4212SOL    HW224273   3.121   2.957  17.375 -2.1496  0.0795  1.9932
 4213SOL     OW24274   1.948   2.657   3.707  0.0781 -0.7659  0.0066
 4213SOL    HW124275   2.025   2.624   3.661  1.8251  1.4727  1.3561
 4213SOL    HW224276   1.962   2.626   3.796  0.4901  0.5476  0.3873
 4214SOL     OW24277   2.375   3.009   5.509 -0.0093  0.0202 -0.6256
 4214SOL    HW124278   2.422   3.083   5.471 -2.8666  0.8476 -2.4564
 4214SOL    HW224279   2.423   2.997   5.592  0.2178  0.2388 -0.7257
 4215SOL     OW24280   3.801   4.579   0.696 -0.0534 -0.5258 -0.5854
 4215SOL    HW124281   3.849   4.662   0.698  0.4147 -0.8352  0.7689
 4215SOL    HW224282   3.710   4.608   0.707 -0.4758 -1.6348 -1.1714
 4216SOL     OW24283   4.423   1.692   7.737 -0.1800 -0.5077 -0.1735
 4216SOL    HW124284   4.335   1.674   7.703  0.8648 -0.3793 -2.9510
 4216SOL    HW224285   4.448   1.600   7.751 -0.5252 -0.2409  2.2220
 4217SOL     OW24286   4.373   0.509   5.412  0.2187 -0.2764  0.2036
 4217SOL    HW124287   4.360   0.596   5.449 -1.9385 -0.6209  0.2124
 4217SOL    HW224288   4.281   0.483   5.412 -0.3221  1.7137 -1.2982
 4218SOL     OW24289   3.225   2.290   6.912  0.1324 -0.4880  0.6214
 4218SOL    HW124290   3.244   2.213   6.967  0.4839  1.0243  2.6282
 4218SOL    HW224291   3.156   2.251   6.858 -0.7804  1.1467  0.6187
 4219SOL     OW24292   3.300   3.084  11.189  0.0984  0.0794 -0.3627
 4219SOL    HW124293   3.288   3.166  11.140  0.5702  0.2095 -0.2530
 4219SOL    HW224294   3.220   3.037  11.166  0.0435 -1.0254  2.0805
 4220SOL     OW24295   2.631   0.854  11.983 -0.0659  0.0055 -0.1798
 4220SOL    HW124296   2.630   0.935  12.034 -0.3849  0.1118 -0.3519
 4220SOL    HW224297   2.715   0.870  11.940  0.4311 -3.3589 -0.4065
 4221SOL     OW24298   0.515   0.141  13.994 -0.1019 -0.3685  0.6645
 4221SOL    HW124299   0.526   0.228  13.956  1.0787 -1.0704 -0.6090
 4221SOL    HW224300   0.420   0.140  14.005 -0.2834  0.1647 -0.8566
 4222SOL     OW24301   1.869   4.391   3.748  0.0369  0.2323  0.4495
 4222SOL    HW124302   1.901   4.309   3.712 -1.5502 -1.0815  2.0440
 4222SOL    HW224303   1.910   4.393   3.835  1.1080 -2.3233 -0.0213
 4223SOL     OW24304   4.532   2.803   4.019  0.4440 -0.1560  0.1423
 4223SOL    HW124305   4.578   2.743   4.078  2.4609  2.5762  1.3494
 4223SOL    HW224306   4.448   2.758   4.010  2.3393 -3.8816  0.7966
 4224SOL     OW24307   3.294   2.802   1.733 -0.3122  0.2480  0.0129
 4224SOL    HW124308   3.199   2.800   1.742 -0.1210 -0.9091  1.8136
 4224SOL    HW224309   3.306   2.878   1.676  0.4403 -0.7717 -1.1584
 4225SOL     OW24310   4.348   1.275   3.911  0.2001  0.1174  0.0118
 4225SOL    HW124311   4.324   1.192   3.871  0.3345  0.4645 -0.7877
 4225SOL    HW224312   4.421   1.249   3.967  1.1366 -1.3428 -1.8880
 4226SOL     OW24313   0.305   0.678   4.643  0.2953 -0.1515 -0.5394
 4226SOL    HW124314   0.255   0.723   4.711  1.8366  0.5278  0.1436
 4226SOL    HW224315   0.237   0.670   4.576  1.2802 -3.2364 -1.1742
 4227SOL     OW24316   4.731   2.235   7.497 -0.7660 -0.1661 -0.1071
 4227SOL    HW124317   0.034   2.322   7.483 -0.2549 -0.5818 -1.2747
 4227SOL    HW224318   4.640   2.259   7.510 -0.7067 -0.6665  1.2834
 4228SOL     OW24319   0.572   2.479   8.118  0.1004  0.2444 -1.1955
 4228SOL    HW124320   0.517   2.473   8.040 -0.7661 -0.3475 -0.5346
 4228SOL    HW224321   0.578   2.388   8.147  1.4265  0.9241  0.6477
 4229SOL     OW24322   0.650   1.442   7.360  0.5265 -0.0372 -0.3645
 4229SOL    HW124323   0.557   1.436   7.382  0.1982  1.1190 -1.4891
 4229SOL    HW224324   0.664   1.503   7.432 -0.6859 -0.4504  0.2295
 4230SOL     OW24325   3.679   0.684   5.969  0.2186 -0.0302 -0.4049
 4230SOL    HW124326   3.687   0.753   6.035 -2.7148 -1.0551  1.0058
 4230SOL    HW224327   3.769   0.653   5.961  0.3916  0.1005  1.0913
 4231SOL     OW24328   2.317   1.350   3.575 -0.3251  0.0914 -0.1281
 4231SOL    HW124329   2.303   1.442   3.554  0.8858  0.7149  1.7311
 4231SOL    HW224330   2.339   1.310   3.492 -1.4596 -0.6842 -0.0507
 4232SOL     OW24331   0.942   1.562   5.435  0.1609 -0.3638  0.0781
 4232SOL    HW124332   0.880   1.489   5.437 -0.7438  0.3905 -0.4507
 4232SOL    HW224333   0.907   1.617   5.505  0.2998 -0.1488 -0.0192
 4233SOL     OW24334   0.217   0.030   6.751 -0.1904  0.4048  0.7314
 4233SOL    HW124335   0.258   0.107   6.711 -2.0281  1.4421  0.8432
 4233SOL    HW224336   0.241   0.037   6.844  2.5039 -2.6242  0.2515
 4234SOL     OW24337   4.647   3.835   6.162  0.0070  0.5033  0.5357
 4234SOL    HW124338   0.006   3.847   6.159 -0.0007  0.5449  0.4572
 4234SOL    HW224339   4.638   3.783   6.242  1.6882  0.2104  0.5430
 4235SOL     OW24340   0.657   4.207   6.318 -0.3943 -0.8929  0.1412
 4235SOL    HW124341   0.740   4.248   6.344  0.1241 -1.1423 -1.1546
 4235SOL    HW224342   0.600   4.255   6.378  1.3294 -1.5379  2.2887
 4236SOL     OW24343   2.497   2.034   6.959  0.0165 -0.3458 -0.0014
 4236SOL    HW124344   2.497   1.943   6.990 -0.2184 -0.0930  0.7366
 4236SOL    HW224345   2.561   2.071   7.021  0.1036 -0.0460 -0.2740
 4237SOL     OW24346   2.542   0.361   6.984  0.1660 -0.5242 -0.1749
 4237SOL    HW124347   2.527   0.442   7.032  0.7023  0.5354 -1.7999
 4237SOL    HW224348   2.588   0.392   6.906  2.0672 -0.1223  1.1173
 4238SOL     OW24349   1.050   3.709  16.233 -0.2778  0.4321  0.1885
 4238SOL    HW124350   0.999   3.723  16.154 -0.6134 -0.5048  0.2365
 4238SOL    HW224351   0.985   3.709  16.303 -1.0803 -0.3399 -0.5686
 4239SOL     OW24352   4.332   0.065   2.723 -0.0541 -0.0746 -0.0426
 4239SOL    HW124353   4.244   0.037   2.746 -0.5398  2.0825  0.7960
 4239SOL    HW224354   4.319   0.160   2.731  0.8909  0.0854 -0.3288
 4240SOL     OW24355   3.610   3.753  16.961 -0.9251  0.1570 -0.0938
 4240SOL    HW124356   3.668   3.715  17.026 -1.5374 -1.5403 -0.5252
 4240SOL    HW224357   3.612   3.847  16.981 -0.7407 -0.3113  2.0810
 4241SOL     OW24358   0.120   4.443   1.539  0.2199 -0.4229 -0.1368
 4241SOL    HW124359   0.055   4.493   1.588 -0.5110 -1.6191  0.0969
 4241SOL    HW224360   0.155   4.384   1.606  0.8895 -1.1700 -1.1450
 4242SOL     OW24361   3.076   2.669   8.564 -0.4772 -0.2782 -0.4203
 4242SOL    HW124362   3.028   2.722   8.500 -0.2204 -0.0173 -0.3995
 4242SOL    HW224363   3.035   2.694   8.647  1.5151 -2.1718  1.1255
 4243SOL     OW24364   3.849   4.041   4.863  0.7171 -0.4471 -0.1368
 4243SOL    HW124365   3.823   4.091   4.786 -3.4268  0.3595  1.7811
 4243SOL    HW224366   3.766   4.001   4.887  0.0996  0.0116 -1.5413
 4244SOL     OW24367   0.962   4.633   1.908 -0.0949 -0.5224  0.2785
 4244SOL    HW124368   1.026   4.584   1.857 -0.6544 -0.5532 -0.3961
 4244SOL    HW224369   0.926   4.692   1.842 -0.1310  0.0596  0.8136
 4245SOL     OW24370   3.646   2.461   1.342 -0.0676  0.1812 -0.4246
 4245SOL    HW124371   3.571   2.419   1.385 -0.3532 -1.3724 -2.4016
 4245SOL    HW224372   3.627   2.554   1.351 -3.5340 -0.6267  0.9076
 4246SOL     OW24373   0.428   0.026   4.440  0.1132  0.7759  0.2930
 4246SOL    HW124374   0.418   0.119   4.417  0.0947  1.3021  2.4285
 4246SOL    HW224375   0.523   0.032   4.453  0.6402 -0.5081 -3.0418
 4247SOL     OW24376   4.019   1.504   9.939 -0.3764 -1.1278  0.8617
 4247SOL    HW124377   4.075   1.479  10.013  0.4762  0.1103  0.6263
 4247SOL    HW224378   3.966   1.424   9.933 -0.0402 -1.3969  1.4459
 4248SOL     OW24379   2.073   2.487   2.178 -0.5056  0.6046  0.5501
 4248SOL    HW124380   2.155   2.531   2.155  0.0863 -0.6168  0.3308
 4248SOL    HW224381   2.056   2.429   2.104  0.4459  2.0231 -0.7906
 4249SOL     OW24382   3.167   1.457   4.462 -0.0530  0.2138  0.0403
 4249SOL    HW124383   3.154   1.532   4.521 -0.4334  0.4821 -0.3898
 4249SOL    HW224384   3.192   1.509   4.386  0.0865  0.0758 -0.0077
 4250SOL     OW24385   0.488   0.268   3.458  0.0552 -0.3233  0.5814
 4250SOL    HW124386   0.563   0.218   3.490 -0.8488 -2.2845 -0.4027
 4250SOL    HW224387   0.525   0.326   3.391 -2.2032 -0.6893 -0.9810
 4251SOL     OW24388   1.663   0.035   9.036  0.5105 -0.7938 -0.1145
 4251SOL    HW124389   1.743   0.068   9.079  1.2943 -1.3451 -1.1696
 4251SOL    HW224390   1.675   0.068   8.947  0.1912 -0.0225  0.1231
 4252SOL     OW24391   4.547   0.444   5.790 -0.4956  0.4020 -0.2335
 4252SOL    HW124392   4.552   0.378   5.859  2.3941  0.0870 -0.7502
 4252SOL    HW224393   4.452   0.454   5.792 -0.3683  1.6702 -0.4751
 4253SOL     OW24394   0.887   1.903   5.443 -0.5704  0.4036  0.1359
 4253SOL    HW124395   0.898   1.965   5.516 -0.9777  2.1151 -1.2416
 4253SOL    HW224396   0.896   1.967   5.372  0.2223 -0.5463 -0.6282
 4254SOL     OW24397   3.239   2.425  10.877  0.2649 -0.2411 -0.7098
 4254SOL    HW124398   3.267   2.348  10.827 -0.9200 -0.5412 -0.8987
 4254SOL    HW224399   3.324   2.462  10.904 -0.6583  0.4339  1.2848
 4255SOL     OW24400   2.488   0.493  11.721 -0.4817 -0.0229  0.1023
 4255SOL    HW124401   2.502   0.566  11.781  1.7309 -0.2730 -0.0951
 4255SOL    HW224402   2.440   0.520  11.643 -0.7220  0.6035  0.4649
 4256SOL     OW24403   2.579   2.930   8.178  0.1603  0.0385  0.9194
 4256SOL    HW124404   2.485   2.943   8.187 -0.1849 -0.2426 -2.2099
 4256SOL    HW224405   2.610   3.019   8.157  0.3709 -0.6231 -1.6275
 4257SOL     OW24406   0.684   3.337  15.030 -0.0606  0.2297 -0.4130
 4257SOL    HW124407   0.626   3.396  14.983 -1.6702 -1.6077 -0.7533
 4257SOL    HW224408   0.736   3.404  15.073 -0.1315  0.5742 -0.8737
 4258SOL     OW24409   2.210   0.287   4.722  0.4718  0.1134  0.6024
 4258SOL    HW124410   2.199   0.249   4.635 -1.3571  1.2595  0.3305
 4258SOL    HW224411   2.118   0.298   4.746  0.1055  0.3275 -0.9054
 4259SOL     OW24412   1.973   3.468  10.632 -0.2045  0.2321 -0.0456
 4259SOL    HW124413   1.894   3.422  10.658  0.8362 -1.1025  0.7755
 4259SOL    HW224414   1.985   3.434  10.544  1.1383 -0.5887  0.4498
 4260SOL     OW24415   3.587   3.871   4.832 -0.0823  0.5380 -0.0990
 4260SOL    HW124416   3.522   3.904   4.894  1.0027  3.6073 -0.5919
 4260SOL    HW224417   3.634   3.809   4.888  1.1769  0.9121 -0.7311
 4261SOL     OW24418   2.943   0.075   2.876  0.2208 -0.0147  0.2301
 4261SOL    HW124419   2.881   0.130   2.924  1.0252  0.9289  0.1761
 4261SOL    HW224420   2.986   0.023   2.944  1.4199 -0.5626 -0.9472
 4262SOL     OW24421   0.682   4.592   3.547  0.3880 -0.1059 -0.4702
 4262SOL    HW124422   0.734   4.521   3.510  0.6864 -0.9379  1.5252
 4262SOL    HW224423   0.636   4.627   3.470 -0.8918 -3.1435 -1.0928
 4263SOL     OW24424   3.734   4.648  13.126 -0.2936  0.4037  0.2031
 4263SOL    HW124425   3.712   4.561  13.157  0.8568  0.8418  2.2522
 4263SOL    HW224426   3.816   4.654  13.174  0.6602 -0.7270 -1.2842
 4264SOL     OW24427   1.108   2.141   3.637  0.1532  0.2674 -0.4298
 4264SOL    HW124428   1.084   2.098   3.719  1.3008  3.1203  1.4012
 4264SOL    HW224429   1.169   2.199   3.683  2.5203 -2.3730 -0.2380
 4265SOL     OW24430   2.284   3.309   3.692  0.1859  0.0504 -0.0751
 4265SOL    HW124431   2.265   3.402   3.677  1.5622  0.3875  0.2051
 4265SOL    HW224432   2.347   3.307   3.764  2.3105  1.7728 -1.8521
 4266SOL     OW24433   2.367   2.346   7.593  0.2775  0.7214 -0.9417
 4266SOL    HW124434   2.351   2.256   7.621 -1.1613  1.7907  1.6636
 4266SOL    HW224435   2.280   2.383   7.610 -0.5727 -0.8333 -1.8727
 4267SOL     OW24436   0.521   2.042   8.951 -0.7870  0.5160  0.1777
 4267SOL    HW124437   0.452   2.029   9.016  2.1384 -0.4623  3.0912
 4267SOL    HW224438   0.595   2.068   9.006 -0.0912  0.3586 -0.6760
 4268SOL     OW24439   0.688   3.485   1.284  0.0822  0.4181  0.3396
 4268SOL    HW124440   0.710   3.572   1.318  0.9132  0.0852  0.6387
 4268SOL    HW224441   0.600   3.472   1.321 -0.2330  0.7279 -0.2993
 4269SOL     OW24442   1.279   4.085   0.795  0.2951  0.1457 -0.2250
 4269SOL    HW124443   1.224   4.058   0.870  1.2381 -2.1147 -0.3330
 4269SOL    HW224444   1.234   4.169   0.785  0.6627  0.2772 -0.7231
 4270SOL     OW24445   3.222   4.729   5.362 -0.1483 -0.2968 -0.4236
 4270SOL    HW124446   3.263   0.069   5.404 -1.5927 -0.1516  0.7322
 4270SOL    HW224447   3.131   0.025   5.370  0.4991  1.2816  0.6655
 4271SOL     OW24448   2.044   2.205   6.528  0.1869  0.4164  0.2193
 4271SOL    HW124449   1.950   2.221   6.541 -0.4167 -1.9737 -1.2040
 4271SOL    HW224450   2.051   2.153   6.448  0.5490  0.2025  0.3929
 4272SOL     OW24451   0.091   3.412   3.951 -0.2778  0.1308 -0.2520
 4272SOL    HW124452   0.062   3.497   3.919 -0.3264 -0.3345 -1.4514
 4272SOL    HW224453   0.134   3.370   3.876  1.4473  0.5935  0.4864
 4273SOL     OW24454   3.976   1.583   5.680 -0.2122 -0.1148 -0.2405
 4273SOL    HW124455   4.027   1.527   5.739 -1.0795 -0.1432  0.4876
 4273SOL    HW224456   3.901   1.614   5.730  1.4219  4.1391 -0.4753
 4274SOL     OW24457   2.149   4.723   6.227 -0.0347  0.1685  0.5741
 4274SOL    HW124458   2.091   0.055   6.263 -1.2235 -1.9105  2.5826
 4274SOL    HW224459   2.114   4.710   6.139 -1.3758  1.4960  0.9047
 4275SOL     OW24460   1.336   2.313   2.146  0.1314 -0.3372 -0.1253
 4275SOL    HW124461   1.355   2.237   2.090 -0.6676  1.0054 -2.2385
 4275SOL    HW224462   1.375   2.386   2.097  1.3075 -0.3381  0.8000
 4276SOL     OW24463   2.320   4.069   2.124  0.0928 -0.4028  0.6450
 4276SOL    HW124464   2.261   4.128   2.078  0.7967 -0.9967 -1.0316
 4276SOL    HW224465   2.283   3.984   2.103 -1.3881  0.1236  1.1616
 4277SOL     OW24466   4.588   4.127   1.327 -0.1736 -0.0923 -0.1966
 4277SOL    HW124467   4.567   4.160   1.239  0.3401  2.3096  0.5896
 4277SOL    HW224468   4.546   4.041   1.323 -0.2169 -0.1737  2.1203
 4278SOL     OW24469   3.315   1.055   1.319  0.0359  0.2961  0.0293
 4278SOL    HW124470   3.292   1.015   1.235 -1.6904  2.0545 -0.3346
 4278SOL    HW224471   3.358   0.990   1.375 -1.7662 -0.9786 -0.0472
 4279SOL     OW24472   3.173   1.817   2.019 -0.2362  0.4022  0.0636
 4279SOL    HW124473   3.160   1.730   1.982 -0.1965 -0.0949  1.2304
 4279SOL    HW224474   3.091   1.828   2.066  0.7080  0.9750  1.5634
 4280SOL     OW24475   1.868   4.573  11.691  0.1190  0.0543 -0.2920
 4280SOL    HW124476   1.790   4.587  11.638 -1.1112  0.2797  1.5951
 4280SOL    HW224477   1.922   4.531  11.624 -0.9601  1.0511 -1.7809
 4281SOL     OW24478   0.331   1.626   2.833 -0.3962 -0.2791 -0.3448
 4281SOL    HW124479   0.397   1.567   2.799 -1.5853 -1.6193 -0.3360
 4281SOL    HW224480   0.377   1.676   2.900  1.3002  0.3459 -1.9825
 4282SOL     OW24481   1.120   4.631  10.690  0.3578  0.2368 -0.4049
 4282SOL    HW124482   1.152   4.617  10.600  2.5874 -1.6535  0.6750
 4282SOL    HW224483   1.033   4.590  10.682  0.0917  0.6521  0.3694
 4283SOL     OW24484   1.108   2.863   4.190 -0.3398  0.2616  0.1450
 4283SOL    HW124485   1.013   2.858   4.205 -0.5056 -0.2292 -1.0754
 4283SOL    HW224486   1.113   2.770   4.168 -0.5517  0.6199 -1.4306
 4284SOL     OW24487   2.129   1.871   3.404 -0.1525  0.4379 -0.7220
 4284SOL    HW124488   2.121   1.915   3.489  1.8019 -1.6632  0.5525
 4284SOL    HW224489   2.222   1.884   3.386  0.2940 -1.1366  0.4939
 4285SOL     OW24490   3.356   3.008  11.418 -0.9719  0.2268 -0.3617
 4285SOL    HW124491   3.321   3.029  11.331 -1.0829 -0.0938 -0.3934
 4285SOL    HW224492   3.300   3.069  11.466 -0.1636 -0.4528  1.4303
 4286SOL     OW24493   2.558   2.541   3.134 -0.6599  0.4224  0.3656
 4286SOL    HW124494   2.566   2.553   3.228  1.4583 -0.4238  0.2893
 4286SOL    HW224495   2.483   2.596   3.110  1.1194  1.9468 -1.7747
 4287SOL     OW24496   2.725   2.137   4.625 -0.8555 -0.4181  0.1866
 4287SOL    HW124497   2.719   2.230   4.606 -0.9133 -1.0017 -2.6166
 4287SOL    HW224498   2.699   2.139   4.717  1.6915 -1.2440  0.9076
 4288SOL     OW24499   3.125   3.135   7.813 -0.1114 -0.1429 -0.2111
 4288SOL    HW124500   3.090   3.069   7.752 -0.0683 -0.6021  0.2573
 4288SOL    HW224501   3.155   3.072   7.879  0.2307  0.8799  0.6002
 4289SOL     OW24502   0.956   1.304  16.651 -0.0593  0.3114 -0.2574
 4289SOL    HW124503   0.941   1.210  16.652  2.3572 -0.0647  1.2401
 4289SOL    HW224504   0.996   1.315  16.738 -0.8654 -0.4582  0.2114
 4290SOL     OW24505   3.928   1.617   6.474 -0.8840 -0.2981 -0.1576
 4290SOL    HW124506   3.834   1.600   6.471 -1.2322  1.6403 -0.6545
 4290SOL    HW224507   3.943   1.587   6.563  0.9171 -0.1382 -0.4097
 4291SOL     OW24508   1.939   2.232   9.415  0.0936  0.4330  0.0261
 4291SOL    HW124509   1.879   2.251   9.487  0.8617  1.4515  0.3950
 4291SOL    HW224510   1.935   2.137   9.420 -0.2874  0.4638  0.2900
 4292SOL     OW24511   3.946   0.949   8.145  0.3058  0.1392  0.1235
 4292SOL    HW124512   3.887   0.903   8.086 -0.5102 -0.4913  1.4258
 4292SOL    HW224513   4.028   0.900   8.138  0.0755 -0.4991  1.7927
 4293SOL     OW24514   4.218   1.164   2.251 -0.0166 -0.3019  0.9081
 4293SOL    HW124515   4.252   1.135   2.336 -0.2804 -0.3595  0.9935
 4293SOL    HW224516   4.219   1.074   2.217 -1.0970  0.6682 -1.6504
 4294SOL     OW24517   4.230   2.377   6.189 -0.7216 -0.2425  0.2259
 4294SOL    HW124518   4.202   2.431   6.115  0.4580  1.4106  1.0025
 4294SOL    HW224519   4.146   2.380   6.236 -1.0298 -0.8799 -0.2743
 4295SOL     OW24520   1.564   2.751   8.483 -0.3567  0.1282  0.1486
 4295SOL    HW124521   1.638   2.811   8.477 -1.0803  0.8939 -0.9185
 4295SOL    HW224522   1.518   2.803   8.549  4.6506 -0.2328  3.9427
 4296SOL     OW24523   3.813   4.569   3.765 -0.0074  0.1429 -0.7199
 4296SOL    HW124524   3.786   4.566   3.857  1.9506  1.3686 -0.1060
 4296SOL    HW224525   3.907   4.571   3.782 -0.5030  0.4818  1.8884
 4297SOL     OW24526   3.229   2.156   7.208  0.2106  0.1601  0.2533
 4297SOL    HW124527   3.142   2.131   7.176  0.5432  0.0529 -0.5552
 4297SOL    HW224528   3.231   2.105   7.290 -0.8422 -0.1185  0.1016
 4298SOL     OW24529   2.446   3.754   2.580  0.4217 -0.5309  0.5427
 4298SOL    HW124530   2.408   3.747   2.492 -0.3244 -0.1801  0.8306
 4298SOL    HW224531   2.368   3.735   2.633 -1.4457  0.2501 -1.9233
 4299SOL     OW24532   2.496   3.914   6.958  0.2766 -0.5931 -0.2948
 4299SOL    HW124533   2.432   3.909   6.887 -1.9915 -2.7509  1.8826
 4299SOL    HW224534   2.455   3.946   7.038 -2.3400  0.9231 -2.2372
 4300SOL     OW24535   2.174   1.689  11.549 -0.2461 -0.2684 -0.6447
 4300SOL    HW124536   2.093   1.676  11.499  1.1961 -0.7613 -2.8269
 4300SOL    HW224537   2.212   1.773  11.522 -3.1629  0.6091 -2.0785
 4301SOL     OW24538   4.289   1.823   1.276 -1.4267 -0.2476  0.8490
 4301SOL    HW124539   4.261   1.857   1.361 -0.3683 -0.5873  1.3283
 4301SOL    HW224540   4.254   1.734   1.286 -1.6958 -0.3616 -1.1597
 4302SOL     OW24541   4.139   3.154   4.285  0.3785 -0.3258  0.1519
 4302SOL    HW124542   4.133   3.246   4.311  0.2604 -0.6231  1.1919
 4302SOL    HW224543   4.192   3.118   4.357  0.2243  0.8651  0.8516
 4303SOL     OW24544   4.722   1.604   3.978  0.1942 -0.0568  0.5008
 4303SOL    HW124545   0.044   1.667   4.022 -0.5915  0.6149  0.5759
 4303SOL    HW224546   4.655   1.660   3.940 -0.1608 -0.8305 -0.0025
 4304SOL     OW24547   3.184   3.811  14.019  0.7558  0.0170 -0.0474
 4304SOL    HW124548   3.199   3.900  13.987  2.0449 -0.5903 -1.1361
 4304SOL    HW224549   3.234   3.782  13.944 -2.7040 -2.6795 -1.3053
 4305SOL     OW24550   4.065   3.139  12.830  0.3810  0.1632  0.0581
 4305SOL    HW124551   4.041   3.061  12.880 -0.5666 -0.6982 -1.7401
 4305SOL    HW224552   4.160   3.136  12.820  0.5061  2.2701  0.5693
 4306SOL     OW24553   1.372   1.193   4.278  0.1810  0.0047  0.0799
 4306SOL    HW124554   1.310   1.188   4.205  0.0791  1.3855  0.0745
 4306SOL    HW224555   1.360   1.112   4.328 -0.0535  0.1736  0.3025
 4307SOL     OW24556   2.034   2.151  17.303  0.6189 -0.5205  0.2284
 4307SOL    HW124557   2.010   2.173  17.393  1.2952 -2.2775  0.8138
 4307SOL    HW224558   2.040   2.056  17.308  0.1360 -0.6418 -1.5903
 4308SOL     OW24559   2.469   2.160   1.072  0.4404  0.5814 -0.1200
 4308SOL    HW124560   2.385   2.118   1.090  0.7268  0.0595 -0.0069
 4308SOL    HW224561   2.522   2.084   1.096 -0.2684  0.4575  1.0807
 4309SOL     OW24562   3.743   1.309   6.588 -0.2119 -0.0563  0.2678
 4309SOL    HW124563   3.713   1.272   6.505 -1.5451  5.1909 -1.5891
 4309SOL    HW224564   3.709   1.398   6.581 -0.2446 -0.1601 -1.0724
 4310SOL     OW24565   0.582   3.505   5.160  0.5147 -0.3076 -0.4388
 4310SOL    HW124566   0.626   3.524   5.244 -0.1322  0.1017 -0.1950
 4310SOL    HW224567   0.634   3.549   5.093  0.6805  1.0152  0.5529
 4311SOL     OW24568   2.064   2.750   2.864 -0.2798  0.0955  0.0528
 4311SOL    HW124569   2.052   2.808   2.789  1.5619 -0.4792 -0.6824
 4311SOL    HW224570   2.001   2.679   2.851  1.3085 -1.0313 -1.5574
 4312SOL     OW24571   1.735   2.941   7.876 -0.0832  0.4748  0.2786
 4312SOL    HW124572   1.685   2.917   7.954  2.1591 -0.8517  1.2979
 4312SOL    HW224573   1.661   2.967   7.821  0.1378 -4.1652 -2.2317
 4313SOL     OW24574   2.895   2.696   2.340 -0.3559 -0.0909  0.3955
 4313SOL    HW124575   2.973   2.735   2.381 -0.2797  0.2954 -0.1249
 4313SOL    HW224576   2.838   2.689   2.417  0.3470  1.7191  1.0877
 4314SOL     OW24577   1.339   0.106   5.660 -0.3754  0.3192 -0.0769
 4314SOL    HW124578   1.257   0.127   5.705  0.1225 -0.4586  1.1939
 4314SOL    HW224579   1.308   0.112   5.570  1.0034 -2.0721 -0.7153
 4315SOL     OW24580   3.408   2.216   8.000 -0.1563  0.4993  0.0242
 4315SOL    HW124581   3.438   2.137   8.046 -2.8824 -1.3719 -1.4343
 4315SOL    HW224582   3.476   2.218   7.932 -0.8958 -1.3498 -0.7766
 4316SOL     OW24583   3.734   0.606   1.584  0.6149 -0.2440  0.1301
 4316SOL    HW124584   3.750   0.601   1.490  1.8628 -1.5768  0.4057
 4316SOL    HW224585   3.791   0.677   1.614  1.2781 -0.8266  0.2724
 4317SOL     OW24586   1.889   3.663   3.115 -0.0348  0.3759 -1.0060
 4317SOL    HW124587   1.952   3.616   3.169 -1.6114 -0.7709 -0.1626
 4317SOL    HW224588   1.867   3.733   3.177  1.3912  0.7356 -0.9164
 4318SOL     OW24589   1.665   3.863   2.908 -0.1269  0.3547  0.4195
 4318SOL    HW124590   1.757   3.843   2.895  0.1344  2.0003 -0.2744
 4318SOL    HW224591   1.685   3.954   2.930  0.3549  0.4327 -0.3477
 4319SOL     OW24592   1.786   1.253   2.585  0.1206  0.1381  0.3799
 4319SOL    HW124593   1.715   1.246   2.521  0.6340 -0.0209 -0.1702
 4319SOL    HW224594   1.852   1.217   2.527  0.6089  2.7257 -0.6873
 4320SOL     OW24595   3.492   0.771   3.589 -0.1605  0.3610 -0.3122
 4320SOL    HW124596   3.529   0.773   3.677  0.2390 -0.7288 -0.4504
 4320SOL    HW224597   3.471   0.863   3.574  0.2600  0.7486  1.5119
 4321SOL     OW24598   4.461   2.971   8.954  0.0261  0.3946 -0.0157
 4321SOL    HW124599   4.404   2.903   8.919 -0.7014  0.0389  1.8471
 4321SOL    HW224600   4.397   3.016   9.010 -0.1656  0.0938  0.0070
 4322SOL     OW24601   2.326   0.261   5.740  0.6226  0.2301  0.0524
 4322SOL    HW124602   2.396   0.270   5.805 -1.3512 -2.4815  2.5032
 4322SOL    HW224603   2.291   0.350   5.741 -1.9751 -0.7728 -2.0425
 4323SOL     OW24604   3.780   0.912   4.939 -1.0193  0.1762  0.6872
 4323SOL    HW124605   3.698   0.865   4.953 -0.9394  0.3332  1.6892
 4323SOL    HW224606   3.803   0.887   4.849 -0.1729 -0.5513  1.1102
 4324SOL     OW24607   0.784   2.325   3.476 -0.0799  0.2969  0.0538
 4324SOL    HW124608   0.696   2.337   3.442  0.7333 -0.3142 -2.2400
 4324SOL    HW224609   0.835   2.311   3.396  1.1483 -1.4129  1.1262
 4325SOL     OW24610   4.434   3.369   0.032  0.1463  0.2349  0.0133
 4325SOL    HW124611   4.359   3.399   0.083 -0.7674 -0.9369 -0.6414
 4325SOL    HW224612   4.433   3.274   0.046 -0.4968  0.1959 -0.3199
 4326SOL     OW24613   0.345   3.369  15.022 -0.1469 -0.3871  0.0209
 4326SOL    HW124614   0.299   3.331  14.947 -0.9289 -1.1404  0.8850
 4326SOL    HW224615   0.390   3.441  14.977 -0.3495 -2.5000 -3.5382
 4327SOL     OW24616   0.753   1.742  11.014 -0.2187 -0.5453  0.0610
 4327SOL    HW124617   0.743   1.731  11.109 -3.6406  0.9841 -0.1200
 4327SOL    HW224618   0.819   1.810  11.005  1.2725 -2.3441 -2.5506
 4328SOL     OW24619   0.887   3.272   3.358  0.1929  0.1612 -0.1422
 4328SOL    HW124620   0.865   3.179   3.356 -0.7674  0.3691  0.7145
 4328SOL    HW224621   0.871   3.303   3.447  0.3163 -0.9383  0.2598
 4329SOL     OW24622   2.213   0.455   8.340  0.4618  0.0778  0.1029
 4329SOL    HW124623   2.152   0.419   8.275 -0.3065 -1.7632  1.8268
 4329SOL    HW224624   2.290   0.426   8.293  0.2768  1.6274 -1.1470
 4330SOL     OW24625   1.515   3.368   8.065  0.3217  0.1824 -0.1609
 4330SOL    HW124626   1.515   3.456   8.026 -1.7773  0.7817  1.1711
 4330SOL    HW224627   1.431   3.377   8.109  0.9087  0.2811  0.9416
 4331SOL     OW24628   0.518   0.693   5.494  0.0997 -0.4266  0.2655
 4331SOL    HW124629   0.600   0.743   5.489  0.5593 -1.4258 -1.9570
 4331SOL    HW224630   0.488   0.711   5.583  0.8543 -1.8391  0.7905
 4332SOL     OW24631   3.060   1.227  12.955 -0.6237 -0.1723 -0.0644
 4332SOL    HW124632   3.062   1.320  12.931 -2.8507 -0.5692 -1.7562
 4332SOL    HW224633   3.132   1.224  13.018 -0.0108  0.6587 -0.7218
 4333SOL     OW24634   1.527   0.266   6.597  0.2318  0.3476 -0.3645
 4333SOL    HW124635   1.485   0.339   6.550  1.5933  2.7188  2.1518
 4333SOL    HW224636   1.508   0.198   6.532 -1.0016  0.7775 -0.4711
 4334SOL     OW24637   4.672   3.397   6.279  0.3842 -0.4597  0.3011
 4334SOL    HW124638   4.582   3.403   6.311  0.6873 -2.8203  1.6127
 4334SOL    HW224639   4.712   3.468   6.331  1.6549 -1.0236  0.0827
 4335SOL     OW24640   3.201   1.734   9.370  0.2930  0.9547 -0.4123
 4335SOL    HW124641   3.125   1.682   9.396  0.2838  0.9002 -0.5522
 4335SOL    HW224642   3.234   1.744   9.460  0.4530 -1.3558 -0.2172
 4336SOL     OW24643   3.161   3.195   6.976 -0.2202  0.0878 -0.0827
 4336SOL    HW124644   3.216   3.271   6.994 -0.1671  0.1501 -0.5091
 4336SOL    HW224645   3.200   3.133   7.037 -0.4677 -0.4833 -0.5048
 4337SOL     OW24646   4.214   3.984   7.043  0.3425  0.1680 -0.6781
 4337SOL    HW124647   4.176   4.062   7.083  0.2897 -0.5682  0.6819
 4337SOL    HW224648   4.147   3.984   6.974 -3.3208 -2.4682  2.9085
 4338SOL     OW24649   2.876   1.546   8.173  0.5802 -0.1802  0.0276
 4338SOL    HW124650   2.909   1.629   8.208 -1.3533  1.6063 -2.3921
 4338SOL    HW224651   2.782   1.552   8.185  0.0952 -5.0475 -1.3300
 4339SOL     OW24652   0.003   1.891   7.215  0.1331 -0.4879  0.1765
 4339SOL    HW124653   4.708   1.932   7.135  0.7028 -0.3550  0.0284
 4339SOL    HW224654   0.056   1.962   7.251  0.1047 -0.7841  0.8120
 4340SOL     OW24655   4.557   0.277   3.410  0.1341  0.9432  0.3726
 4340SOL    HW124656   4.635   0.296   3.358 -0.9851  0.9569 -1.2978
 4340SOL    HW224657   4.496   0.336   3.366 -2.7984 -1.5881  1.0498
 4341SOL     OW24658   0.210   1.192   3.839  0.4686  0.0529  0.3019
 4341SOL    HW124659   0.202   1.253   3.912 -0.0932  0.6837 -0.2862
 4341SOL    HW224660   0.294   1.220   3.803  0.5495  0.0733  0.5072
 4342SOL     OW24661   2.107   2.656   5.531  0.1104 -0.2198 -0.2431
 4342SOL    HW124662   2.125   2.637   5.440 -0.5999 -1.4672 -0.1184
 4342SOL    HW224663   2.187   2.613   5.560 -0.7729 -0.6822  1.5203
 4343SOL     OW24664   3.262   1.913   1.260  0.9758 -0.5285 -0.4436
 4343SOL    HW124665   3.258   1.933   1.353 -0.1581  0.4745 -0.7082
 4343SOL    HW224666   3.336   1.972   1.247 -0.8248  1.3894 -2.0563
 4344SOL     OW24667   0.157   0.150   3.318 -0.1879 -0.6315  0.4438
 4344SOL    HW124668   0.093   0.215   3.347  0.3134  0.9951 -2.0626
 4344SOL    HW224669   0.240   0.196   3.308 -0.4019 -0.7781 -2.1079
 4345SOL     OW24670   0.997   0.244  13.204 -0.5073  0.5945  0.0864
 4345SOL    HW124671   0.903   0.257  13.222 -0.4946 -0.1554  0.6782
 4345SOL    HW224672   1.029   0.323  13.247 -2.5511  1.2153  0.4855
 4346SOL     OW24673   2.084   3.785   3.554 -0.2330 -0.3168  0.9778
 4346SOL    HW124674   1.992   3.768   3.575 -0.9322  0.4099 -1.4140
 4346SOL    HW224675   2.113   3.837   3.629  0.6326  0.2628  0.2456
 4347SOL     OW24676   4.274   1.246   6.375 -0.6296 -0.1586  0.1272
 4347SOL    HW124677   4.311   1.159   6.359  1.7576  0.8697 -0.0001
 4347SOL    HW224678   4.214   1.258   6.301 -0.0792 -1.3569 -0.5069
 4348SOL     OW24679   1.597   1.262   2.780  0.0609 -0.0812  0.1250
 4348SOL    HW124680   1.632   1.256   2.869  0.3610 -1.2106 -0.0685
 4348SOL    HW224681   1.682   1.263   2.736  0.0686 -0.6851  0.1326
 4349SOL     OW24682   0.376   2.215   1.880  0.5810  0.5371  0.2263
 4349SOL    HW124683   0.361   2.143   1.942  1.1076 -0.9491 -1.3806
 4349SOL    HW224684   0.461   2.247   1.909  0.3654 -0.6108  2.1190
 4350SOL     OW24685   1.096   3.831   3.802 -0.2057 -0.4171  0.6649
 4350SOL    HW124686   1.115   3.906   3.858 -1.8972  0.4989  0.0117
 4350SOL    HW224687   1.028   3.864   3.742 -0.4447 -2.8166 -0.3750
 4351SOL     OW24688   3.266   4.372   9.405 -0.1888 -0.2733  0.5478
 4351SOL    HW124689   3.230   4.345   9.320 -1.1298  2.0946  0.2023
 4351SOL    HW224690   3.358   4.363   9.381  0.5256  0.5690  3.0620
 4352SOL     OW24691   2.500   0.375   8.150  0.0091 -0.0655 -0.1826
 4352SOL    HW124692   2.545   0.374   8.235  0.1109  0.7276 -0.2223
 4352SOL    HW224693   2.518   0.460   8.110 -0.7356  0.6142  0.9348
 4353SOL     OW24694   0.409   1.885   2.278  0.0103 -0.0328  0.2636
 4353SOL    HW124695   0.364   1.964   2.249 -0.3946  0.2925  1.7806
 4353SOL    HW224696   0.343   1.825   2.310  1.1218 -1.3337  0.1194
 4354SOL     OW24697   1.959   3.482  14.206 -0.0883 -0.2183 -0.4476
 4354SOL    HW124698   2.032   3.441  14.253  0.3770  1.2927  0.1478
 4354SOL    HW224699   1.892   3.458  14.270  0.0323  1.3665  0.2625
 4355SOL     OW24700   3.837   0.321   3.405 -0.1031 -0.2583  0.1102
 4355SOL    HW124701   3.770   0.358   3.463 -0.1898  0.8603 -0.7089
 4355SOL    HW224702   3.824   0.228   3.425 -0.3592 -0.1549  0.4378
 4356SOL     OW24703   2.843   1.485  16.821 -0.0310  0.5285  0.3926
 4356SOL    HW124704   2.836   1.447  16.733 -0.5310 -0.1165  0.7063
 4356SOL    HW224705   2.882   1.572  16.811 -1.1805  1.0307  0.3220
 4357SOL     OW24706   4.439   3.514  14.151 -0.2914  0.0319 -0.3128
 4357SOL    HW124707   4.446   3.440  14.211 -3.3478  0.1469  0.1840
 4357SOL    HW224708   4.528   3.551  14.150  0.4076 -1.7701 -2.7814
 4358SOL     OW24709   0.649   3.039  10.993 -0.2570  0.0576 -0.9478
 4358SOL    HW124710   0.687   3.097  10.928 -0.0549 -0.3850 -1.2230
 4358SOL    HW224711   0.727   3.000  11.032 -1.9170 -1.4623  0.8481
 4359SOL     OW24712   1.270   3.547  14.811  0.4786  0.2000 -0.3751
 4359SOL    HW124713   1.275   3.606  14.736 -2.2144  1.8856  0.7480
 4359SOL    HW224714   1.202   3.485  14.784  0.1125  0.8121 -0.8676
 4360SOL     OW24715   2.486   0.873  12.471  0.0971  0.1715  0.0324
 4360SOL    HW124716   2.480   0.966  12.493 -2.2137  0.9917 -4.0796
 4360SOL    HW224717   2.478   0.868  12.376 -2.2066 -1.8816  0.3269
 4361SOL     OW24718   3.835   2.631  13.187 -0.2235 -0.2164 -0.5495
 4361SOL    HW124719   3.910   2.668  13.234  0.4368  0.9604 -2.5626
 4361SOL    HW224720   3.765   2.667  13.242 -0.1551 -1.0024  0.0595
 4362SOL     OW24721   2.322   2.349  13.414  0.0953  0.3583 -0.3201
 4362SOL    HW124722   2.237   2.369  13.374  0.2130  3.6841  1.1877
 4362SOL    HW224723   2.357   2.285  13.351 -1.1552 -1.2802  0.6340
 4363SOL     OW24724   4.515   1.731  12.714  0.0095  0.0657 -0.3917
 4363SOL    HW124725   4.528   1.641  12.683  0.3766 -0.3857  1.0879
 4363SOL    HW224726   4.604   1.765  12.708 -1.2872  3.3063 -1.1842
 4364SOL     OW24727   2.447   3.644   0.784 -0.2215  0.5509 -0.3775
 4364SOL    HW124728   2.378   3.687   0.835 -1.5651 -0.0480 -1.6915
 4364SOL    HW224729   2.396   3.565   0.767  0.1570 -0.2220  2.0230
 4365SOL     OW24730   1.569   2.186  12.215 -0.2453 -0.3208  0.1797
 4365SOL    HW124731   1.522   2.122  12.269  0.8860 -2.1896 -1.0645
 4365SOL    HW224732   1.633   2.128  12.174  1.6532  1.4307  0.6370
 4366SOL     OW24733   2.571   2.055   5.956  0.1374 -0.0899 -0.1571
 4366SOL    HW124734   2.570   2.150   5.961  0.4347 -0.1582  1.0367
 4366SOL    HW224735   2.603   2.046   5.866  0.7588  3.1977 -0.2483
 4367SOL     OW24736   3.148   4.422   4.678  0.0420 -0.8032 -0.5368
 4367SOL    HW124737   3.137   4.447   4.770  0.1545 -2.3785 -0.1051
 4367SOL    HW224738   3.070   4.371   4.658 -0.2385 -1.2839  1.7664
 4368SOL     OW24739   1.615   4.661   6.568  0.1654 -0.2656  0.5530
 4368SOL    HW124740   1.678   4.609   6.519  0.6021  1.4358 -0.6949
 4368SOL    HW224741   1.553   4.693   6.503 -0.7113 -2.5991  0.2380
 4369SOL     OW24742   2.053   1.198   9.002  0.5225 -0.2369  0.8244
 4369SOL    HW124743   2.127   1.177   9.059  0.6290  0.0600  0.7956
 4369SOL    HW224744   1.996   1.128   9.032  1.1472 -2.6416 -3.5525
 4370SOL     OW24745   3.573   2.379   5.027  0.4907 -0.4807  0.3757
 4370SOL    HW124746   3.500   2.422   5.073  0.4646  2.2673 -2.2406
 4370SOL    HW224747   3.567   2.293   5.068 -0.0097 -0.2191  0.8582
 4371SOL     OW24748   2.147   2.066   8.740 -0.0293 -0.0798 -0.0987
 4371SOL    HW124749   2.207   2.087   8.811 -0.2421 -1.5946  0.5402
 4371SOL    HW224750   2.142   2.151   8.696  0.6029 -0.1631 -0.3272
 4372SOL     OW24751   2.949   1.008  11.438  0.0020  0.2938 -0.1466
 4372SOL    HW124752   2.870   0.988  11.387 -1.0328 -1.2531  2.0649
 4372SOL    HW224753   2.920   1.087  11.483  0.7848  1.9825 -2.5822
 4373SOL     OW24754   3.595   3.554   4.003  0.6588 -0.2395  0.7215
 4373SOL    HW124755   3.669   3.565   4.062 -0.1740 -2.0768  2.1007
 4373SOL    HW224756   3.634   3.551   3.915  0.8785  0.9782  0.7821
 4374SOL     OW24757   1.628   4.252   4.326  0.0235 -0.2716 -0.4798
 4374SOL    HW124758   1.692   4.181   4.320  0.3205 -0.0674  0.3054
 4374SOL    HW224759   1.560   4.201   4.369  0.2244  1.5270  1.9569
 4375SOL     OW24760   2.298   1.433  12.421 -0.4172 -0.2382 -0.2420
 4375SOL    HW124761   2.206   1.459  12.418 -0.7095 -1.2508 -0.1014
 4375SOL    HW224762   2.280   1.343  12.450  0.3864 -0.0722  0.7471
 4376SOL     OW24763   1.750   1.914   5.943 -0.1676  0.1927 -0.5613
 4376SOL    HW124764   1.700   1.955   6.013 -0.8890  0.3940 -1.1842
 4376SOL    HW224765   1.697   1.835   5.937 -0.0205 -0.0345  1.3169
 4377SOL     OW24766   3.577   3.875   8.527 -0.5504  0.1213 -0.4205
 4377SOL    HW124767   3.509   3.873   8.459 -0.5174  1.7650 -0.4795
 4377SOL    HW224768   3.658   3.883   8.477 -0.2016 -0.4400  0.0514
 4378SOL     OW24769   2.945   2.029   2.599 -0.4785 -0.1572 -0.3816
 4378SOL    HW124770   3.023   2.085   2.600 -0.8738  0.3721  0.8765
 4378SOL    HW224771   2.968   1.978   2.677 -0.0840 -2.0399 -1.7307
 4379SOL     OW24772   3.416   4.121   0.801 -0.2931 -0.4840 -0.6219
 4379SOL    HW124773   3.414   4.114   0.706  0.2365  0.4937 -0.7099
 4379SOL    HW224774   3.384   4.211   0.810 -1.3725 -0.9539  0.2960
 4380SOL     OW24775   3.651   0.140   6.977  0.2027 -0.1788 -0.4014
 4380SOL    HW124776   3.626   0.161   7.067 -0.1585 -1.8792 -0.0996
 4380SOL    HW224777   3.587   0.072   6.956 -1.6635  2.0280 -1.8929
 4381SOL     OW24778   1.992   0.531   5.048  0.1632  0.3554  0.2199
 4381SOL    HW124779   1.933   0.602   5.073 -0.0917  0.2309 -0.0339
 4381SOL    HW224780   1.950   0.469   5.108 -0.7771 -0.8117 -1.6620
 4382SOL     OW24781   1.184   1.025   3.570 -0.1566 -0.0802  0.2122
 4382SOL    HW124782   1.203   0.947   3.622  0.3200 -1.0254 -1.4065
 4382SOL    HW224783   1.269   1.037   3.528 -0.8129  0.5290 -0.9506
 4383SOL     OW24784   3.565   3.842   5.658  0.0093 -0.4494  0.0814
 4383SOL    HW124785   3.566   3.911   5.725  1.7795 -2.2583  1.9012
 4383SOL    HW224786   3.500   3.783   5.696  0.3411 -1.0114 -0.2340
 4384SOL     OW24787   3.193   1.016  16.991  0.5787 -0.0864 -0.3678
 4384SOL    HW124788   3.237   0.979  16.914 -0.0138 -1.2408 -0.1619
 4384SOL    HW224789   3.249   1.093  16.995 -1.6418  1.4289  1.1047
 4385SOL     OW24790   4.028   2.695   7.185 -1.0578  0.5419  0.4157
 4385SOL    HW124791   4.104   2.637   7.187 -0.8476  0.8413  1.1051
 4385SOL    HW224792   4.030   2.758   7.113 -2.0608 -1.1932 -1.1143
 4386SOL     OW24793   3.925   3.339   7.682 -0.5097 -0.6742  0.4363
 4386SOL    HW124794   3.968   3.338   7.768 -3.3034  1.0204  1.8676
 4386SOL    HW224795   3.940   3.247   7.660  0.6723 -0.1105 -1.0487
 4387SOL     OW24796   3.099   1.111   3.787 -0.2800  0.0513 -0.7030
 4387SOL    HW124797   3.179   1.141   3.745 -0.0311 -1.6322 -1.4362
 4387SOL    HW224798   3.040   1.110   3.711 -1.6673 -0.5590  0.3579
 4388SOL     OW24799   0.260   2.118   2.223 -0.2058  0.3112  0.1854
 4388SOL    HW124800   0.313   2.195   2.242  0.4863 -0.5270  1.6219
 4388SOL    HW224801   0.181   2.149   2.267  0.8315  1.0114  1.5652
 4389SOL     OW24802   1.440   1.084   7.874  0.0173  0.2124 -0.3239
 4389SOL    HW124803   1.529   1.064   7.902  0.5113 -0.3562 -2.2817
 4389SOL    HW224804   1.458   1.100   7.781 -0.7316  0.6708 -0.3896
 4390SOL     OW24805   2.596   2.316   7.310  0.1918  0.0535 -0.7528
 4390SOL    HW124806   2.585   2.230   7.269  3.1165 -1.2179  1.1407
 4390SOL    HW224807   2.690   2.328   7.324 -0.1588  1.8442  0.1048
 4391SOL     OW24808   0.991   2.554   3.474 -0.4719 -0.5065 -0.0415
 4391SOL    HW124809   0.940   2.597   3.406 -0.5057 -1.4903 -0.6374
 4391SOL    HW224810   0.946   2.471   3.488  1.3141 -1.8071 -1.9274
 4392SOL     OW24811   3.604   0.501   4.181  0.6560 -0.5155  0.3741
 4392SOL    HW124812   3.604   0.430   4.118  3.3201  1.4137 -1.7860
 4392SOL    HW224813   3.609   0.460   4.267  2.9493  0.8844  0.8934
 4393SOL     OW24814   4.652   0.124   2.030  0.2935 -0.8018 -0.2402
 4393SOL    HW124815   4.609   0.086   1.953  1.3553  0.7202 -1.5679
 4393SOL    HW224816   4.572   0.152   2.075  0.5789 -0.4025  0.0173
 4394SOL     OW24817   3.000   0.583  11.627 -0.1828 -0.5856 -0.2944
 4394SOL    HW124818   2.915   0.611  11.663 -0.1384 -1.8397  0.7515
 4394SOL    HW224819   3.048   0.666  11.631  1.1984 -1.4055  0.0560
 4395SOL     OW24820   3.521   3.552   5.303  0.0436  0.1250  0.2939
 4395SOL    HW124821   3.533   3.468   5.260  0.1197  0.1991  0.1715
 4395SOL    HW224822   3.612   3.580   5.308 -0.5351  2.4400 -1.7700
 4396SOL     OW24823   0.675   3.446   2.290  0.0169 -0.0725  0.2861
 4396SOL    HW124824   0.627   3.372   2.253 -1.3771  0.9560  0.0383
 4396SOL    HW224825   0.673   3.511   2.219 -0.9777 -0.8343 -0.3698
 4397SOL     OW24826   0.457   3.201   5.811 -0.0924  0.2985  0.6009
 4397SOL    HW124827   0.511   3.278   5.792  1.5288 -1.0350 -0.2094
 4397SOL    HW224828   0.515   3.159   5.875  0.7045 -1.5435 -1.3366
 4398SOL     OW24829   3.029   2.909   2.867 -0.2624  0.1046  0.2128
 4398SOL    HW124830   3.093   2.906   2.796 -0.2499  0.2938  0.2174
 4398SOL    HW224831   2.950   2.928   2.817  1.7673  2.7396 -2.0235
 4399SOL     OW24832   1.298   1.494   7.892  0.3407 -0.3908  0.0032
 4399SOL    HW124833   1.240   1.435   7.843  0.6867 -0.0980 -0.7587
 4399SOL    HW224834   1.235   1.559   7.923  0.6583  0.4795 -1.1682
 4400SOL     OW24835   0.876   2.639  16.951 -0.1375 -0.2458 -0.3685
 4400SOL    HW124836   0.831   2.724  16.943  0.5610  0.2816  1.4225
 4400SOL    HW224837   0.849   2.601  16.867  0.5737  0.9152 -1.1314
 4401SOL     OW24838   1.873   2.954   4.165  0.2468  0.1927  0.6564
 4401SOL    HW124839   1.883   2.859   4.171  1.0683  0.1850 -0.6554
 4401SOL    HW224840   1.793   2.971   4.115  0.6966 -1.9844 -0.8352
 4402SOL     OW24841   0.942   3.187   7.033  0.4160 -0.1913  0.1561
 4402SOL    HW124842   0.945   3.130   6.956 -0.5960 -1.1745  0.8442
 4402SOL    HW224843   0.847   3.191   7.046  0.2749 -0.6305 -0.7300
 4403SOL     OW24844   3.245   3.203  13.672 -0.1921  0.1534 -0.5422
 4403SOL    HW124845   3.320   3.194  13.613  0.5018 -0.7270  0.4762
 4403SOL    HW224846   3.200   3.278  13.634 -1.3866  0.2076  0.9879
 4404SOL     OW24847   1.873   1.786   8.216 -0.1515 -0.6706 -0.4496
 4404SOL    HW124848   1.777   1.792   8.215 -0.1299  0.3071  2.2978
 4404SOL    HW224849   1.895   1.867   8.170 -0.2845  0.5662  1.6695
 4405SOL     OW24850   1.158   2.883   8.213 -0.3261  0.0905 -0.5547
 4405SOL    HW124851   1.112   2.899   8.131 -2.8194 -1.3554  0.5642
 4405SOL    HW224852   1.206   2.802   8.197 -2.3478 -0.9928 -1.2264
 4406SOL     OW24853   0.726   3.927  13.724  0.3254 -0.6148  0.7921
 4406SOL    HW124854   0.812   3.887  13.732 -0.4009 -2.5352 -0.9417
 4406SOL    HW224855   0.730   3.986  13.648 -0.6315 -0.1767  1.0816
 4407SOL     OW24856   4.651   3.784   5.510  0.0308 -0.9781 -0.1535
 4407SOL    HW124857   4.651   3.810   5.418 -0.5947  0.7746  0.3390
 4407SOL    HW224858   4.613   3.696   5.508 -2.8204  0.2299  0.8613
 4408SOL     OW24859   1.774   2.494  12.863 -0.5641  0.2541  0.2769
 4408SOL    HW124860   1.778   2.416  12.808  0.4918 -0.6444  1.6069
 4408SOL    HW224861   1.759   2.564  12.800 -0.3762  0.7342  0.7636
 4409SOL     OW24862   3.311   0.005   4.487  0.5346  0.0329  0.0204
 4409SOL    HW124863   3.372   4.724   4.559  0.9030  1.4218  0.0183
 4409SOL    HW224864   3.328   0.097   4.466  2.8642 -0.2744  0.6575
 4410SOL     OW24865   3.487   3.802   2.856  0.6464  0.1928 -0.1260
 4410SOL    HW124866   3.445   3.881   2.887 -0.7212  0.2610 -2.1119
 4410SOL    HW224867   3.563   3.806   2.914 -0.1988  2.2735  0.8228
 4411SOL     OW24868   4.404   0.795   8.364 -0.6686 -0.4593  0.2070
 4411SOL    HW124869   4.494   0.780   8.391 -0.0959  1.3095 -0.6913
 4411SOL    HW224870   4.363   0.830   8.443 -0.6104 -0.0193  0.0435
 4412SOL     OW24871   4.306   2.677  17.113 -0.0647  0.3443 -0.1725
 4412SOL    HW124872   4.220   2.714  17.091  1.5239  3.7052 -0.5817
 4412SOL    HW224873   4.274   2.623  17.185 -0.4301  3.1387  1.7334
 4413SOL     OW24874   4.626   0.178   8.843  0.3061 -0.3581 -0.5756
 4413SOL    HW124875   4.557   0.133   8.893  1.1788 -0.4247  0.5481
 4413SOL    HW224876   4.673   0.228   8.909 -0.3560 -1.9955  1.1289
 4414SOL     OW24877   1.795   1.983   7.772  0.7101  0.6945 -0.0367
 4414SOL    HW124878   1.848   2.023   7.703  0.9484  2.3641  1.1238
 4414SOL    HW224879   1.707   2.021   7.763  0.6622  0.4923 -0.4505
 4415SOL     OW24880   4.065   1.388  10.273 -0.1202 -0.1080  0.0715
 4415SOL    HW124881   4.096   1.343  10.352 -1.0562 -2.1087 -0.6853
 4415SOL    HW224882   4.100   1.476  10.285 -0.8210  0.2242 -0.3629
 4416SOL     OW24883   0.418   3.997  16.843  0.1662  0.4953 -0.4474
 4416SOL    HW124884   0.401   4.062  16.775 -0.2683  0.7866 -0.0646
 4416SOL    HW224885   0.512   3.981  16.841  0.2793  1.2180 -1.0502
 4417SOL     OW24886   2.629   1.087  12.148 -0.0972  0.6432 -0.0448
 4417SOL    HW124887   2.542   1.075  12.186 -0.7182  1.9410 -1.0901
 4417SOL    HW224888   2.617   1.182  12.140 -1.4676  0.5511  0.8848
 4418SOL     OW24889   3.264   0.461  15.933 -0.4628 -0.0540 -0.0238
 4418SOL    HW124890   3.322   0.527  15.895  3.0062 -1.4703  2.8349
 4418SOL    HW224891   3.329   0.392  15.945 -0.6435 -0.1405  0.4382
 4419SOL     OW24892   1.974   0.128  16.908 -0.1367 -0.6937  0.3942
 4419SOL    HW124893   2.030   0.124  16.831 -0.3004 -0.5537  0.2693
 4419SOL    HW224894   1.978   0.216  16.945 -0.8556 -0.1800 -0.7467
 4420SOL     OW24895   2.529   1.640  11.852  0.1897 -0.6501 -0.4304
 4420SOL    HW124896   2.510   1.553  11.818  0.0893 -0.4367 -0.9242
 4420SOL    HW224897   2.575   1.680  11.779  2.6159 -2.5249  0.0829
 4421SOL     OW24898   2.702   2.963   3.140 -0.4886 -0.4666  0.1807
 4421SOL    HW124899   2.646   2.920   3.206 -1.0003 -0.2848 -0.1334
 4421SOL    HW224900   2.709   3.049   3.183  1.7201 -1.8744  2.6566
 4422SOL     OW24901   4.508   4.374   7.663  0.2134  0.4385 -0.3231
 4422SOL    HW124902   4.510   4.315   7.739  1.6442 -0.4647 -1.0468
 4422SOL    HW224903   4.492   4.456   7.709 -0.2555  1.4347 -2.2887
 4423SOL     OW24904   2.143   1.499   4.822 -0.2455 -0.3049 -0.2714
 4423SOL    HW124905   2.232   1.473   4.848  0.2894  3.0462  1.3034
 4423SOL    HW224906   2.103   1.522   4.906 -0.4001  1.7855 -0.9273
 4424SOL     OW24907   2.419   3.036   6.836 -0.7604  0.1421  0.5219
 4424SOL    HW124908   2.328   3.035   6.866 -2.1891 -1.0960 -3.9141
 4424SOL    HW224909   2.449   3.115   6.881  1.7991 -1.4468  1.5760
 4425SOL     OW24910   4.567   0.915   4.962  0.4232 -0.7375  0.0317
 4425SOL    HW124911   4.591   0.967   4.886 -3.0552 -1.2033 -1.3384
 4425SOL    HW224912   4.535   0.981   5.024 -0.7451 -2.0400  0.8039
 4426SOL     OW24913   3.181   3.563   6.207 -0.1258 -0.2220 -0.1268
 4426SOL    HW124914   3.203   3.479   6.248 -1.1686 -0.2630  0.3424
 4426SOL    HW224915   3.190   3.624   6.280 -1.4185  0.2927 -0.4131
 4427SOL     OW24916   2.501   1.112  13.631  0.0194  0.1820 -0.1139
 4427SOL    HW124917   2.588   1.148  13.649  1.5029 -2.6088 -1.6318
 4427SOL    HW224918   2.457   1.143  13.710 -0.2854 -0.6635  0.0497
 4428SOL     OW24919   2.296   2.901  15.992  0.1700  0.2520 -0.6345
 4428SOL    HW124920   2.215   2.890  15.941 -1.1298 -2.1897  1.9550
 4428SOL    HW224921   2.291   2.830  16.055 -1.7429 -0.4603 -1.5957
 4429SOL     OW24922   3.326   2.085   8.533 -0.2529  0.7083  0.8522
 4429SOL    HW124923   3.321   1.989   8.535 -1.0719  0.6821 -1.8417
 4429SOL    HW224924   3.236   2.117   8.523 -0.0934  1.2323  1.1356
 4430SOL     OW24925   3.035   4.710  17.116 -0.4113  0.0869 -0.1150
 4430SOL    HW124926   3.059   0.064  17.139 -0.2647  1.2481 -4.8887
 4430SOL    HW224927   3.072   4.654  17.184  0.2017  1.4820  0.7171
 4431SOL     OW24928   1.584   4.248  11.625  0.2775  0.1579 -0.4736
 4431SOL    HW124929   1.676   4.226  11.610  1.0480  3.5635 -0.7222
 4431SOL    HW224930   1.560   4.189  11.696 -0.6390  1.4151  0.2590
 4432SOL     OW24931   3.979   3.862  14.779 -0.3666  0.5470  0.0429
 4432SOL    HW124932   3.994   3.927  14.847  0.6364  0.7597 -0.3724
 4432SOL    HW224933   3.955   3.788  14.835  1.9476 -0.2931 -0.0724
 4433SOL     OW24934   0.132   0.074   7.768  0.4867  0.3350  0.3985
 4433SOL    HW124935   0.134   4.730   7.714 -0.2839  1.1411 -0.8207
 4433SOL    HW224936   0.143   0.024   7.848  0.4017 -0.3259 -0.0035
 4434SOL     OW24937   4.292   1.062   4.199  0.4087  0.1511 -0.3730
 4434SOL    HW124938   4.387   1.065   4.184  0.5108  1.3122  0.5587
 4434SOL    HW224939   4.281   1.134   4.261  1.6806  0.7627 -0.8511
 4435SOL     OW24940   4.168   4.136   7.915 -0.4986  0.1792  0.6046
 4435SOL    HW124941   4.201   4.067   7.857  0.9701  0.6783  0.8701
 4435SOL    HW224942   4.239   4.140   7.978 -0.4303  0.1978  0.5262
 4436SOL     OW24943   3.145   4.534   7.828 -0.2885 -0.0820  0.6535
 4436SOL    HW124944   3.219   4.538   7.887  0.6236  2.3055 -0.6380
 4436SOL    HW224945   3.190   4.516   7.745  1.3807 -2.2180  2.0537
 4437SOL     OW24946   3.432   1.566   4.290  0.2253  0.1469  0.2223
 4437SOL    HW124947   3.355   1.591   4.240  1.0231  0.1031 -1.0430
 4437SOL    HW224948   3.447   1.473   4.269 -0.7844 -0.7072  3.1906
 4438SOL     OW24949   0.737   1.327   4.448  0.2153 -0.0756 -0.6254
 4438SOL    HW124950   0.736   1.362   4.537  1.9757  0.0045 -0.6354
 4438SOL    HW224951   0.644   1.331   4.423 -0.5637  0.3963  2.4401
 4439SOL     OW24952   3.721   3.367  12.360 -0.3879  0.0999  0.3104
 4439SOL    HW124953   3.717   3.419  12.280 -0.5448 -0.1088  0.1836
 4439SOL    HW224954   3.796   3.312  12.339  0.3362  0.6691  1.3558
 4440SOL     OW24955   2.223   1.069   5.828  0.1464  0.6925  0.6363
 4440SOL    HW124956   2.153   1.131   5.851 -0.1054  0.7558 -0.3150
 4440SOL    HW224957   2.290   1.109   5.884  0.5862  0.5664  0.1932
 4441SOL     OW24958   2.075   2.845   9.490 -0.4205 -0.5456 -0.2006
 4441SOL    HW124959   2.161   2.884   9.474 -0.5811 -0.6790 -1.3731
 4441SOL    HW224960   2.093   2.771   9.549 -0.5626  0.4061  1.0318
 4442SOL     OW24961   2.414   4.590  15.193  0.1223 -0.2683 -0.2747
 4442SOL    HW124962   2.476   4.604  15.265 -1.4829 -2.7651  1.6200
 4442SOL    HW224963   2.332   4.601  15.242 -0.8434 -0.0013 -1.9711
 4443SOL     OW24964   3.597   4.018   4.606  0.1807  0.4005  0.6572
 4443SOL    HW124965   3.601   4.110   4.633  0.6325  0.2994  0.9409
 4443SOL    HW224966   3.594   3.966   4.686 -2.4867  1.0475  0.9653
 4444SOL     OW24967   1.922   4.327   8.099 -0.2266  0.0680 -0.1637
 4444SOL    HW124968   1.962   4.362   8.178 -0.2809 -0.6579  0.1840
 4444SOL    HW224969   1.930   4.232   8.107  0.4897 -0.0174 -1.7437
 4445SOL     OW24970   3.986   4.472   0.899  0.0992  0.5839 -0.0602
 4445SOL    HW124971   4.018   4.475   0.809 -1.2887  2.7644 -0.4767
 4445SOL    HW224972   3.891   4.472   0.889 -0.0556 -0.2499  1.3924
 4446SOL     OW24973   2.686   2.851   2.886  0.2906  0.1446 -0.0925
 4446SOL    HW124974   2.667   2.909   2.959  0.8937 -0.7931  0.8106
 4446SOL    HW224975   2.640   2.891   2.812 -0.3747 -0.1557  0.1613
 4447SOL     OW24976   2.657   4.130   8.315  0.3915  0.5394  0.4259
 4447SOL    HW124977   2.642   4.195   8.384  0.6317 -1.7374  2.6411
 4447SOL    HW224978   2.710   4.176   8.250  0.3138  0.1953  0.1187
 4448SOL     OW24979   4.383   2.238   9.384  0.2835  0.0436  0.5277
 4448SOL    HW124980   4.359   2.298   9.455  1.0672  1.1266 -0.1269
 4448SOL    HW224981   4.352   2.153   9.416 -1.8476  1.4487  2.2114
 4449SOL     OW24982   1.902   3.848   2.568 -0.4706  0.1660 -0.0541
 4449SOL    HW124983   1.948   3.874   2.648 -0.8407  0.6674  0.0019
 4449SOL    HW224984   1.865   3.764   2.594  1.0031 -1.2165 -2.3985
 4450SOL     OW24985   3.552   3.764  12.953  0.7837 -0.2892  0.2767
 4450SOL    HW124986   3.589   3.688  12.908  0.3484 -1.4700  1.9179
 4450SOL    HW224987   3.555   3.740  13.046 -1.0834 -1.1769  0.1016
 4451SOL     OW24988   1.897   0.417   2.350 -0.1040  0.3789 -0.0974
 4451SOL    HW124989   1.897   0.395   2.443 -0.1751  3.6325  0.6716
 4451SOL    HW224990   1.815   0.383   2.313  1.2101 -4.6684  1.5493
 4452SOL     OW24991   0.083   2.179  14.920  0.2601  0.1193  1.1053
 4452SOL    HW124992   0.115   2.213  14.837 -2.0531 -0.9128 -0.2193
 4452SOL    HW224993   0.107   2.087  14.909  0.3264  0.3201 -0.3402
 4453SOL     OW24994   1.616   3.875   2.608 -0.9018 -0.2128  0.1828
 4453SOL    HW124995   1.614   3.901   2.700 -0.9130 -1.3942  0.5196
 4453SOL    HW224996   1.688   3.812   2.613 -1.8747 -1.2994  0.5332
 4454SOL     OW24997   0.598   4.586  10.775  0.4792  0.5223 -0.1462
 4454SOL    HW124998   0.605   4.510  10.834  1.9479 -0.5491 -1.7063
 4454SOL    HW224999   0.503   4.586  10.772  0.4395  1.0112  1.0607
 4455SOL     OW25000   1.463   3.088   7.053  0.0249 -0.0810  0.5515
 4455SOL    HW125001   1.536   3.066   6.995  0.8943 -0.4017  1.7794
 4455SOL    HW225002   1.443   3.180   7.036 -2.7575 -0.8019 -0.1504
 4456SOL     OW25003   2.052   3.244   9.630  0.8174  0.4831 -0.0161
 4456SOL    HW125004   2.026   3.152   9.632  1.2943  0.3505 -0.0866
 4456SOL    HW225005   2.147   3.234   9.634  0.3875 -2.6380  2.6521
 4457SOL     OW25006   2.996   0.804   8.808 -0.4730 -0.0531 -0.3468
 4457SOL    HW125007   2.928   0.835   8.868  1.6648  0.2176  1.9761
 4457SOL    HW225008   2.987   0.862   8.733  1.7989  1.4155  0.4976
 4458SOL     OW25009   4.312   3.736   0.343  0.7794  0.0440  0.3366
 4458SOL    HW125010   4.371   3.661   0.354 -0.7761 -1.2228  0.0656
 4458SOL    HW225011   4.270   3.707   0.263 -2.3171 -1.5583  2.5663
 4459SOL     OW25012   1.491   3.252   4.195 -0.2284  0.1325  0.2041
 4459SOL    HW125013   1.454   3.292   4.116  0.5592  0.0951 -0.1872
 4459SOL    HW225014   1.412   3.254   4.250 -1.1108  0.6611 -1.0795
 4460SOL     OW25015   0.062   0.357   9.335  0.7198 -1.0700  0.3514
 4460SOL    HW125016   0.123   0.418   9.376 -0.6653 -0.4607  1.4697
 4460SOL    HW225017   4.722   0.414   9.319  1.0341 -0.5919  0.5841
 4461SOL     OW25018   2.963   0.151   2.460  0.2186 -0.0038 -0.5246
 4461SOL    HW125019   2.882   0.100   2.462  1.5053 -2.0328  0.5412
 4461SOL    HW225020   2.930   0.240   2.454  0.9423  0.0000 -4.0752
 4462SOL     OW25021   4.372   1.572   0.350  0.0152  0.0793  0.2810
 4462SOL    HW125022   4.323   1.600   0.273 -2.1063 -0.1406  1.5584
 4462SOL    HW225023   4.434   1.513   0.306 -0.8858 -1.8064  1.5021
 4463SOL     OW25024   4.231   0.017   8.641 -0.2026 -0.1140  0.1317
 4463SOL    HW125025   4.231   0.113   8.644 -0.0630 -0.0373 -1.8625
 4463SOL    HW225026   4.327   0.008   8.641 -0.1889 -0.0312 -1.7865
 4464SOL     OW25027   0.524   4.118   4.317  0.1201 -0.4298  0.3563
 4464SOL    HW125028   0.508   4.209   4.344 -5.1217 -1.8646  1.9978
 4464SOL    HW225029   0.619   4.122   4.302 -0.1031  0.2446 -0.9174
 4465SOL     OW25030   2.271   2.725   5.850  0.0335  0.0432 -0.0347
 4465SOL    HW125031   2.273   2.820   5.854 -0.6257  0.0630 -0.1004
 4465SOL    HW225032   2.264   2.698   5.941 -0.4283  0.2061 -0.0192
 4466SOL     OW25033   0.754   1.946   3.100  0.4304 -0.5015  0.8082
 4466SOL    HW125034   0.735   1.854   3.085 -1.5280 -0.1995  1.4518
 4466SOL    HW225035   0.698   1.969   3.174 -1.7928  1.7669 -1.5577
 4467SOL     OW25036   1.181   2.256   5.273  0.3116 -0.4597  0.2388
 4467SOL    HW125037   1.208   2.322   5.338 -0.5289  1.5260 -1.4115
 4467SOL    HW225038   1.087   2.265   5.259  0.0585 -1.9361  1.0993
 4468SOL     OW25039   0.417   1.905   3.097  0.3343 -0.1912 -0.2991
 4468SOL    HW125040   0.392   1.917   3.188 -1.7385 -2.8828 -0.5199
 4468SOL    HW225041   0.398   1.989   3.055  1.5730 -0.2328 -0.9667
 4469SOL     OW25042   1.717   3.146   6.909  0.7439 -0.1021 -0.3866
 4469SOL    HW125043   1.763   3.068   6.940 -1.1721  0.4572  3.7646
 4469SOL    HW225044   1.738   3.133   6.816 -3.7265  1.0540 -1.5716
 4470SOL     OW25045   2.054   4.595   8.938 -0.9458 -0.0017 -0.2671
 4470SOL    HW125046   1.973   4.644   8.925 -2.1073 -1.5438  1.0384
 4470SOL    HW225047   2.030   4.532   9.006  0.5967 -0.0761  0.2006
 4471SOL     OW25048   4.461   4.028   2.881 -0.0323 -0.5738 -0.1886
 4471SOL    HW125049   4.546   4.068   2.899 -0.6016 -0.2800  1.9278
 4471SOL    HW225050   4.477   3.941   2.844  2.5143 -0.0185 -0.3637
 4472SOL     OW25051   2.331   1.781   6.710 -0.5922  0.4318 -0.1895
 4472SOL    HW125052   2.250   1.782   6.659  1.3177  1.6408 -3.2287
 4472SOL    HW225053   2.348   1.690   6.684  0.4416  0.3710  0.7053
 4473SOL     OW25054   2.280   1.769   3.141 -0.4716 -0.2378 -0.1803
 4473SOL    HW125055   2.308   1.809   3.058  0.7499 -0.8507 -0.0572
 4473SOL    HW225056   2.188   1.792   3.129 -0.7102 -0.9084  0.3701
 4474SOL     OW25057   3.183   4.721   6.740 -0.4152 -0.0882 -0.0156
 4474SOL    HW125058   3.200   4.659   6.811  0.0320  0.4685  0.3639
 4474SOL    HW225059   3.245   0.058   6.751 -1.5893  0.8536  0.5137
 4475SOL     OW25060   1.419   2.512  12.308 -0.4779 -0.1038  0.6104
 4475SOL    HW125061   1.497   2.465  12.278  0.3047  0.2793  2.0499
 4475SOL    HW225062   1.441   2.511  12.401 -0.9199 -0.8223  0.7061
 4476SOL     OW25063   0.288   2.972   5.759 -0.0442 -0.1601 -0.3969
 4476SOL    HW125064   0.313   2.902   5.819  0.9055  0.0123 -0.5817
 4476SOL    HW225065   0.359   3.031   5.781  0.4489 -0.8370 -0.1706
 4477SOL     OW25066   3.191   1.548  11.040  0.0199 -0.6128 -0.2947
 4477SOL    HW125067   3.202   1.591  10.956 -1.1330  0.8540  0.3039
 4477SOL    HW225068   3.248   1.473  11.023 -1.1482 -1.4434 -0.5610
 4478SOL     OW25069   1.157   1.042   9.856  0.2032  0.3718  0.8223
 4478SOL    HW125070   1.102   0.964   9.870 -0.1686  0.4194 -0.3635
 4478SOL    HW225071   1.216   1.043   9.931  1.9700 -1.5028 -0.5344
 4479SOL     OW25072   2.138   1.584   7.211  0.1445 -0.6424 -0.4647
 4479SOL    HW125073   2.153   1.588   7.116 -0.2412 -1.9963 -0.5747
 4479SOL    HW225074   2.075   1.513   7.222  1.4526 -1.8030 -0.6100
 4480SOL     OW25075   2.116   1.962  11.215  0.4303 -0.1464 -0.0927
 4480SOL    HW125076   2.026   1.994  11.224  0.8780  1.5729 -1.7419
 4480SOL    HW225077   2.102   1.868  11.217 -3.3627  0.3721 -1.8069
 4481SOL     OW25078   4.711   0.591  14.059  0.0723 -0.3328  0.1745
 4481SOL    HW125079   4.696   0.666  14.002 -0.0420  1.8933  3.0981
 4481SOL    HW225080   4.624   0.553  14.072  0.7478 -1.5546  1.1295
 4482SOL     OW25081   3.364   4.318   6.972 -0.4030  0.3572 -0.2829
 4482SOL    HW125082   3.276   4.339   6.942 -0.0551  1.3432 -0.6176
 4482SOL    HW225083   3.412   4.389   6.928  0.2250  0.4553  0.5570
 4483SOL     OW25084   1.069   4.340  12.404 -0.0158 -0.2971  0.5668
 4483SOL    HW125085   0.992   4.386  12.370  0.2577 -0.3763 -0.1642
 4483SOL    HW225086   1.055   4.335  12.498  0.8331 -1.6906  0.6121
 4484SOL     OW25087   2.416   4.468   9.958  0.3440  0.7136  0.4782
 4484SOL    HW125088   2.496   4.499  10.001  1.2625 -1.8134  0.5472
 4484SOL    HW225089   2.444   4.379   9.939  1.3085  1.1709 -0.2540
 4485SOL     OW25090   0.791   0.192   2.413  0.1708  0.3300  0.1340
 4485SOL    HW125091   0.709   0.235   2.437  2.2311  4.2444  0.1448
 4485SOL    HW225092   0.773   0.158   2.325  0.0691 -1.0916  0.6944
 4486SOL     OW25093   2.690   1.716   2.783  0.1517  0.7303 -0.1726
 4486SOL    HW125094   2.660   1.650   2.720 -2.2390  1.9235 -0.3001
 4486SOL    HW225095   2.764   1.673   2.826  0.4124 -0.1806 -1.5268
 4487SOL     OW25096   1.068   0.980   6.957  0.0447  0.4604 -0.4461
 4487SOL    HW125097   1.128   0.905   6.956 -0.6248 -0.0941  0.7726
 4487SOL    HW225098   0.989   0.929   6.942  0.5964 -0.1585 -1.2828
 4488SOL     OW25099   0.041   1.360   5.695 -0.0906 -0.1378  0.0567
 4488SOL    HW125100   0.027   1.453   5.680 -2.2101 -0.5439 -0.4633
 4488SOL    HW225101   4.697   1.347   5.748 -0.5720 -1.8015 -1.0678
 4489SOL     OW25102   0.010   0.046   5.930  0.3018  0.2697 -0.0858
 4489SOL    HW125103   0.064   0.080   5.859  0.6336  2.9643  1.4620
 4489SOL    HW225104   4.677   0.003   5.878 -0.0062  0.8550 -0.1653
 4490SOL     OW25105   1.358   1.456  11.755 -0.0394 -0.2994 -0.2709
 4490SOL    HW125106   1.314   1.381  11.793 -0.5317  1.1287  1.9591
 4490SOL    HW225107   1.409   1.486  11.829 -0.4091  1.8135 -0.8553
 4491SOL     OW25108   1.116   2.997   3.626 -0.4382 -0.1170  0.0799
 4491SOL    HW125109   1.049   3.051   3.667  0.6579  0.7317  0.7788
 4491SOL    HW225110   1.133   2.923   3.684 -0.8431  2.1936  3.1715
 4492SOL     OW25111   3.552   0.664  11.188  0.0016  0.5909  0.4213
 4492SOL    HW125112   3.594   0.733  11.138  0.2317  2.0095  2.5919
 4492SOL    HW225113   3.465   0.702  11.179 -0.2583 -0.4625 -1.5466
 4493SOL     OW25114   3.283   4.482  17.577  0.1872 -0.2851 -0.1268
 4493SOL    HW125115   3.263   4.492  17.670  0.4892  1.2534 -0.2164
 4493SOL    HW225116   3.357   4.423  17.587 -0.0756 -0.8123 -1.3468
 4494SOL     OW25117   3.295   3.595   7.586  0.2973  0.4950  0.8811
 4494SOL    HW125118   3.369   3.598   7.648  1.0803 -0.4272 -0.0048
 4494SOL    HW225119   3.342   3.618   7.506 -0.8980  3.4689  1.0369
 4495SOL     OW25120   3.261   3.625   5.943  0.2850 -0.0919  0.1070
 4495SOL    HW125121   3.246   3.711   5.904 -2.1802 -0.1399  0.9431
 4495SOL    HW225122   3.204   3.614   6.019  0.7139  0.5512  0.5223
 4496SOL     OW25123   1.778   3.766   5.322  0.4408  0.1399 -0.5471
 4496SOL    HW125124   1.822   3.684   5.343 -1.1933 -1.4096 -3.2951
 4496SOL    HW225125   1.826   3.798   5.245 -1.8922 -0.7880 -2.3976
 4497SOL     OW25126   2.072   1.564   8.603 -0.4825 -1.0034 -0.4885
 4497SOL    HW125127   2.108   1.495   8.659 -0.0910 -0.1104  0.3430
 4497SOL    HW225128   2.118   1.638   8.642 -1.0269  0.9870 -3.6270
 4498SOL     OW25129   3.562   0.806   6.667  0.0608 -0.4284 -0.1440
 4498SOL    HW125130   3.640   0.819   6.612 -0.3706 -1.6352 -1.0458
 4498SOL    HW225131   3.551   0.881   6.725 -1.8454 -0.6839 -0.1488
 4499SOL     OW25132   1.289   1.142  17.700 -0.2105  0.3966 -0.0357
 4499SOL    HW125133   1.259   1.053  17.683 -0.7390  0.4974  0.3742
 4499SOL    HW225134   1.209   1.192  17.680 -0.2167  0.4694  0.1679
 4500SOL     OW25135   1.699   0.927   2.303 -0.1985 -0.2400 -0.5041
 4500SOL    HW125136   1.623   0.869   2.307  0.3569 -0.9021  0.2466
 4500SOL    HW225137   1.765   0.870   2.342  1.3697  2.3292  0.5799
 4501SOL     OW25138   0.007   0.556   6.156  0.0774  0.2409  0.0641
 4501SOL    HW125139   4.658   0.513   6.172  0.9555 -0.3843  3.0644
 4501SOL    HW225140   0.061   0.492   6.202 -0.6638  1.6601  2.9347
 4502SOL     OW25141   3.121   1.427   3.696  0.0197  0.0228 -0.1009
 4502SOL    HW125142   3.135   1.473   3.780  0.5459 -0.6940  0.2055
 4502SOL    HW225143   3.103   1.511   3.654 -2.8025 -0.7095 -0.3122
 4503SOL     OW25144   2.458   0.588  12.983 -0.5535  0.0462  0.5817
 4503SOL    HW125145   2.443   0.552  12.895  2.3812 -1.6461  0.7689
 4503SOL    HW225146   2.538   0.639  12.970 -2.0224  2.2755  0.4375
 4504SOL     OW25147   0.487   1.149  14.657  0.0860  0.0461 -0.5790
 4504SOL    HW125148   0.548   1.221  14.643  0.6226 -0.3067 -0.0343
 4504SOL    HW225149   0.411   1.205  14.674 -0.6544 -0.8750 -0.9000
 4505SOL     OW25150   2.933   3.748   9.904  0.1076 -0.4644  0.1995
 4505SOL    HW125151   2.913   3.660   9.872 -0.1238 -0.1240 -0.6010
 4505SOL    HW225152   2.962   3.722   9.991  1.2153  0.9835  0.2607
 4506SOL     OW25153   0.685   0.299   6.838  0.2194  0.4525 -0.7115
 4506SOL    HW125154   0.618   0.364   6.860  1.0036  1.2040 -0.5431
 4506SOL    HW225155   0.707   0.245   6.914 -0.7732 -3.4945 -3.2601
 4507SOL     OW25156   2.610   0.591   2.550  0.4340 -0.0956  0.5019
 4507SOL    HW125157   2.655   0.647   2.486 -2.2306 -0.2938 -1.5598
 4507SOL    HW225158   2.611   0.644   2.630  2.1157 -0.7962  0.9463
 4508SOL     OW25159   3.216   3.331   7.484  0.0289  0.4734 -0.1751
 4508SOL    HW125160   3.233   3.421   7.513  0.0463  0.8211 -1.2441
 4508SOL    HW225161   3.286   3.329   7.418  0.7056 -0.0154  0.5598
 4509SOL     OW25162   3.900   1.054  12.813  0.6329 -0.4891 -0.4163
 4509SOL    HW125163   3.893   0.981  12.751 -0.1323 -0.8144  0.0528
 4509SOL    HW225164   3.890   1.133  12.761 -2.4790  0.0367  0.9725
 4510SOL     OW25165   1.829   0.980   5.572 -0.6420  0.0395 -0.4644
 4510SOL    HW125166   1.764   0.963   5.504 -2.9735  0.4472  1.6505
 4510SOL    HW225167   1.796   1.061   5.610 -2.1840 -0.7234 -0.1795
 4511SOL     OW25168   1.051   2.709   0.065 -0.0381 -0.1113 -0.3117
 4511SOL    HW125169   0.992   2.727   0.138  1.0646 -0.8153  0.7301
 4511SOL    HW225170   1.000   2.731  17.727 -1.0374 -0.1479  0.3338
 4512SOL     OW25171   3.276   1.185   5.955  0.1252 -0.0256 -0.1111
 4512SOL    HW125172   3.207   1.204   6.019 -0.1618 -2.3769  0.2733
 4512SOL    HW225173   3.279   1.090   5.948  0.9762 -0.0001 -0.0511
 4513SOL     OW25174   2.835   4.537   3.038  0.1041  0.4308  0.6283
 4513SOL    HW125175   2.915   4.494   3.007  0.2411  1.0913  0.0503
 4513SOL    HW225176   2.872   4.619   3.070  0.4690  1.3127 -2.0401
 4514SOL     OW25177   1.218   2.693   4.668  0.8020 -0.5508  0.2336
 4514SOL    HW125178   1.219   2.651   4.755 -2.3803 -0.6449  0.2251
 4514SOL    HW225179   1.304   2.666   4.635  0.5488 -0.5969 -0.3726
 4515SOL     OW25180   1.086   0.285   3.747 -0.6732 -0.1541  0.4998
 4515SOL    HW125181   1.094   0.343   3.824  1.3599  1.3742 -0.8676
 4515SOL    HW225182   1.128   0.213   3.793 -0.3826 -0.1675  0.2109
 4516SOL     OW25183   3.952   2.481   2.395 -0.1810 -0.0447  0.5513
 4516SOL    HW125184   3.880   2.523   2.348  1.5992  3.3827  0.8414
 4516SOL    HW225185   3.946   2.393   2.359 -0.8967  0.3555 -0.3128
 4517SOL     OW25186   1.352   3.300   3.959 -0.0369 -0.6657  0.1510
 4517SOL    HW125187   1.269   3.296   3.913 -0.1881  0.1766  0.3471
 4517SOL    HW225188   1.393   3.237   3.900  0.5231  0.4942 -0.6972
 4518SOL     OW25189   1.528   3.864   4.445 -0.0163 -0.0137  0.7615
 4518SOL    HW125190   1.482   3.948   4.453  0.2792  0.3026 -0.7851
 4518SOL    HW225191   1.572   3.867   4.360  0.4752  1.0865  1.0585
 4519SOL     OW25192   0.669   3.342   8.962  0.3697  0.0170  0.5019
 4519SOL    HW125193   0.586   3.320   8.921  0.0859 -2.0263  2.1441
 4519SOL    HW225194   0.730   3.275   8.930  2.5659  2.0821  0.3955
 4520SOL     OW25195   0.228   0.100   3.817  0.3233 -0.0921  0.5939
 4520SOL    HW125196   0.253   0.078   3.728  0.4282  1.3498  0.2709
 4520SOL    HW225197   0.245   0.194   3.816 -0.8226  0.0892 -1.6464
 4521SOL     OW25198   2.456   4.176   6.305 -0.0931  0.0106 -0.1071
 4521SOL    HW125199   2.408   4.211   6.230 -0.6452  0.5718  0.5133
 4521SOL    HW225200   2.512   4.116   6.255 -1.4451 -2.5886  1.4667
 4522SOL     OW25201   1.287   0.543   6.351  0.0438 -0.0563 -0.2895
 4522SOL    HW125202   1.216   0.601   6.375 -3.1098 -2.9289 -2.5831
 4522SOL    HW225203   1.263   0.511   6.264  1.5070  3.2234 -1.9266
 4523SOL     OW25204   2.280   2.665   2.113  0.0666 -0.6903  0.6196
 4523SOL    HW125205   2.289   2.758   2.092  2.6285 -1.0007  0.3151
 4523SOL    HW225206   2.323   2.665   2.199  0.7568  1.7549  0.2571
 4524SOL     OW25207   4.385   3.038   7.832  0.4050 -0.1866 -0.1832
 4524SOL    HW125208   4.343   2.978   7.893 -1.3191 -0.8089 -2.0015
 4524SOL    HW225209   4.339   3.019   7.751  0.3051  3.2558 -0.9494
 4525SOL     OW25210   1.402   0.032  14.787 -0.0649  0.3081  0.2152
 4525SOL    HW125211   1.324   0.035  14.733  0.0025 -0.0627  0.0922
 4525SOL    HW225212   1.473   0.027  14.723  0.4534  0.8277  0.7532
 4526SOL     OW25213   2.868   2.969   1.836 -0.2305  0.8324 -0.6230
 4526SOL    HW125214   2.846   2.977   1.743 -1.1463  0.0661 -0.4720
 4526SOL    HW225215   2.936   2.902   1.831 -1.4057 -0.4815  1.1340
 4527SOL     OW25216   2.526   0.824   5.956  0.0985 -0.3073 -0.1064
 4527SOL    HW125217   2.514   0.917   5.977  0.5186 -0.0441 -1.0345
 4527SOL    HW225218   2.611   0.803   5.996 -0.4414 -2.3620 -0.0431
 4528SOL     OW25219   1.296   1.964   6.890  0.2651 -0.1075 -0.3511
 4528SOL    HW125220   1.380   1.939   6.851  0.2217 -1.8023  0.6549
 4528SOL    HW225221   1.238   1.904   6.842 -0.5841 -0.3195  0.9531
 4529SOL     OW25222   0.565   3.571   3.254 -0.0699 -0.0344  0.4253
 4529SOL    HW125223   0.480   3.572   3.209  1.7434  0.2348 -3.0409
 4529SOL    HW225224   0.570   3.483   3.291  0.3841 -0.5623 -0.8783
 4530SOL     OW25225   2.835   3.276   0.361 -0.1436  0.1482  0.3074
 4530SOL    HW125226   2.907   3.329   0.328 -0.1569  0.6180  1.0212
 4530SOL    HW225227   2.880   3.237   0.436 -2.0603 -0.9296  0.8987
 4531SOL     OW25228   0.399   3.174   0.654 -0.1529  0.2450 -0.2929
 4531SOL    HW125229   0.418   3.139   0.741  3.0064 -1.2093 -1.5597
 4531SOL    HW225230   0.364   3.258   0.684  2.0166  0.7847  0.7769
 4532SOL     OW25231   4.146   4.523   6.529 -0.1307  0.4237 -0.1619
 4532SOL    HW125232   4.232   4.481   6.527 -0.6257 -0.5805 -0.3106
 4532SOL    HW225233   4.164   4.616   6.517 -0.0789  0.4211 -0.1007
 4533SOL     OW25234   2.260   1.792   1.683 -0.2555  0.3736  0.1926
 4533SOL    HW125235   2.268   1.879   1.722  0.2971  0.6509 -0.5307
 4533SOL    HW225236   2.304   1.820   1.603  0.2813 -0.2110  0.2806
 4534SOL     OW25237   3.651   4.270   6.285  0.1336 -0.2356  0.0860
 4534SOL    HW125238   3.729   4.273   6.230 -0.5513 -2.4987 -1.0530
 4534SOL    HW225239   3.607   4.351   6.261  1.2657  0.2578 -0.3274
 4535SOL     OW25240   1.543   1.401   3.459  0.2350  0.7709  0.0047
 4535SOL    HW125241   1.515   1.346   3.532 -0.5497  1.6844  0.3946
 4535SOL    HW225242   1.486   1.478   3.460 -0.3231  0.3913 -3.5791
 4536SOL     OW25243   0.224   0.746   1.394 -0.6058 -0.4069  0.6879
 4536SOL    HW125244   0.133   0.718   1.385 -1.5405  2.5614  1.0397
 4536SOL    HW225245   0.218   0.832   1.435  0.8949 -2.0230  4.3737
 4537SOL     OW25246   1.473   0.037   7.452  0.3784 -0.4333  0.1592
 4537SOL    HW125247   1.509   4.730   7.529  0.4806 -0.9521 -0.1715
 4537SOL    HW225248   1.551   0.082   7.421 -1.5187  1.8718 -1.3036
 4538SOL     OW25249   3.197   2.948   4.062  0.0960 -0.0111  0.0067
 4538SOL    HW125250   3.236   2.982   3.981  1.6374 -2.7326 -0.3967
 4538SOL    HW225251   3.276   2.959   4.116 -1.1296  0.1214  1.7599
 4539SOL     OW25252   2.089   2.613   1.291  0.7039  0.0403 -0.1325
 4539SOL    HW125253   2.043   2.592   1.372  1.0695 -0.6491 -0.0997
 4539SOL    HW225254   2.181   2.617   1.317  0.7099  0.7341 -0.2631
 4540SOL     OW25255   4.374   3.283  10.592 -0.2930 -0.3162 -0.0304
 4540SOL    HW125256   4.386   3.229  10.670  0.8424  1.0087  0.7299
 4540SOL    HW225257   4.450   3.251  10.544 -1.4198  0.6009 -2.3983
 4541SOL     OW25258   4.638   0.760   8.485  0.5685  0.4059 -0.0159
 4541SOL    HW125259   4.698   0.709   8.430 -0.2343 -2.4243  1.7313
 4541SOL    HW225260   4.640   0.718   8.571 -2.0154  0.8265  0.2359
 4542SOL     OW25261   1.721   3.009   6.026 -0.5409 -0.2786  0.2392
 4542SOL    HW125262   1.811   2.981   6.043 -1.1404 -2.8060 -0.6859
 4542SOL    HW225263   1.681   2.950   6.091 -0.3521 -0.0910  0.5263
 4543SOL     OW25264   0.324   1.441   1.359  0.0154  0.2777 -0.1739
 4543SOL    HW125265   0.331   1.346   1.361  0.6322  0.3403  0.5716
 4543SOL    HW225266   0.415   1.468   1.371 -0.2083  0.3781  1.2310
 4544SOL     OW25267   0.543   0.112  13.392  0.6134 -0.0543  0.5009
 4544SOL    HW125268   0.580   0.107  13.304 -1.7397 -0.0185 -0.4941
 4544SOL    HW225269   0.621   0.137  13.441  0.3603  4.0281 -1.1945
 4545SOL     OW25270   0.169   1.806   7.749 -0.3778 -0.0259  0.1034
 4545SOL    HW125271   0.260   1.820   7.720 -0.2593 -0.6282  0.1745
 4545SOL    HW225272   0.147   1.899   7.743  1.4196  0.3021 -1.7604
 4546SOL     OW25273   4.112   4.450   0.083  0.0812 -0.0223  0.2440
 4546SOL    HW125274   4.017   4.443   0.076  0.0481 -0.0678  0.7517
 4546SOL    HW225275   4.146   4.376   0.033 -2.3397  0.3094 -1.8865
 4547SOL     OW25276   2.091   2.266  14.937  0.2949  0.2114 -0.1332
 4547SOL    HW125277   2.046   2.184  14.954  0.9242  0.1331  1.1449
 4547SOL    HW225278   2.150   2.264  15.012  1.6330 -3.2649 -1.2504
 4548SOL     OW25279   2.029   3.716   6.999 -0.4110  0.2330  0.3038
 4548SOL    HW125280   2.108   3.728   7.052  0.9573 -0.3808 -1.5926
 4548SOL    HW225281   2.077   3.698   6.918  0.2770  0.5615  0.6382
 4549SOL     OW25282   1.940   0.331   4.847  0.2520  0.0016 -0.3538
 4549SOL    HW125283   1.847   0.332   4.870  0.7221 -0.6283  1.6239
 4549SOL    HW225284   1.977   0.380   4.920  1.2610 -2.5024  0.8273
 4550SOL     OW25285   4.280   3.026   6.371 -0.1458  0.1032  0.2403
 4550SOL    HW125286   4.242   3.024   6.283  0.8310 -1.0088 -0.1639
 4550SOL    HW225287   4.320   2.939   6.366 -2.0148 -0.8496  1.5661
 4551SOL     OW25288   3.037   3.009  16.395 -0.0273 -0.0913 -0.6337
 4551SOL    HW125289   3.013   2.995  16.303  0.3434 -0.6324 -0.6460
 4551SOL    HW225290   3.106   3.073  16.374  0.6533 -0.6395 -0.0553
 4552SOL     OW25291   3.719   2.274   8.999 -0.1830 -0.4407 -0.1114
 4552SOL    HW125292   3.751   2.244   9.084  1.6024  0.9173 -0.3206
 4552SOL    HW225293   3.647   2.213   8.979 -0.2897 -0.4143  0.1924
 4553SOL     OW25294   1.949   2.202   3.623  0.5108  0.0379  0.3328
 4553SOL    HW125295   1.875   2.256   3.651  0.3304 -0.5643  1.0098
 4553SOL    HW225296   1.963   2.251   3.542  1.3911 -0.0184  0.4521
 4554SOL     OW25297   1.452   0.324   5.553 -0.0371 -0.5044  0.2756
 4554SOL    HW125298   1.408   0.262   5.612  0.1651 -1.0856 -0.1882
 4554SOL    HW225299   1.399   0.321   5.474  1.8839 -1.1069 -0.9984
 4555SOL     OW25300   0.878   3.465  16.019 -0.6722  0.3539  0.4859
 4555SOL    HW125301   0.883   3.561  16.015  0.1955  0.3042  0.5518
 4555SOL    HW225302   0.898   3.441  16.110  1.6016  2.7876  0.6337
 4556SOL     OW25303   4.163   0.854   5.377  0.0524  0.3669 -0.6110
 4556SOL    HW125304   4.202   0.928   5.331  1.9089  0.3188  0.8459
 4556SOL    HW225305   4.074   0.869   5.347  0.0533 -0.0638 -0.8300
 4557SOL     OW25306   0.792   0.743   0.076  0.1041 -0.3547 -0.3901
 4557SOL    HW125307   0.836   0.659   0.082 -2.4647 -1.7276 -0.9613
 4557SOL    HW225308   0.726   0.728   0.009 -1.2595 -0.8484  1.0577
 4558SOL     OW25309   3.378   4.160   8.524  0.2638  0.0591 -0.3850
 4558SOL    HW125310   3.394   4.161   8.619  0.2580  1.3112 -0.3996
 4558SOL    HW225311   3.464   4.199   8.511  0.6817 -0.8654 -0.3835
 4559SOL     OW25312   1.897   0.841  11.276 -0.0913 -0.5414  0.3220
 4559SOL    HW125313   1.814   0.885  11.292 -0.1820  0.0183 -1.6993
 4559SOL    HW225314   1.921   0.844  11.368  0.5918  0.2370  0.1247
 4560SOL     OW25315   2.307   3.661  10.730 -0.2344 -0.2713  0.2901
 4560SOL    HW125316   2.312   3.749  10.692 -0.5043 -0.4218 -0.1035
 4560SOL    HW225317   2.398   3.654  10.757 -0.3821 -0.5418  0.7112
 4561SOL     OW25318   0.519   1.891   8.718  0.4198 -0.3074 -0.0660
 4561SOL    HW125319   0.612   1.882   8.698  0.2881  0.0007 -0.8099
 4561SOL    HW225320   0.512   1.920   8.809  0.8017 -0.3416 -0.0273
 4562SOL     OW25321   2.979   0.978   5.765  0.1196  0.0801  0.5879
 4562SOL    HW125322   2.976   1.021   5.851  1.8625 -0.7683  1.0740
 4562SOL    HW225323   2.982   1.056   5.710  2.6371  1.1074  2.1837
 4563SOL     OW25324   4.041   3.741  16.259 -0.3697  0.4359  0.6496
 4563SOL    HW125325   3.975   3.808  16.239  0.8688  1.9250  1.5715
 4563SOL    HW225326   4.122   3.786  16.284  1.2868 -2.1346 -0.1297
 4564SOL     OW25327   0.597   3.797   1.868  0.2660  0.0817 -0.2469
 4564SOL    HW125328   0.679   3.768   1.829 -0.1918 -0.9514 -0.4334
 4564SOL    HW225329   0.573   3.867   1.806 -0.3647  0.8963  0.9118
 4565SOL     OW25330   4.048   3.296  14.715 -0.0410 -0.1216  0.4741
 4565SOL    HW125331   4.053   3.271  14.623  0.3299  0.3520  0.3657
 4565SOL    HW225332   4.140   3.296  14.741  0.1555 -1.2633 -0.2272
 4566SOL     OW25333   3.479   0.606   6.503  0.3863  0.1271  0.0275
 4566SOL    HW125334   3.512   0.658   6.430  0.1944  0.1110 -0.0694
 4566SOL    HW225335   3.499   0.673   6.569  0.9245  1.8045 -1.8626
 4567SOL     OW25336   0.102   1.151   5.002  0.1927 -0.2847 -0.1504
 4567SOL    HW125337   0.071   1.095   4.931  0.9435 -1.7336  0.6617
 4567SOL    HW225338   0.151   1.087   5.054 -1.2659 -0.2729  1.2549
 4568SOL     OW25339   0.127   0.541  15.039 -0.0812  0.5457 -0.2239
 4568SOL    HW125340   0.056   0.524  14.977  2.2696 -2.9609 -2.0034
 4568SOL    HW225341   0.166   0.612  14.988  0.7421  0.6601  0.5751
 4569SOL     OW25342   2.647   3.638   7.638  0.3191  0.3299  0.1078
 4569SOL    HW125343   2.614   3.659   7.551 -0.2552  0.9830  0.4832
 4569SOL    HW225344   2.575   3.659   7.699 -0.2481  1.5653 -0.9936
 4570SOL     OW25345   1.567   4.007   9.398  0.0890  0.4068 -0.8570
 4570SOL    HW125346   1.508   3.985   9.470 -1.0845 -1.0546 -2.2812
 4570SOL    HW225347   1.523   3.970   9.321  1.1357 -0.6157 -0.9700
 4571SOL     OW25348   3.099   0.297   6.228  0.0179 -0.1535  0.1173
 4571SOL    HW125349   3.054   0.218   6.260 -1.2919  0.5899  0.1108
 4571SOL    HW225350   3.124   0.336   6.312 -1.8682 -1.5118  1.3235
 4572SOL     OW25351   2.655   2.408   5.032 -0.3384  0.2812  0.3449
 4572SOL    HW125352   2.574   2.444   4.994 -0.4557  0.8287  1.1252
 4572SOL    HW225353   2.655   2.445   5.120 -0.5156  0.4411  0.2766
 4573SOL     OW25354   0.130   4.206  11.570 -0.0959 -0.8319  0.1586
 4573SOL    HW125355   0.149   4.294  11.602  2.4073 -1.1440 -0.4721
 4573SOL    HW225356   0.194   4.189  11.500  0.6565  0.0142  0.6492
 4574SOL     OW25357   4.391   1.278   7.229 -0.6820 -0.4752  0.8711
 4574SOL    HW125358   4.463   1.225   7.265  0.0524  0.3620  0.6298
 4574SOL    HW225359   4.320   1.214   7.234 -0.6528 -0.6449 -0.9390
 4575SOL     OW25360   1.317   0.459  14.868  0.3138  0.0381  0.9251
 4575SOL    HW125361   1.254   0.482  14.799 -1.6599  0.6964  2.9626
 4575SOL    HW225362   1.320   0.541  14.917 -1.3170  1.6565 -1.6453
 4576SOL     OW25363   0.941   4.367  16.161  0.0864 -0.4818 -0.4551
 4576SOL    HW125364   0.880   4.362  16.087  0.7337  0.8968 -1.0734
 4576SOL    HW225365   0.990   4.285  16.160  3.7359  1.7370 -0.9251
 4577SOL     OW25366   4.538   4.151  10.162 -0.4071  0.4954 -0.0580
 4577SOL    HW125367   4.476   4.200  10.216  2.2287  0.6384  2.8330
 4577SOL    HW225368   4.472   4.105  10.110  0.7926 -0.5358 -0.6567
 4578SOL     OW25369   0.883   0.202   8.592  0.3296 -0.2961 -0.1271
 4578SOL    HW125370   0.801   0.180   8.548  0.9248 -2.8734  0.0211
 4578SOL    HW225371   0.939   0.206   8.514  0.4552 -1.7958 -0.1125
 4579SOL     OW25372   0.874   3.790  16.421 -0.4622  0.1012  0.0659
 4579SOL    HW125373   0.875   3.858  16.489  3.1556 -0.1462  0.2895
 4579SOL    HW225374   0.799   3.738  16.449 -1.1235  0.1332 -1.6714
 4580SOL     OW25375   1.346   2.444   0.312 -0.2807  0.0147 -0.0419
 4580SOL    HW125376   1.419   2.475   0.258 -1.5335  0.7251 -1.3252
 4580SOL    HW225377   1.335   2.514   0.376 -0.4264  0.1640 -0.2273
 4581SOL     OW25378   0.751   1.350   3.042  0.5101  0.0573  0.3763
 4581SOL    HW125379   0.743   1.444   3.026 -1.6869 -0.0300  1.0139
 4581SOL    HW225380   0.817   1.326   2.977 -0.9272 -2.1888 -0.2679
 4582SOL     OW25381   0.667   1.331   9.386  0.2987  0.0965 -0.5220
 4582SOL    HW125382   0.673   1.422   9.415 -0.3915 -0.5289  1.5820
 4582SOL    HW225383   0.730   1.299   9.451 -0.9844  0.2750  0.8205
 4583SOL     OW25384   4.406   1.591   5.838  0.2345  0.2842  0.1167
 4583SOL    HW125385   4.419   1.650   5.764  1.1146 -1.0979 -0.8269
 4583SOL    HW225386   4.490   1.607   5.882 -0.4190 -0.1634  1.5335
 4584SOL     OW25387   1.657   2.419  12.171 -0.2302  0.9392 -0.0541
 4584SOL    HW125388   1.744   2.432  12.209 -0.0559 -0.3163 -0.0091
 4584SOL    HW225389   1.632   2.327  12.185  3.6022 -0.3346 -1.4567
 4585SOL     OW25390   3.379   1.867   7.859 -0.1585 -0.0496 -0.3991
 4585SOL    HW125391   3.354   1.956   7.836 -1.1105 -0.1625  0.2337
 4585SOL    HW225392   3.475   1.874   7.860  0.0097 -2.1737 -0.3693
 4586SOL     OW25393   3.109   2.534  10.662  0.1219  0.1508  0.0063
 4586SOL    HW125394   3.101   2.622  10.698 -1.8174 -1.2870  3.1103
 4586SOL    HW225395   3.158   2.489  10.730 -1.5497 -1.8216 -0.0736
 4587SOL     OW25396   2.466   0.526  12.709 -0.4985  0.0328 -0.1911
 4587SOL    HW125397   2.508   0.612  12.719  1.5265 -1.2569  2.2613
 4587SOL    HW225398   2.532   0.482  12.655 -0.2622 -0.5530  0.5740
 4588SOL     OW25399   0.847   2.779  14.764 -0.0226  0.3527 -0.0200
 4588SOL    HW125400   0.854   2.684  14.773  1.7872  0.3599 -1.4209
 4588SOL    HW225401   0.777   2.792  14.700  0.8098  2.0272 -0.5870
 4589SOL     OW25402   0.107   0.242  15.589 -0.7655 -0.4002  0.1520
 4589SOL    HW125403   0.112   0.234  15.684 -0.2015  0.2441  0.1712
 4589SOL    HW225404   0.146   0.326  15.566 -1.1106 -0.5150 -0.8685
 4590SOL     OW25405   2.588   2.709   1.960  0.0913  0.3260  0.1723
 4590SOL    HW125406   2.517   2.770   1.983 -2.5353 -2.3666 -0.7554
 4590SOL    HW225407   2.663   2.749   2.004 -0.3178 -1.2404  2.3234
 4591SOL     OW25408   1.294   2.103   4.652  0.2802 -0.1236 -0.4575
 4591SOL    HW125409   1.324   2.168   4.588 -0.7877 -1.7344 -2.6025
 4591SOL    HW225410   1.373   2.066   4.691 -1.0111 -1.4239  0.9307
 4592SOL     OW25411   3.933   4.258   1.241  0.3049  0.4025 -0.1956
 4592SOL    HW125412   3.860   4.319   1.238 -0.4884 -0.3736  3.1644
 4592SOL    HW225413   3.963   4.256   1.332  0.6510  0.5605 -0.3059
 4593SOL     OW25414   0.233   4.513  15.234 -0.2033 -0.2967 -0.7697
 4593SOL    HW125415   0.286   4.587  15.205 -1.3153  0.2402 -1.4592
 4593SOL    HW225416   0.224   4.455  15.158 -1.6997 -0.7172 -0.2778
 4594SOL     OW25417   3.888   0.014   4.770  0.2216  0.2065 -0.3915
 4594SOL    HW125418   3.904   0.048   4.858  1.7373  0.0208 -0.6010
 4594SOL    HW225419   3.922   0.092   4.727 -0.1817  0.8812  0.5126
 4595SOL     OW25420   3.008   0.392   5.066  0.0166  0.2175 -0.4873
 4595SOL    HW125421   2.973   0.448   4.997  2.3985  0.3855 -1.5541
 4595SOL    HW225422   3.009   0.310   5.016 -2.8694  0.2815 -0.6494
 4596SOL     OW25423   0.640   1.281   2.243  0.0848  0.0281 -0.5997
 4596SOL    HW125424   0.733   1.272   2.264 -0.1224  1.7048  1.0650
 4596SOL    HW225425   0.642   1.241   2.156  1.2509 -0.4203 -0.3718
 4597SOL     OW25426   2.843   1.000   6.201  0.2088  0.1335 -0.4062
 4597SOL    HW125427   2.891   1.014   6.283  0.1783  0.2690 -0.4115
 4597SOL    HW225428   2.793   0.926   6.235  2.7887 -0.8422  1.3116
 4598SOL     OW25429   3.788   3.704   5.598  0.4969 -0.6694 -0.0379
 4598SOL    HW125430   3.768   3.635   5.662 -0.7083  0.2879  0.6350
 4598SOL    HW225431   3.710   3.758   5.609  0.6706 -0.2082 -1.1261
 4599SOL     OW25432   1.271   1.835  10.022  0.4522  0.0242 -0.2720
 4599SOL    HW125433   1.341   1.900  10.027  0.3503  0.1799 -0.8807
 4599SOL    HW225434   1.240   1.842  10.113 -0.4339  0.9918 -0.6569
 4600SOL     OW25435   1.749   1.081  16.794 -0.5417 -0.1831  0.3515
 4600SOL    HW125436   1.796   1.026  16.857 -0.1388  0.0610  0.2573
 4600SOL    HW225437   1.678   1.022  16.766 -1.8572  2.3291 -1.5443
 4601SOL     OW25438   4.680   1.384  17.186  0.3171 -0.4762  0.2258
 4601SOL    HW125439   4.640   1.470  17.170  0.2863 -0.5366 -0.0201
 4601SOL    HW225440   4.714   1.368  17.098 -2.6687 -2.8132 -0.4979
 4602SOL     OW25441   4.151   4.714  17.278 -0.4631  0.2314  0.2182
 4602SOL    HW125442   4.087   4.677  17.218  1.6532 -0.7690 -1.4477
 4602SOL    HW225443   4.227   4.699  17.221 -0.8711  0.3159 -0.3444
 4603SOL     OW25444   0.479   0.584  13.952 -0.3285 -0.3247  0.2488
 4603SOL    HW125445   0.500   0.652  14.016 -0.6379 -0.6002  0.6458
 4603SOL    HW225446   0.421   0.527  14.003 -2.3990  0.8219 -0.8327
 4604SOL     OW25447   2.439   2.896  17.592  0.2943  0.7662  0.1070
 4604SOL    HW125448   2.347   2.910  17.567  0.4893 -0.8163 -1.4248
 4604SOL    HW225449   2.472   2.979  17.629  2.2392 -0.9959  2.3202
 4605SOL     OW25450   3.828   4.516   2.422  0.3836  0.0350  0.1628
 4605SOL    HW125451   3.914   4.513   2.465  0.4678 -0.2139 -0.0178
 4605SOL    HW225452   3.834   4.583   2.355 -0.9237 -0.3156 -0.3086
 4606SOL     OW25453   1.742   3.587   7.262  0.1133 -0.4172  0.1628
 4606SOL    HW125454   1.653   3.598   7.228 -0.4238 -2.4121  0.9462
 4606SOL    HW225455   1.784   3.555   7.182  0.4901 -0.1164  0.2422
 4607SOL     OW25456   3.610   0.940   2.758 -0.3648  0.0324  0.2381
 4607SOL    HW125457   3.690   0.981   2.791 -1.6285  0.8329  2.2796
 4607SOL    HW225458   3.608   0.986   2.674 -0.2805 -2.5186 -1.1592
 4608SOL     OW25459   0.575   2.229   1.628  0.0573 -0.3529  0.1548
 4608SOL    HW125460   0.539   2.141   1.618 -0.5021 -0.0879 -0.1215
 4608SOL    HW225461   0.577   2.239   1.723  0.1511 -1.4623  0.2683
 4609SOL     OW25462   3.674   4.473   8.629 -0.2905  0.1616  0.4705
 4609SOL    HW125463   3.599   4.532   8.616 -0.2561  0.4677  1.7273
 4609SOL    HW225464   3.747   4.519   8.588  0.5966 -1.6444  0.0483
 4610SOL     OW25465   2.887   2.392   7.388  0.1262  0.2073  0.2608
 4610SOL    HW125466   2.980   2.372   7.395  0.4786  1.1329 -1.6624
 4610SOL    HW225467   2.895   2.458   7.318 -1.9872  1.6025  1.3299
 4611SOL     OW25468   0.945   1.331   8.924  0.1032  0.4016  0.1999
 4611SOL    HW125469   0.934   1.352   9.017 -1.6759  0.0088  0.0737
 4611SOL    HW225470   0.876   1.269   8.900 -0.9328  0.5589  2.7179
 4612SOL     OW25471   4.330   3.098   9.636  0.1741  0.8252  0.4322
 4612SOL    HW125472   4.336   3.151   9.556  2.6043 -0.7382 -0.4014
 4612SOL    HW225473   4.275   3.151   9.694  1.3743  0.8038  1.5824
 4613SOL     OW25474   0.442   3.272  15.266 -0.1185 -0.1133  0.1622
 4613SOL    HW125475   0.406   3.288  15.179  1.4197 -1.1766 -0.6623
 4613SOL    HW225476   0.528   3.312  15.264 -0.4490  0.5766 -0.0688
 4614SOL     OW25477   3.616   1.860   4.886 -0.1698 -0.4899 -0.2764
 4614SOL    HW125478   3.523   1.862   4.865  0.4002  2.2106 -2.5193
 4614SOL    HW225479   3.626   1.833   4.978  2.7398  2.6908  0.3884
 4615SOL     OW25480   0.823   3.343   6.006  0.1762  0.0130 -0.4831
 4615SOL    HW125481   0.842   3.402   6.079 -1.1817 -1.0946  0.7703
 4615SOL    HW225482   0.909   3.302   6.001  0.1064 -0.4743  1.9968
 4616SOL     OW25483   1.246   3.267   4.375  0.2573  0.1301  0.4093
 4616SOL    HW125484   1.157   3.238   4.355  1.4013 -2.6511 -0.6199
 4616SOL    HW225485   1.241   3.362   4.363  1.3446 -0.3754 -4.0674
 4617SOL     OW25486   0.763   3.585   7.956  0.6363  0.3076 -0.6980
 4617SOL    HW125487   0.777   3.678   7.976 -1.2843  0.7641 -1.4658
 4617SOL    HW225488   0.830   3.542   8.009  0.5242 -0.3011 -1.0533
 4618SOL     OW25489   2.764   2.735   8.659 -0.1311  0.6513 -0.3168
 4618SOL    HW125490   2.736   2.780   8.579 -0.0971  1.3688  0.0761
 4618SOL    HW225491   2.804   2.653   8.630 -2.1412  0.0552 -1.4520
 4619SOL     OW25492   0.262   2.228   8.813 -0.4167  0.1693 -0.3595
 4619SOL    HW125493   0.277   2.280   8.891 -0.2822  0.4140 -0.5495
 4619SOL    HW225494   0.321   2.269   8.750  0.5747  0.7004  0.9231
 4620SOL     OW25495   1.097   0.881  15.125 -0.0984  0.3334  0.1547
 4620SOL    HW125496   1.044   0.845  15.054  0.5453 -0.2352 -0.0413
 4620SOL    HW225497   1.133   0.965  15.097 -0.6223  1.2283  2.1451
 4621SOL     OW25498   4.043   2.586   4.876 -0.3080  0.6693 -0.0149
 4621SOL    HW125499   4.035   2.514   4.813  1.5147 -1.0476  1.7428
 4621SOL    HW225500   3.976   2.559   4.939 -2.1188  0.6786 -1.9205
 4622SOL     OW25501   2.832   2.671  15.604 -0.5443 -0.0594  0.1564
 4622SOL    HW125502   2.893   2.614  15.557 -2.0989  0.8511 -2.9853
 4622SOL    HW225503   2.802   2.720  15.528  2.5368  0.2669 -0.8384
 4623SOL     OW25504   0.898   4.714  10.467  0.0990 -0.1977  0.0037
 4623SOL    HW125505   0.837   0.010  10.533  0.4622  1.3440 -0.3989
 4623SOL    HW225506   0.856   4.638  10.427  1.0688  0.1831 -1.7465
 4624SOL     OW25507   0.856   3.939   4.214  0.2597  0.0927 -0.4522
 4624SOL    HW125508   0.819   3.854   4.189  1.3319 -0.1199 -1.2906
 4624SOL    HW225509   0.808   3.995   4.152 -0.5758 -0.3288 -0.1904
 4625SOL     OW25510   1.853   4.344   6.133  0.4337  0.3951 -0.2242
 4625SOL    HW125511   1.909   4.309   6.202  1.0009 -1.3037 -1.5546
 4625SOL    HW225512   1.896   4.429   6.136 -1.7629  1.5041  0.1774
 4626SOL     OW25513   1.186   2.842   6.342  0.4598  0.0704 -0.3682
 4626SOL    HW125514   1.110   2.798   6.303  1.7309 -0.3538 -2.3487
 4626SOL    HW225515   1.253   2.833   6.275  0.2298 -0.0988 -0.5730
 4627SOL     OW25516   0.412   3.447   1.344  0.0705  0.1060 -0.1253
 4627SOL    HW125517   0.370   3.361   1.342 -1.4320  0.8018  1.5970
 4627SOL    HW225518   0.376   3.480   1.426  1.3090 -2.0540  1.3254
 4628SOL     OW25519   3.545   4.304  10.558 -0.5759  0.1297  0.3628
 4628SOL    HW125520   3.506   4.304  10.645  0.0465  0.0748  0.6389
 4628SOL    HW225521   3.582   4.216  10.553 -0.1139  0.3265  0.3006
 4629SOL     OW25522   0.645   2.337  14.917  0.1801  0.3018 -0.0035
 4629SOL    HW125523   0.583   2.320  14.987  1.6809 -1.2769  0.9235
 4629SOL    HW225524   0.591   2.322  14.839  2.3376 -0.5935 -1.3256
 4630SOL     OW25525   1.209   2.524   3.865 -0.8947  0.2564 -0.0970
 4630SOL    HW125526   1.186   2.433   3.880 -0.5016  0.3071  0.7812
 4630SOL    HW225527   1.293   2.533   3.910 -1.1109  0.0729  0.3398
 4631SOL     OW25528   3.774   3.239  17.418 -0.6851 -0.0822  0.0216
 4631SOL    HW125529   3.683   3.210  17.422 -0.2855 -1.6557 -1.9803
 4631SOL    HW225530   3.771   3.256  17.323  1.7616 -1.1702 -0.2521
 4632SOL     OW25531   1.212   2.879   2.100 -0.0861 -0.1742  0.4298
 4632SOL    HW125532   1.153   2.869   2.175 -0.5693 -1.4476 -0.1170
 4632SOL    HW225533   1.187   2.961   2.058 -0.4246 -0.6465 -0.2877
 4633SOL     OW25534   4.040   3.617   5.898  0.3978 -0.6751  0.3335
 4633SOL    HW125535   4.083   3.689   5.852  0.7913  1.0066  3.3213
 4633SOL    HW225536   3.956   3.658   5.917  1.3549  1.2778  0.2826
 4634SOL     OW25537   2.678   1.151   5.977  0.5235  0.4721 -0.2770
 4634SOL    HW125538   2.718   1.118   6.057 -0.7109 -1.3135 -0.4011
 4634SOL    HW225539   2.680   1.244   5.999  1.7756 -0.3406  3.0566
 4635SOL     OW25540   1.926   3.658  11.426 -0.6118  0.0666  0.2857
 4635SOL    HW125541   1.880   3.575  11.414 -3.2949  1.4972  0.8364
 4635SOL    HW225542   1.855   3.722  11.428  0.1922  1.0035 -1.4827
 4636SOL     OW25543   3.457   1.771   7.082 -0.4227  0.0907 -0.1653
 4636SOL    HW125544   3.543   1.728   7.080 -0.9120 -0.8225 -1.3585
 4636SOL    HW225545   3.472   1.828   7.157 -2.2124  0.8821 -0.4188
 4637SOL     OW25546   1.548   0.487   8.048  0.0382 -0.0802  0.7583
 4637SOL    HW125547   1.489   0.489   7.973  0.0830  1.2130  0.7503
 4637SOL    HW225548   1.562   0.580   8.069  2.0793  0.6887 -4.0409
 4638SOL     OW25549   4.417   3.480  13.480 -0.2547 -0.1874  0.1011
 4638SOL    HW125550   4.351   3.517  13.539  0.3753 -0.4024  0.9321
 4638SOL    HW225551   4.357   3.430  13.424  0.2697 -0.0939 -0.5420
 4639SOL     OW25552   1.808   0.766   7.335  0.8049  0.2813  0.3732
 4639SOL    HW125553   1.886   0.802   7.377  2.1728 -0.8692 -1.1832
 4639SOL    HW225554   1.822   0.673   7.352  0.1558  0.2084  0.5079
 4640SOL     OW25555   2.451   1.733   5.520  0.1364 -0.5577  0.4712
 4640SOL    HW125556   2.443   1.661   5.457 -1.4187 -0.9113  1.0786
 4640SOL    HW225557   2.494   1.681   5.588 -1.9798  1.4139  3.3208
 4641SOL     OW25558   1.738   2.057  10.945 -0.1304  0.0033  0.2392
 4641SOL    HW125559   1.757   1.972  10.905 -1.2358 -0.8069  1.4261
 4641SOL    HW225560   1.776   2.123  10.887  0.2485  1.1559  1.8100
 4642SOL     OW25561   0.684   1.159   3.248  0.1605 -0.1232 -0.6090
 4642SOL    HW125562   0.689   1.239   3.196  0.6251 -0.0305 -0.4229
 4642SOL    HW225563   0.776   1.134   3.241 -0.3658 -1.8777 -1.3197
 4643SOL     OW25564   4.589   4.120  16.379 -0.0060 -0.2044  0.7688
 4643SOL    HW125565   4.581   4.041  16.433 -0.2345 -0.9375 -0.3543
 4643SOL    HW225566   4.685   4.126  16.386  0.2582 -0.9412 -2.3658
 4644SOL     OW25567   3.290   2.820   3.251 -0.3142  0.3751  0.4653
 4644SOL    HW125568   3.261   2.903   3.212  0.0074  0.5337  0.5629
 4644SOL    HW225569   3.258   2.758   3.186  3.3008 -0.5428 -0.4281
 4645SOL     OW25570   4.314   2.151  10.043  0.4259 -0.2011 -0.3745
 4645SOL    HW125571   4.315   2.143   9.948 -3.0385  1.3513 -0.5451
 4645SOL    HW225572   4.334   2.244  10.053  0.2268 -0.4577  2.3934
 4646SOL     OW25573   2.752   1.604  10.427  0.2960 -0.2369 -0.6539
 4646SOL    HW125574   2.780   1.580  10.515 -1.3643 -0.5137 -0.1852
 4646SOL    HW225575   2.723   1.522  10.386 -0.4387  0.8573 -2.3238
 4647SOL     OW25576   3.815   2.438   6.638 -0.2141 -0.3341 -0.6859
 4647SOL    HW125577   3.789   2.530   6.646  1.4024  0.2761 -2.6256
 4647SOL    HW225578   3.795   2.410   6.548  0.5948  2.9120 -1.8727
 4648SOL     OW25579   1.454   1.235  13.367 -0.5214 -0.2988 -0.3250
 4648SOL    HW125580   1.446   1.307  13.431  2.3177  0.2339 -0.5813
 4648SOL    HW225581   1.427   1.274  13.284  1.1307  0.5975 -0.4315
 4649SOL     OW25582   1.048   1.464   3.900 -0.2273 -0.1103  0.1663
 4649SOL    HW125583   1.087   1.426   3.822 -0.4981 -0.1687  0.0594
 4649SOL    HW225584   1.119   1.483   3.961  1.0630  1.0298 -1.6894
 4650SOL     OW25585   2.683   2.395  15.295 -0.4251 -0.2078  0.2280
 4650SOL    HW125586   2.613   2.435  15.243  0.0457  0.4938  0.1272
 4650SOL    HW225587   2.762   2.447  15.277 -0.2993 -0.1958  0.8385
 4651SOL     OW25588   0.287   1.680   8.888 -0.2374  0.3564  0.0707
 4651SOL    HW125589   0.358   1.706   8.946 -0.4470 -2.7190  1.7002
 4651SOL    HW225590   0.333   1.656   8.807  1.4499 -0.8608  1.3696
 4652SOL     OW25591   2.893   3.168   6.554  0.2969  0.3181 -0.1350
 4652SOL    HW125592   2.870   3.191   6.643  0.8363 -0.2955  0.1645
 4652SOL    HW225593   2.805   3.159   6.517 -0.0056  0.9746  0.4230
 4653SOL     OW25594   3.871   4.039  15.458 -0.1828 -0.8993  0.2138
 4653SOL    HW125595   3.926   4.021  15.382  0.2931 -2.1877  0.8586
 4653SOL    HW225596   3.849   3.950  15.485 -3.8746 -0.2593 -0.7209
 4654SOL     OW25597   4.040   2.461   6.381 -0.1528 -0.1555 -0.5471
 4654SOL    HW125598   4.124   2.472   6.425 -1.6878  2.7322  1.6272
 4654SOL    HW225599   4.004   2.544   6.411  0.6291  0.0077 -0.0460
 4655SOL     OW25600   2.350   2.417   6.094  0.1806 -0.0395 -0.2579
 4655SOL    HW125601   2.294   2.413   6.172  1.6656 -0.6861  0.7637
 4655SOL    HW225602   2.302   2.358   6.036  0.0689 -0.8593  0.6726
 4656SOL     OW25603   0.533   1.557  17.083  0.6376  0.4901 -0.2635
 4656SOL    HW125604   0.513   1.647  17.109  0.3779 -0.2267  1.9990
 4656SOL    HW225605   0.590   1.534  17.156 -1.2517 -0.6721  0.8489
 4657SOL     OW25606   1.341   4.317  16.553 -0.3663 -0.4815 -0.0166
 4657SOL    HW125607   1.316   4.401  16.589 -0.6756  0.0715 -1.5203
 4657SOL    HW225608   1.264   4.280  16.509 -0.3005 -0.4769 -0.1365
 4658SOL     OW25609   3.239   1.687   3.817 -0.0202  0.3055 -0.0816
 4658SOL    HW125610   3.235   1.689   3.721 -1.3691  0.8913 -0.0205
 4658SOL    HW225611   3.321   1.734   3.834  1.7096 -2.5379 -0.6005
 4659SOL     OW25612   2.107   4.523   5.735  0.3878 -0.5090  0.2964
 4659SOL    HW125613   2.079   4.524   5.827  3.7474  0.9881  1.3045
 4659SOL    HW225614   2.050   4.450   5.710 -1.5028  1.0219  0.2092
 4660SOL     OW25615   2.106   0.074   6.712 -0.7193 -0.3609  0.3160
 4660SOL    HW125616   2.101   0.157   6.664  1.1247 -1.3388 -1.5428
 4660SOL    HW225617   2.170   0.034   6.653  1.2432  2.8174  0.3023
 4661SOL     OW25618   0.163   2.699  12.015 -0.0076  0.1021  0.0217
 4661SOL    HW125619   0.146   2.782  11.970  0.7795  0.0195 -0.4354
 4661SOL    HW225620   0.076   2.678  12.049  0.3568  1.1227  1.5677
 4662SOL     OW25621   1.249   3.224   6.385  0.1639 -0.1310  0.4663
 4662SOL    HW125622   1.218   3.303   6.340 -1.6684  0.1321  2.2057
 4662SOL    HW225623   1.334   3.215   6.342  0.0724 -0.3402  0.3310
 4663SOL     OW25624   2.082   4.602  17.344  0.1274 -0.6053  0.3846
 4663SOL    HW125625   2.156   4.612  17.284 -0.5456  1.6055 -0.0522
 4663SOL    HW225626   2.018   4.657  17.299  1.2301 -1.0651 -1.7070
 4664SOL     OW25627   2.461   4.058   4.815  0.1445  0.5118  0.3582
 4664SOL    HW125628   2.537   4.048   4.759 -0.3356 -2.0878  0.1787
 4664SOL    HW225629   2.470   4.153   4.828 -0.1734  0.4166  1.3015
 4665SOL     OW25630   3.324   4.316   1.101  0.1874  0.0793 -0.0432
 4665SOL    HW125631   3.315   4.367   1.181 -0.0381 -0.7989  0.4882
 4665SOL    HW225632   3.402   4.264   1.123  2.2303  1.7026 -3.4796
 4666SOL     OW25633   2.505   0.996   8.798 -0.3299 -0.1389  0.7673
 4666SOL    HW125634   2.594   1.031   8.796 -0.6765  0.7545  0.6297
 4666SOL    HW225635   2.500   0.956   8.711 -0.3082  3.7525 -1.0238
 4667SOL     OW25636   0.429   0.714  10.017  0.0069 -0.7023  0.3897
 4667SOL    HW125637   0.512   0.760  10.007 -0.6258 -0.0160 -1.6374
 4667SOL    HW225638   0.409   0.762  10.098  0.5407  3.4771 -1.9885
 4668SOL     OW25639   3.849   2.875   6.614  0.2214 -0.3034  0.0078
 4668SOL    HW125640   3.858   2.860   6.520 -0.7633 -1.0613  0.0378
 4668SOL    HW225641   3.762   2.836   6.612  0.1824 -0.3042  1.3832
 4669SOL     OW25642   1.159   2.005   1.360 -0.4474  0.1371  0.5841
 4669SOL    HW125643   1.210   1.965   1.430  1.0534  0.1917 -0.4708
 4669SOL    HW225644   1.072   1.968   1.373 -0.9151 -0.1921 -3.2595
 4670SOL     OW25645   2.440   1.391   1.261  0.3211 -0.4428  0.4661
 4670SOL    HW125646   2.456   1.299   1.283  0.6228 -0.2209  1.1508
 4670SOL    HW225647   2.381   1.381   1.185 -1.5612  0.3636  1.8082
 4671SOL     OW25648   0.784   3.122  15.520  0.0845 -0.1718 -0.0631
 4671SOL    HW125649   0.837   3.052  15.481 -1.6407 -1.8932  0.7214
 4671SOL    HW225650   0.780   3.181  15.445 -3.0887 -0.7108 -0.3090
 4672SOL     OW25651   3.927   1.438   5.158 -0.4508 -0.0702 -0.2805
 4672SOL    HW125652   3.857   1.380   5.188 -2.1973  2.1065 -0.1922
 4672SOL    HW225653   3.981   1.454   5.235  0.6914  1.0485 -1.3224
 4673SOL     OW25654   2.646   2.162   9.199  0.0611  0.3756  0.4799
 4673SOL    HW125655   2.664   2.243   9.247  2.1870  1.1187 -1.5638
 4673SOL    HW225656   2.550   2.162   9.204 -0.0829  0.8502 -2.0536
 4674SOL     OW25657   1.495   3.705   6.007 -0.0729  0.3654  0.2270
 4674SOL    HW125658   1.501   3.745   5.920  0.9474  0.3463  0.2886
 4674SOL    HW225659   1.473   3.784   6.056 -2.0548  1.4121 -2.3007
 4675SOL     OW25660   4.361   4.212   9.879 -0.3756 -0.6523 -0.0231
 4675SOL    HW125661   4.319   4.212   9.964 -1.0398  3.4319 -0.3530
 4675SOL    HW225662   4.286   4.179   9.829  0.1969 -0.9356 -0.7049
 4676SOL     OW25663   1.209   4.283   6.350 -0.3038  0.2906 -0.3236
 4676SOL    HW125664   1.184   4.313   6.263 -1.3860 -2.6702 -1.0211
 4676SOL    HW225665   1.209   4.365   6.399 -1.3391  0.2685 -0.2693
 4677SOL     OW25666   1.722   2.238   0.827 -0.7095  0.4270 -0.2721
 4677SOL    HW125667   1.802   2.264   0.781 -0.4446  1.0537  0.5583
 4677SOL    HW225668   1.740   2.144   0.823  3.5783  1.2452 -0.1534
 4678SOL     OW25669   4.478   2.388   1.933  0.2234  0.0239 -0.1585
 4678SOL    HW125670   4.503   2.404   2.024 -2.2176 -0.3974  0.5796
 4678SOL    HW225671   4.526   2.465   1.903 -1.1754  0.7696 -0.4925
 4679SOL     OW25672   0.597   0.461   3.300 -0.2555  0.3910  0.1766
 4679SOL    HW125673   0.626   0.544   3.337  0.6201 -0.5317  1.5485
 4679SOL    HW225674   0.656   0.458   3.224 -2.0496  0.3633 -1.2197
 4680SOL     OW25675   0.475   2.401   8.939 -0.5127  0.0016  0.0576
 4680SOL    HW125676   0.567   2.387   8.918 -0.5545  1.1095 -0.8348
 4680SOL    HW225677   0.483   2.402   9.034 -3.5698 -2.1083  0.3367
 4681SOL     OW25678   2.880   4.492   3.637 -0.2657 -0.1022 -0.3140
 4681SOL    HW125679   2.785   4.499   3.635 -0.0477  2.7738 -0.5585
 4681SOL    HW225680   2.877   4.399   3.660 -1.9082  1.0045  3.9259
 4682SOL     OW25681   2.306   1.456   6.463 -0.0319  0.4453 -0.0434
 4682SOL    HW125682   2.384   1.482   6.511  0.4923 -2.0200  0.4367
 4682SOL    HW225683   2.309   1.364   6.491 -0.4164  0.5206  0.2487
 4683SOL     OW25684   1.021   4.331  10.396  0.3849 -0.0126 -0.0865
 4683SOL    HW125685   0.929   4.336  10.422  1.0145  2.9308  1.5395
 4683SOL    HW225686   1.049   4.417  10.427 -1.4794  1.0305 -1.3033
 4684SOL     OW25687   4.329   0.414  12.337  0.1598 -0.3136 -1.0719
 4684SOL    HW125688   4.248   0.372  12.310 -0.2139 -1.1781  1.4497
 4684SOL    HW225689   4.384   0.404  12.259  1.3637 -0.1037 -0.2531
 4685SOL     OW25690   4.271   3.217  11.252  0.2704  0.5340 -0.3468
 4685SOL    HW125691   4.332   3.183  11.318  0.6607  2.0537  0.0821
 4685SOL    HW225692   4.294   3.307  11.228  0.1570  0.4617 -0.7167
 4686SOL     OW25693   0.650   2.989   4.956 -0.6153 -0.2447 -0.6459
 4686SOL    HW125694   0.688   3.063   4.909 -0.2155 -0.9527 -1.4411
 4686SOL    HW225695   0.727   2.932   4.954 -0.2376  0.2011  1.0934
 4687SOL     OW25696   0.572   0.902   3.226 -0.1819 -0.3816 -0.6568
 4687SOL    HW125697   0.602   0.993   3.221 -0.8715 -0.2500 -2.3670
 4687SOL    HW225698   0.597   0.869   3.140  2.5749 -1.1781  0.4430
 4688SOL     OW25699   4.132   0.057  14.188 -0.7178  0.2240 -0.4746
 4688SOL    HW125700   4.075   0.050  14.112  0.4912  0.6516 -1.4255
 4688SOL    HW225701   4.141   4.699  14.209 -3.8436  0.1374  0.4240
 4689SOL     OW25702   4.218   2.111   6.579  0.1360 -0.6135  0.1180
 4689SOL    HW125703   4.215   2.067   6.664  0.2327 -0.6284  0.1141
 4689SOL    HW225704   4.131   2.101   6.541 -0.1060  0.4612  0.3864
 4690SOL     OW25705   4.192   2.171   1.403 -0.1415 -0.1114 -0.0662
 4690SOL    HW125706   4.106   2.158   1.443 -0.7986 -1.1797 -1.8038
 4690SOL    HW225707   4.178   2.225   1.325 -1.9294  0.1971  0.4927
 4691SOL     OW25708   3.918   3.985   8.130  0.3062  0.5686  0.3154
 4691SOL    HW125709   3.974   4.055   8.098 -0.6243  1.4338  0.5851
 4691SOL    HW225710   3.969   3.906   8.111 -0.1806  0.1397  0.7556
 4692SOL     OW25711   2.742   4.575   5.308  0.1592  0.0289  0.6685
 4692SOL    HW125712   2.777   4.501   5.358 -1.2392  1.2867  3.4745
 4692SOL    HW225713   2.674   4.611   5.365  0.1867 -0.6066  1.1022
 4693SOL     OW25714   0.195   4.347  16.153  0.1161 -0.1494  0.6995
 4693SOL    HW125715   0.245   4.341  16.234  0.0601  0.3980  0.7718
 4693SOL    HW225716   0.171   4.438  16.168 -1.4577 -0.7108  1.5700
 4694SOL     OW25717   1.866   1.128   6.803  0.0915  0.0587 -0.0024
 4694SOL    HW125718   1.888   1.038   6.778 -2.4097 -0.3530 -0.6711
 4694SOL    HW225719   1.887   1.162   6.717 -0.8702 -0.2674 -0.3672
 4695SOL     OW25720   1.306   1.360   9.467  0.0744 -0.3061 -0.4678
 4695SOL    HW125721   1.220   1.328   9.438 -0.3121 -2.0070  2.5349
 4695SOL    HW225722   1.369   1.324   9.405  1.8658 -1.6896  2.1783
 4696SOL     OW25723   3.836   3.095   3.906 -0.3743 -0.3877 -0.4712
 4696SOL    HW125724   3.783   3.052   3.839  0.3505 -0.6951 -0.8385
 4696SOL    HW225725   3.899   3.024   3.908  0.1874  0.1191 -0.3283
 4697SOL     OW25726   0.248   1.934   8.690  0.0359  0.3467  0.2716
 4697SOL    HW125727   0.294   1.969   8.614 -0.8171 -0.1557 -0.4763
 4697SOL    HW225728   0.292   1.979   8.762  1.1350 -0.5534  0.1576
 4698SOL     OW25729   0.637   0.667   9.571  0.3339  0.0851 -0.4423
 4698SOL    HW125730   0.644   0.572   9.575  0.0473 -0.0967 -4.0426
 4698SOL    HW225731   0.566   0.670   9.635  0.4032  2.8324 -0.4706
 4699SOL     OW25732   3.558   1.508   8.278 -0.2349  0.2218 -0.0697
 4699SOL    HW125733   3.589   1.590   8.239 -0.9041  0.2057 -0.6285
 4699SOL    HW225734   3.464   1.522   8.289 -0.0640  0.8586  0.6422
 4700SOL     OW25735   2.394   1.836   0.104 -0.5011 -0.2258 -0.0701
 4700SOL    HW125736   2.403   1.930   0.089 -3.2134  0.2817  1.4662
 4700SOL    HW225737   2.298   1.833   0.104 -0.5361  1.2737 -1.6725
 4701SOL     OW25738   3.813   2.960  13.986 -0.3161  0.4049 -0.1021
 4701SOL    HW125739   3.766   3.010  14.052  1.3374  1.3776  0.3466
 4701SOL    HW225740   3.897   2.969  14.032 -1.3761  1.0973  1.6901
 4702SOL     OW25741   0.687   4.228   5.079  0.6247 -0.2388 -0.3453
 4702SOL    HW125742   0.605   4.187   5.109  0.5173  0.2966  0.0919
 4702SOL    HW225743   0.737   4.151   5.053  0.7656 -0.2066 -0.1750
 4703SOL     OW25744   3.099   4.618   2.147  0.4948 -0.4349  0.5391
 4703SOL    HW125745   3.036   4.657   2.085  0.0008 -1.6288  0.2910
 4703SOL    HW225746   3.114   4.690   2.208  3.2680 -0.3200 -0.2833
 4704SOL     OW25747   3.398   3.618   2.322 -0.5681  0.3192  0.3920
 4704SOL    HW125748   3.364   3.586   2.238  0.9118 -1.7633  0.5716
 4704SOL    HW225749   3.312   3.643   2.355 -0.9853 -0.6242  0.0394
 4705SOL     OW25750   2.696   2.895   8.413  0.0772 -1.0186 -0.2741
 4705SOL    HW125751   2.667   2.910   8.323 -0.6438 -1.8357 -0.1839
 4705SOL    HW225752   2.619   2.941   8.448 -0.0800 -0.3045 -1.5576
 4706SOL     OW25753   2.534   3.027   2.769 -0.1796 -0.6372 -0.1369
 4706SOL    HW125754   2.471   2.985   2.827 -0.9057  1.5047  0.6028
 4706SOL    HW225755   2.495   3.110   2.742 -0.1868 -0.5165  0.2494
 4707SOL     OW25756   4.514   0.957   4.502  0.5786 -0.4361 -0.7201
 4707SOL    HW125757   4.503   0.863   4.515 -2.0020  0.0249  0.4685
 4707SOL    HW225758   4.608   0.967   4.513  0.1349  1.9649  0.7969
 4708SOL     OW25759   0.927   4.396   7.205 -0.0306 -0.8154 -0.2026
 4708SOL    HW125760   0.926   4.323   7.142  1.4445  0.6370 -1.9133
 4708SOL    HW225761   0.949   4.352   7.287 -0.2139 -2.6846 -1.1631
 4709SOL     OW25762   3.069   1.788   4.447 -0.2930 -0.4549  0.3665
 4709SOL    HW125763   3.115   1.783   4.531 -0.2773  0.1849  0.3946
 4709SOL    HW225764   3.002   1.854   4.469  0.1791  0.5209 -1.1717
 4710SOL     OW25765   2.229   1.972   4.315 -0.1068  0.4069 -0.3457
 4710SOL    HW125766   2.253   1.888   4.276  1.2973  1.9382 -2.7354
 4710SOL    HW225767   2.303   2.026   4.288  1.5518 -1.0944  1.1533
 4711SOL     OW25768   2.176   0.851   4.492  0.2617 -0.3230  0.1048
 4711SOL    HW125769   2.125   0.770   4.488 -2.2167  1.2812 -0.9101
 4711SOL    HW225770   2.251   0.821   4.440 -1.6195 -2.1098 -1.5886
 4712SOL     OW25771   2.237   4.140   9.724  0.4733  0.4630 -0.3358
 4712SOL    HW125772   2.182   4.193   9.665 -0.8320 -2.7751 -2.0421
 4712SOL    HW225773   2.279   4.074   9.668  0.1831 -1.9868  2.3349
 4713SOL     OW25774   0.535   1.903   4.091 -0.1195 -0.9118  0.0107
 4713SOL    HW125775   0.559   1.846   4.164 -1.3080 -1.0673  0.2668
 4713SOL    HW225776   0.457   1.945   4.127  0.1894 -0.9247  0.6919
 4714SOL     OW25777   4.312   0.458   9.554 -0.4803 -0.0414  0.0842
 4714SOL    HW125778   4.376   0.485   9.620  0.7714  0.6965 -1.4378
 4714SOL    HW225779   4.258   0.388   9.592  0.3802 -0.4219  0.5883
 4715SOL     OW25780   2.903   2.314   3.389 -0.1095  0.3563 -0.2749
 4715SOL    HW125781   2.901   2.232   3.437 -2.3098 -0.6949 -2.1686
 4715SOL    HW225782   2.949   2.285   3.310  0.1022  1.6078 -0.6094
 4716SOL     OW25783   2.706   1.624   3.861  0.0347  0.4445 -0.0217
 4716SOL    HW125784   2.638   1.651   3.799  0.3560  0.5445 -0.3312
 4716SOL    HW225785   2.666   1.666   3.937  0.9776  0.0172  0.7078
 4717SOL     OW25786   4.192   3.246   4.852 -0.0442  0.6545  0.3998
 4717SOL    HW125787   4.215   3.169   4.799 -1.6701 -1.5743  2.8831
 4717SOL    HW225788   4.124   3.218   4.914  0.1396  1.8322  1.1291
 4718SOL     OW25789   3.671   1.376   6.301 -0.2618 -0.2468 -0.0738
 4718SOL    HW125790   3.701   1.457   6.341  0.6735 -1.9345  2.5988
 4718SOL    HW225791   3.758   1.340   6.283 -0.4912  0.9530 -3.6920
 4719SOL     OW25792   2.474   3.166   7.804 -0.0329  0.2601  0.2042
 4719SOL    HW125793   2.568   3.181   7.791 -0.2139  0.3018 -1.0078
 4719SOL    HW225794   2.435   3.231   7.745  2.4357  2.8538  1.4135
 4720SOL     OW25795   4.362   0.896   9.530 -0.1641  0.1458 -0.1383
 4720SOL    HW125796   4.295   0.960   9.555 -1.3080 -0.8300 -0.7331
 4720SOL    HW225797   4.315   0.816   9.509 -0.7909  0.4212  0.2021
 4721SOL     OW25798   4.374   1.287   6.654  0.5593  0.4029 -0.4570
 4721SOL    HW125799   4.332   1.303   6.570  0.9661 -0.6739 -0.8566
 4721SOL    HW225800   4.402   1.196   6.653 -0.9300 -0.0440 -1.4986
 4722SOL     OW25801   3.454   3.678  11.626 -0.1635  0.5835 -0.7607
 4722SOL    HW125802   3.473   3.771  11.614 -1.1005  0.7176 -1.2416
 4722SOL    HW225803   3.394   3.683  11.700 -0.6184 -0.5515 -1.0546
 4723SOL     OW25804   3.269   0.956   4.772  1.2935  0.4645 -0.1206
 4723SOL    HW125805   3.185   0.980   4.732  1.3164 -0.9751 -1.0316
 4723SOL    HW225806   3.232   0.920   4.852 -0.4169  0.4423 -0.9158
 4724SOL     OW25807   3.679   2.006  14.240  0.2620  0.0120 -0.6088
 4724SOL    HW125808   3.718   2.075  14.187  0.2227  0.3122 -0.2458
 4724SOL    HW225809   3.738   1.931  14.229  0.2002 -0.3656  1.5563
 4725SOL     OW25810   2.240   3.870   1.382  0.0225  0.0788  0.6144
 4725SOL    HW125811   2.214   3.890   1.292  1.8689 -3.2474 -0.6662
 4725SOL    HW225812   2.225   3.776   1.398 -2.8834  0.4972  0.3980
 4726SOL     OW25813   2.107   4.451   6.197  0.3386  0.0529 -0.0604
 4726SOL    HW125814   2.115   4.546   6.201  1.5067 -0.0086 -0.9209
 4726SOL    HW225815   2.194   4.432   6.160 -0.0807 -0.6710 -0.6731
 4727SOL     OW25816   2.520   1.228  10.164  0.7129  0.1579  0.1607
 4727SOL    HW125817   2.557   1.158  10.109  0.1758 -1.7716  2.2705
 4727SOL    HW225818   2.467   1.286  10.109 -1.2256  0.0281  1.9468
 4728SOL     OW25819   2.585   1.635   7.113 -0.2091 -0.4462  0.2800
 4728SOL    HW125820   2.517   1.571   7.091  0.4117 -0.8195 -0.5426
 4728SOL    HW225821   2.563   1.696   7.042  2.4436  1.8024  1.3920
 4729SOL     OW25822   2.776   0.518   7.198 -0.0699 -0.3976  0.3309
 4729SOL    HW125823   2.770   0.571   7.278 -0.7216  1.8788 -1.2211
 4729SOL    HW225824   2.712   0.453   7.227  2.1377 -2.5904  0.2572
 4730SOL     OW25825   1.638   2.864   8.122 -0.1051  0.0580 -0.0757
 4730SOL    HW125826   1.621   2.770   8.128 -1.6548  0.2862 -0.9580
 4730SOL    HW225827   1.553   2.902   8.143  0.3763  0.3121  1.4336
 4731SOL     OW25828   1.254   4.261  12.221  0.1292 -0.3368  0.5183
 4731SOL    HW125829   1.211   4.286  12.303  0.4344  1.6166  0.0811
 4731SOL    HW225830   1.344   4.293  12.227 -0.5361  2.3140 -3.5752
 4732SOL     OW25831   3.138   3.034   5.284  0.3424  0.8227 -0.2471
 4732SOL    HW125832   3.107   2.968   5.346 -1.2491  2.5210  0.7738
 4732SOL    HW225833   3.216   3.065   5.331 -0.3983 -0.8424  2.1106
 4733SOL     OW25834   1.120   3.336   0.718 -0.4030  0.1973 -0.0156
 4733SOL    HW125835   1.081   3.281   0.650  1.5365 -0.8585 -0.2650
 4733SOL    HW225836   1.042   3.364   0.767  0.7723  0.7740  1.5125
 4734SOL     OW25837   1.233   2.468   4.363 -0.1484  0.1546  0.4371
 4734SOL    HW125838   1.223   2.537   4.298  1.2946  0.3888  0.4588
 4734SOL    HW225839   1.154   2.475   4.416 -0.6946 -0.8889 -0.2266
 4735SOL     OW25840   4.499   4.296   0.833 -0.2213  0.3860  0.2143
 4735SOL    HW125841   4.431   4.234   0.862  2.0926 -2.7677 -1.1182
 4735SOL    HW225842   4.566   4.235   0.802  0.8293  1.2431  0.8052
 4736SOL     OW25843   2.374   0.865   7.168 -0.1765  1.0166  0.2191
 4736SOL    HW125844   2.364   0.823   7.254  2.6248 -1.5817 -0.7370
 4736SOL    HW225845   2.289   0.877   7.127 -0.2361 -1.9911 -0.4940
 4737SOL     OW25846   2.119   4.267   4.600 -0.4723  0.1358 -0.0722
 4737SOL    HW125847   2.057   4.267   4.673 -0.9506  1.6474 -0.4963
 4737SOL    HW225848   2.197   4.296   4.648  0.2526  0.0506 -1.1981
 4738SOL     OW25849   2.092   0.009   7.500 -0.1664 -0.4968 -0.1589
 4738SOL    HW125850   2.172   0.032   7.549 -0.3497 -1.4971  0.6205
 4738SOL    HW225851   2.133   4.705   7.423  3.9556 -0.9828  2.2790
 4739SOL     OW25852   4.310   0.135   3.036 -0.1160  0.5876  0.0523
 4739SOL    HW125853   4.313   0.210   3.094  0.3917 -0.4933  1.4192
 4739SOL    HW225854   4.402   0.117   3.018 -0.3417  0.9865 -1.5298
 4740SOL     OW25855   4.125   3.970   1.261 -0.1407 -0.3755  0.3632
 4740SOL    HW125856   4.093   3.883   1.285  1.1538 -1.1752 -0.8186
 4740SOL    HW225857   4.063   3.984   1.190 -0.8793 -1.5146  0.7739
 4741SOL     OW25858   2.614   1.665   3.433  0.4461  0.8243  0.1611
 4741SOL    HW125859   2.533   1.642   3.478 -0.1406 -0.1835 -1.3805
 4741SOL    HW225860   2.634   1.748   3.475 -0.5924  1.2944 -0.2950
 4742SOL     OW25861   3.995   3.872   7.790  0.7575  0.2128 -0.5524
 4742SOL    HW125862   4.036   3.839   7.870  1.2383  0.8313 -0.5485
 4742SOL    HW225863   4.058   3.851   7.722  0.8142  0.6279 -0.6240
 4743SOL     OW25864   2.282   4.397   7.464  0.3465  0.3172 -0.6299
 4743SOL    HW125865   2.343   4.463   7.497 -1.6761  1.3456  1.0090
 4743SOL    HW225866   2.296   4.417   7.372  1.5268  0.8927 -0.3260
 4744SOL     OW25867   3.207   0.007  13.751  0.0464 -0.0124 -0.6558
 4744SOL    HW125868   3.120   0.009  13.710 -0.9625 -0.2724  1.4232
 4744SOL    HW225869   3.214   0.095  13.788  0.8138 -0.2742 -0.1704
 4745SOL     OW25870   1.612   0.890  11.321  0.0346 -0.3390 -0.5521
 4745SOL    HW125871   1.567   0.918  11.241 -1.6715  0.3041  0.6185
 4745SOL    HW225872   1.562   0.822  11.367 -2.1593  1.3151 -0.5012
 4746SOL     OW25873   3.278   1.259  12.612 -0.2552 -0.3205 -0.1699
 4746SOL    HW125874   3.222   1.202  12.560 -1.6999 -0.9620  2.0711
 4746SOL    HW225875   3.244   1.348  12.603 -2.3563 -1.2621 -1.6455
 4747SOL     OW25876   4.105   2.728   5.629  0.0410  0.2482 -0.2247
 4747SOL    HW125877   4.143   2.659   5.574 -2.9631 -1.9675  0.4251
 4747SOL    HW225878   4.032   2.676   5.664  1.1379 -1.1998 -0.1167
 4748SOL     OW25879   1.650   2.824  10.524 -0.3958 -0.5738  0.1091
 4748SOL    HW125880   1.647   2.729  10.511 -0.7903 -0.5936  0.3411
 4748SOL    HW225881   1.727   2.826  10.580 -0.2990 -0.9085 -0.0102
 4749SOL     OW25882   3.426   3.899   3.947 -0.2302 -0.0775 -0.0775
 4749SOL    HW125883   3.521   3.910   3.954 -0.1294 -2.2518  2.0705
 4749SOL    HW225884   3.394   3.987   3.932 -0.3176  0.8685  5.4643
 4750SOL     OW25885   2.810   2.543   6.316 -0.4401  0.0434 -0.0569
 4750SOL    HW125886   2.720   2.555   6.285 -0.6679  0.6191  0.8321
 4750SOL    HW225887   2.792   2.555   6.409 -1.3180  1.3031 -0.3868
 4751SOL     OW25888   0.692   3.377   1.043  0.4242 -0.0887  0.0919
 4751SOL    HW125889   0.597   3.381   1.033  0.5776  0.7872 -0.9709
 4751SOL    HW225890   0.707   3.435   1.118  1.4410  2.7736 -2.2927
 4752SOL     OW25891   1.706   4.696   3.039  0.7503  0.1749  0.5964
 4752SOL    HW125892   1.671   0.039   3.082 -1.2407 -0.0646 -0.5656
 4752SOL    HW225893   1.707   4.629   3.107 -1.0197  1.4736  1.9099
 4753SOL     OW25894   2.138   4.084   6.774 -0.1726 -0.6949 -0.0408
 4753SOL    HW125895   2.212   4.025   6.791  1.9093  1.6220 -1.1634
 4753SOL    HW225896   2.070   4.060   6.836  0.2075 -0.5332  0.4358
 4754SOL     OW25897   2.318   1.880   8.368  0.0748 -0.8874 -0.1186
 4754SOL    HW125898   2.230   1.845   8.376 -0.4684 -0.0504 -2.2830
 4754SOL    HW225899   2.297   1.971   8.347  1.8315 -0.5071 -0.2347
 4755SOL     OW25900   3.582   1.669   7.521 -0.6248  0.1751 -0.5685
 4755SOL    HW125901   3.606   1.584   7.485  0.0445 -0.8446  2.2909
 4755SOL    HW225902   3.499   1.651   7.564 -0.7431 -0.5741 -1.1044
 4756SOL     OW25903   1.403   0.274   1.686 -0.2856  0.2487 -0.4961
 4756SOL    HW125904   1.330   0.315   1.734 -0.1395  0.6128 -0.5822
 4756SOL    HW225905   1.361   0.222   1.618 -2.9645  1.3114  0.3039
 4757SOL     OW25906   2.698   2.191   2.860 -0.2630  0.0204  0.3144
 4757SOL    HW125907   2.654   2.216   2.941 -1.0118 -0.4756  0.0596
 4757SOL    HW225908   2.642   2.121   2.828  0.8388 -1.8309  2.4596
 4758SOL     OW25909   0.180   3.862   6.968 -0.4014  0.0792  0.3887
 4758SOL    HW125910   0.216   3.938   7.013  0.5587  0.3818 -0.8956
 4758SOL    HW225911   0.212   3.795   7.027 -0.2476 -2.0842 -2.1744
 4759SOL     OW25912   3.316   0.239   4.101 -0.5521  0.4397  0.7896
 4759SOL    HW125913   3.396   0.224   4.151 -0.3272  1.0554  0.6185
 4759SOL    HW225914   3.280   0.150   4.104  1.4256 -0.4069 -0.1603
 4760SOL     OW25915   0.570   1.055   3.993 -0.7024 -0.2825 -0.2944
 4760SOL    HW125916   0.562   1.077   4.085 -0.4730 -0.9784 -0.1078
 4760SOL    HW225917   0.658   1.088   3.973 -0.2357 -1.9651 -1.0343
 4761SOL     OW25918   3.106   4.142   1.005 -0.0862 -0.0987 -0.4098
 4761SOL    HW125919   3.153   4.221   1.030 -0.0048 -0.6617  1.2346
 4761SOL    HW225920   3.124   4.076   1.072  1.0002  1.6165  0.9855
 4762SOL     OW25921   0.476   2.286   6.294 -0.5295  0.3011 -0.0961
 4762SOL    HW125922   0.469   2.203   6.342 -1.0647  0.7173  0.5358
 4762SOL    HW225923   0.426   2.242   6.225  1.7369 -0.8485 -1.0211
 4763SOL     OW25924   2.163   1.994   3.655  0.1952  0.8863  0.7036
 4763SOL    HW125925   2.152   1.945   3.736  3.8451 -0.8164  0.1506
 4763SOL    HW225926   2.122   2.080   3.661  1.9678  1.8434 -0.5771
 4764SOL     OW25927   3.399   1.212  11.558 -0.5399  0.2554 -0.5965
 4764SOL    HW125928   3.426   1.184  11.471 -0.6250 -3.3496  0.5280
 4764SOL    HW225929   3.332   1.278  11.542  0.9571  1.9325  0.0879
 4765SOL     OW25930   1.530   0.193   4.252 -0.6690  0.0901  1.2311
 4765SOL    HW125931   1.554   0.139   4.328  0.4741 -1.8165 -0.4917
 4765SOL    HW225932   1.615   0.215   4.215  0.4656 -1.8519  2.6738
 4766SOL     OW25933   3.391   0.227  11.246 -0.2379  0.3681 -0.3525
 4766SOL    HW125934   3.426   0.296  11.190  0.6954  1.2954  1.3729
 4766SOL    HW225935   3.359   0.267  11.327 -1.1795  2.3199 -1.7098
 4767SOL     OW25936   3.444   1.798   8.307 -0.2312 -0.1791  0.0091
 4767SOL    HW125937   3.384   1.842   8.247  1.8894  2.2155 -0.3841
 4767SOL    HW225938   3.386   1.794   8.383 -2.3082 -0.1169 -1.5604
 4768SOL     OW25939   4.191   3.787   6.144 -0.6576  0.4525 -0.6137
 4768SOL    HW125940   4.272   3.740   6.124 -1.2962 -0.6850 -0.5132
 4768SOL    HW225941   4.192   3.846   6.069  2.2150 -2.0755 -2.5429
 4769SOL     OW25942   2.799   2.178   7.571  0.4903  0.3638  0.9487
 4769SOL    HW125943   2.878   2.191   7.623  1.2250  2.2284 -0.6292
 4769SOL    HW225944   2.835   2.179   7.482  2.6173  1.5772  1.8236
 4770SOL     OW25945   3.100   0.391   9.604  0.9562  0.0522 -0.0617
 4770SOL    HW125946   3.040   0.350   9.667 -0.5523  2.7420  0.2337
 4770SOL    HW225947   3.100   0.483   9.629 -0.4159  0.0311  0.0380
 4771SOL     OW25948   0.748   0.466   4.896 -0.3032  0.4297  0.0117
 4771SOL    HW125949   0.672   0.444   4.843  0.0202 -0.7436  0.0276
 4771SOL    HW225950   0.790   0.535   4.846 -1.1939  1.8582  1.2374
 4772SOL     OW25951   1.189   3.284  13.032 -0.3879 -0.0765 -0.1323
 4772SOL    HW125952   1.193   3.238  13.115 -3.7858  0.3964  0.3071
 4772SOL    HW225953   1.280   3.314  13.028 -0.8760  1.5425  0.6633
 4773SOL     OW25954   2.217   4.343  13.123 -0.3099 -0.5391  0.0310
 4773SOL    HW125955   2.300   4.376  13.091  1.1812 -1.4194  2.9759
 4773SOL    HW225956   2.173   4.424  13.150 -2.4931 -0.2581 -4.3487
 4774SOL     OW25957   2.802   3.735  10.660  0.4883 -0.4260  0.9720
 4774SOL    HW125958   2.784   3.682  10.737  1.8604 -1.5317  0.5318
 4774SOL    HW225959   2.737   3.711  10.594  0.5579  1.7429  0.0972
 4775SOL     OW25960   3.492   1.678   8.684  0.7810  0.3984 -0.2377
 4775SOL    HW125961   3.579   1.716   8.691  0.4905  0.5507  2.6055
 4775SOL    HW225962   3.520   1.588   8.668 -0.3867  0.2021 -1.1692
 4776SOL     OW25963   2.388   2.304  12.273 -0.0136 -0.1506 -0.4640
 4776SOL    HW125964   2.404   2.221  12.228  1.5902 -0.3199  0.4192
 4776SOL    HW225965   2.348   2.363  12.210 -0.6981 -0.4554 -0.3093
 4777SOL     OW25966   2.899   0.924   1.722  0.1832  0.7033 -0.0913
 4777SOL    HW125967   2.988   0.943   1.695  0.1438 -0.4343 -1.0211
 4777SOL    HW225968   2.888   1.000   1.780  0.3409  2.1212 -1.9075
 4778SOL     OW25969   4.237   4.209   2.550 -0.1390  0.1866 -0.3585
 4778SOL    HW125970   4.313   4.159   2.580 -0.7381 -1.7181 -2.0139
 4778SOL    HW225971   4.180   4.147   2.505 -1.3663  1.6750 -0.8574
 4779SOL     OW25972   3.167   1.085   1.082 -0.4001  0.0693  0.5036
 4779SOL    HW125973   3.134   1.174   1.067  1.9903  1.0089  0.7906
 4779SOL    HW225974   3.084   1.038   1.078  0.2145 -1.3020  3.6680
 4780SOL     OW25975   0.319   0.680  11.972 -0.1508  0.1718 -0.2315
 4780SOL    HW125976   0.354   0.648  12.055  0.2691 -1.1807 -0.9213
 4780SOL    HW225977   0.350   0.769  11.985  2.0821 -0.4946 -0.9969
 4781SOL     OW25978   0.212   0.373   8.517  0.0537 -0.3789 -0.4743
 4781SOL    HW125979   0.136   0.347   8.569 -0.6870  1.1958 -0.7816
 4781SOL    HW225980   0.197   0.321   8.437 -1.8682  0.9151 -0.9316
 4782SOL     OW25981   2.740   0.043   7.713  0.1965 -0.0631  0.6437
 4782SOL    HW125982   2.827   0.004   7.705 -1.4957 -4.0091  1.3198
 4782SOL    HW225983   2.696   4.702   7.751 -3.3940  0.8618 -1.5953
 4783SOL     OW25984   0.631   0.361  12.905 -0.3258 -0.6976  0.1573
 4783SOL    HW125985   0.651   0.295  12.839  2.3452 -0.1750  0.4308
 4783SOL    HW225986   0.649   0.442  12.857 -3.2870 -0.1194  0.0164
 4784SOL     OW25987   0.546   2.063   4.505 -0.4063  0.0346 -0.2798
 4784SOL    HW125988   0.520   2.141   4.554  0.2293 -1.1725  1.9750
 4784SOL    HW225989   0.493   2.075   4.426 -0.7985 -1.3072 -0.2101
 4785SOL     OW25990   2.959   0.966   9.849 -0.0049  0.2124  0.5002
 4785SOL    HW125991   2.963   0.932   9.759 -0.4029  1.0764  0.1528
 4785SOL    HW225992   3.003   0.898   9.900  0.9921 -0.7124 -1.5787
 4786SOL     OW25993   0.948   2.298   9.024 -0.2400  0.3490 -0.5013
 4786SOL    HW125994   1.030   2.312   9.071  0.4955 -0.3591 -1.5868
 4786SOL    HW225995   0.900   2.371   9.063 -1.5358 -1.2369  0.9030
 4787SOL     OW25996   3.972   3.823  11.983  0.2962  0.8851 -0.0916
 4787SOL    HW125997   3.914   3.809  11.908 -0.0425  0.7308  0.1963
 4787SOL    HW225998   3.986   3.731  12.004 -2.2311 -0.3947 -3.9838
 4788SOL     OW25999   0.379   2.406   6.997 -0.2535  0.2285  0.3322
 4788SOL    HW126000   0.351   2.353   6.923 -1.1169 -0.4778  1.1583
 4788SOL    HW226001   0.466   2.432   6.968  0.6776 -0.5553  2.4055
 4789SOL     OW26002   1.135   1.487   5.605 -0.2364 -0.1803 -0.6556
 4789SOL    HW126003   1.098   1.399   5.598  1.1562 -0.8980  1.3956
 4789SOL    HW226004   1.066   1.535   5.557 -1.7019 -1.3154  0.3148
 4790SOL     OW26005   0.367   2.287   8.235  0.1121  0.3821 -0.5174
 4790SOL    HW126006   0.423   2.209   8.232 -1.1866 -0.4241 -3.3067
 4790SOL    HW226007   0.409   2.345   8.298  0.5737 -0.9371  0.4006
 4791SOL     OW26008   2.992   2.921   7.406  0.4846  0.1680  0.2149
 4791SOL    HW126009   3.019   3.008   7.377  0.0047  0.7308  1.4431
 4791SOL    HW226010   2.958   2.877   7.329  0.3395  0.3684  0.1659
 4792SOL     OW26011   0.061   0.372   2.063  0.2965 -0.3368 -0.2227
 4792SOL    HW126012   0.028   0.284   2.045 -2.3438  0.0716  2.8129
 4792SOL    HW226013   0.088   0.392   1.973  0.3941 -0.9150 -0.3230
 4793SOL     OW26014   3.430   3.501   9.638  0.5176  0.2072 -0.1760
 4793SOL    HW126015   3.339   3.472   9.644  1.1151 -1.4192  0.9530
 4793SOL    HW226016   3.479   3.419   9.636  0.6406  0.2338  1.6883
 4794SOL     OW26017   3.171   2.678   0.429 -0.2516 -0.3133 -0.4855
 4794SOL    HW126018   3.097   2.706   0.483 -0.3106  1.8469 -1.6983
 4794SOL    HW226019   3.199   2.763   0.394  1.8799 -1.1541 -0.8165
 4795SOL     OW26020   1.888   0.170   8.569 -0.0152 -0.2874 -0.5985
 4795SOL    HW126021   1.862   0.170   8.477 -1.6227  0.0735 -0.1371
 4795SOL    HW226022   1.915   0.261   8.586  1.0576 -0.8371  0.6784
 4796SOL     OW26023   4.609   4.690   4.592 -0.4634 -0.3726 -0.2359
 4796SOL    HW126024   4.690   4.735   4.567 -2.0089  0.5844 -3.4992
 4796SOL    HW226025   4.626   4.602   4.561  1.0137 -0.2481  0.2255
 4797SOL     OW26026   0.122   0.237  17.489 -0.9335 -0.1060  0.2024
 4797SOL    HW126027   0.070   0.315  17.507 -2.4626 -0.4392 -2.8005
 4797SOL    HW226028   0.061   0.172  17.453 -1.1143 -0.8319  1.8093
 4798SOL     OW26029   1.063   0.049   7.667  0.0614  0.2318  0.3092
 4798SOL    HW126030   1.062   0.120   7.603 -1.9152 -1.3379 -1.4259
 4798SOL    HW226031   1.068   0.092   7.752 -1.1766 -2.3135  1.6563
 4799SOL     OW26032   0.752   4.044  16.864  0.1219 -0.0780 -0.0082
 4799SOL    HW126033   0.779   3.977  16.927  0.3400  0.0398  0.0238
 4799SOL    HW226034   0.777   4.016  16.777 -0.7221 -0.9720  0.0281
 4800SOL     OW26035   2.129   3.150  12.114  0.3526 -0.3655 -0.2322
 4800SOL    HW126036   2.077   3.230  12.102 -1.8004 -2.0729 -2.2985
 4800SOL    HW226037   2.134   3.147  12.210 -1.2749 -0.1189 -0.1387
 4801SOL     OW26038   2.770   3.914  17.588 -0.4144 -0.4246 -0.3505
 4801SOL    HW126039   2.854   3.945  17.554 -1.2423  2.9175  0.7018
 4801SOL    HW226040   2.770   3.975  17.662  1.1721 -1.0404  0.1614
 4802SOL     OW26041   0.542   0.689   6.285 -0.0470 -0.6004 -0.2564
 4802SOL    HW126042   0.475   0.636   6.329 -0.8130 -0.5618 -1.3809
 4802SOL    HW226043   0.561   0.763   6.343  1.4167 -0.4245 -0.9669
 4803SOL     OW26044   4.449   1.680   2.575  0.1904  0.6182 -0.1829
 4803SOL    HW126045   4.378   1.641   2.524  0.7553 -0.5796 -0.0500
 4803SOL    HW226046   4.482   1.748   2.515 -1.6031 -0.2247 -2.1246
 4804SOL     OW26047   3.436   1.784   1.047 -0.1475  0.4379 -0.1944
 4804SOL    HW126048   3.350   1.799   1.084 -0.1845  1.3810 -0.6664
 4804SOL    HW226049   3.419   1.823   0.961 -0.3485  0.2489 -0.2400
 4805SOL     OW26050   1.865   1.078  12.694 -0.2011 -0.2483 -0.3299
 4805SOL    HW126051   1.882   0.984  12.684  2.0320  0.0371  0.6515
 4805SOL    HW226052   1.774   1.085  12.667 -0.5151 -2.4041  0.1859
 4806SOL     OW26053   3.405   3.748   6.722  0.1534 -0.2487  0.0900
 4806SOL    HW126054   3.422   3.674   6.664  2.7387 -0.7493  1.4566
 4806SOL    HW226055   3.489   3.775   6.760  1.0945 -1.7825 -0.9162
 4807SOL     OW26056   0.549   4.562   6.447  0.1518  0.1912  0.3322
 4807SOL    HW126057   0.517   4.473   6.434 -1.0299  0.5378  0.8687
 4807SOL    HW226058   0.581   4.578   6.358 -1.2259 -1.9775 -0.5504
 4808SOL     OW26059   4.549   2.628   2.408  0.1085  0.3497 -0.2418
 4808SOL    HW126060   4.587   2.589   2.486 -1.9217  1.0901  1.0858
 4808SOL    HW226061   4.458   2.640   2.433  0.5073  4.0200 -0.4920
 4809SOL     OW26062   1.579   0.032  10.156 -0.7284 -0.2416 -0.2901
 4809SOL    HW126063   1.621   4.707  10.095 -1.8793 -1.3291 -0.0016
 4809SOL    HW226064   1.596   0.117  10.115  0.4069 -0.8105 -0.9985
 4810SOL     OW26065   3.828   2.464   9.954 -0.0134  0.3052 -0.3055
 4810SOL    HW126066   3.812   2.407   9.879  0.4916  0.4754 -0.5473
 4810SOL    HW226067   3.908   2.423   9.988  0.3382  0.7701 -0.5735
 4811SOL     OW26068   3.170   0.964  14.989 -0.1880 -0.1981  0.3287
 4811SOL    HW126069   3.250   1.000  15.028 -0.4455  2.6621 -1.7534
 4811SOL    HW226070   3.199   0.920  14.908  0.9128 -0.7826  1.0328
 4812SOL     OW26071   2.548   2.010  16.201  0.4440  0.2991  0.2159
 4812SOL    HW126072   2.609   2.083  16.207 -0.2951  0.7607  1.8639
 4812SOL    HW226073   2.503   2.022  16.117  1.3682 -2.4829 -0.6931
 4813SOL     OW26074   3.879   3.766  10.330 -0.0182 -0.1131  0.1532
 4813SOL    HW126075   3.856   3.842  10.277  0.4299 -0.7167 -0.9210
 4813SOL    HW226076   3.952   3.802  10.379  0.2191  0.4555 -0.6164
 4814SOL     OW26077   1.294   0.857   7.833 -0.2818 -0.0460 -0.1607
 4814SOL    HW126078   1.260   0.889   7.749 -1.3240 -0.8411 -0.0379
 4814SOL    HW226079   1.349   0.932   7.857 -1.8644  0.4606  1.8647
 4815SOL     OW26080   3.405   0.941   6.136 -1.0387  0.1792 -0.6694
 4815SOL    HW126081   3.341   0.986   6.191 -1.1951 -1.2458  0.2995
 4815SOL    HW226082   3.461   1.017   6.117  0.0666 -0.2772  0.7435
 4816SOL     OW26083   1.601   1.607  16.213 -0.3758 -0.7888 -0.5602
 4816SOL    HW126084   1.536   1.666  16.250 -2.2578 -1.6753 -2.5080
 4816SOL    HW226085   1.633   1.666  16.145 -1.8274 -0.2659 -0.7869
 4817SOL     OW26086   0.551   0.933   5.039 -1.0663 -0.0707 -0.5351
 4817SOL    HW126087   0.646   0.935   5.045 -1.0052 -0.7398 -1.3410
 4817SOL    HW226088   0.534   0.843   5.064  0.0245  0.3650  1.7280
 4818SOL     OW26089   1.756   0.359   6.241  0.2752 -0.3554  0.5845
 4818SOL    HW126090   1.719   0.301   6.174 -2.2153  0.9653  0.8573
 4818SOL    HW226091   1.678   0.396   6.281 -1.0131  0.7751 -2.9649
 4819SOL     OW26092   0.521   0.669  16.891  0.2464 -0.1421 -0.5392
 4819SOL    HW126093   0.437   0.628  16.872 -0.3141  0.0607  1.5031
 4819SOL    HW226094   0.582   0.601  16.862 -1.8750 -1.5318 -1.7509
 4820SOL     OW26095   1.633   1.129   4.889  0.3401 -0.4382 -0.3610
 4820SOL    HW126096   1.633   1.055   4.829 -1.2168  0.9101 -2.0224
 4820SOL    HW226097   1.542   1.160   4.881  1.0662  1.5087 -1.1317
 4821SOL     OW26098   1.878   2.191   5.003 -0.2255  0.0315  0.1208
 4821SOL    HW126099   1.806   2.138   5.036 -2.0898  1.2001 -2.0473
 4821SOL    HW226100   1.850   2.187   4.911  0.0894  0.7619 -0.0112
 4822SOL     OW26101   4.040   0.650   2.031 -0.1955  0.1908 -0.1840
 4822SOL    HW126102   3.974   0.616   2.092  0.1384 -1.2938 -0.6422
 4822SOL    HW226103   4.124   0.641   2.076  0.7635  0.1980 -1.9568
 4823SOL     OW26104   4.633   4.520   2.841  0.1941  0.0948  0.0800
 4823SOL    HW126105   4.710   4.564   2.876 -1.3268  0.9602  2.3506
 4823SOL    HW226106   4.668   4.477   2.763  1.3341  0.5895  0.3211
 4824SOL     OW26107   2.499   1.319  16.227 -0.0359 -0.1139  0.1083
 4824SOL    HW126108   2.462   1.259  16.161  2.3050  0.6402 -1.9083
 4824SOL    HW226109   2.540   1.253  16.283 -1.6131  0.6431  2.1158
 4825SOL     OW26110   1.964   1.170   2.375  0.1770 -0.0747 -0.2144
 4825SOL    HW126111   1.955   1.084   2.333 -2.7340 -0.3706  1.0310
 4825SOL    HW226112   2.055   1.181   2.347  0.0693  0.2962 -0.4181
 4826SOL     OW26113   4.354   3.271   0.735  0.1853  0.2839 -0.2766
 4826SOL    HW126114   4.297   3.197   0.713  2.4353 -1.0830 -1.5368
 4826SOL    HW226115   4.446   3.245   0.733  0.2009  0.4098 -1.4534
 4827SOL     OW26116   0.450   0.135   5.545  0.4248  0.1767  0.0566
 4827SOL    HW126117   0.490   0.136   5.632  0.5903  0.3647 -0.0213
 4827SOL    HW226118   0.425   0.044   5.528  1.0501  0.4821 -2.3724
 4828SOL     OW26119   3.886   1.800   7.358 -0.4161  0.2967  0.2192
 4828SOL    HW126120   3.981   1.812   7.351 -0.6101  1.0380 -1.0761
 4828SOL    HW226121   3.857   1.891   7.349  0.4502  0.4032 -1.4554
 4829SOL     OW26122   0.618   3.710  14.698  0.1353 -0.4149  0.1675
 4829SOL    HW126123   0.685   3.778  14.705 -0.7447  0.3840  0.8841
 4829SOL    HW226124   0.594   3.721  14.606 -0.1507 -0.8640  0.1907
 4830SOL     OW26125   0.862   1.668  16.639 -0.3393  0.2976  0.1310
 4830SOL    HW126126   0.934   1.668  16.702  1.4101  0.7397 -1.8864
 4830SOL    HW226127   0.922   1.662  16.565 -1.1134  1.0806 -0.5647
 4831SOL     OW26128   4.348   2.841   7.147 -1.0831  0.3083  1.0364
 4831SOL    HW126129   4.401   2.815   7.072 -2.6264  1.2869 -0.3728
 4831SOL    HW226130   4.406   2.804   7.214 -0.2056  1.0698  0.7028
 4832SOL     OW26131   2.397   3.366   7.640  0.0626  0.2729 -0.2069
 4832SOL    HW126132   2.366   3.347   7.551 -1.3105 -3.6960  1.1190
 4832SOL    HW226133   2.320   3.399   7.686  0.5443 -1.4966  1.8406
 4833SOL     OW26134   2.538   0.068  10.261  0.1236 -0.0207 -0.4600
 4833SOL    HW126135   2.581   0.095  10.180  0.6072  1.4327  0.2667
 4833SOL    HW226136   2.608   0.058  10.326 -1.1223 -3.8757  0.2367
 4834SOL     OW26137   0.446   4.239   9.100  0.1745 -0.3773  0.0711
 4834SOL    HW126138   0.447   4.145   9.081  1.2509 -0.3146 -0.1649
 4834SOL    HW226139   0.539   4.260   9.101  0.5142 -1.7924 -1.5811
 4835SOL     OW26140   1.366   4.037   8.163  0.2039 -0.1843 -0.0395
 4835SOL    HW126141   1.282   3.996   8.140 -0.5263  0.5968  1.2169
 4835SOL    HW226142   1.415   3.979   8.221  0.5094 -0.3637 -0.4799
 4836SOL     OW26143   3.907   0.371   1.881 -0.4689 -0.2960 -0.1069
 4836SOL    HW126144   3.832   0.348   1.937  0.5715 -0.1049  1.3580
 4836SOL    HW226145   3.881   0.330   1.798 -1.4284  0.4423 -0.1687
 4837SOL     OW26146   1.010   3.008   0.352 -0.6369  0.3005 -0.1663
 4837SOL    HW126147   1.085   2.949   0.341  0.0041  0.9802  0.4888
 4837SOL    HW226148   1.017   3.042   0.441  1.2657 -2.4986  0.7632
 4838SOL     OW26149   3.189   2.647   6.092 -0.4042  0.3949 -0.1263
 4838SOL    HW126150   3.122   2.584   6.119  2.0274 -3.0504 -2.0851
 4838SOL    HW226151   3.156   2.678   6.007 -0.1807  0.4380 -0.1977
 4839SOL     OW26152   2.199   4.304  17.679  0.3303 -0.2105  0.2270
 4839SOL    HW126153   2.124   4.356  17.650  0.3698  0.2901  1.0240
 4839SOL    HW226154   2.210   4.323   0.032  0.8918 -0.0071  0.1155
 4840SOL     OW26155   3.739   3.298   5.469 -0.0963  0.3883 -0.2147
 4840SOL    HW126156   3.688   3.323   5.545  0.4000 -0.8867  0.5355
 4840SOL    HW226157   3.726   3.204   5.458  0.3315  0.2978  0.0273
 4841SOL     OW26158   3.771   0.695   9.455 -0.0494 -0.1175  0.2192
 4841SOL    HW126159   3.841   0.717   9.516  0.0858  0.3713 -0.1087
 4841SOL    HW226160   3.756   0.602   9.473 -0.0448  0.2758  2.1958
 4842SOL     OW26161   2.728   3.153   7.653  0.3279  0.2793  0.7058
 4842SOL    HW126162   2.739   3.247   7.670  0.9598  0.5796 -1.3852
 4842SOL    HW226163   2.787   3.143   7.579  0.2129 -0.5249  0.7259
 4843SOL     OW26164   2.993   4.012   2.300 -0.1053  0.7665 -0.2548
 4843SOL    HW126165   2.952   3.952   2.237  1.3630 -1.9558  1.3732
 4843SOL    HW226166   2.945   4.090   2.274  2.4237  2.3091 -0.3297
 4844SOL     OW26167   4.138   0.313   8.851  0.3180  0.1819  0.5973
 4844SOL    HW126168   4.102   0.226   8.868 -0.3489  0.3611  0.0970
 4844SOL    HW226169   4.052   0.352   8.834 -0.5911 -2.0857 -0.0256
 4845SOL     OW26170   3.593   3.383   5.686  0.1887 -0.5207  0.3557
 4845SOL    HW126171   3.606   3.455   5.747 -0.8020 -1.5878  1.8245
 4845SOL    HW226172   3.596   3.306   5.742  1.3572 -0.0678  0.9147
 4846SOL     OW26173   3.460   3.381  14.375  0.0073 -0.1400  0.1991
 4846SOL    HW126174   3.413   3.386  14.459  1.3816  0.6812  0.9194
 4846SOL    HW226175   3.390   3.413  14.318  1.0033  1.9503  0.1752
 4847SOL     OW26176   2.131   0.163   3.771  0.2129 -0.2532  0.2959
 4847SOL    HW126177   2.035   0.156   3.764  0.3403  0.0094 -1.6833
 4847SOL    HW226178   2.143   0.224   3.844  1.1963  1.9030 -1.6533
 4848SOL     OW26179   4.608   1.758   5.163 -0.1747  0.0341  0.1309
 4848SOL    HW126180   4.619   1.665   5.183 -1.7925 -0.3344 -0.6743
 4848SOL    HW226181   4.651   1.763   5.077  2.1129 -1.0521  1.1981
 4849SOL     OW26182   4.520   2.407  12.123 -0.0443  0.4621  0.1949
 4849SOL    HW126183   4.574   2.328  12.126 -0.1332  0.4739  1.6846
 4849SOL    HW226184   4.430   2.379  12.136  0.0602 -0.4785 -1.0431
 4850SOL     OW26185   2.148   4.644   2.266 -0.1349  0.4083  0.5095
 4850SOL    HW126186   2.070   4.592   2.290  1.1973 -1.7868  0.0915
 4850SOL    HW226187   2.207   4.578   2.229 -0.9295  0.5453 -1.0175
 4851SOL     OW26188   2.359   1.842   6.304  0.0451  0.7343 -0.1717
 4851SOL    HW126189   2.375   1.934   6.327  3.7220  0.2198 -0.7886
 4851SOL    HW226190   2.275   1.831   6.348 -0.6446 -0.7139 -1.8088
 4852SOL     OW26191   3.272   1.451  15.530  0.0482  0.3855 -0.0222
 4852SOL    HW126192   3.232   1.381  15.582  0.6799  1.0421  1.3441
 4852SOL    HW226193   3.252   1.418  15.443 -2.5470  3.2164 -0.4791
 4853SOL     OW26194   2.974   1.064  17.155  0.2010  0.1948  0.4744
 4853SOL    HW126195   3.050   1.036  17.105 -1.5326 -1.5622 -1.1807
 4853SOL    HW226196   2.941   1.130  17.093  2.3343 -0.8017 -1.6911
 4854SOL     OW26197   0.981   3.436   4.381  0.8715  0.1431  0.2866
 4854SOL    HW126198   0.980   3.357   4.326  0.3078  1.5756 -1.7361
 4854SOL    HW226199   0.998   3.508   4.321 -2.0027  1.1446  0.6567
 4855SOL     OW26200   2.893   2.280  16.363 -0.3402 -0.0779  0.5564
 4855SOL    HW126201   2.905   2.204  16.419 -3.2778  0.1960  1.5591
 4855SOL    HW226202   2.979   2.323  16.370 -0.0051 -0.8568  1.2404
 4856SOL     OW26203   1.525   1.858   1.394 -0.3916 -0.1170 -0.3531
 4856SOL    HW126204   1.499   1.766   1.384 -0.8279 -0.0454  0.1032
 4856SOL    HW226205   1.599   1.848   1.454 -0.5877 -1.3678 -0.3114
 4857SOL     OW26206   0.465   0.573   4.094 -0.0844 -0.3896 -0.4402
 4857SOL    HW126207   0.511   0.656   4.093 -0.7492 -0.0192 -0.2457
 4857SOL    HW226208   0.531   0.531   4.150 -0.2297  1.3362  1.0430
 4858SOL     OW26209   3.824   2.167   9.219 -0.7436  0.2015 -0.4811
 4858SOL    HW126210   3.806   2.215   9.300  2.0727  1.7481 -0.7801
 4858SOL    HW226211   3.895   2.106   9.241  0.4777  0.6684 -3.2019
 4859SOL     OW26212   0.201   3.458   5.605 -0.0833  0.0046 -0.0570
 4859SOL    HW126213   0.240   3.376   5.575  1.2680  0.3468  0.7614
 4859SOL    HW226214   0.108   3.439   5.614 -0.1842  0.7081  0.3368
 4860SOL     OW26215   2.096   3.740   1.909  0.3178  1.0916 -0.1866
 4860SOL    HW126216   2.165   3.721   1.846 -0.2398  0.0340 -0.4748
 4860SOL    HW226217   2.031   3.793   1.863 -3.1900 -2.7553  0.2877
 4861SOL     OW26218   1.538   3.092   0.662  0.5402 -0.4479 -0.0042
 4861SOL    HW126219   1.459   3.120   0.616  0.4331 -0.0805  0.4051
 4861SOL    HW226220   1.516   3.103   0.754  1.2773  2.1205 -0.1238
 4862SOL     OW26221   1.427   1.242   5.852 -0.3063  0.0630  0.4504
 4862SOL    HW126222   1.388   1.212   5.770 -1.1993  2.1430  0.1261
 4862SOL    HW226223   1.479   1.167   5.880  0.0841  0.9591  2.1329
 4863SOL     OW26224   3.137   2.423   6.530 -0.1738  0.3881  0.0757
 4863SOL    HW126225   3.171   2.505   6.566  0.2548 -0.3166  1.2853
 4863SOL    HW226226   3.183   2.359   6.584 -0.9375 -0.9678 -0.8785
 4864SOL     OW26227   3.358   3.660  16.611  0.0871 -0.1018 -0.5468
 4864SOL    HW126228   3.325   3.750  16.609 -0.6389 -0.3461  0.6755
 4864SOL    HW226229   3.405   3.673  16.529  0.3875  0.1565 -0.3312
 4865SOL     OW26230   2.285   2.492  12.142  0.0703 -0.7114  0.0719
 4865SOL    HW126231   2.351   2.528  12.083  0.0694 -1.3647 -0.3289
 4865SOL    HW226232   2.251   2.568  12.189 -0.9787  0.1435 -2.0576
 4866SOL     OW26233   1.354   2.463  14.646  0.0150 -0.2838 -0.1557
 4866SOL    HW126234   1.443   2.452  14.611 -0.2976 -0.6023 -0.8369
 4866SOL    HW226235   1.367   2.435  14.737 -0.5900  0.0442  0.0266
 4867SOL     OW26236   0.645   1.794   2.133  0.0453  0.3994 -0.0956
 4867SOL    HW126237   0.564   1.806   2.182  0.6291  3.3172  0.1095
 4867SOL    HW226238   0.694   1.876   2.140  1.1041 -0.2359  0.0605
 4868SOL     OW26239   1.882   3.546   1.263 -0.0877 -0.0106  0.0590
 4868SOL    HW126240   1.880   3.572   1.355 -2.2706 -1.1725  0.3516
 4868SOL    HW226241   1.789   3.525   1.253 -0.3210  1.6531 -1.2547
 4869SOL     OW26242   2.955   2.050   4.307  0.1301 -0.1661 -0.1857
 4869SOL    HW126243   3.045   2.055   4.275 -1.2087 -0.8223 -4.0462
 4869SOL    HW226244   2.967   2.043   4.401 -1.2226 -1.6946 -0.1287
 4870SOL     OW26245   2.335   1.890   4.806 -0.1324  0.3362  0.5307
 4870SOL    HW126246   2.274   1.856   4.740  2.1467  1.1518 -2.0114
 4870SOL    HW226247   2.288   1.890   4.889  0.6334 -0.6500  0.9618
 4871SOL     OW26248   3.165   0.233   8.387 -0.4572  0.0838  0.3759
 4871SOL    HW126249   3.203   0.235   8.475  1.2539  0.4617 -0.3897
 4871SOL    HW226250   3.149   0.324   8.364  0.1710  0.5731  1.8773
 4872SOL     OW26251   3.225   1.164  13.763  0.4012 -0.8410  0.2722
 4872SOL    HW126252   3.201   1.142  13.673 -1.1254 -0.5094  0.6047
 4872SOL    HW226253   3.141   1.192  13.800  0.1698 -0.9219 -0.1949
 4873SOL     OW26254   1.395   2.408   7.743  0.4660 -0.1627  0.0038
 4873SOL    HW126255   1.379   2.487   7.793 -0.9008 -0.2224 -0.3334
 4873SOL    HW226256   1.475   2.432   7.696  0.1374 -1.6337 -1.3156
 4874SOL     OW26257   2.026   3.292   6.376 -0.2590  0.3684  1.1646
 4874SOL    HW126258   1.939   3.327   6.355  0.4453  0.7262 -1.2000
 4874SOL    HW226259   2.065   3.295   6.288 -2.0445  1.3189  0.3895
 4875SOL     OW26260   1.567   0.103   8.744  0.0856  0.3837  0.3781
 4875SOL    HW126261   1.566   0.021   8.694 -1.0097 -1.2337  3.0474
 4875SOL    HW226262   1.549   0.163   8.671 -0.4172 -1.5339 -1.0649
 4876SOL     OW26263   0.646   1.954  12.222  0.0393  0.4436  0.6507
 4876SOL    HW126264   0.605   1.940  12.136  0.2409  2.9853  0.1387
 4876SOL    HW226265   0.612   2.041  12.244 -1.3336  0.1393 -0.2371
 4877SOL     OW26266   4.554   0.155  16.942 -0.1825  0.0686 -0.1814
 4877SOL    HW126267   4.574   0.211  16.867  2.2005  0.3435  0.6544
 4877SOL    HW226268   4.553   0.070  16.899  2.5293 -1.2152  2.2693
 4878SOL     OW26269   1.724   3.156  17.661 -0.2865 -0.4443 -0.2576
 4878SOL    HW126270   1.725   3.231  17.720 -0.4452  0.3056 -1.2085
 4878SOL    HW226271   1.750   3.197  17.578 -1.1328  0.6160  0.0135
 4879SOL     OW26272   2.317   1.753   4.178 -0.3745 -0.4207 -0.0900
 4879SOL    HW126273   2.406   1.767   4.145 -0.4625 -0.1027 -0.1891
 4879SOL    HW226274   2.280   1.691   4.115 -0.8286 -2.5745  2.3012
 4880SOL     OW26275   0.939   4.677   5.895 -0.7853 -0.1167  0.1723
 4880SOL    HW126276   0.870   4.637   5.842 -1.5394 -1.9476  2.5353
 4880SOL    HW226277   1.016   4.623   5.877 -1.4813 -1.0832  0.0814
 4881SOL     OW26278   2.187   3.652   4.774 -0.1576  0.4581  0.2201
 4881SOL    HW126279   2.104   3.693   4.798 -0.7497  0.5966 -2.1278
 4881SOL    HW226280   2.161   3.562   4.759  1.2991 -0.0887  0.9960
 4882SOL     OW26281   0.028   4.083   7.346 -0.3037 -0.6923 -0.5447
 4882SOL    HW126282   0.028   4.080   7.442  1.4278 -1.1590 -0.5563
 4882SOL    HW226283   0.123   4.075   7.348 -0.2571  0.4369  1.6761
 4883SOL     OW26284   4.244   3.309  13.028 -0.1323 -0.5245 -0.2416
 4883SOL    HW126285   4.213   3.272  12.945  0.6022  0.7334 -1.0750
 4883SOL    HW226286   4.293   3.387  13.000 -0.8726  0.0800  0.1410
 4884SOL     OW26287   1.640   2.012   6.551 -0.3811  0.1882  0.1434
 4884SOL    HW126288   1.561   2.017   6.498  0.4666 -1.4310 -1.3004
 4884SOL    HW226289   1.603   1.957   6.620  0.4122  0.9861  1.2036
 4885SOL     OW26290   2.489   0.147   8.518  0.7100  0.6825  0.3237
 4885SOL    HW126291   2.397   0.174   8.511  0.2427 -2.0601 -3.7641
 4885SOL    HW226292   2.530   0.217   8.467  2.0734 -0.9196 -0.7381
 4886SOL     OW26293   1.287   0.529  14.228  0.2695  0.2042  0.2211
 4886SOL    HW126294   1.271   0.479  14.148 -0.9237  1.3271 -0.2343
 4886SOL    HW226295   1.312   0.615  14.194  0.9379 -0.0645  0.0243
 4887SOL     OW26296   0.065   1.892   3.014 -0.3189 -0.6545  0.8190
 4887SOL    HW126297   4.716   1.849   3.026 -0.3540 -0.8152 -0.0045
 4887SOL    HW226298   0.100   1.848   2.937 -0.8386 -0.1494  0.2936
 4888SOL     OW26299   0.977   0.883   3.029  0.2036 -0.4990 -0.2269
 4888SOL    HW126300   1.035   0.880   3.105 -1.6746  0.5495  1.2497
 4888SOL    HW226301   0.965   0.789   3.020 -1.8481 -0.1577 -1.1641
 4889SOL     OW26302   1.573   4.001   6.428 -0.0968  0.8291  0.0734
 4889SOL    HW126303   1.590   4.028   6.519 -2.3546 -1.3012  1.1261
 4889SOL    HW226304   1.530   4.083   6.403 -1.5637  0.1325  0.3049
 4890SOL     OW26305   1.749   3.568   4.587  0.3279 -0.3803  0.6321
 4890SOL    HW126306   1.657   3.558   4.560  0.6088 -0.2620 -0.3923
 4890SOL    HW226307   1.747   3.540   4.678  0.8002 -4.2564 -0.5527
 4891SOL     OW26308   4.493   1.010   9.167 -0.8092 -0.3380  0.2735
 4891SOL    HW126309   4.511   1.054   9.250  1.0517 -1.9727  0.7141
 4891SOL    HW226310   4.465   0.924   9.198 -0.5469 -1.3608 -2.2920
 4892SOL     OW26311   4.434   0.416   6.791 -0.4391 -0.5224  0.5651
 4892SOL    HW126312   4.447   0.322   6.794 -0.8582 -0.5882  0.3489
 4892SOL    HW226313   4.378   0.421   6.868 -0.0742  1.7234  0.6979
 4893SOL     OW26314   3.939   3.524   5.435  0.1992  0.7197 -0.0283
 4893SOL    HW126315   3.886   3.445   5.438  0.3463  0.5129 -3.3273
 4893SOL    HW226316   3.876   3.596   5.434  1.6672  2.0619  1.7464
 4894SOL     OW26317   1.617   2.003   8.042 -0.0893  1.0312  0.3378
 4894SOL    HW126318   1.605   2.014   7.948  2.0227 -0.1937 -0.0811
 4894SOL    HW226319   1.651   2.088   8.069  0.7928  0.2177  1.8656
 4895SOL     OW26320   1.550   3.373   6.866  0.0351  0.4645  0.1950
 4895SOL    HW126321   1.601   3.294   6.882 -2.0141 -0.8742  0.1821
 4895SOL    HW226322   1.580   3.387   6.777 -1.2961 -2.1861 -0.6661
 4896SOL     OW26323   0.512   3.065   1.925 -0.0874  0.1959  0.1916
 4896SOL    HW126324   0.551   2.993   1.877 -0.7072 -0.9662  1.3956
 4896SOL    HW226325   0.451   3.008   1.973  1.9338 -1.9342  0.2612
 4897SOL     OW26326   4.211   2.554   5.993 -0.2627  0.2523 -0.1507
 4897SOL    HW126327   4.173   2.488   5.935 -2.2303  0.8355  0.4865
 4897SOL    HW226328   4.259   2.605   5.928 -1.1159  1.1974 -0.0393
 4898SOL     OW26329   2.178   3.976   2.900 -0.1630  0.6936  0.1099
 4898SOL    HW126330   2.229   4.000   2.977 -2.1788 -1.4042  2.0846
 4898SOL    HW226331   2.148   4.064   2.874 -0.0081  0.8554  0.4794
 4899SOL     OW26332   2.674   4.071   7.859  0.0432  0.0595 -0.3246
 4899SOL    HW126333   2.689   4.165   7.872  0.5606  0.1036 -1.2382
 4899SOL    HW226334   2.757   4.037   7.827 -0.8517 -0.5175 -2.0314
 4900SOL     OW26335   1.839   0.966   3.117 -0.3918  0.3314 -0.0824
 4900SOL    HW126336   1.924   0.944   3.155  0.1952  1.9884 -0.4522
 4900SOL    HW226337   1.813   0.880   3.085 -0.1564  0.6164 -1.0231
 4901SOL     OW26338   2.454   3.945  10.290 -0.5801 -0.1434 -0.0056
 4901SOL    HW126339   2.493   4.014  10.344  0.0856  0.5873 -1.4169
 4901SOL    HW226340   2.478   3.978  10.203 -0.0133 -1.7139 -0.4381
 4902SOL     OW26341   4.437   0.436   7.739  0.6826  0.1337  0.9061
 4902SOL    HW126342   4.426   0.349   7.701 -1.5115  0.9770 -0.3891
 4902SOL    HW226343   4.402   0.414   7.825 -0.6545  0.9903  0.5913
 4903SOL     OW26344   1.302   4.648   4.559 -0.4334  0.2386  0.3973
 4903SOL    HW126345   1.363   4.580   4.530  0.3423 -0.5058  3.7574
 4903SOL    HW226346   1.236   4.649   4.490 -0.6879  1.2772  0.6528
 4904SOL     OW26347   1.997   0.096  11.731 -0.4070 -0.0498 -0.1995
 4904SOL    HW126348   1.959   0.102  11.643  2.7084 -2.4820 -1.6838
 4904SOL    HW226349   1.987   0.003  11.749  0.6736 -0.0863  0.1840
 4905SOL     OW26350   0.389   3.984   7.765 -0.1613  0.1506 -0.2521
 4905SOL    HW126351   0.412   3.895   7.792 -3.0836 -0.6316 -0.3469
 4905SOL    HW226352   0.422   4.025   7.846  2.0291 -1.8442 -0.1459
 4906SOL     OW26353   1.242   3.894  11.649 -0.6144  0.3318  0.2244
 4906SOL    HW126354   1.177   3.954  11.685  0.2317  1.1251  0.4307
 4906SOL    HW226355   1.301   3.943  11.592  0.6582 -1.5497 -0.0733
 4907SOL     OW26356   1.496   0.674   6.097  0.6535 -0.2708 -0.2069
 4907SOL    HW126357   1.570   0.721   6.059  0.2287  0.1054 -0.5667
 4907SOL    HW226358   1.435   0.740   6.128  3.4549  1.9496  0.5605
 4908SOL     OW26359   1.618   2.007   2.924  0.1801 -0.0994  0.0598
 4908SOL    HW126360   1.714   2.014   2.920 -0.1072  2.2159 -2.8092
 4908SOL    HW226361   1.617   1.947   2.998 -0.0547 -0.0822  0.0686
 4909SOL     OW26362   0.977   0.129   2.951 -0.3193  0.0904  0.5341
 4909SOL    HW126363   1.037   0.129   3.026  1.8428 -0.3078 -1.1715
 4909SOL    HW226364   1.021   0.067   2.893  0.4348  0.3674  0.8072
 4910SOL     OW26365   0.945   3.437   7.365  0.5373 -0.0151 -0.3717
 4910SOL    HW126366   1.027   3.484   7.382  0.6060  0.8981 -3.1084
 4910SOL    HW226367   0.968   3.344   7.375 -0.6590 -0.3662 -0.8235
 4911SOL     OW26368   2.735   2.673   0.246 -0.1080 -0.5849  0.2175
 4911SOL    HW126369   2.690   2.679   0.162 -1.9255 -0.8003  1.1899
 4911SOL    HW226370   2.748   2.766   0.268 -0.2306 -0.4983 -0.0730
 4912SOL     OW26371   2.550   0.435   1.931  0.6848 -0.0834  0.5482
 4912SOL    HW126372   2.603   0.470   1.859 -0.9366 -0.9474 -1.0462
 4912SOL    HW226373   2.571   0.504   1.995  1.0622 -0.8872  1.2948
 4913SOL     OW26374   4.275   3.469   3.572 -0.2393 -0.1657 -0.2418
 4913SOL    HW126375   4.237   3.548   3.612  1.5509  1.5073 -1.8176
 4913SOL    HW226376   4.212   3.402   3.597 -0.3509 -0.0436 -0.1918
 4914SOL     OW26377   4.510   3.460   4.319  0.1996 -0.6210 -0.0262
 4914SOL    HW126378   4.549   3.508   4.392  0.2127  0.2047 -0.5678
 4914SOL    HW226379   4.557   3.378   4.332 -1.6408 -1.3825  1.8965
 4915SOL     OW26380   2.217   2.493  15.946 -0.1221 -0.1992  0.0401
 4915SOL    HW126381   2.204   2.414  15.894 -2.6449  0.9527 -1.0530
 4915SOL    HW226382   2.134   2.474  15.990  0.3344  1.7879  1.7373
 4916SOL     OW26383   0.538   0.648  13.095  0.9503 -0.0326  0.4115
 4916SOL    HW126384   0.581   0.729  13.121  2.1331 -1.7852  3.9158
 4916SOL    HW226385   0.586   0.613  13.019  2.8392 -0.2608  1.7040
 4917SOL     OW26386   2.781   2.146   6.679  0.0112  0.2165 -0.3566
 4917SOL    HW126387   2.729   2.224   6.661  3.5547  1.3421 -5.6668
 4917SOL    HW226388   2.712   2.080   6.684 -1.1507  1.4771 -0.0221
 4918SOL     OW26389   2.778   1.850  16.635 -0.2994  0.3336 -0.6131
 4918SOL    HW126390   2.717   1.876  16.704  0.5528  0.7694 -0.0272
 4918SOL    HW226391   2.734   1.766  16.622  1.0769 -0.1723 -2.0847
 4919SOL     OW26392   0.928   2.870  13.464  0.2194  0.7095 -0.0052
 4919SOL    HW126393   0.865   2.814  13.509  1.5301 -0.7535  0.0093
 4919SOL    HW226394   0.902   2.959  13.485  0.3151  1.1480 -1.7406
 4920SOL     OW26395   0.900   2.464   0.450  0.3002 -0.1396 -0.3899
 4920SOL    HW126396   0.956   2.432   0.520  1.5906  2.0279 -0.4377
 4920SOL    HW226397   0.814   2.468   0.493  0.9991 -1.4615  1.0928
 4921SOL     OW26398   3.838   0.436   3.760 -0.0510  0.2468 -0.6641
 4921SOL    HW126399   3.813   0.346   3.737 -0.4448  0.0606  0.5012
 4921SOL    HW226400   3.802   0.491   3.691 -1.9323 -0.3352 -0.1412
 4922SOL     OW26401   2.361   0.714   3.645  0.1410 -0.5915  0.1596
 4922SOL    HW126402   2.448   0.708   3.605 -0.0109 -1.3319 -0.0616
 4922SOL    HW226403   2.337   0.622   3.651 -0.6077 -0.1969  3.0437
 4923SOL     OW26404   0.824   0.987   7.560  0.2492  0.3413  0.3195
 4923SOL    HW126405   0.891   0.987   7.492  0.0997  0.5780  0.1736
 4923SOL    HW226406   0.874   0.991   7.641 -1.0806  0.4980  1.1211
 4924SOL     OW26407   1.063   1.414   6.357  0.7273  0.0095 -0.3479
 4924SOL    HW126408   1.064   1.457   6.272  1.9760  0.9598  0.1331
 4924SOL    HW226409   1.048   1.325   6.324  0.2875  0.0556 -0.2601
 4925SOL     OW26410   0.385   2.221   4.937 -0.3898  0.5704 -0.5844
 4925SOL    HW126411   0.457   2.256   4.989 -0.7628  0.2711  0.1345
 4925SOL    HW226412   0.310   2.276   4.961  0.4241  1.6080 -0.4463
 4926SOL     OW26413   1.993   4.306  10.205  0.4922 -0.0590 -0.5075
 4926SOL    HW126414   2.075   4.310  10.155  0.0890 -0.5384 -1.2102
 4926SOL    HW226415   1.942   4.353  10.139 -0.2295 -2.5363 -1.6751
 4927SOL     OW26416   2.895   3.280   1.925 -0.0351  0.5345 -0.5683
 4927SOL    HW126417   2.908   3.228   1.846  0.4989  1.4744 -1.0960
 4927SOL    HW226418   2.809   3.252   1.956  0.1424  0.0828 -0.4955
 4928SOL     OW26419   3.705   0.457   8.886  0.1227 -0.3397 -0.0718
 4928SOL    HW126420   3.633   0.399   8.911  0.6266 -1.2392 -0.6907
 4928SOL    HW226421   3.660   0.540   8.873  0.1961 -0.3064 -0.1123
 4929SOL     OW26422   1.540   0.030   8.241  0.3580  0.2400 -0.0699
 4929SOL    HW126423   1.545   4.677   8.277 -0.3371 -0.2885 -1.2536
 4929SOL    HW226424   1.519   0.010   8.150  0.0105  0.9538 -0.1398
 4930SOL     OW26425   3.793   1.395   4.133  0.0829 -0.0119  0.4973
 4930SOL    HW126426   3.703   1.425   4.145 -0.1335 -0.9214  1.1530
 4930SOL    HW226427   3.783   1.302   4.115 -0.4553 -0.2869  2.1769
 4931SOL     OW26428   3.792   2.080   3.921  0.5306 -0.2353  0.2548
 4931SOL    HW126429   3.764   1.989   3.924  1.0812 -0.3902  0.8560
 4931SOL    HW226430   3.853   2.075   3.995  2.0448  0.2917 -0.9652
 4932SOL     OW26431   3.821   2.886   7.892 -0.3780  0.0071 -0.1715
 4932SOL    HW126432   3.730   2.871   7.918  0.2444  0.5288  2.2633
 4932SOL    HW226433   3.856   2.898   7.980  1.2357 -1.4016 -0.6218
 4933SOL     OW26434   2.985   2.533   5.734 -0.0479  0.8625 -0.0764
 4933SOL    HW126435   2.904   2.548   5.685  0.0746  1.8379  0.0160
 4933SOL    HW226436   2.987   2.595   5.807 -0.3503 -0.8449  1.3781
 4934SOL     OW26437   2.955   1.738  16.810  0.1791 -0.0322 -0.6657
 4934SOL    HW126438   2.903   1.796  16.754  0.7493 -0.4917 -1.6698
 4934SOL    HW226439   3.041   1.781  16.815 -0.9086  2.2669 -1.5890
 4935SOL     OW26440   3.370   3.682   8.899  0.0973 -0.1773 -0.5455
 4935SOL    HW126441   3.316   3.685   8.821 -0.3147 -3.5884 -0.3937
 4935SOL    HW226442   3.431   3.751   8.872 -0.1054  0.4656  0.6096
 4936SOL     OW26443   4.312   3.653  17.093  0.2732  0.2239 -0.2333
 4936SOL    HW126444   4.305   3.611  17.008 -0.4951 -0.1280 -0.0021
 4936SOL    HW226445   4.363   3.729  17.065  0.7489 -0.0386 -0.0798
 4937SOL     OW26446   4.541   2.941  12.803  0.5300  0.6597  0.4656
 4937SOL    HW126447   4.534   2.846  12.793 -1.6601  0.8600  0.0523
 4937SOL    HW226448   4.601   2.958  12.731  0.6628 -1.2453  0.1072
 4938SOL     OW26449   2.155   2.322   5.874 -0.2489  0.6012  0.4309
 4938SOL    HW126450   2.099   2.253   5.837  1.4315 -0.0079 -1.0330
 4938SOL    HW226451   2.233   2.314   5.818 -1.1035  2.0020 -0.9476
 4939SOL     OW26452   2.213   3.433  16.234 -0.0003 -0.4221 -0.1635
 4939SOL    HW126453   2.288   3.373  16.229 -0.1187 -0.5261 -0.6984
 4939SOL    HW226454   2.208   3.440  16.139  1.8647 -2.4122 -0.4027
 4940SOL     OW26455   2.936   2.958   1.565 -0.1323  0.1640 -0.2109
 4940SOL    HW126456   2.994   2.889   1.598  1.2509  0.1199 -2.7514
 4940SOL    HW226457   2.944   2.952   1.470  1.2935  0.2768 -0.0976
 4941SOL     OW26458   3.242   0.093   7.183 -0.3055  0.1138  0.3568
 4941SOL    HW126459   3.310   0.142   7.137  1.5070 -1.3151  1.5125
 4941SOL    HW226460   3.191   0.163   7.223  0.2115  0.2863  0.7158
 4942SOL     OW26461   0.712   0.133  16.109  0.2017  0.2197 -0.5533
 4942SOL    HW126462   0.668   0.213  16.079 -1.0460  0.2657  1.4129
 4942SOL    HW226463   0.748   0.154  16.195  0.2663  0.9652 -0.7641
 4943SOL     OW26464   0.575   1.005   1.800  0.6497 -0.2936  0.4151
 4943SOL    HW126465   0.615   1.064   1.736  0.9725 -2.0211 -0.9930
 4943SOL    HW226466   0.617   1.034   1.880 -0.3818 -0.6119  1.0751
 4944SOL     OW26467   3.618   4.719   3.642 -0.5130 -0.5134  0.4847
 4944SOL    HW126468   3.665   4.643   3.677  1.4515  0.7770  0.6843
 4944SOL    HW226469   3.525   4.700   3.648 -0.4205 -0.5704  1.6182
 4945SOL     OW26470   1.531   2.082   7.407  0.3666 -0.1314 -0.6657
 4945SOL    HW126471   1.561   2.004   7.455 -3.5584 -1.0504  0.2417
 4945SOL    HW226472   1.438   2.059   7.405 -0.3027  2.4962  0.9029
 4946SOL     OW26473   4.099   3.130  14.510 -1.1563 -0.2801 -0.0062
 4946SOL    HW126474   4.114   3.155  14.419 -0.0966 -2.0384 -0.3184
 4946SOL    HW226475   4.113   3.035  14.515  1.8646  0.2135  0.9474
 4947SOL     OW26476   1.352   3.844  14.117  0.6218  0.0207 -0.6619
 4947SOL    HW126477   1.304   3.831  14.035 -0.5503 -0.1207  0.0415
 4947SOL    HW226478   1.434   3.805  14.087 -0.4779 -2.1808 -0.8365
 4948SOL     OW26479   4.226   4.378  14.517  0.5460  0.2994  0.1741
 4948SOL    HW126480   4.317   4.364  14.494  0.1713 -1.0909 -0.4439
 4948SOL    HW226481   4.218   4.312  14.587 -1.8793  1.0060  0.5942
 4949SOL     OW26482   1.220   2.471   2.961  0.2589  0.0518 -0.0847
 4949SOL    HW126483   1.197   2.503   2.874  0.7662  0.6109 -0.0125
 4949SOL    HW226484   1.208   2.378   2.944  2.1429 -0.1515 -0.3170
 4950SOL     OW26485   3.879   3.825   4.226  0.4610  0.2058  0.0903
 4950SOL    HW126486   3.866   3.743   4.179  1.0218  1.0727 -1.5517
 4950SOL    HW226487   3.789   3.855   4.238 -0.1136 -1.6009  0.4458
 4951SOL     OW26488   4.629   2.099   2.067  0.2445 -0.0826  0.0388
 4951SOL    HW126489   4.665   2.169   2.121 -2.2754  0.5462  0.8833
 4951SOL    HW226490   4.539   2.120   2.090  0.8371  0.4718  1.8770
 4952SOL     OW26491   3.360   1.860   4.796  0.0846  0.0079  0.0383
 4952SOL    HW126492   3.291   1.835   4.857  0.1945  0.9745  0.5565
 4952SOL    HW226493   3.319   1.842   4.711 -0.1654 -0.7039  0.3165
 4953SOL     OW26494   0.302   2.881   6.578 -0.4695 -0.2823 -0.2545
 4953SOL    HW126495   0.219   2.926   6.566 -0.8926 -0.5499  1.6807
 4953SOL    HW226496   0.302   2.829   6.497 -0.7497  0.3273 -0.6492
 4954SOL     OW26497   1.920   2.698  10.062  0.2159 -0.6756  0.1340
 4954SOL    HW126498   1.887   2.742  10.140  0.9608  2.4527 -1.3125
 4954SOL    HW226499   2.005   2.740  10.068 -0.0378  0.0612 -1.2790
 4955SOL     OW26500   0.752   2.898   2.681  0.8647  0.3173 -0.1479
 4955SOL    HW126501   0.764   2.968   2.745 -0.0484 -0.4999  0.9095
 4955SOL    HW226502   0.713   2.832   2.738  1.6390  1.3536  1.5602
 4956SOL     OW26503   0.529   1.438   3.333 -0.4461 -0.0915  0.2918
 4956SOL    HW126504   0.560   1.482   3.253  3.1917 -2.0166  0.6156
 4956SOL    HW226505   0.438   1.429   3.305 -0.5484  0.4252  0.4555
 4957SOL     OW26506   0.593   1.556   5.343  0.0262  0.6622 -0.3622
 4957SOL    HW126507   0.653   1.620   5.304  0.7677 -0.5638 -1.2356
 4957SOL    HW226508   0.543   1.614   5.400  0.3185  1.2327 -0.6872
 4958SOL     OW26509   0.744   1.327   5.835  0.1654  0.0970 -0.3777
 4958SOL    HW126510   0.838   1.319   5.848  0.0277 -1.6585 -0.4304
 4958SOL    HW226511   0.711   1.256   5.892  0.3652  2.3291  2.5160
 4959SOL     OW26512   0.312   2.673   7.300 -0.3599 -0.3203 -0.2110
 4959SOL    HW126513   0.283   2.673   7.209 -1.0705 -0.4356  0.0161
 4959SOL    HW226514   0.247   2.735   7.333  1.2012  1.2598 -0.0683
 4960SOL     OW26515   1.794   2.812  10.285 -0.2340  0.0346  0.2376
 4960SOL    HW126516   1.705   2.790  10.312 -0.5826  1.2169  0.0523
 4960SOL    HW226517   1.833   2.868  10.351  0.0113  0.0690  0.0625
 4961SOL     OW26518   1.527   2.592   8.191 -0.3886  0.0435 -0.4216
 4961SOL    HW126519   1.554   2.582   8.283  0.1338 -0.5358 -0.6445
 4961SOL    HW226520   1.502   2.502   8.172  1.0565 -0.4777  0.1191
 4962SOL     OW26521   0.673   1.233   8.434 -0.0700  0.5571 -0.5123
 4962SOL    HW126522   0.714   1.200   8.514 -1.9380 -0.3918  0.0361
 4962SOL    HW226523   0.611   1.162   8.417 -0.5226  0.2701  2.3292
 4963SOL     OW26524   1.388   4.315   2.906  0.2230  0.0182  0.0951
 4963SOL    HW126525   1.433   4.298   2.824  1.4590 -0.9367  0.9721
 4963SOL    HW226526   1.308   4.264   2.917  1.0109 -1.6232 -1.8402
 4964SOL     OW26527   2.176   0.877  12.156  0.2312  0.1856  0.0141
 4964SOL    HW126528   2.245   0.933  12.191  0.4722 -1.0357  1.5328
 4964SOL    HW226529   2.213   0.791  12.136  0.2850  1.2031 -4.2162
 4965SOL     OW26530   3.324   4.508   7.639  0.3857 -0.2684  0.0968
 4965SOL    HW126531   3.362   4.589   7.674 -0.9817  0.8887 -1.0740
 4965SOL    HW226532   3.388   4.441   7.663  0.2726 -0.6033 -0.5379
 4966SOL     OW26533   4.195   2.828   2.736  0.1736  0.2470  0.1073
 4966SOL    HW126534   4.199   2.924   2.726 -0.0415  0.3981  1.5412
 4966SOL    HW226535   4.164   2.814   2.646  1.2664  2.6432 -0.6499
 4967SOL     OW26536   3.141   1.536   1.938 -0.1570  0.5923  0.1986
 4967SOL    HW126537   3.208   1.468   1.937  2.1610  2.8465  0.3705
 4967SOL    HW226538   3.136   1.555   1.844  0.5813  1.7527  0.3853
 4968SOL     OW26539   4.691   1.431   4.952  0.4143 -0.4333  0.4335
 4968SOL    HW126540   4.734   1.345   4.949 -0.5119 -0.8703 -0.3774
 4968SOL    HW226541   0.030   1.489   4.969  0.2715  0.1143 -0.7933
 4969SOL     OW26542   4.605   3.790   8.036 -0.3130  0.0217  0.2710
 4969SOL    HW126543   4.541   3.746   7.980  0.1691  0.8568 -0.9325
 4969SOL    HW226544   4.610   3.881   8.006  1.2476 -0.1667 -0.0536
 4970SOL     OW26545   4.683   0.443   3.660 -0.2628  0.0710  0.3696
 4970SOL    HW126546   4.699   0.467   3.752  0.6406 -0.6713  0.4091
 4970SOL    HW226547   0.002   0.512   3.622  0.4516 -0.3608  0.6004
 4971SOL     OW26548   2.251   3.734   0.944 -0.3165  0.4298  0.0454
 4971SOL    HW126549   2.183   3.688   0.994  0.5773 -0.3089  0.5827
 4971SOL    HW226550   2.265   3.814   0.995 -1.3762  0.1888  0.7064
 4972SOL     OW26551   4.409   3.083   4.024 -0.0332 -0.5272  0.4409
 4972SOL    HW126552   4.451   2.997   4.026  0.3736 -0.2451  3.0296
 4972SOL    HW226553   4.488   3.132   4.044  0.2765 -1.4358  1.4204
 4973SOL     OW26554   3.729   3.796   4.506 -0.3073  0.4385  0.0260
 4973SOL    HW126555   3.665   3.770   4.441 -0.2306  2.2052 -0.7689
 4973SOL    HW226556   3.693   3.877   4.544  0.2722  0.6664  0.1060
 4974SOL     OW26557   3.158   3.127   6.516  0.7727 -0.0379  0.2071
 4974SOL    HW126558   3.172   3.068   6.590 -0.8519 -0.6895 -0.0044
 4974SOL    HW226559   3.065   3.141   6.533  0.3490 -1.5141 -0.9578
 4975SOL     OW26560   2.735   1.916   9.268 -0.1680 -0.0376  0.1396
 4975SOL    HW126561   2.827   1.906   9.243 -0.4493  1.6406 -1.5884
 4975SOL    HW226562   2.732   2.012   9.267  0.5186 -0.0210 -0.7505
 4976SOL     OW26563   3.940   0.230   2.250 -0.0840 -0.0029 -0.1321
 4976SOL    HW126564   4.011   0.208   2.309  0.3029 -0.8843 -0.9205
 4976SOL    HW226565   3.988   0.287   2.190 -1.4743 -1.0029 -2.2223
 4977SOL     OW26566   3.027   0.896   9.596 -0.3339 -0.0768  0.1952
 4977SOL    HW126567   3.103   0.921   9.543 -0.7199 -1.0628 -0.8225
 4977SOL    HW226568   2.958   0.932   9.540 -0.0705 -0.7093 -0.5330
 4978SOL     OW26569   2.477   0.645  11.939 -0.2423  0.2985  0.3654
 4978SOL    HW126570   2.526   0.720  11.973  0.1811 -0.6916  1.8969
 4978SOL    HW226571   2.397   0.635  11.991 -0.4872 -0.6090 -0.1775
 4979SOL     OW26572   2.535   2.942   5.004  0.0695 -0.1294  0.5545
 4979SOL    HW126573   2.588   3.004   5.055  2.0495 -1.1047 -0.3153
 4979SOL    HW226574   2.591   2.864   5.007 -1.4684 -1.2653 -0.2669
 4980SOL     OW26575   4.162   2.478  14.378 -0.6426  0.0263 -0.2440
 4980SOL    HW126576   4.240   2.532  14.387 -0.0371 -1.0816  1.1643
 4980SOL    HW226577   4.125   2.479  14.466  1.1694 -2.0404  0.5369
 4981SOL     OW26578   1.553   2.595  10.863 -0.4856 -0.0784 -0.4222
 4981SOL    HW126579   1.539   2.516  10.811  0.9491 -0.9329  0.4816
 4981SOL    HW226580   1.560   2.552  10.949 -2.2464  0.6558  0.0886
 4982SOL     OW26581   3.619   1.993   5.998 -0.0225 -0.5606 -0.4474
 4982SOL    HW126582   3.675   2.017   5.924 -0.5525  1.1141 -0.2995
 4982SOL    HW226583   3.542   2.044   5.975  0.4108 -1.7273 -4.5065
 4983SOL     OW26584   0.742   0.901  10.320 -0.8920 -0.8152  0.8005
 4983SOL    HW126585   0.798   0.875  10.247 -1.8560 -1.1360  0.1646
 4983SOL    HW226586   0.805   0.965  10.354 -1.2426  0.9203 -1.8145
 4984SOL     OW26587   1.952   0.719   7.815 -0.4648 -0.4773  0.1884
 4984SOL    HW126588   1.908   0.723   7.900  0.2982  0.0355  0.5589
 4984SOL    HW226589   2.002   0.638   7.815  0.3474  0.0318 -1.3856
 4985SOL     OW26590   2.416   3.341   4.462 -0.2113  0.8356 -0.3016
 4985SOL    HW126591   2.470   3.344   4.541  0.4625 -0.4708 -0.7073
 4985SOL    HW226592   2.472   3.287   4.407  0.0730  3.1334 -2.2718
 4986SOL     OW26593   2.123   2.914   5.413 -0.5866  0.4012 -0.0420
 4986SOL    HW126594   2.127   2.818   5.422 -0.2112  0.4263  0.0546
 4986SOL    HW226595   2.217   2.929   5.406 -0.6496  0.8016 -0.0141
 4987SOL     OW26596   2.106   4.731  10.872 -0.5952 -0.4602 -0.5514
 4987SOL    HW126597   2.177   4.697  10.925 -0.6330  0.8135  0.3228
 4987SOL    HW226598   2.083   0.077  10.916 -2.0868 -0.5694 -1.1245
 4988SOL     OW26599   1.606   0.753   9.182 -0.2527 -0.2585  0.3253
 4988SOL    HW126600   1.525   0.712   9.152  0.2116 -0.4451 -0.6545
 4988SOL    HW226601   1.574   0.824   9.238  0.1793 -0.5711  0.9631
 4989SOL     OW26602   1.482   2.863   2.158  0.5436 -0.0874  0.1222
 4989SOL    HW126603   1.500   2.956   2.144 -2.3443  0.6351  1.1140
 4989SOL    HW226604   1.397   2.850   2.116  0.2904  3.0309 -0.3371
 4990SOL     OW26605   1.233   1.859   8.414 -0.3928 -0.1162 -0.1824
 4990SOL    HW126606   1.200   1.821   8.333  1.8428  0.3987 -1.3259
 4990SOL    HW226607   1.153   1.896   8.450 -0.1318 -0.5097  0.8067
 4991SOL     OW26608   0.494   2.028   8.206 -0.3427  0.4386 -0.0343
 4991SOL    HW126609   0.482   1.975   8.127 -1.5412 -1.0021  1.1133
 4991SOL    HW226610   0.572   2.078   8.183  0.3560 -1.7387 -2.4774
 4992SOL     OW26611   2.733   0.211   2.997 -0.1975  0.1587  0.5132
 4992SOL    HW126612   2.656   0.156   2.985 -0.3962  0.4789  0.3170
 4992SOL    HW226613   2.705   0.279   2.935  1.8536  0.7568  0.2210
 4993SOL     OW26614   0.280   4.238   5.701 -1.1890 -0.3042  0.2548
 4993SOL    HW126615   0.286   4.230   5.606 -1.7798 -1.3549  0.3125
 4993SOL    HW226616   0.193   4.203   5.722 -1.6883  0.5038 -0.4522
 4994SOL     OW26617   4.692   2.995   7.091 -0.1973  0.1157  0.4690
 4994SOL    HW126618   0.037   3.026   7.051 -0.6862 -2.7803 -2.8279
 4994SOL    HW226619   4.711   2.901   7.091  2.8483  0.7704  2.5596
 4995SOL     OW26620   0.976   0.178   8.333  0.0598  0.1712 -0.4271
 4995SOL    HW126621   0.932   0.151   8.252  0.5754 -1.0334 -0.3005
 4995SOL    HW226622   1.064   0.184   8.295  0.0211 -0.7241 -0.6598
 4996SOL     OW26623   4.735   0.164  14.977  0.2004 -0.3870 -0.2872
 4996SOL    HW126624   4.645   0.171  14.944 -0.0317 -0.7186  0.2816
 4996SOL    HW226625   0.055   0.208  14.912 -0.3742 -0.6122 -0.9381
 4997SOL     OW26626   4.525   3.487   7.683 -0.0656 -0.0686 -0.3804
 4997SOL    HW126627   4.619   3.494   7.671 -0.0092 -0.7160 -0.3016
 4997SOL    HW226628   4.526   3.408   7.738 -2.4516  0.5777  0.6223
 4998SOL     OW26629   0.058   0.361  11.288 -0.3428 -0.3738 -0.1124
 4998SOL    HW126630   0.146   0.340  11.258 -0.2994  0.1246 -0.3208
 4998SOL    HW226631   0.069   0.454  11.304  1.0414 -0.8972  2.0088
 4999SOL     OW26632   0.813   0.883   3.388 -0.2936 -0.1966  0.1067
 4999SOL    HW126633   0.837   0.790   3.388 -0.6067 -0.2670 -2.2442
 4999SOL    HW226634   0.732   0.890   3.338  1.2224 -1.3873 -2.5181
 5000SOL     OW26635   2.915   2.984   1.270  0.4862  0.4001  0.0337
 5000SOL    HW126636   2.941   3.075   1.257 -0.6440  0.3784 -2.2592
 5000SOL    HW226637   2.874   2.961   1.187  0.5318 -2.3339  0.7902
 5001SOL     OW26638   4.460   4.110   5.853  0.3043 -0.3392 -0.3182
 5001SOL    HW126639   4.470   4.033   5.797  1.3465 -0.9008  0.6362
 5001SOL    HW226640   4.456   4.180   5.788  0.6193  1.1493  1.2672
 5002SOL     OW26641   0.587   3.075   8.050  0.1175 -0.6481  0.5455
 5002SOL    HW126642   0.650   3.004   8.059  0.0477 -0.5693  1.5965
 5002SOL    HW226643   0.587   3.069   7.954  0.0100  0.0013  0.5098
 5003SOL     OW26644   4.073   1.857   6.476  0.2388  0.1722 -0.5859
 5003SOL    HW126645   4.119   1.847   6.559 -0.0861  1.6402 -0.2348
 5003SOL    HW226646   4.014   1.781   6.482  0.0800  0.4379  1.2509
 5004SOL     OW26647   4.087   3.597   2.517 -0.2150  0.4720 -0.0420
 5004SOL    HW126648   4.088   3.509   2.555 -1.0786  1.0878  1.3981
 5004SOL    HW226649   4.181   3.601   2.499 -0.2197 -2.1813 -0.5896
 5005SOL     OW26650   1.115   0.407  15.876 -0.5522  0.1493 -0.1160
 5005SOL    HW126651   1.058   0.419  15.952 -2.2474 -2.5069 -0.9921
 5005SOL    HW226652   1.060   0.437  15.804 -0.1382 -3.7591 -2.0438
 5006SOL     OW26653   0.188   4.523   7.689 -0.5241 -0.3811 -0.1619
 5006SOL    HW126654   0.179   4.519   7.593 -1.1265 -0.7370 -0.0919
 5006SOL    HW226655   0.229   4.440   7.711  2.1728  0.7105 -1.1038
 5007SOL     OW26656   0.914   0.081  15.898 -0.3067 -0.6962  0.1189
 5007SOL    HW126657   0.960   0.010  15.943 -1.5920 -3.0210 -2.1980
 5007SOL    HW226658   0.836   0.088  15.953  0.5906  0.4320  1.2274
 5008SOL     OW26659   0.134   1.106   9.183  0.3756 -0.3086  0.5551
 5008SOL    HW126660   0.218   1.106   9.136  0.1755  2.1674  0.2003
 5008SOL    HW226661   0.105   1.195   9.166  0.4001  0.1323  2.8593
 5009SOL     OW26662   3.854   1.264   2.382  0.1890 -0.1405 -0.5888
 5009SOL    HW126663   3.945   1.254   2.352  0.5235 -0.4907  0.5441
 5009SOL    HW226664   3.864   1.278   2.476 -0.9609  0.6439 -0.5873
 5010SOL     OW26665   3.216   2.172  16.355  0.2264  0.3464 -0.4795
 5010SOL    HW126666   3.305   2.205  16.370  0.7185 -1.3131  0.2786
 5010SOL    HW226667   3.230   2.078  16.364 -2.2642  0.0204  0.0148
 5011SOL     OW26668   2.289   1.854  15.685  0.2262  0.1368 -0.1925
 5011SOL    HW126669   2.281   1.862  15.780 -0.3008  2.8311 -0.4479
 5011SOL    HW226670   2.277   1.761  15.666  0.2667  0.8704 -3.9357
 5012SOL     OW26671   0.780   0.340   3.714  0.1700 -0.0929 -0.0974
 5012SOL    HW126672   0.873   0.341   3.735  0.0029 -1.6600  0.7047
 5012SOL    HW226673   0.772   0.293   3.631  1.0611  0.3835 -0.4503
 5013SOL     OW26674   3.768   4.678  14.308 -0.8779 -0.5258 -0.2626
 5013SOL    HW126675   3.850   4.678  14.357 -0.6431 -1.9863 -0.6463
 5013SOL    HW226676   3.737   4.593  14.341  1.3231 -0.9669  0.7026
 5014SOL     OW26677   0.391   2.535   7.907  0.6052 -0.2528 -0.3595
 5014SOL    HW126678   0.371   2.559   7.817  0.9013  0.1765 -0.3089
 5014SOL    HW226679   0.410   2.625   7.933  3.5158 -0.6664 -1.0946
 5015SOL     OW26680   0.009   2.355  14.455  0.1846 -0.3794  0.0614
 5015SOL    HW126681   0.001   2.309  14.372  0.8217 -0.6336  0.1370
 5015SOL    HW226682   0.076   2.420  14.434  0.2852 -0.6901 -0.5887
 5016SOL     OW26683   0.312   2.810   1.630 -0.3552 -0.0963 -0.5918
 5016SOL    HW126684   0.236   2.795   1.687 -1.9654  0.5338 -2.5800
 5016SOL    HW226685   0.353   2.724   1.642 -0.4597 -0.0061  0.3944
 5017SOL     OW26686   0.501   4.403  15.945  0.8065  0.2961 -0.1761
 5017SOL    HW126687   0.414   4.411  15.907 -0.1007 -1.8942  1.4263
 5017SOL    HW226688   0.517   4.492  15.976  0.5717 -0.5204  2.2456
 5018SOL     OW26689   1.822   4.575   5.238 -0.0795  0.5197 -0.6483
 5018SOL    HW126690   1.889   4.581   5.305 -2.6990 -2.2659  2.2194
 5018SOL    HW226691   1.789   4.665   5.243  0.4016  0.5908  1.0982
 5019SOL     OW26692   2.463   2.129  15.285  0.1447  0.6034 -0.1468
 5019SOL    HW126693   2.538   2.188  15.284  1.2428 -0.7944  0.8397
 5019SOL    HW226694   2.469   2.082  15.368 -1.8113  0.8482  0.1492
 5020SOL     OW26695   3.623   1.677   1.524  0.0557 -0.2127  0.1709
 5020SOL    HW126696   3.582   1.681   1.438  0.8547 -0.2979 -0.2128
 5020SOL    HW226697   3.558   1.610   1.549  0.7469 -0.4043  1.4656
 5021SOL     OW26698   2.582   2.093   5.654  0.0445  0.1306  0.4369
 5021SOL    HW126699   2.664   2.045   5.646 -0.4341 -0.7898  1.1379
 5021SOL    HW226700   2.533   2.045   5.587  0.8963 -0.8860  0.5577
 5022SOL     OW26701   0.101   4.311   4.298  0.0034  0.0080 -0.4803
 5022SOL    HW126702   0.130   4.360   4.375  0.4978 -2.2044  0.7527
 5022SOL    HW226703   0.008   4.333   4.295  1.1736  5.0833  0.9061
 5023SOL     OW26704   1.668   1.728   5.383 -0.2096 -0.0821 -0.6754
 5023SOL    HW126705   1.676   1.719   5.478  1.6597 -1.0802 -0.9149
 5023SOL    HW226706   1.577   1.756   5.379 -0.4989 -0.8176  0.6421
 5024SOL     OW26707   4.052   3.279   3.637 -1.0815 -0.0940 -0.3173
 5024SOL    HW126708   3.987   3.348   3.624  0.2182  0.7860 -2.0522
 5024SOL    HW226709   4.062   3.274   3.733  0.8958  1.8111 -0.3975
 5025SOL     OW26710   2.671   2.752   0.559 -0.5147 -0.0952 -0.7790
 5025SOL    HW126711   2.584   2.757   0.518 -1.8196 -1.8145  1.7281
 5025SOL    HW226712   2.695   2.674   0.509  1.3414  0.4419 -0.7201
 5026SOL     OW26713   1.063   1.584   6.123 -0.3172  0.1292 -0.2244
 5026SOL    HW126714   1.006   1.646   6.078  1.1039  2.1874  0.8215
 5026SOL    HW226715   1.100   1.533   6.051  0.7481 -2.2842  2.0525
 5027SOL     OW26716   3.628   1.391   8.522 -0.3615 -0.4618 -0.4497
 5027SOL    HW126717   3.600   1.444   8.448  2.6799  1.9262  0.0742
 5027SOL    HW226718   3.597   1.308   8.485  1.5623 -0.6995 -1.5487
 5028SOL     OW26719   1.253   3.286  10.745  0.1674 -0.1528 -0.3787
 5028SOL    HW126720   1.244   3.335  10.663  2.1985  2.1403  0.7849
 5028SOL    HW226721   1.300   3.205  10.725 -0.7341 -1.1022  1.3762
 5029SOL     OW26722   3.402   4.677   9.349  0.2351 -0.1508  0.5486
 5029SOL    HW126723   3.429   4.594   9.310 -1.4186 -1.3756  1.9824
 5029SOL    HW226724   3.484   4.690   9.397  1.6181  1.3587 -2.2169
 5030SOL     OW26725   1.064   1.549   8.382  0.4473 -0.2689  0.1232
 5030SOL    HW126726   1.155   1.550   8.350  0.7373 -1.4997  0.9323
 5030SOL    HW226727   1.030   1.463   8.358 -1.4451  1.0843 -2.0819
 5031SOL     OW26728   0.004   1.566   3.663 -0.1312  0.3130  0.0936
 5031SOL    HW126729   4.711   1.655   3.642  3.1091  1.3944  0.3203
 5031SOL    HW226730   0.003   1.580   3.758 -0.4122 -0.1718  0.1624
 5032SOL     OW26731   4.123   4.141  10.235  0.1920 -0.4102 -0.5994
 5032SOL    HW126732   4.197   4.170  10.289  0.0089  0.6822 -0.9315
 5032SOL    HW226733   4.133   4.203  10.162 -0.7146 -1.4646 -1.6260
 5033SOL     OW26734   3.202   0.629   5.537 -0.0244 -0.2572 -0.8326
 5033SOL    HW126735   3.259   0.603   5.609 -0.1416  0.8724 -0.3318
 5033SOL    HW226736   3.130   0.566   5.541 -1.1460  1.2131  1.7281
 5034SOL     OW26737   4.325   3.132  13.475  0.2746 -0.1841  0.5500
 5034SOL    HW126738   4.326   3.124  13.570  0.3907  0.5434  0.6161
 5034SOL    HW226739   4.404   3.085  13.449  0.9295  1.3501 -0.2900
 5035SOL     OW26740   0.383   3.450   3.856  0.1622  0.0755 -0.0723
 5035SOL    HW126741   0.379   3.390   3.782  0.7600  0.0093 -0.0490
 5035SOL    HW226742   0.377   3.530   3.804  2.4201  0.1135 -0.2666
 5036SOL     OW26743   4.325   3.782   7.175  0.0739 -0.3011 -0.2253
 5036SOL    HW126744   4.305   3.860   7.122 -2.1106 -0.7275 -0.0245
 5036SOL    HW226745   4.349   3.713   7.114  1.1913  0.7695 -0.9894
 5037SOL     OW26746   2.136   1.869   3.916  0.1291  0.2418 -0.2077
 5037SOL    HW126747   2.133   1.922   3.996  0.1215  1.2741 -0.8858
 5037SOL    HW226748   2.045   1.882   3.889 -0.0225 -1.8749 -0.7314
 5038SOL     OW26749   1.313   0.188  14.982 -0.1337  0.4194 -0.0994
 5038SOL    HW126750   1.332   0.255  14.916 -0.9201  0.6456 -0.0913
 5038SOL    HW226751   1.339   0.117  14.923 -0.6262 -1.3067  1.7827
 5039SOL     OW26752   1.216   0.321   5.972 -0.0983  0.2402  0.4569
 5039SOL    HW126753   1.292   0.367   5.937 -1.5516  1.4850 -1.1112
 5039SOL    HW226754   1.262   0.246   6.010 -3.8918 -2.2928  0.0467
 5040SOL     OW26755   2.365   0.572   7.121 -0.0981 -0.1052 -0.7615
 5040SOL    HW126756   2.413   0.585   7.202 -0.2437 -0.7093 -0.5763
 5040SOL    HW226757   2.378   0.654   7.074 -0.2045 -0.1342 -0.8420
 5041SOL     OW26758   1.923   1.480  12.952 -0.1471 -0.0701 -0.1600
 5041SOL    HW126759   1.911   1.518  13.039  1.4136 -0.8525  0.4133
 5041SOL    HW226760   1.877   1.398  12.968  0.2436 -0.5396 -1.4468
 5042SOL     OW26761   2.633   1.057   2.270  0.4275  0.0226 -0.3822
 5042SOL    HW126762   2.681   1.042   2.351  1.2013 -0.2263 -0.8864
 5042SOL    HW226763   2.687   1.128   2.236 -1.1602  1.6590  0.4879
 5043SOL     OW26764   0.652   4.455  16.682  0.5648 -0.4421 -0.2075
 5043SOL    HW126765   0.689   4.543  16.687  1.1892 -0.6663 -1.0786
 5043SOL    HW226766   0.646   4.419  16.771 -1.3020 -1.0758 -0.5814
 5044SOL     OW26767   3.704   4.430  14.437  0.1933  0.2184  0.4517
 5044SOL    HW126768   3.622   4.431  14.487  0.3757  0.4284  0.7459
 5044SOL    HW226769   3.766   4.474  14.495  1.4390 -0.5426 -0.3123
 5045SOL     OW26770   1.827   2.624   2.833 -0.1472 -0.4102  0.2435
 5045SOL    HW126771   1.754   2.625   2.895 -0.5591 -1.9285 -0.2204
 5045SOL    HW226772   1.787   2.634   2.747  1.1719  4.2035  0.1567
 5046SOL     OW26773   4.372   3.855   9.062  0.0567  0.7235 -0.5051
 5046SOL    HW126774   4.396   3.768   9.031  0.2042 -0.0483  1.8240
 5046SOL    HW226775   4.277   3.848   9.047  0.0128 -0.9076  0.5738
 5047SOL     OW26776   0.662   3.887   8.202 -0.2247  0.3754  0.1480
 5047SOL    HW126777   0.611   3.968   8.193  0.2879  0.6633 -0.2140
 5047SOL    HW226778   0.657   3.880   8.297  1.3619 -1.3969  0.1081
 5048SOL     OW26779   4.116   0.393   7.874  0.2707  0.1018  0.6033
 5048SOL    HW126780   4.189   0.447   7.905  0.7749  0.1064 -0.5885
 5048SOL    HW226781   4.120   0.386   7.779  1.0773 -1.5685  0.7575
 5049SOL     OW26782   1.631   4.201   5.309 -0.6266 -0.9146 -0.2674
 5049SOL    HW126783   1.710   4.149   5.294  0.1690  0.8606 -2.2540
 5049SOL    HW226784   1.605   4.229   5.221  1.0057 -0.4879 -0.6230
 5050SOL     OW26785   3.092   0.674  15.889 -0.8710  0.2785  0.1037
 5050SOL    HW126786   3.133   0.723  15.818 -0.8782  0.3127  0.1232
 5050SOL    HW226787   3.160   0.622  15.933 -1.1348  0.3808  0.6311
 5051SOL     OW26788   1.729   2.816   2.057  0.5734 -0.2437 -0.6100
 5051SOL    HW126789   1.647   2.831   2.104  1.3066  3.4472 -0.4684
 5051SOL    HW226790   1.718   2.834   1.963 -1.2512 -1.5587 -0.6295
 5052SOL     OW26791   3.050   3.711   5.680 -0.2646 -0.1506  0.3074
 5052SOL    HW126792   3.018   3.649   5.614 -1.4255  0.1770  0.5630
 5052SOL    HW226793   3.146   3.701   5.680 -0.2807 -0.3884  2.4566
 5053SOL     OW26794   2.310   4.733   3.669  0.2118  0.2140 -0.0157
 5053SOL    HW126795   2.242   0.057   3.699  0.7000  1.2395 -0.9106
 5053SOL    HW226796   2.331   0.040   3.586 -1.6425  0.2374 -0.4565
 5054SOL     OW26797   0.296   2.271  13.282  0.0893  0.4368  0.3587
 5054SOL    HW126798   0.285   2.365  13.267  0.8429  0.9167  2.7548
 5054SOL    HW226799   0.237   2.262  13.357 -1.6120  0.7813 -0.9355
 5055SOL     OW26800   3.167   0.782   6.344  0.2437  0.4887 -0.0551
 5055SOL    HW126801   3.112   0.717   6.388 -0.9657  2.0642  0.7913
 5055SOL    HW226802   3.255   0.751   6.363 -0.6925 -2.0118  0.1792
 5056SOL     OW26803   0.787   2.843   2.418 -0.4251 -0.2132 -0.2041
 5056SOL    HW126804   0.728   2.768   2.407 -1.6625  0.6376  0.7499
 5056SOL    HW226805   0.786   2.860   2.512 -0.5351 -0.9211 -0.0805
 5057SOL     OW26806   2.844   1.572   1.780  0.2079  0.7399 -0.0688
 5057SOL    HW126807   2.779   1.640   1.798 -0.0690  0.9646 -1.9797
 5057SOL    HW226808   2.903   1.619   1.720 -1.3738  1.4043 -1.0892
 5058SOL     OW26809   1.849   1.383  12.579  0.2247  0.2909  0.1301
 5058SOL    HW126810   1.892   1.323  12.640 -2.6925 -0.2718  1.6424
 5058SOL    HW226811   1.850   1.465  12.628 -1.4018  0.7405 -0.5912
 5059SOL     OW26812   2.537   0.151   5.146 -0.3050 -0.4572 -0.3233
 5059SOL    HW126813   2.446   0.125   5.138 -1.4302  1.7740  4.7502
 5059SOL    HW226814   2.562   0.163   5.055  0.4524 -1.6031 -0.2675
 5060SOL     OW26815   4.154   3.436  14.097 -0.2211  0.7667  0.2047
 5060SOL    HW126816   4.118   3.494  14.030 -1.3437  0.0714  0.2177
 5060SOL    HW226817   4.227   3.486  14.134 -0.2294 -0.2029  1.5259
 5061SOL     OW26818   2.559   0.231   4.251 -0.1130  0.2631  0.4616
 5061SOL    HW126819   2.530   0.227   4.160 -1.0513  1.8781  0.6815
 5061SOL    HW226820   2.621   0.302   4.235 -0.7537  0.7332  0.0791
 5062SOL     OW26821   2.103   2.125   9.124  0.2067 -0.4466  0.0936
 5062SOL    HW126822   2.090   2.218   9.142 -1.5177 -0.2724 -2.1125
 5062SOL    HW226823   2.194   2.121   9.155  0.4194 -0.4617 -0.5216
 5063SOL     OW26824   2.821   3.166   5.752 -0.2404 -0.3384 -0.1291
 5063SOL    HW126825   2.914   3.185   5.739 -0.2680  0.2525  0.5255
 5063SOL    HW226826   2.813   3.172   5.847  0.2141 -0.5748 -0.0786
 5064SOL     OW26827   2.315   4.345  16.036  0.6644  0.1097  0.5467
 5064SOL    HW126828   2.226   4.341  16.071  0.9002 -0.4569  1.0666
 5064SOL    HW226829   2.357   4.316  16.117  0.7891  0.7664  0.7153
 5065SOL     OW26830   0.540   1.251   7.638 -0.6870 -0.2573  0.3978
 5065SOL    HW126831   0.488   1.312   7.691 -0.9831 -0.8171  0.7523
 5065SOL    HW226832   0.626   1.282   7.663 -1.8249  2.6767  0.6244
 5066SOL     OW26833   0.488   3.079  16.930 -0.1995 -0.4308  0.3201
 5066SOL    HW126834   0.455   3.162  16.897  2.4392  0.4780 -0.0516
 5066SOL    HW226835   0.495   3.099  17.024 -0.2660 -0.2168  0.2797
 5067SOL     OW26836   0.935   2.306   1.279  0.3410 -0.2635  0.3198
 5067SOL    HW126837   0.997   2.315   1.352  0.7725 -0.6051 -0.0008
 5067SOL    HW226838   0.855   2.293   1.330  0.1114 -0.6907 -0.1541
 5068SOL     OW26839   0.935   0.646   5.885 -0.2156 -0.5261 -0.0501
 5068SOL    HW126840   0.952   0.594   5.964  3.4198  0.7632 -0.0003
 5068SOL    HW226841   0.897   0.729   5.916 -1.3023 -0.8781 -0.4248
 5069SOL     OW26842   4.338   0.873   1.774  0.1251  0.2718 -0.0437
 5069SOL    HW126843   4.427   0.853   1.748 -0.4307 -1.8247 -0.3658
 5069SOL    HW226844   4.353   0.863   1.868  0.8080  1.1559 -0.0641
 5070SOL     OW26845   2.155   4.127  10.481 -0.0854  0.6957  0.1546
 5070SOL    HW126846   2.156   4.097  10.390  1.5265 -1.1842  0.7806
 5070SOL    HW226847   2.154   4.222  10.466 -1.2282  0.9180  1.6016
 5071SOL     OW26848   3.008   4.633   8.495  0.1281  0.2494 -0.4548
 5071SOL    HW126849   2.914   4.645   8.483 -0.4346 -0.1078  3.4105
 5071SOL    HW226850   3.044   4.582   8.422 -1.2108 -0.5315 -0.5615
 5072SOL     OW26851   3.146   0.421   3.979 -0.0248  0.5461 -0.4081
 5072SOL    HW126852   3.184   0.356   4.039 -0.9125 -2.5328 -3.1940
 5072SOL    HW226853   3.169   0.385   3.893  1.0201  0.4369 -0.0854
 5073SOL     OW26854   3.349   0.402   9.324  0.4349 -0.1031  0.5649
 5073SOL    HW126855   3.316   0.325   9.371  1.2695  0.2152  1.6941
 5073SOL    HW226856   3.363   0.457   9.401 -3.2558 -0.1950  1.3050
 5074SOL     OW26857   0.010   3.251  16.710 -0.6790 -0.0557 -0.2284
 5074SOL    HW126858   4.663   3.289  16.679 -0.1837  0.9305 -0.3419
 5074SOL    HW226859   4.726   3.272  16.801 -0.6122 -0.2240 -0.1760
 5075SOL     OW26860   1.662   1.603   6.612  0.2327 -0.3957 -0.9059
 5075SOL    HW126861   1.702   1.554   6.540  1.0217  0.8207 -1.2916
 5075SOL    HW226862   1.579   1.561   6.634  0.7188  0.3988  2.4573
 5076SOL     OW26863   4.413   3.365   6.357  0.2859  0.2929  0.3138
 5076SOL    HW126864   4.351   3.352   6.284 -0.1163  0.2689  0.6582
 5076SOL    HW226865   4.356   3.398   6.426 -0.0129 -1.5115  0.9304
 5077SOL     OW26866   1.628   2.708   6.889 -0.5175 -0.0806 -0.0198
 5077SOL    HW126867   1.552   2.767   6.892 -1.2015 -1.0365  1.6038
 5077SOL    HW226868   1.698   2.769   6.910  0.9378 -1.1503 -1.8036
 5078SOL     OW26869   2.469   3.655   3.791  0.2182  0.0835 -0.0939
 5078SOL    HW126870   2.516   3.736   3.813 -1.0038  0.3544  1.5087
 5078SOL    HW226871   2.459   3.622   3.880  0.0256 -0.6088 -0.3769
 5079SOL     OW26872   0.669   1.264  11.994  0.6170 -0.6925 -0.5217
 5079SOL    HW126873   0.578   1.251  11.967  0.1070 -1.8209  1.6762
 5079SOL    HW226874   0.722   1.226  11.924 -1.4800 -1.4145 -1.7220
 5080SOL     OW26875   2.565   3.650   7.387  0.8354 -0.2309  0.4766
 5080SOL    HW126876   2.613   3.722   7.345  2.3351 -3.0919 -2.6969
 5080SOL    HW226877   2.605   3.571   7.350 -1.9655 -0.9375 -1.0587
 5081SOL     OW26878   0.086   0.626  13.341 -0.4809  0.1512 -0.3899
 5081SOL    HW126879   0.024   0.689  13.378  2.7682  2.8900  0.3699
 5081SOL    HW226880   0.078   0.636  13.246 -4.1806  4.2831  0.3699
 5082SOL     OW26881   3.775   1.427   2.808  0.2025  0.1873 -0.7207
 5082SOL    HW126882   3.780   1.522   2.818 -2.1479  0.4185 -1.7089
 5082SOL    HW226883   3.716   1.407   2.880  0.2338  1.7111 -0.2713
 5083SOL     OW26884   2.233   2.705   6.137 -0.1979 -0.0026 -0.1462
 5083SOL    HW126885   2.216   2.617   6.171  2.4013 -1.0649 -1.5679
 5083SOL    HW226886   2.199   2.763   6.205  0.4048 -1.9382  1.7963
 5084SOL     OW26887   2.233   2.793   6.410  0.2070  0.1132 -0.5678
 5084SOL    HW126888   2.289   2.819   6.482 -0.8982  0.8296  0.0363
 5084SOL    HW226889   2.153   2.798   6.462 -0.1124  0.9534 -1.1325
 5085SOL     OW26890   3.286   1.232   5.453 -0.4708  0.5321 -0.6447
 5085SOL    HW126891   3.206   1.182   5.441  1.4733 -2.1953 -2.2435
 5085SOL    HW226892   3.258   1.272   5.536  0.0654  1.1344 -0.7511
 5086SOL     OW26893   2.866   2.327   3.797  0.1466 -0.1634  0.3792
 5086SOL    HW126894   2.886   2.235   3.779 -2.6288 -0.4004 -1.5566
 5086SOL    HW226895   2.776   2.334   3.764 -0.2128 -2.0654  0.9322
 5087SOL     OW26896   0.023   4.098   2.835 -0.2517  0.2616 -0.9500
 5087SOL    HW126897   0.112   4.070   2.854 -0.0127  1.7304  0.0975
 5087SOL    HW226898   0.021   4.052   2.751  0.0001 -1.6514  0.1040
 5088SOL     OW26899   1.758   0.641   5.520  0.7065  0.0503  0.0701
 5088SOL    HW126900   1.731   0.566   5.467  0.1205 -0.6010  1.2847
 5088SOL    HW226901   1.808   0.687   5.452  1.8821  0.6893  1.3772
 5089SOL     OW26902   4.502   2.762   7.374  0.3206  0.0636 -0.0710
 5089SOL    HW126903   4.431   2.720   7.423  0.9395  0.2474  0.9752
 5089SOL    HW226904   4.574   2.736   7.431 -0.7139  0.6382  1.4822
 5090SOL     OW26905   4.422   2.682   4.797  0.4269  0.1721 -0.0389
 5090SOL    HW126906   4.379   2.632   4.728 -0.6867  0.4801  0.4269
 5090SOL    HW226907   4.494   2.726   4.754  0.9487 -0.5963  0.0349
 5091SOL     OW26908   3.933   1.169   7.931 -0.6510 -0.2894 -0.2958
 5091SOL    HW126909   3.944   1.125   8.015  1.6334 -0.8139 -0.8809
 5091SOL    HW226910   4.000   1.124   7.880  0.4949  1.9087 -0.7300
 5092SOL     OW26911   3.695   1.915   7.830 -0.0997  0.1696  0.4714
 5092SOL    HW126912   3.740   1.925   7.747 -2.4429 -0.3312 -0.8749
 5092SOL    HW226913   3.734   1.993   7.868 -0.5820  0.5014  0.2896
 5093SOL     OW26914   3.963   3.327   7.960  0.3128 -0.3811  0.4366
 5093SOL    HW126915   3.909   3.350   8.036  0.6214  1.6611  0.0396
 5093SOL    HW226916   3.974   3.232   7.969 -0.7400 -0.8179 -2.7457
 5094SOL     OW26917   0.695   0.086   5.991  0.0022 -0.4523 -0.2855
 5094SOL    HW126918   0.783   0.057   5.967 -0.0231  0.5773 -1.6467
 5094SOL    HW226919   0.706   0.181   5.992 -1.1480 -0.2693 -3.7468
 5095SOL     OW26920   2.972   1.317   8.296  0.0550 -0.2099 -0.5340
 5095SOL    HW126921   2.934   1.267   8.224  0.5658  2.6316 -2.7895
 5095SOL    HW226922   2.920   1.397   8.303  0.4911  0.1258 -1.1155
 5096SOL     OW26923   1.064   1.347   5.223  0.5168  0.0625  0.1509
 5096SOL    HW126924   1.049   1.433   5.263  1.8566  0.3558  0.0306
 5096SOL    HW226925   1.143   1.361   5.171 -0.1244 -1.1866 -1.1675
 5097SOL     OW26926   1.307   2.677   8.061  0.3913 -0.2372 -0.3827
 5097SOL    HW126927   1.393   2.652   8.094  0.4972 -1.5720 -1.6668
 5097SOL    HW226928   1.335   2.731   7.986 -2.4934  0.2207 -1.1237
 5098SOL     OW26929   4.264   1.508   2.439  0.5002 -0.6103  0.0026
 5098SOL    HW126930   4.245   1.472   2.353 -1.1247 -0.9365  0.4926
 5098SOL    HW226931   4.273   1.431   2.496 -0.2709  0.7688  1.9826
 5099SOL     OW26932   1.374   1.923   2.779  0.2950 -0.2659 -0.3354
 5099SOL    HW126933   1.428   1.851   2.809  0.8173  1.0034  1.8155
 5099SOL    HW226934   1.426   2.002   2.794 -0.1471  0.0313 -0.3614
 5100SOL     OW26935   1.902   3.980   0.935 -0.1521  0.5336 -0.6310
 5100SOL    HW126936   1.814   3.944   0.932 -0.3807  1.1651 -1.2590
 5100SOL    HW226937   1.938   3.939   0.856 -0.4342 -1.5652  0.3275
 5101SOL     OW26938   3.391   4.007  16.616 -0.4039 -0.0238 -0.1644
 5101SOL    HW126939   3.380   4.102  16.626  3.9408  0.7192 -2.2780
 5101SOL    HW226940   3.325   3.981  16.551  2.1806 -1.1178 -2.3518
 5102SOL     OW26941   2.532   4.053  10.053  0.0397 -0.4272 -0.4751
 5102SOL    HW126942   2.511   4.106   9.977  0.5717  1.0157  0.3871
 5102SOL    HW226943   2.600   3.995  10.018  1.0513 -0.5479  1.6889
 5103SOL     OW26944   4.452   0.572   5.039 -0.2377  0.3787  0.1182
 5103SOL    HW126945   4.410   0.524   5.111 -0.1535 -0.9788 -0.7504
 5103SOL    HW226946   4.416   0.658   5.062  1.6710  1.0933  0.4442
 5104SOL     OW26947   3.682   0.558   3.522  0.4741  0.2875  0.1866
 5104SOL    HW126948   3.628   0.496   3.474  2.1639 -0.6299 -0.5283
 5104SOL    HW226949   3.620   0.627   3.546 -2.5366 -1.7203 -1.8866
 5105SOL     OW26950   4.329   3.227   1.401  0.1012 -0.0763 -0.1074
 5105SOL    HW126951   4.284   3.298   1.447  2.0663  2.5350 -2.2410
 5105SOL    HW226952   4.321   3.162   1.471  1.8366 -1.1182 -0.8722
 5106SOL     OW26953   1.577   4.129   2.492 -0.0518 -0.0990 -0.7693
 5106SOL    HW126954   1.535   4.093   2.414  0.0037  1.3175 -1.4440
 5106SOL    HW226955   1.628   4.056   2.528  0.2912  0.5874  0.1324
 5107SOL     OW26956   3.755   1.708  14.751 -0.2474  0.2014  0.4941
 5107SOL    HW126957   3.748   1.803  14.755 -2.1863  0.2060 -2.3073
 5107SOL    HW226958   3.848   1.685  14.756  0.1960  1.8811  0.1074
 5108SOL     OW26959   1.116   0.750  15.817  0.4667 -0.3289 -0.2508
 5108SOL    HW126960   1.164   0.831  15.802 -0.7279  0.7410  1.7431
 5108SOL    HW226961   1.189   0.705  15.858  0.2258  0.0968  0.6351
 5109SOL     OW26962   2.043   2.366   8.116  0.0993  0.1071  0.1693
 5109SOL    HW126963   2.112   2.431   8.127 -1.3744  1.9723 -1.5973
 5109SOL    HW226964   2.004   2.388   8.031  0.1875 -1.1931 -0.2080
 5110SOL     OW26965   2.500   3.467  11.277  0.1025  0.2350 -0.1239
 5110SOL    HW126966   2.593   3.462  11.256  0.5199  2.4657  1.1455
 5110SOL    HW226967   2.450   3.484  11.197  0.1850 -2.5338 -0.7724
 5111SOL     OW26968   3.653   2.965   8.408 -0.1647 -0.1117  0.1460
 5111SOL    HW126969   3.587   2.961   8.477  0.0596  2.8795  0.5697
 5111SOL    HW226970   3.727   3.004   8.456  0.5841 -2.3638  0.7934
 5112SOL     OW26971   4.044   3.777   1.417  0.2490  0.3816 -0.1800
 5112SOL    HW126972   4.012   3.792   1.506 -1.0238 -1.5809 -0.3053
 5112SOL    HW226973   4.120   3.721   1.434  0.2254  0.6477  0.7654
 5113SOL     OW26974   1.446   1.871   5.363 -0.2264 -0.2258 -0.6646
 5113SOL    HW126975   1.372   1.876   5.423 -1.5131  1.1570 -2.3871
 5113SOL    HW226976   1.482   1.959   5.373 -0.3757 -0.0541 -1.6537
 5114SOL     OW26977   3.251   1.758   2.536 -0.1479  0.0939  0.2975
 5114SOL    HW126978   3.236   1.668   2.563  0.1711 -0.0806 -0.0931
 5114SOL    HW226979   3.163   1.793   2.534  0.4241  1.5572  0.6512
 5115SOL     OW26980   3.247   3.555   7.918  0.3148 -0.0075 -0.0958
 5115SOL    HW126981   3.194   3.510   7.852 -0.1942 -0.8140  0.8705
 5115SOL    HW226982   3.183   3.581   7.984  1.8143  2.5212  0.3593
 5116SOL     OW26983   3.621   4.573   8.259  0.0688  0.1649 -0.3005
 5116SOL    HW126984   3.694   4.633   8.242  0.6134  0.4932  3.2968
 5116SOL    HW226985   3.643   4.493   8.211  1.4158  0.5215 -0.2951
 5117SOL     OW26986   1.481   4.616   2.918  0.5517 -0.0237 -0.4026
 5117SOL    HW126987   1.475   4.524   2.945  0.9857 -0.0917 -0.5301
 5117SOL    HW226988   1.557   4.642   2.971  0.2484  2.5354 -1.2554
 5118SOL     OW26989   2.735   1.823   8.418  0.0318 -0.5798  0.4664
 5118SOL    HW126990   2.652   1.781   8.393 -0.2297 -0.6509  1.4477
 5118SOL    HW226991   2.721   1.916   8.435 -1.5234 -1.0882  2.0575
 5119SOL     OW26992   1.419   2.342   9.797 -0.3167  0.1781 -0.1649
 5119SOL    HW126993   1.350   2.314   9.857  2.3455  1.0924  3.3003
 5119SOL    HW226994   1.485   2.273   9.805 -0.7637 -0.1800  0.4097
 5120SOL     OW26995   1.995   0.271  15.938  0.4607 -0.1954  0.6875
 5120SOL    HW126996   1.916   0.318  15.909  0.6484 -1.0917 -1.2429
 5120SOL    HW226997   2.009   0.204  15.872 -2.7131 -0.2303  0.0517
 5121SOL     OW26998   3.488   1.429   2.880 -0.9811 -0.0862  0.7862
 5121SOL    HW126999   3.469   1.401   2.790  1.1543  0.1708  0.2642
 5121SOL    HW227000   3.478   1.524   2.872  1.3885  0.1659  0.7682
 5122SOL     OW27001   3.290   3.297  10.984 -0.3396  0.5662 -0.3746
 5122SOL    HW127002   3.383   3.282  10.969 -0.4489  0.0565 -0.5306
 5122SOL    HW227003   3.292   3.391  10.967  0.8227  1.0033  2.0990
 5123SOL     OW27004   1.179   1.908   5.939 -0.0098 -0.3978  0.2295
 5123SOL    HW127005   1.172   1.880   6.030 -1.7971  1.1478  0.5724
 5123SOL    HW227006   1.114   1.854   5.895 -1.1384 -0.6357  2.1852
 5124SOL     OW27007   1.160   0.125   4.869  0.5757  0.7307 -0.3743
 5124SOL    HW127008   1.070   0.148   4.889  0.4024 -1.2931  1.2315
 5124SOL    HW227009   1.188   0.190   4.806 -1.4802  1.7654 -0.2008
 5125SOL     OW27010   2.083   2.696   6.845  0.4807 -0.5612 -0.2609
 5125SOL    HW127011   2.050   2.741   6.923 -0.8675 -3.7764  1.0167
 5125SOL    HW227012   2.024   2.621   6.843 -2.3364  1.6269  1.0870
 5126SOL     OW27013   3.879   3.498   3.672  0.0875 -0.0215 -0.7366
 5126SOL    HW127014   3.804   3.554   3.688 -1.2627 -1.0780 -3.3788
 5126SOL    HW227015   3.941   3.542   3.730 -1.9908  1.5096  0.2607
 5127SOL     OW27016   0.457   4.674   7.744 -0.5290  0.1350 -0.4935
 5127SOL    HW127017   0.381   4.620   7.764  0.1832 -1.4147 -2.0692
 5127SOL    HW227018   0.417   0.023   7.765 -1.8471 -0.4434 -0.7372
 5128SOL     OW27019   4.525   3.345   7.292 -0.0747  0.1859 -0.2065
 5128SOL    HW127020   4.479   3.333   7.375 -1.0405 -0.6091 -0.8626
 5128SOL    HW227021   4.502   3.265   7.245 -1.0996 -0.6152  1.6575
 5129SOL     OW27022   0.928   0.204   4.063 -0.2086 -0.1855 -0.4885
 5129SOL    HW127023   0.869   0.130   4.081  0.3603 -0.6684 -0.6492
 5129SOL    HW227024   0.870   0.278   4.082  0.0872 -0.2553  0.6797
 5130SOL     OW27025   2.061   1.000   5.441 -0.0982  0.1550 -0.2662
 5130SOL    HW127026   2.106   0.964   5.517  0.2327  2.6671  0.7448
 5130SOL    HW227027   1.981   1.038   5.479  0.0760 -0.9723  1.2370
 5131SOL     OW27028   4.573   0.182   3.662  0.1261  0.2586 -0.3720
 5131SOL    HW127029   4.659   0.221   3.681  0.7079 -0.5597 -1.3964
 5131SOL    HW227030   4.551   0.232   3.584  0.0636  3.5129  1.6903
 5132SOL     OW27031   3.043   1.846   3.196 -0.4503  0.1124  0.6121
 5132SOL    HW127032   3.064   1.934   3.165 -1.0292  1.5886  4.4481
 5132SOL    HW227033   3.014   1.865   3.285 -2.9366  2.1477 -0.6391
 5133SOL     OW27034   4.401   3.717   7.775  0.2977  0.0551  0.0048
 5133SOL    HW127035   4.434   3.644   7.723 -0.9821 -1.2522  1.0548
 5133SOL    HW227036   4.326   3.675   7.817 -1.5342  1.6138 -1.6963
 5134SOL     OW27037   1.135   4.558  14.297  0.5352  0.5033 -0.0230
 5134SOL    HW127038   1.048   4.541  14.262  0.5045  0.2842  0.1629
 5134SOL    HW227039   1.167   4.468  14.303  0.5748  0.6230  1.6710
 5135SOL     OW27040   3.792   1.315  10.464 -0.1105 -0.1404  0.8208
 5135SOL    HW127041   3.860   1.280  10.406  0.1558  1.3910  0.2112
 5135SOL    HW227042   3.722   1.343  10.406  0.3774  0.3674  0.4746
 5136SOL     OW27043   4.047   1.979   6.238  0.1221  0.5391  0.0749
 5136SOL    HW127044   4.132   2.020   6.220 -0.1749  0.8913 -0.5472
 5136SOL    HW227045   4.048   1.952   6.329  0.5760 -1.8037 -0.6257
 5137SOL     OW27046   0.699   0.748   2.613 -0.2799  0.3177 -0.3288
 5137SOL    HW127047   0.649   0.812   2.564  1.1073  1.1895 -0.6126
 5137SOL    HW227048   0.676   0.674   2.556 -2.7667  0.9892 -0.1786
 5138SOL     OW27049   1.369   2.089  17.739 -0.1093 -0.1773 -0.1670
 5138SOL    HW127050   1.311   2.155   0.035  1.4387  0.8213  0.4648
 5138SOL    HW227051   1.386   2.137  17.658 -1.2543 -0.5123 -0.6241
 5139SOL     OW27052   0.388   2.293   3.940  0.0934  0.0508  0.5039
 5139SOL    HW127053   0.293   2.299   3.930  0.1219  0.1858  0.3207
 5139SOL    HW227054   0.416   2.297   3.849  1.0227 -3.4696  0.6254
 5140SOL     OW27055   0.283   3.715  17.042 -0.3165  0.1632 -0.6459
 5140SOL    HW127056   0.313   3.624  17.043 -0.2530  0.1691 -2.6466
 5140SOL    HW227057   0.295   3.739  17.134  0.9185  0.1213 -0.7881
 5141SOL     OW27058   2.388   2.449   2.243 -0.0484  0.4837  0.1985
 5141SOL    HW127059   2.346   2.503   2.310 -1.1286  2.7597 -2.3011
 5141SOL    HW227060   2.481   2.465   2.258  0.4482  1.3790 -3.9751
 5142SOL     OW27061   1.943   2.445   6.750 -0.3502  0.2907  0.4448
 5142SOL    HW127062   1.881   2.430   6.821  0.8141 -0.8392  1.2272
 5142SOL    HW227063   1.886   2.408   6.683 -0.4319 -1.0131  1.2495
 5143SOL     OW27064   0.886   2.721  17.296  0.0505 -0.3668  0.0535
 5143SOL    HW127065   0.914   2.698  17.208 -0.7698 -2.7694  0.4358
 5143SOL    HW227066   0.863   2.813  17.280 -0.0422 -0.0881  1.7411
 5144SOL     OW27067   1.993   4.724   2.634  0.2912 -0.0211 -0.0864
 5144SOL    HW127068   1.981   4.635   2.602  0.0817  0.5455 -1.5746
 5144SOL    HW227069   2.038   0.032   2.562 -0.2524 -0.7567 -0.8696
 5145SOL     OW27070   4.467   4.095   6.940  0.2982 -0.5204 -0.1740
 5145SOL    HW127071   4.391   4.099   6.998  0.0586  1.3813 -0.6077
 5145SOL    HW227072   4.431   4.065   6.857  1.2036 -1.6961 -0.1464
 5146SOL     OW27073   1.382   2.731   5.998 -0.4635  0.1059 -1.0866
 5146SOL    HW127074   1.427   2.675   6.061  0.4848  0.1796 -1.6898
 5146SOL    HW227075   1.432   2.722   5.916  0.7983  2.0277 -0.5414
 5147SOL     OW27076   4.029   3.834   4.851 -0.2098 -0.1816  0.3042
 5147SOL    HW127077   4.011   3.771   4.781  1.0943 -0.3715  0.1247
 5147SOL    HW227078   3.971   3.908   4.830 -0.4918 -0.9315 -1.5612
 5148SOL     OW27079   2.674   3.338   8.881  0.0213 -1.0009 -0.1701
 5148SOL    HW127080   2.677   3.372   8.792 -1.5126 -2.4250 -0.7806
 5148SOL    HW227081   2.611   3.400   8.917 -1.2164 -1.3073 -1.8074
 5149SOL     OW27082   0.698   2.343   7.426  0.1339  0.7009  0.2405
 5149SOL    HW127083   0.630   2.305   7.371  0.5505  0.9012 -0.4197
 5149SOL    HW227084   0.681   2.434   7.402 -0.5581  0.5985  0.3467
 5150SOL     OW27085   0.746   0.328  14.855 -0.1856 -0.2028 -0.2455
 5150SOL    HW127086   0.829   0.317  14.808 -0.3696  0.4281 -0.7239
 5150SOL    HW227087   0.690   0.350  14.781 -0.4450  1.4209  0.4264
 5151SOL     OW27088   3.229   1.430   0.007  0.3447  0.6225  0.2337
 5151SOL    HW127089   3.178   1.452  17.669 -0.6147  1.3657  1.0489
 5151SOL    HW227090   3.154   1.405   0.061  2.1180  0.6431  2.7015
 5152SOL     OW27091   3.530   3.222  11.530  0.8843  0.1113  0.4293
 5152SOL    HW127092   3.472   3.154  11.496  1.3230 -0.5744  1.0307
 5152SOL    HW227093   3.601   3.211  11.466  0.0996 -0.1712 -0.3855
 5153SOL     OW27094   0.139   2.324   1.952 -0.1237  0.6739  0.1228
 5153SOL    HW127095   0.208   2.269   1.916  1.8016  2.3102  1.2702
 5153SOL    HW227096   0.083   2.346   1.878 -2.9099 -0.0179  2.0376
 5154SOL     OW27097   3.054   2.131   8.757  0.2624  0.5630  0.0593
 5154SOL    HW127098   3.051   2.130   8.661 -1.5124  1.8380  0.0930
 5154SOL    HW227099   3.030   2.220   8.781 -0.7552  0.9735 -2.4682
 5155SOL     OW27100   3.016   2.810   9.241  0.4573 -0.4515  0.5896
 5155SOL    HW127101   3.076   2.745   9.204 -0.3966 -1.2422  0.6051
 5155SOL    HW227102   3.012   2.872   9.168  0.6816  0.8089  1.6476
 5156SOL     OW27103   2.830   2.179  13.075 -0.0773  0.4288 -0.0400
 5156SOL    HW127104   2.769   2.106  13.064 -1.0286  0.9173  1.9932
 5156SOL    HW227105   2.906   2.135  13.037  0.1353  0.3088  0.5153
 5157SOL     OW27106   2.973   1.908   9.523  0.2126  0.3991 -0.3439
 5157SOL    HW127107   2.998   1.957   9.445 -0.4446  1.7793  0.3268
 5157SOL    HW227108   3.019   1.956   9.592 -3.3070  2.1615  0.7269
 5158SOL     OW27109   1.571   1.468   5.955  0.3201  0.1085 -0.3452
 5158SOL    HW127110   1.509   1.529   5.996  1.4627  0.9611  0.1255
 5158SOL    HW227111   1.513   1.403   5.917  0.2398 -1.1168  1.8420
 5159SOL     OW27112   3.591   2.883   5.675 -0.1382  0.0189  0.2892
 5159SOL    HW127113   3.521   2.832   5.634  0.0058  1.2173 -1.4533
 5159SOL    HW227114   3.590   2.844   5.763  3.2106  1.1023  0.7859
 5160SOL     OW27115   0.560   0.609   9.173  0.5437  0.0548 -0.7799
 5160SOL    HW127116   0.479   0.630   9.127  0.4158 -1.5091 -1.2873
 5160SOL    HW227117   0.590   0.534   9.122  1.9079 -0.3582  0.6157
 5161SOL     OW27118   3.015   3.594   1.744 -0.2448 -0.5289 -0.6002
 5161SOL    HW127119   2.929   3.632   1.760  0.9713  1.9551  0.0993
 5161SOL    HW227120   3.058   3.674   1.711 -2.4838  0.7417 -0.3947
 5162SOL     OW27121   4.393   4.353   1.763 -0.2679 -0.0529  0.6126
 5162SOL    HW127122   4.331   4.348   1.691  0.5621 -2.7451  0.0728
 5162SOL    HW227123   4.471   4.385   1.716  0.7837 -2.8733  0.4196
 5163SOL     OW27124   3.532   0.672   8.821  0.8616  0.0151 -0.2060
 5163SOL    HW127125   3.468   0.694   8.889  0.8785  1.2511 -0.6024
 5163SOL    HW227126   3.591   0.747   8.821  0.3320  0.4141 -2.9259
 5164SOL     OW27127   0.448   2.703   8.278 -0.1614 -0.5834  0.1564
 5164SOL    HW127128   0.465   2.695   8.372 -0.5228  1.2909  0.3761
 5164SOL    HW227129   0.501   2.626   8.257  0.1020 -0.5639  0.7247
 5165SOL     OW27130   2.107   3.548  12.632 -0.5834 -0.3744  0.2674
 5165SOL    HW127131   2.028   3.585  12.671  0.0242  2.5125 -1.1939
 5165SOL    HW227132   2.136   3.488  12.701 -0.7019 -0.2630  0.4150
 5166SOL     OW27133   2.449   0.392  16.856  0.2619 -0.5497  0.2088
 5166SOL    HW127134   2.531   0.431  16.886 -1.0296  0.1373  2.8375
 5166SOL    HW227135   2.466   0.389  16.762  2.5166 -1.4382  0.6480
 5167SOL     OW27136   3.491   1.058  14.529  0.4906 -0.4898 -0.1524
 5167SOL    HW127137   3.493   1.055  14.433 -0.7227 -0.7697 -0.1679
 5167SOL    HW227138   3.499   1.153  14.541 -1.5352 -0.1658 -1.3405
 5168SOL     OW27139   2.652   0.235   4.904  0.2176  0.2157 -0.0675
 5168SOL    HW127140   2.747   0.241   4.896  0.2138 -0.2218 -0.4332
 5168SOL    HW227141   2.627   0.319   4.865 -0.2192  0.3019  0.4048
 5169SOL     OW27142   4.614   3.230   1.814 -0.3689 -0.3000  0.0120
 5169SOL    HW127143   4.680   3.277   1.764  0.0300  0.7658  1.5129
 5169SOL    HW227144   4.582   3.304   1.867 -0.3181 -0.7385  0.6591
 5170SOL     OW27145   1.042   3.711   9.795 -0.2625 -0.3926 -0.2888
 5170SOL    HW127146   1.046   3.644   9.727  1.0017  1.0104 -1.5931
 5170SOL    HW227147   1.114   3.690   9.854  0.1048  1.7105  0.0182
 5171SOL     OW27148   1.865   1.211   4.220  0.0688 -0.5947  0.4106
 5171SOL    HW127149   1.940   1.264   4.193  0.5012 -0.8916  1.0282
 5171SOL    HW227150   1.859   1.246   4.309  0.2012  1.8331 -0.5450
 5172SOL     OW27151   3.306   2.597   7.726 -0.4532 -0.0967  0.3274
 5172SOL    HW127152   3.225   2.561   7.761 -0.0564 -0.7656  0.5750
 5172SOL    HW227153   3.295   2.689   7.748  0.5145  0.2719 -0.6938
 5173SOL     OW27154   0.829   3.104   2.877 -0.7817 -0.6452 -0.7128
 5173SOL    HW127155   0.882   3.175   2.841 -0.5112 -0.9661 -0.9515
 5173SOL    HW227156   0.769   3.147   2.938  0.3342 -0.5168  0.2918
 5174SOL     OW27157   3.168   4.100  15.583  0.1634  0.9029 -0.1296
 5174SOL    HW127158   3.210   4.032  15.636  0.1708  2.8117  2.2743
 5174SOL    HW227159   3.133   4.160  15.649  1.2214  0.6566  0.6501
 5175SOL     OW27160   1.950   2.904   1.790 -0.0472  0.2234  0.7476
 5175SOL    HW127161   1.965   2.835   1.725 -1.2290 -0.9861  1.7403
 5175SOL    HW227162   1.855   2.900   1.801  0.2408 -0.9909  2.9019
 5176SOL     OW27163   1.031   1.032   7.887 -0.1294 -0.6027  0.3722
 5176SOL    HW127164   1.092   0.983   7.943 -1.0073  0.5739  2.3497
 5176SOL    HW227165   1.093   1.071   7.826 -1.8821 -1.8185 -2.1552
 5177SOL     OW27166   4.536   1.599  17.113 -0.0775 -0.4553  0.5149
 5177SOL    HW127167   4.599   1.624  17.046 -0.9332 -1.6518 -0.7403
 5177SOL    HW227168   4.473   1.553  17.058  0.9330 -2.5415  1.1095
 5178SOL     OW27169   1.241   0.102   7.099 -0.0290 -0.5489  0.1175
 5178SOL    HW127170   1.208   0.021   7.137 -1.6164 -1.4687 -3.2032
 5178SOL    HW227171   1.333   0.078   7.087  0.1130  0.3197 -0.5928
 5179SOL     OW27172   0.623   0.753   4.316  0.3205 -0.2540  0.1873
 5179SOL    HW127173   0.576   0.800   4.385 -0.1131  0.6783 -0.7414
 5179SOL    HW227174   0.705   0.802   4.326  0.1121  0.1890 -0.3155
 5180SOL     OW27175   2.351   4.043   7.167  0.9597  0.0493  0.1088
 5180SOL    HW127176   2.260   4.060   7.192  1.1069  1.7868 -0.5789
 5180SOL    HW227177   2.377   4.130   7.138  1.3480  0.2871  1.1631
 5181SOL     OW27178   1.989   1.212  10.059 -0.1478  0.4557 -0.5934
 5181SOL    HW127179   2.008   1.294  10.013  1.7668  0.6373  0.4992
 5181SOL    HW227180   2.027   1.142  10.005  0.7342 -0.6678  1.4817
 5182SOL     OW27181   3.935   2.066   3.107 -0.3875  0.2367 -0.0542
 5182SOL    HW127182   3.915   2.089   3.197  0.8479 -1.5376  0.6715
 5182SOL    HW227183   3.933   2.154   3.069  1.1669  0.5168  0.4954
 5183SOL     OW27184   1.056   2.575   9.169 -0.2341  0.0327 -0.3698
 5183SOL    HW127185   0.972   2.529   9.169 -0.7781  1.0302 -0.0474
 5183SOL    HW227186   1.113   2.507   9.205 -0.8177  0.5535  1.5615
 5184SOL     OW27187   1.909   2.045  15.873  0.1310  0.0921 -0.2070
 5184SOL    HW127188   1.840   2.106  15.848  0.2975  0.7432  0.9084
 5184SOL    HW227189   1.884   2.044  15.966 -0.0474  0.3478 -0.2506
 5185SOL     OW27190   2.441   0.752   1.622  0.0506 -0.0977 -0.5086
 5185SOL    HW127191   2.519   0.719   1.666 -2.3582  0.5592  4.2894
 5185SOL    HW227192   2.376   0.688   1.653  0.9255 -0.1546  1.1904
 5186SOL     OW27193   3.326   1.495   5.626 -0.0282 -0.2919 -0.1511
 5186SOL    HW127194   3.384   1.569   5.608  1.4708 -1.5165 -0.2728
 5186SOL    HW227195   3.375   1.414   5.630 -0.6410 -0.5448  1.9886
 5187SOL     OW27196   3.908   2.210   6.173 -0.0635 -0.2326 -0.4932
 5187SOL    HW127197   3.964   2.146   6.215  0.3401  1.1148  1.0174
 5187SOL    HW227198   3.840   2.230   6.237  2.2707  1.4801  1.4736
 5188SOL     OW27199   1.918   1.531   8.155 -0.1457 -0.6425 -0.3857
 5188SOL    HW127200   1.891   1.623   8.160 -1.3567 -1.0413  0.5109
 5188SOL    HW227201   1.875   1.491   8.231 -2.3495 -0.1134 -1.3492
 5189SOL     OW27202   1.405   3.914  10.575 -0.1076 -0.6009 -0.0181
 5189SOL    HW127203   1.492   3.951  10.563 -0.7010  0.6454 -0.4146
 5189SOL    HW227204   1.352   3.989  10.550  2.3901  0.3025 -2.5191
 5190SOL     OW27205   4.311   2.711   1.143  0.1019  0.2298 -0.3842
 5190SOL    HW127206   4.316   2.689   1.050  3.1759  0.5356 -0.2862
 5190SOL    HW227207   4.374   2.648   1.179 -1.4483 -0.9545  0.2956
 5191SOL     OW27208   4.606   4.189  16.116  0.3331  0.5820  0.0424
 5191SOL    HW127209   4.602   4.182  16.212 -0.2203 -1.4712 -0.1345
 5191SOL    HW227210   4.538   4.134  16.078  0.7737  1.2096 -1.6354
 5192SOL     OW27211   1.733   1.143   7.366  0.4291 -0.1223  0.3657
 5192SOL    HW127212   1.642   1.123   7.390  0.5227  1.3552  1.8793
 5192SOL    HW227213   1.722   1.199   7.289 -0.4929  0.1459  0.6876
 5193SOL     OW27214   3.255   3.984   2.945  0.8839  0.3854  0.5694
 5193SOL    HW127215   3.179   4.042   2.945  2.1441  2.0383  2.0643
 5193SOL    HW227216   3.287   3.995   2.856 -1.5394 -0.6647 -0.4369
 5194SOL     OW27217   1.080   1.131   3.014  0.5016 -0.0547  0.1612
 5194SOL    HW127218   1.010   1.069   3.035  0.0091  0.8964  1.3398
 5194SOL    HW227219   1.154   1.073   3.031  0.6199 -0.1159 -0.5590
 5195SOL     OW27220   1.579   1.328   4.483 -0.0899  0.1155 -0.4190
 5195SOL    HW127221   1.674   1.325   4.494 -0.1780 -0.2139  0.2425
 5195SOL    HW227222   1.569   1.350   4.390  1.5567 -0.0391 -0.6430
 5196SOL     OW27223   2.267   2.700   5.293  0.0565 -0.2939  0.0426
 5196SOL    HW127224   2.278   2.712   5.199 -0.5758 -2.7087 -0.3454
 5196SOL    HW227225   2.361   2.693   5.312  0.0799 -2.6170 -0.8755
 5197SOL     OW27226   0.114   3.123   7.973  0.2804 -0.5663  0.2790
 5197SOL    HW127227   0.084   3.214   7.970 -1.0776 -1.0716 -1.4193
 5197SOL    HW227228   0.191   3.140   8.027 -0.1998  2.3869  0.0289
 5198SOL     OW27229   3.033   0.568   7.693 -0.7182 -0.2046 -0.1324
 5198SOL    HW127230   3.015   0.598   7.604 -1.0437  1.1534  0.4046
 5198SOL    HW227231   3.103   0.624   7.725 -0.6258 -0.4658  0.1262
 5199SOL     OW27232   4.726   2.336   6.849  0.2528  0.1572  0.0382
 5199SOL    HW127233   0.059   2.316   6.784  0.9239  0.3572  0.6811
 5199SOL    HW227234   4.724   2.432   6.853  0.2344  0.0058  3.8993
 5200SOL     OW27235   2.170   3.316   5.715  0.0793 -0.5044 -0.6282
 5200SOL    HW127236   2.114   3.240   5.727 -0.7150  0.3408  0.9914
 5200SOL    HW227237   2.216   3.322   5.799  1.6449  1.7142 -1.6429
 5201SOL     OW27238   1.248   3.675   7.961 -0.7501 -1.0785 -0.1009
 5201SOL    HW127239   1.253   3.640   8.050  1.1550 -1.6481 -0.4442
 5201SOL    HW227240   1.156   3.701   7.948 -0.3354  0.4134 -0.0465
 5202SOL     OW27241   4.034   3.701   3.853 -0.0386 -0.0474  0.1714
 5202SOL    HW127242   4.112   3.656   3.886 -1.1306 -0.5538  2.0698
 5202SOL    HW227243   4.028   3.782   3.904 -0.8417 -0.1392  0.2323
 5203SOL     OW27244   0.633   3.098   5.967  0.6984 -0.2908  0.3605
 5203SOL    HW127245   0.669   3.026   6.018  0.0369 -0.2028  0.9571
 5203SOL    HW227246   0.631   3.158   6.042 -1.6151  2.0144 -1.5123
 5204SOL     OW27247   4.601   1.928   2.404  0.1022 -0.2565  0.5666
 5204SOL    HW127248   4.509   1.907   2.389  0.3018 -1.2613  0.7070
 5204SOL    HW227249   4.643   1.883   2.330  0.1164  0.1362  0.3391
 5205SOL     OW27250   2.140   2.905   0.092 -0.1602  0.0102  0.5203
 5205SOL    HW127251   2.086   2.981   0.071 -1.3510 -0.7733  0.7827
 5205SOL    HW227252   2.155   2.888  17.740 -1.8031  0.3599  0.1881
 5206SOL     OW27253   4.129   2.586   6.847 -0.6287  0.2490  0.3238
 5206SOL    HW127254   4.123   2.659   6.786  1.1902 -0.6138 -0.9055
 5206SOL    HW227255   4.147   2.503   6.802  0.5125  0.4509  0.3954
 5207SOL     OW27256   2.293   0.456   3.705 -0.2798  0.0994  0.1790
 5207SOL    HW127257   2.362   0.428   3.764  0.2218 -2.6094 -1.6904
 5207SOL    HW227258   2.235   0.380   3.697  0.2996 -0.5770  2.3965
 5208SOL     OW27259   4.030   0.844   2.996  0.2084  0.2243  0.3774
 5208SOL    HW127260   4.024   0.781   2.924 -0.9098  0.3426  0.3683
 5208SOL    HW227261   3.942   0.881   2.993  0.4891  0.7954 -0.6719
 5209SOL     OW27262   3.470   1.017   3.814 -0.0807  0.1886  0.5158
 5209SOL    HW127263   3.406   1.065   3.762  1.2645  0.6938 -0.7017
 5209SOL    HW227264   3.505   1.085   3.872  1.8442  0.5961 -1.1118
 5210SOL     OW27265   0.566   3.184   8.488 -0.1315  0.0910  0.4081
 5210SOL    HW127266   0.586   3.273   8.459 -1.0658 -0.6490 -2.5087
 5210SOL    HW227267   0.496   3.209   8.549  0.1287  1.3470  0.1918
 5211SOL     OW27268   3.092   1.997   9.322 -0.0874  0.2713  0.4709
 5211SOL    HW127269   3.156   2.065   9.344  0.6172 -0.4157  0.5559
 5211SOL    HW227270   3.157   1.927   9.330  0.4304  0.7000  0.1147
 5212SOL     OW27271   0.745   2.939  16.746  0.1324  0.2625 -0.3702
 5212SOL    HW127272   0.706   3.026  16.736  0.5082  0.3617 -0.9455
 5212SOL    HW227273   0.836   2.967  16.733  1.2385 -2.1549  2.3776
 5213SOL     OW27274   0.435   0.364   8.668  0.2533 -0.0671  0.0066
 5213SOL    HW127275   0.387   0.396   8.744 -0.4736 -0.4455 -0.2837
 5213SOL    HW227276   0.363   0.355   8.605 -0.1798 -2.0339  0.8057
 5214SOL     OW27277   3.907   4.066   0.828  0.1488  0.0490 -0.1237
 5214SOL    HW127278   3.826   4.116   0.823 -0.2165 -0.3614  1.9624
 5214SOL    HW227279   3.894   4.009   0.751 -1.4705 -1.0259  0.9563
 5215SOL     OW27280   1.210   4.015   2.085 -0.4439  0.3395  0.0750
 5215SOL    HW127281   1.115   4.004   2.088 -0.5013  0.6597 -0.7407
 5215SOL    HW227282   1.224   4.015   1.991 -0.3103  2.1681  0.0923
 5216SOL     OW27283   0.126   2.367  17.282 -0.8834 -0.0349  0.0597
 5216SOL    HW127284   0.142   2.370  17.376  3.0522  3.0253 -0.6917
 5216SOL    HW227285   0.218   2.374  17.255 -1.2638  0.8177 -0.9978
 5217SOL     OW27286   3.279   3.680  11.091  0.4452 -0.1244 -0.3421
 5217SOL    HW127287   3.347   3.748  11.090  1.2102 -0.8398  1.8444
 5217SOL    HW227288   3.242   3.687  11.179 -0.4007  0.0871 -0.7160
 5218SOL     OW27289   3.076   2.975  14.521  0.0944 -0.0856 -0.1358
 5218SOL    HW127290   3.122   3.046  14.475 -0.8095  0.9485  0.5625
 5218SOL    HW227291   3.139   2.908  14.548  1.1110  0.3620 -1.3598
 5219SOL     OW27292   2.044   4.338   7.565 -0.4519 -0.2599 -0.2949
 5219SOL    HW127293   2.122   4.356   7.512 -0.6207 -0.6204 -0.6713
 5219SOL    HW227294   2.007   4.254   7.536 -0.0441 -0.1353 -1.1970
 5220SOL     OW27295   2.094   3.514   9.349  0.4206 -0.3149 -0.0743
 5220SOL    HW127296   2.180   3.537   9.383  0.8542  3.0353 -3.3765
 5220SOL    HW227297   2.044   3.594   9.367 -0.0871 -0.8464  0.8780
 5221SOL     OW27298   1.134   1.118   2.301 -0.3908 -0.0966  0.2488
 5221SOL    HW127299   1.156   1.180   2.370 -0.5873  0.0987  0.1378
 5221SOL    HW227300   1.183   1.042   2.333 -1.4313 -0.9775 -0.2225
 5222SOL     OW27301   2.404   3.650  16.092  0.2537  0.1621 -0.5127
 5222SOL    HW127302   2.333   3.627  16.031  1.2613  0.7947 -1.9303
 5222SOL    HW227303   2.466   3.685  16.028  0.8590  0.7780  0.4257
 5223SOL     OW27304   3.156   3.465  13.525 -0.3376 -0.1113 -0.1866
 5223SOL    HW127305   3.205   3.534  13.481 -0.7313  0.7065  0.6584
 5223SOL    HW227306   3.131   3.508  13.607 -4.6429  1.0744 -2.1527
 5224SOL     OW27307   0.254   4.369   2.012 -0.2880  0.3559  0.1661
 5224SOL    HW127308   0.307   4.324   1.947  0.6520  1.7160 -0.0017
 5224SOL    HW227309   0.170   4.330   1.989 -0.4101 -0.0895  1.3858
 5225SOL     OW27310   1.937   4.299   9.333 -0.4958  0.2216  0.0417
 5225SOL    HW127311   1.902   4.218   9.370 -0.3407  0.8419  1.5519
 5225SOL    HW227312   2.011   4.264   9.283 -1.7535 -3.6032  0.8622
 5226SOL     OW27313   4.594   1.787  10.716 -0.0262  0.4845  0.2498
 5226SOL    HW127314   4.685   1.771  10.690 -0.0376  0.1151  0.4498
 5226SOL    HW227315   4.549   1.782  10.632 -2.3509  1.2342  1.4489
 5227SOL     OW27316   0.439   2.445   5.136 -0.4555 -0.3933 -0.5468
 5227SOL    HW127317   0.457   2.537   5.122  0.8141 -0.2349  1.9975
 5227SOL    HW227318   0.347   2.440   5.109 -0.5565  2.1945 -0.6015
 5228SOL     OW27319   3.512   1.280   4.297 -0.9716  0.1596 -0.0227
 5228SOL    HW127320   3.537   1.195   4.262  0.9435  0.9940 -0.6331
 5228SOL    HW227321   3.429   1.281   4.248 -1.3452 -0.8522  0.5900
 5229SOL     OW27322   0.258   4.617   5.678  0.3205  0.3839  0.2453
 5229SOL    HW127323   0.217   4.699   5.705  0.9399  0.5936  0.5468
 5229SOL    HW227324   0.209   4.608   5.596  0.8392  0.8633 -0.1128
 5230SOL     OW27325   3.897   1.102   9.484  0.2576 -0.7151  0.4029
 5230SOL    HW127326   3.858   1.050   9.414  0.1755  0.0875 -0.1447
 5230SOL    HW227327   3.829   1.169   9.489  0.6985 -0.1645 -0.9476
 5231SOL     OW27328   0.795   4.622   7.131 -0.7068 -0.3404  0.0892
 5231SOL    HW127329   0.855   4.676   7.182 -1.0735 -0.0302  0.1934
 5231SOL    HW227330   0.830   4.538   7.163 -0.4225  0.2333  1.2911
 5232SOL     OW27331   2.793   1.027   6.639  0.4168 -0.4344  0.2459
 5232SOL    HW127332   2.867   1.016   6.579  0.7362  0.3166  0.5026
 5232SOL    HW227333   2.848   0.993   6.710  1.2225 -2.1479 -1.1923
 5233SOL     OW27334   2.164   2.473   6.296  0.1717  0.4257  0.1659
 5233SOL    HW127335   2.157   2.481   6.392  3.0610  0.2423  0.3947
 5233SOL    HW227336   2.085   2.425   6.273 -0.3641  1.7999 -0.8361
 5234SOL     OW27337   1.761   3.262   7.343  0.1693  0.3689 -0.0174
 5234SOL    HW127338   1.848   3.301   7.354 -0.2922  1.4399 -0.1334
 5234SOL    HW227339   1.722   3.261   7.431 -1.2136  0.7956 -0.6215
 5235SOL     OW27340   4.116   2.307   8.209  0.2865 -0.1649  0.1545
 5235SOL    HW127341   4.173   2.331   8.283 -0.3061 -0.7137  0.7921
 5235SOL    HW227342   4.043   2.269   8.258  0.8963 -0.5368  0.7833
 5236SOL     OW27343   2.014   1.870   6.025  0.1284  0.4051 -0.0710
 5236SOL    HW127344   2.039   1.878   5.933  1.7185  2.7553  0.5685
 5236SOL    HW227345   1.923   1.895   6.012  0.0038 -0.2922 -0.5173
 5237SOL     OW27346   4.264   4.299   3.975 -0.0464  0.0358  0.2096
 5237SOL    HW127347   4.309   4.226   4.017  0.0325  1.8220  3.2314
 5237SOL    HW227348   4.334   4.364   3.972 -1.5291  1.6577  0.3842
 5238SOL     OW27349   3.674   1.425   7.385  0.1661  0.5082  0.2761
 5238SOL    HW127350   3.646   1.334   7.373 -4.1737  1.8375  0.0737
 5238SOL    HW227351   3.756   1.419   7.338  1.3192 -0.3013  2.3888
 5239SOL     OW27352   1.856   4.719   9.361  0.3160 -0.1471 -0.7123
 5239SOL    HW127353   1.838   0.022   9.447 -3.0102 -0.3495 -1.3259
 5239SOL    HW227354   1.850   0.066   9.312 -0.6752 -1.6980 -3.2311
 5240SOL     OW27355   2.319   0.224   6.187  0.0845  0.0375 -0.0744
 5240SOL    HW127356   2.363   0.211   6.271 -2.0623 -2.6218  0.6554
 5240SOL    HW227357   2.239   0.172   6.198  0.7468 -0.6127  1.7005
 5241SOL     OW27358   4.538   4.327   2.182 -0.3683 -0.0656 -0.5070
 5241SOL    HW127359   4.482   4.381   2.127 -0.2348  1.6860  1.0695
 5241SOL    HW227360   4.591   4.394   2.226 -2.4433  1.5411 -0.4451
 5242SOL     OW27361   2.615   1.959  13.412  0.1484  0.5716  0.7254
 5242SOL    HW127362   2.549   1.927  13.351  2.2748 -0.0583 -1.2381
 5242SOL    HW227363   2.565   1.974  13.492 -1.3264 -0.8743  0.0756
 5243SOL     OW27364   3.675   0.888  14.652  0.3250  0.4989 -0.0129
 5243SOL    HW127365   3.652   0.974  14.617 -1.2472  0.6553  1.3910
 5243SOL    HW227366   3.751   0.909  14.707  0.0946 -3.7525  1.9403
 5244SOL     OW27367   2.348   1.467   6.188 -0.0953 -0.3530 -0.1586
 5244SOL    HW127368   2.312   1.431   6.269 -2.1463  0.3319 -0.7693
 5244SOL    HW227369   2.277   1.527   6.163 -0.0533 -0.3654 -0.3107
 5245SOL     OW27370   3.770   2.083   7.399 -0.3408  0.4278 -0.7613
 5245SOL    HW127371   3.706   2.089   7.327  1.8129  0.6532 -2.6763
 5245SOL    HW227372   3.753   2.169   7.436 -1.1312  0.4221 -1.0979
 5246SOL     OW27373   3.487   2.923   2.644  0.0067 -0.3585 -0.4459
 5246SOL    HW127374   3.448   2.866   2.577  1.3203 -0.5267 -1.0589
 5246SOL    HW227375   3.462   3.009   2.610  1.1048 -0.4102 -1.3644
 5247SOL     OW27376   2.047   1.615   4.160 -0.2928 -0.1044 -0.1642
 5247SOL    HW127377   2.032   1.709   4.150  2.0306  0.3668  0.7874
 5247SOL    HW227378   1.969   1.582   4.206 -1.0135 -0.7651 -1.8376
 5248SOL     OW27379   0.993   4.407   4.875  0.1486 -0.3481 -0.4519
 5248SOL    HW127380   0.930   4.338   4.853  0.6653 -0.6562 -0.9484
 5248SOL    HW227381   0.964   4.480   4.820  2.0619  2.4390  2.1750
 5249SOL     OW27382   4.038   3.662   2.161 -0.5966  0.0665 -0.2361
 5249SOL    HW127383   3.943   3.651   2.156 -0.5412 -1.0102  1.1607
 5249SOL    HW227384   4.063   3.618   2.242 -2.3436  0.1510  0.3416
 5250SOL     OW27385   1.161   2.396   7.074 -0.5627 -0.6371  0.1961
 5250SOL    HW127386   1.101   2.363   7.140 -3.0874  0.3732 -1.5799
 5250SOL    HW227387   1.235   2.335   7.081 -1.6595 -1.4210  4.6676
 5251SOL     OW27388   4.197   4.627  14.649  0.5567 -0.0297  0.2867
 5251SOL    HW127389   4.191   4.532  14.650  2.8694 -0.1617  1.6745
 5251SOL    HW227390   4.291   4.645  14.638  0.3170  0.4042 -1.1149
 5252SOL     OW27391   3.908   4.482   6.433  0.2408 -0.0560  0.0561
 5252SOL    HW127392   4.003   4.489   6.448 -0.0036 -0.8322  2.0361
 5252SOL    HW227393   3.885   4.393   6.460 -0.3747  0.5902  1.6656
 5253SOL     OW27394   3.476   4.508  14.805 -0.1896 -0.2682 -0.1377
 5253SOL    HW127395   3.391   4.549  14.821  0.3659  0.5768  0.6480
 5253SOL    HW227396   3.484   4.452  14.882  0.2512 -1.3858 -0.9938
 5254SOL     OW27397   0.349   1.940   3.379 -0.1741  0.3184 -0.6089
 5254SOL    HW127398   0.266   1.949   3.425  0.3032  3.8438 -0.4457
 5254SOL    HW227399   0.367   1.855   3.419  1.0210 -0.3997 -2.6446
 5255SOL     OW27400   1.800   2.776  13.392  0.1485 -0.1826  0.0072
 5255SOL    HW127401   1.769   2.865  13.375  0.7929  0.1410  0.5711
 5255SOL    HW227402   1.886   2.784  13.432  0.0563 -0.6546  0.3025
 5256SOL     OW27403   1.756   1.338   6.110  0.4189  0.3636  0.0065
 5256SOL    HW127404   1.682   1.363   6.055 -0.9170 -1.2148  1.0655
 5256SOL    HW227405   1.806   1.278   6.054 -1.7185 -1.1496 -0.2838
 5257SOL     OW27406   1.956   3.087  17.398 -0.1936 -0.4061  0.8645
 5257SOL    HW127407   1.956   3.176  17.434  1.0483  0.4465 -1.2473
 5257SOL    HW227408   1.865   3.061  17.382 -0.0710 -1.4110  1.8172
 5258SOL     OW27409   1.963   0.330   8.248  0.2341  0.5351 -0.0673
 5258SOL    HW127410   1.998   0.256   8.197  0.1319  1.0973 -0.9547
 5258SOL    HW227411   1.879   0.297   8.280  0.7897  0.0366  0.8834
 5259SOL     OW27412   1.466   2.520   9.468  0.6204 -0.3074  0.4150
 5259SOL    HW127413   1.492   2.451   9.407  0.6501 -1.7954  2.0894
 5259SOL    HW227414   1.519   2.491   9.543  0.4133 -3.5178 -0.6764
 5260SOL     OW27415   3.241   3.031   7.230  0.0570  0.4553  0.3657
 5260SOL    HW127416   3.317   3.036   7.172 -0.4199  2.8639 -0.0381
 5260SOL    HW227417   3.223   2.939   7.211 -1.9539  0.8355  0.3790
 5261SOL     OW27418   0.955   3.134   7.464  0.3453 -0.2807 -0.4517
 5261SOL    HW127419   1.002   3.148   7.547  0.7516  1.1238 -0.9178
 5261SOL    HW227420   0.909   3.050   7.472 -0.0945 -0.1303 -1.4300
 5262SOL     OW27421   2.983   1.090   7.784  0.1597  0.0823 -0.0098
 5262SOL    HW127422   3.051   1.143   7.825 -2.2837  3.0803  0.2009
 5262SOL    HW227423   2.960   1.021   7.846 -0.8512 -0.4065 -0.9285
 5263SOL     OW27424   4.175   1.961   4.865  0.1583  0.4872 -0.3666
 5263SOL    HW127425   4.134   1.883   4.828 -0.6258  0.4526  0.6037
 5263SOL    HW227426   4.108   1.983   4.930 -0.6043 -1.2531 -0.5629
 5264SOL     OW27427   0.479   0.490   5.923 -0.0639 -0.3173  0.1659
 5264SOL    HW127428   0.500   0.564   5.980 -0.0931  0.4452 -0.8158
 5264SOL    HW227429   0.428   0.436   5.984  0.7282  0.3725  1.4398
 5265SOL     OW27430   2.603   4.473   3.619 -0.0927  0.0176  0.5259
 5265SOL    HW127431   2.557   4.436   3.543  0.1332  0.4906  0.1563
 5265SOL    HW227432   2.555   4.430   3.689 -0.3344 -0.6697 -0.0701
 5266SOL     OW27433   1.521   2.180  11.088  0.0447 -0.3200 -0.3193
 5266SOL    HW127434   1.592   2.140  11.038  0.1427 -0.9893  0.3545
 5266SOL    HW227435   1.551   2.271  11.096 -0.9869 -0.0650  0.6088
 5267SOL     OW27436   3.957   3.385   1.468  0.6659  0.1825 -0.7868
 5267SOL    HW127437   4.042   3.395   1.427  0.6855  0.6136 -0.6368
 5267SOL    HW227438   3.942   3.470   1.509 -1.5179 -1.5412  2.0778
 5268SOL     OW27439   0.297   3.598   3.622  0.0001 -0.0875  0.0098
 5268SOL    HW127440   0.329   3.667   3.563 -0.2087  0.7357  0.8693
 5268SOL    HW227441   0.209   3.594   3.584 -1.4513  0.4195  3.2823
 5269SOL     OW27442   3.025   1.911   1.613 -0.0790 -0.0844 -0.2143
 5269SOL    HW127443   2.965   1.904   1.687  0.7013 -1.4806  0.2897
 5269SOL    HW227444   3.110   1.922   1.656 -0.0602  0.5329 -0.4145
 5270SOL     OW27445   1.949   0.678   5.317  0.5765 -0.1405  0.0547
 5270SOL    HW127446   1.961   0.585   5.335  0.9038 -0.3664 -1.3116
 5270SOL    HW227447   2.035   0.717   5.336 -0.7049  2.2916  0.9125
 5271SOL     OW27448   1.727   0.458   3.102 -0.1260 -0.0757 -0.0677
 5271SOL    HW127449   1.674   0.384   3.071 -0.9352 -0.1732  1.5344
 5271SOL    HW227450   1.724   0.444   3.196  1.3763 -0.2256 -0.0459
 5272SOL     OW27451   1.753   3.091   6.658  0.0923  0.3278 -0.1446
 5272SOL    HW127452   1.663   3.109   6.630  0.4021  1.6201 -0.2955
 5272SOL    HW227453   1.804   3.161   6.618  2.4565 -1.2677  0.0289
 5273SOL     OW27454   1.913   2.109   7.545 -0.1049 -0.1162 -0.2583
 5273SOL    HW127455   1.968   2.162   7.603  0.7618 -0.8623 -0.4076
 5273SOL    HW227456   1.897   2.170   7.473 -0.8052  1.0354  0.8711
 5274SOL     OW27457   3.596   1.681  14.524 -0.0069  0.4137 -0.1040
 5274SOL    HW127458   3.621   1.693  14.615 -1.0380  0.0957  0.2204
 5274SOL    HW227459   3.555   1.595  14.517 -0.7046  0.7219  0.2040
 5275SOL     OW27460   2.994   0.009   6.063  0.3432 -0.1124  0.2813
 5275SOL    HW127461   2.939   4.672   6.030  1.5046  0.7400 -3.5370
 5275SOL    HW227462   3.076   0.001   6.014 -0.1251 -1.5505 -0.2813
 5276SOL     OW27463   0.894   3.974   6.016  0.0210 -0.9021  0.4218
 5276SOL    HW127464   0.878   3.954   6.109 -0.8240  0.0654  0.4846
 5276SOL    HW227465   0.984   4.007   6.013 -1.2464  2.6487  0.6035
 5277SOL     OW27466   0.143   2.316  14.687 -0.4543 -0.1616  0.3304
 5277SOL    HW127467   0.084   2.361  14.747  1.1293  1.2478  0.8360
 5277SOL    HW227468   0.112   2.354  14.605  0.3929 -1.3134 -0.5135
 5278SOL     OW27469   1.392   0.727   0.510  0.0407  0.0512 -0.2732
 5278SOL    HW127470   1.451   0.747   0.583  0.5816 -1.0765 -0.3876
 5278SOL    HW227471   1.332   0.801   0.510  4.0053  3.2944 -0.5784
 5279SOL     OW27472   2.729   1.900   7.756 -0.0200  0.1397 -0.0107
 5279SOL    HW127473   2.792   1.884   7.686  0.9892  0.2578  0.8548
 5279SOL    HW227474   2.656   1.936   7.706  0.6164  0.3484 -0.7905
 5280SOL     OW27475   3.539   3.580   8.419 -0.1468 -0.5814  0.4043
 5280SOL    HW127476   3.509   3.626   8.341 -2.3095 -3.8101 -0.6305
 5280SOL    HW227477   3.504   3.493   8.401  3.5813 -1.7733 -1.1672
 5281SOL     OW27478   0.904   3.994  16.592 -0.2281  0.4134  0.0965
 5281SOL    HW127479   0.857   4.077  16.601  0.2430  0.4912  1.9774
 5281SOL    HW227480   0.976   4.015  16.532  1.0584 -2.5904  0.5570
 5282SOL     OW27481   1.878   4.442   2.730  0.3759 -0.1439 -0.1815
 5282SOL    HW127482   1.866   4.353   2.762 -0.2173  0.3715  1.0288
 5282SOL    HW227483   1.825   4.444   2.650 -0.4882 -0.5776  0.3757
 5283SOL     OW27484   0.099   3.245  17.512  0.5785 -0.0435  0.1815
 5283SOL    HW127485   0.084   3.154  17.539 -1.4613  0.1413 -0.2919
 5283SOL    HW227486   0.162   3.229  17.442 -2.1775  0.2240 -2.3526
 5284SOL     OW27487   3.963   1.213   5.414 -0.9809 -0.4555 -0.2731
 5284SOL    HW127488   3.875   1.205   5.377 -1.1318  0.2730 -0.0706
 5284SOL    HW227489   3.988   1.301   5.386  0.1341  0.1114  2.5149
 5285SOL     OW27490   2.242   2.576  13.553 -0.2382  0.6026  0.7483
 5285SOL    HW127491   2.189   2.502  13.583 -0.9897  0.9469  0.2621
 5285SOL    HW227492   2.316   2.535  13.508 -0.5180  2.0415 -1.0390
 5286SOL     OW27493   1.012   0.190  14.785 -0.3880 -0.3691  0.4718
 5286SOL    HW127494   1.088   0.154  14.741 -0.1876 -1.2402  1.5135
 5286SOL    HW227495   1.047   0.240  14.859  0.8899 -3.7602  2.1520
 5287SOL     OW27496   1.179   4.710   4.076  0.2741  0.1113  0.1730
 5287SOL    HW127497   1.148   0.064   4.058  1.0706  0.4653  0.5485
 5287SOL    HW227498   1.149   4.669   3.995  0.8913 -1.7931  0.9092
 5288SOL     OW27499   1.553   3.983  16.599  0.0488  0.5167  0.1588
 5288SOL    HW127500   1.577   3.996  16.507  0.2268  0.1874  0.1575
 5288SOL    HW227501   1.457   3.983  16.593  0.0495  1.8760  0.1265
 5289SOL     OW27502   2.368   0.864  10.258 -0.5542 -0.5546 -0.1456
 5289SOL    HW127503   2.275   0.863  10.278 -0.2781 -0.4196  1.1493
 5289SOL    HW227504   2.385   0.946  10.305 -1.2282 -0.6547  0.2648
 5290SOL     OW27505   2.072   3.805   7.934 -0.8690  0.2589  0.0450
 5290SOL    HW127506   2.052   3.734   7.995 -1.4703 -0.5662 -1.1133
 5290SOL    HW227507   2.065   3.760   7.849 -2.2102 -0.7590  0.7014
 5291SOL     OW27508   2.522   0.147   6.733 -0.0410 -0.2243  0.7656
 5291SOL    HW127509   2.461   0.077   6.754 -1.6012  0.6421 -0.9338
 5291SOL    HW227510   2.592   0.100   6.687 -1.5615  0.1717 -1.9726
 5292SOL     OW27511   4.304   3.155   5.669 -0.6948 -0.6525 -1.0602
 5292SOL    HW127512   4.245   3.197   5.607 -0.2204  1.3764 -0.1228
 5292SOL    HW227513   4.357   3.222   5.711 -2.1237 -0.1451 -0.0303
 5293SOL     OW27514   3.127   2.040  13.044 -0.1792  0.1163  0.2114
 5293SOL    HW127515   3.154   2.106  12.981  0.4343 -1.3028 -1.0169
 5293SOL    HW227516   3.208   2.006  13.082  0.3408  1.9832  0.7520
 5294SOL     OW27517   1.625   0.850  16.680 -0.0185 -0.2150 -0.1969
 5294SOL    HW127518   1.599   0.869  16.590 -1.1383 -1.7086 -0.1833
 5294SOL    HW227519   1.714   0.824  16.655  0.2501  2.2274 -1.7703
 5295SOL     OW27520   1.620   2.380   3.464 -0.1845  0.5188 -0.3564
 5295SOL    HW127521   1.661   2.347   3.384 -0.7147  2.0370 -1.2446
 5295SOL    HW227522   1.538   2.420   3.438 -0.5600  0.6145  0.9731
 5296SOL     OW27523   0.671   1.385   4.703  0.2246 -0.4400  0.0422
 5296SOL    HW127524   0.610   1.458   4.692 -0.4356 -1.0584 -0.3753
 5296SOL    HW227525   0.618   1.334   4.765  0.2142 -0.8006 -0.2622
 5297SOL     OW27526   4.711   3.527   0.872 -0.0005 -0.0269 -0.2000
 5297SOL    HW127527   0.017   3.611   0.850  2.2465 -1.2004 -0.3754
 5297SOL    HW227528   4.682   3.490   0.789  0.8447  0.4063 -0.6889
 5298SOL     OW27529   1.603   3.196  11.702  0.0517 -0.2288  0.2909
 5298SOL    HW127530   1.585   3.286  11.674 -0.7811  0.3316  2.5748
 5298SOL    HW227531   1.672   3.176  11.639  1.2864  0.5197  1.3997
 5299SOL     OW27532   2.651   2.811   5.584  0.0899  0.2572 -0.2736
 5299SOL    HW127533   2.624   2.894   5.623  2.6721  0.2969  1.4906
 5299SOL    HW227534   2.690   2.778   5.666  0.1120 -0.8290 -0.7226
 5300SOL     OW27535   1.637   2.566  11.335  0.5442  0.3076 -0.5630
 5300SOL    HW127536   1.558   2.619  11.331  0.1495 -0.3069 -0.8384
 5300SOL    HW227537   1.629   2.551  11.429  1.4720 -2.3553 -0.9352
 5301SOL     OW27538   0.864   4.086  16.017  0.2993  0.3319  0.3876
 5301SOL    HW127539   0.954   4.115  16.004 -0.0270  0.1650 -2.2836
 5301SOL    HW227540   0.818   4.154  15.968 -1.0144 -1.1395 -0.4148
 5302SOL     OW27541   0.908   1.564   6.775 -0.1976 -0.0505 -0.7040
 5302SOL    HW127542   0.956   1.482   6.761 -0.0758 -0.1685  0.3624
 5302SOL    HW227543   0.908   1.599   6.686 -1.7814 -1.5064 -1.2748
 5303SOL     OW27544   1.644   2.727   4.808 -0.1546  0.1054  0.3798
 5303SOL    HW127545   1.707   2.715   4.879  0.4244 -2.8809 -0.6122
 5303SOL    HW227546   1.641   2.822   4.810  0.4318  0.2406 -3.5986
 5304SOL     OW27547   2.694   2.403   4.599 -0.3093  0.9659  0.1630
 5304SOL    HW127548   2.634   2.450   4.541 -1.5903 -0.2872  0.4715
 5304SOL    HW227549   2.761   2.472   4.606  3.1885 -2.6124  1.8897
 5305SOL     OW27550   2.211   1.221   3.211  0.6059 -0.4241 -0.2056
 5305SOL    HW127551   2.125   1.245   3.244  0.5571  0.1671 -0.7709
 5305SOL    HW227552   2.211   1.269   3.128  0.7875 -0.5642 -0.2870
 5306SOL     OW27553   2.069   3.436   3.395 -0.3309 -0.2252 -0.2428
 5306SOL    HW127554   2.028   3.353   3.419 -1.8005  0.2350 -1.1231
 5306SOL    HW227555   2.123   3.453   3.472 -0.7182  2.2131 -0.4842
 5307SOL     OW27556   1.145   1.741  16.555  0.0294 -0.1842 -0.2609
 5307SOL    HW127557   1.113   1.800  16.486  1.0449  2.3817  1.4645
 5307SOL    HW227558   1.119   1.781  16.638 -0.2786  1.4777 -1.1653
 5308SOL     OW27559   1.644   3.904   4.688 -0.1857  0.0217 -0.1107
 5308SOL    HW127560   1.591   3.880   4.612  1.0528 -1.2907 -0.5537
 5308SOL    HW227561   1.689   3.984   4.661  1.9842 -0.9792  0.5974
 5309SOL     OW27562   2.621   2.356  11.599 -0.5378 -0.5657 -0.0550
 5309SOL    HW127563   2.713   2.359  11.626 -1.0471 -1.1449  1.7395
 5309SOL    HW227564   2.618   2.287  11.532 -0.7912 -1.0666  0.4664
 5310SOL     OW27565   0.279   3.997   4.098  0.0614  0.0933  0.1428
 5310SOL    HW127566   0.195   3.997   4.143 -0.1201  1.3334 -0.1950
 5310SOL    HW227567   0.337   3.934   4.139  0.4607 -1.4447 -2.7965
 5311SOL     OW27568   0.814   1.337  13.772 -0.3221  0.0205 -0.4993
 5311SOL    HW127569   0.794   1.361  13.863 -0.0540 -1.4306 -0.0613
 5311SOL    HW227570   0.726   1.335  13.734 -0.2595  0.1935 -0.6535
 5312SOL     OW27571   2.474   0.031  11.387 -0.1448  0.3329 -0.0591
 5312SOL    HW127572   2.407   0.066  11.327 -1.3199  0.0458  1.0791
 5312SOL    HW227573   2.424   0.027  11.469 -1.2957  1.7116 -0.6998
 5313SOL     OW27574   1.246   4.377   3.207  0.0184 -0.4333 -0.4129
 5313SOL    HW127575   1.328   4.405   3.247 -0.7999  0.2604  0.7694
 5313SOL    HW227576   1.267   4.283   3.204 -0.3876 -0.5148 -0.7541
 5314SOL     OW27577   0.264   1.225   2.648 -0.1673 -0.0176 -0.0976
 5314SOL    HW127578   0.327   1.271   2.592  3.0334 -4.3393 -0.0160
 5314SOL    HW227579   0.278   1.269   2.732  1.2446 -0.3481 -0.1648
 5315SOL     OW27580   1.262   2.953   4.422  0.7692 -0.0722  0.6107
 5315SOL    HW127581   1.192   2.960   4.357  0.2674 -0.1845  1.1373
 5315SOL    HW227582   1.245   3.038   4.464 -0.9663 -0.3167  0.4162
 5316SOL     OW27583   2.157   0.709   8.410 -0.7487  0.0399 -0.3118
 5316SOL    HW127584   2.163   0.755   8.326  0.7427 -1.9857 -1.3078
 5316SOL    HW227585   2.151   0.616   8.387  0.5781  0.0936 -0.8827
 5317SOL     OW27586   2.071   0.599   3.777 -0.1873  0.3007 -0.3368
 5317SOL    HW127587   2.162   0.576   3.762  0.6668  1.3576  3.2528
 5317SOL    HW227588   2.067   0.682   3.824 -0.7601  0.1519 -0.1126
 5318SOL     OW27589   3.665   3.652   3.738 -0.3413  0.0726 -0.6840
 5318SOL    HW127590   3.575   3.672   3.716 -0.5832  0.0926  0.3259
 5318SOL    HW227591   3.715   3.728   3.768  0.0735 -1.7691  3.3435
 5319SOL     OW27592   2.172   2.600   8.713 -0.6258  0.1220  0.6708
 5319SOL    HW127593   2.205   2.651   8.639 -0.8942  2.2871  2.0410
 5319SOL    HW227594   2.253   2.559   8.743  0.5077  2.4324  0.7693
 5320SOL     OW27595   3.031   1.928  10.414 -0.0578 -0.1679 -0.0141
 5320SOL    HW127596   2.938   1.908  10.407 -0.3642  0.7999  1.0744
 5320SOL    HW227597   3.038   1.989  10.340 -0.1665  0.2503  0.3147
 5321SOL     OW27598   2.885   3.180  13.507  0.4855  0.4188  0.0549
 5321SOL    HW127599   2.818   3.132  13.459  1.4709 -0.7522 -0.1560
 5321SOL    HW227600   2.927   3.110  13.559 -0.5719  0.9300  1.6036
 5322SOL     OW27601   3.399   4.440   4.480 -0.4976 -0.1463 -0.3534
 5322SOL    HW127602   3.378   4.528   4.511 -3.1373 -0.3195 -1.6829
 5322SOL    HW227603   3.331   4.384   4.517 -0.1313 -0.4998 -0.2145
 5323SOL     OW27604   1.453   2.497  14.006  0.1933  0.2726  0.2375
 5323SOL    HW127605   1.530   2.517  13.953  1.4785 -0.3104  1.8882
 5323SOL    HW227606   1.397   2.500  13.928 -0.9392  1.1796  1.0859
 5324SOL     OW27607   1.982   4.654   3.405  0.2512  0.3580 -0.4308
 5324SOL    HW127608   1.928   4.714   3.353  2.0636  1.2490 -1.2775
 5324SOL    HW227609   1.985   4.694   3.492 -1.2487 -1.1516  0.3183
 5325SOL     OW27610   4.518   1.751   3.879 -0.1932 -0.7053  0.5416
 5325SOL    HW127611   4.505   1.760   3.784  0.8391  1.5700  0.6140
 5325SOL    HW227612   4.526   1.842   3.908 -0.7649  0.4780 -2.9540
 5326SOL     OW27613   1.877   2.582   8.228 -0.6567 -0.1830 -0.3428
 5326SOL    HW127614   1.889   2.648   8.159  2.2841 -1.0856 -0.7137
 5326SOL    HW227615   1.933   2.626   8.292 -1.0431 -0.1850 -0.0049
 5327SOL     OW27616   3.126   0.787  12.705  0.1734 -0.3982  0.3893
 5327SOL    HW127617   3.197   0.849  12.689  0.1005  0.1944  2.4236
 5327SOL    HW227618   3.057   0.847  12.734  0.6407  0.3616 -0.0430
 5328SOL     OW27619   0.815   1.349   7.664 -0.4146 -0.1521  0.0174
 5328SOL    HW127620   0.842   1.439   7.682 -0.1460 -0.4604  1.1756
 5328SOL    HW227621   0.850   1.338   7.576 -1.2168 -3.1445  0.0688
 5329SOL     OW27622   4.576   2.655   1.906  0.3270 -0.7796  0.2218
 5329SOL    HW127623   4.626   2.710   1.846 -0.3174 -0.1904  0.2184
 5329SOL    HW227624   4.558   2.702   1.987 -0.4216 -1.5016  0.4757
 5330SOL     OW27625   4.213   3.428  16.786  0.5952 -0.0133  0.2931
 5330SOL    HW127626   4.216   3.367  16.860 -0.8522  0.4518  0.7282
 5330SOL    HW227627   4.263   3.385  16.717  1.6207 -0.4767  1.3148
 5331SOL     OW27628   3.786   2.300   5.915 -0.7986 -1.2953 -0.4382
 5331SOL    HW127629   3.794   2.242   5.990  1.2382 -0.8245 -0.2746
 5331SOL    HW227630   3.713   2.355   5.941 -0.4685 -1.0425 -0.0409
 5332SOL     OW27631   4.397   1.299   1.946  0.3765  0.2073 -0.0998
 5332SOL    HW127632   4.419   1.369   1.884  0.1962  1.6169  1.4209
 5332SOL    HW227633   4.411   1.349   2.027 -0.3922 -1.6151  1.1467
 5333SOL     OW27634   1.210   0.149  13.513 -0.5117 -0.2652 -0.2979
 5333SOL    HW127635   1.141   0.149  13.579 -2.1086  0.9539 -1.9627
 5333SOL    HW227636   1.282   0.134  13.574  0.8220  1.8654 -1.3282
 5334SOL     OW27637   1.863   4.715   5.549  0.1168  0.1396  0.3530
 5334SOL    HW127638   1.951   4.682   5.566  0.5117  0.1825 -1.6206
 5334SOL    HW227639   1.871   0.070   5.578  0.9807  0.1314  0.1495
 5335SOL     OW27640   0.897   1.428  14.032 -0.3628  0.2104  0.1314
 5335SOL    HW127641   0.872   1.459  14.119  1.4580 -1.4128  1.2432
 5335SOL    HW227642   0.922   1.338  14.054 -4.2011 -1.1076 -0.8797
 5336SOL     OW27643   3.066   3.484   1.973  0.1285  0.1485  0.1766
 5336SOL    HW127644   3.040   3.525   1.891 -1.0584 -0.0212  0.4697
 5336SOL    HW227645   3.015   3.403   1.970 -0.6047  0.6069  0.2260
 5337SOL     OW27646   3.262   1.871  16.257 -0.0036 -0.0185 -0.0146
 5337SOL    HW127647   3.214   1.847  16.335  2.0810  2.1647  1.9366
 5337SOL    HW227648   3.304   1.792  16.223 -0.4820 -0.3938  0.2694
 5338SOL     OW27649   1.272   1.016   5.050  0.1948  0.0220 -0.1022
 5338SOL    HW127650   1.231   0.983   5.130  1.7697 -0.4591  0.5114
 5338SOL    HW227651   1.272   1.109   5.070 -2.4951  0.0735 -0.3420
 5339SOL     OW27652   2.606   2.835   6.915  0.1875  0.0932 -0.3590
 5339SOL    HW127653   2.525   2.784   6.906 -0.7753  1.0209  3.0315
 5339SOL    HW227654   2.566   2.913   6.876  0.2034 -0.1535 -0.8679
 5340SOL     OW27655   2.704   0.504   9.200 -0.1243 -0.0211  0.2914
 5340SOL    HW127656   2.685   0.441   9.130  0.4870 -2.4097  2.3061
 5340SOL    HW227657   2.774   0.558   9.162  0.0046  0.5190  1.3048
 5341SOL     OW27658   1.929   1.135   2.788 -0.0291 -0.3347  0.1141
 5341SOL    HW127659   1.863   1.148   2.720  0.2780  1.6606  0.2058
 5341SOL    HW227660   1.975   1.057   2.757 -0.4647  0.3853 -2.3511
 5342SOL     OW27661   2.562   1.634   7.633 -0.6187  0.7078  0.2389
 5342SOL    HW127662   2.592   1.717   7.597  0.2251  0.0737 -0.5078
 5342SOL    HW227663   2.634   1.573   7.619 -0.0260  1.1987  1.0910
 5343SOL     OW27664   3.714   1.969   6.614  0.4739 -0.1929  0.4413
 5343SOL    HW127665   3.658   1.904   6.656 -1.0855 -0.2429 -1.6749
 5343SOL    HW227666   3.797   1.929   6.640  1.2964  0.8550 -0.5518
 5344SOL     OW27667   3.040   3.044   2.564 -0.2874 -0.0300 -0.5243
 5344SOL    HW127668   2.969   3.106   2.579 -1.1410 -0.9232 -0.8086
 5344SOL    HW227669   3.113   3.090   2.605  1.5981 -2.0901 -1.5694
 5345SOL     OW27670   0.031   1.919   6.065 -0.0492 -0.0080  0.4713
 5345SOL    HW127671   0.045   1.993   6.005  0.5064 -0.3592  0.1584
 5345SOL    HW227672   4.686   1.939   6.113 -1.4821 -0.7309 -1.6307
 5346SOL     OW27673   2.349   3.655  11.499  0.1052 -0.5613  0.0721
 5346SOL    HW127674   2.387   3.638  11.586  1.7960  0.6709 -0.4208
 5346SOL    HW227675   2.415   3.629  11.436 -2.1506  0.0109 -2.5307
 5347SOL     OW27676   3.827   3.203  14.496  0.0562  0.3395  0.2400
 5347SOL    HW127677   3.918   3.172  14.491  0.1839  0.7269  0.1701
 5347SOL    HW227678   3.832   3.299  14.491  0.3810  0.3329  0.4484
 5348SOL     OW27679   4.027   0.760  16.777  0.3636  0.0731  0.0936
 5348SOL    HW127680   4.102   0.807  16.741 -1.1048 -0.5091 -3.6999
 5348SOL    HW227681   4.068   0.674  16.774  1.8528  0.7751  0.6610
 5349SOL     OW27682   0.946   1.440   8.625 -0.4218  0.2628  0.2401
 5349SOL    HW127683   0.945   1.484   8.540 -1.8654  0.9645  0.6184
 5349SOL    HW227684   0.974   1.349   8.616 -0.6668  0.2516 -0.3378
 5350SOL     OW27685   0.375   3.320   3.581 -0.2582 -0.0706  0.4976
 5350SOL    HW127686   0.293   3.272   3.596 -0.1745 -0.1842  0.5996
 5350SOL    HW227687   0.340   3.407   3.596  0.0101  0.0139  0.6408
 5351SOL     OW27688   3.264   1.212   8.813  0.0302  0.2946  0.5849
 5351SOL    HW127689   3.259   1.267   8.735 -0.9738 -2.1271 -1.0570
 5351SOL    HW227690   3.174   1.180   8.806  0.0217  0.3251  0.5554
 5352SOL     OW27691   4.560   2.919  10.355 -0.1056  0.3134  0.1447
 5352SOL    HW127692   4.640   2.959  10.389  0.6067 -0.4044 -0.6868
 5352SOL    HW227693   4.504   2.954  10.424  0.2641 -1.9614  1.5991
 5353SOL     OW27694   4.547   2.726   0.555  0.6289 -0.2707  0.4112
 5353SOL    HW127695   4.470   2.703   0.607  0.5439  0.0129  0.4093
 5353SOL    HW227696   4.518   2.789   0.490  0.6453  0.5887  1.2282
 5354SOL     OW27697   0.782   1.995  17.649  0.3885 -0.2743 -0.1652
 5354SOL    HW127698   0.710   1.973  17.708  2.0134 -0.7981  1.6466
 5354SOL    HW227699   0.854   2.006  17.712  0.6900  0.6307 -0.6753
 5355SOL     OW27700   1.605   1.773   6.240  0.2781  0.4390 -0.7191
 5355SOL    HW127701   1.681   1.714   6.247 -0.6785 -0.7399 -0.3421
 5355SOL    HW227702   1.535   1.715   6.210 -0.4101  0.0360  1.7176
 5356SOL     OW27703   0.556   2.895   0.926 -0.6147 -0.1193  0.1950
 5356SOL    HW127704   0.618   2.966   0.905 -0.8098 -0.2785 -0.9293
 5356SOL    HW227705   0.605   2.846   0.992 -1.0660 -0.5496  0.2037
 5357SOL     OW27706   3.775   4.061   7.221 -0.3085  0.6526 -0.3523
 5357SOL    HW127707   3.782   3.987   7.281 -0.8472  1.6646  0.9508
 5357SOL    HW227708   3.690   4.102   7.232 -0.4101 -0.0601  1.4581
 5358SOL     OW27709   4.192   0.341   6.367  0.3298 -0.3188 -0.0421
 5358SOL    HW127710   4.168   0.302   6.452 -0.3773  0.0996 -0.0474
 5358SOL    HW227711   4.138   0.295   6.303  1.0758  0.1355 -0.9945
 5359SOL     OW27712   3.530   2.041   0.557  0.3732 -0.4645 -0.3049
 5359SOL    HW127713   3.616   2.049   0.600 -0.7830  0.6619  1.7805
 5359SOL    HW227714   3.516   2.125   0.512  0.8405 -0.2807 -0.1145
 5360SOL     OW27715   4.578   4.085   6.221  0.2202 -0.2398  0.4860
 5360SOL    HW127716   4.637   4.084   6.296  0.0575  0.0848  0.6182
 5360SOL    HW227717   4.604   4.000   6.187  1.4985 -0.3421  1.7172
 5361SOL     OW27718   4.312   2.100   6.248  0.9237  0.8522  0.1160
 5361SOL    HW127719   4.310   2.195   6.237 -0.6610  0.8979  0.7374
 5361SOL    HW227720   4.307   2.098   6.344 -1.5560  1.4153  0.0129
 5362SOL     OW27721   2.810   4.671   2.696 -0.5670  0.0640 -0.2917
 5362SOL    HW127722   2.854   4.589   2.677 -0.2238  0.1402  0.1832
 5362SOL    HW227723   2.865   4.717   2.760  0.9385 -0.7241 -1.0176
 5363SOL     OW27724   2.409   1.609   5.015  0.1467 -0.0267 -0.7857
 5363SOL    HW127725   2.394   1.576   4.927 -2.3943  1.5228 -0.9427
 5363SOL    HW227726   2.337   1.671   5.031  0.0129 -0.1864 -0.7657
 5364SOL     OW27727   1.485   3.324   1.508 -0.2341  0.4426  0.6558
 5364SOL    HW127728   1.430   3.304   1.584 -2.0940  0.5827 -0.6821
 5364SOL    HW227729   1.549   3.256   1.532  0.3896  1.1176  0.9129
 5365SOL     OW27730   2.269   4.663  16.306 -0.3274 -0.0193 -0.2578
 5365SOL    HW127731   2.272   4.708  16.390  0.8950  1.2809 -0.9932
 5365SOL    HW227732   2.222   4.584  16.331 -2.1121  1.0547 -0.2243
 5366SOL     OW27733   1.959   1.703   1.760  0.7839 -0.5970 -0.3452
 5366SOL    HW127734   2.051   1.702   1.733  0.2834 -0.6940 -2.0008
 5366SOL    HW227735   1.964   1.783   1.812 -1.9008 -0.5260 -0.2039
 5367SOL     OW27736   1.475   0.874  16.919 -0.4237  0.4373 -0.2472
 5367SOL    HW127737   1.519   0.873  16.834 -0.8177  1.5828 -0.4693
 5367SOL    HW227738   1.464   0.969  16.931 -0.1850  0.5336 -0.7941
 5368SOL     OW27739   2.368   3.252  12.566  0.0752  0.3309 -0.5047
 5368SOL    HW127740   2.297   3.285  12.622  0.5634  1.4728 -0.5619
 5368SOL    HW227741   2.443   3.261  12.625 -0.8306  2.8184  0.2541
 5369SOL     OW27742   1.266   1.309  17.059 -0.5902  0.5004  0.4405
 5369SOL    HW127743   1.191   1.259  17.093  0.2734 -1.7226 -0.9191
 5369SOL    HW227744   1.303   1.349  17.138 -1.3262  3.9663 -0.9727
 5370SOL     OW27745   3.451   0.404   5.657  0.0537  0.0565 -0.6956
 5370SOL    HW127746   3.363   0.432   5.683 -0.4525 -2.9017  0.7720
 5370SOL    HW227747   3.499   0.485   5.674 -1.5519  1.2256 -1.6210
 5371SOL     OW27748   1.082   3.102   6.082 -0.1427 -0.3677  0.0538
 5371SOL    HW127749   1.075   3.195   6.060 -1.3108 -0.4039  0.2323
 5371SOL    HW227750   1.131   3.107   6.164 -3.0196 -2.3000  1.9044
 5372SOL     OW27751   2.945   4.702   1.556 -0.4323 -0.4745 -0.0552
 5372SOL    HW127752   2.866   0.020   1.557  0.0676  0.2141  1.6895
 5372SOL    HW227753   2.904   4.619   1.582 -1.2966  0.1647  0.6095
 5373SOL     OW27754   2.451   3.214   4.956 -0.2337 -0.4301  0.3025
 5373SOL    HW127755   2.482   3.284   5.014  1.5016 -0.3976 -0.6772
 5373SOL    HW227756   2.476   3.129   4.993  0.3786 -0.1027  0.6435
 5374SOL     OW27757   4.676   4.102   4.555  0.0070  0.0380  0.4559
 5374SOL    HW127758   4.637   4.189   4.560 -1.5861 -0.7462  1.4908
 5374SOL    HW227759   4.619   4.066   4.487  0.7443 -0.1477 -0.0659
 5375SOL     OW27760   3.382   1.371   1.959 -0.5537  0.3274 -0.4809
 5375SOL    HW127761   3.420   1.449   1.999 -0.9391  0.6196 -0.6803
 5375SOL    HW227762   3.455   1.327   1.915 -1.5363 -1.3614 -0.4233
 5376SOL     OW27763   2.071   0.975   2.085 -0.2145  0.7144 -0.0385
 5376SOL    HW127764   2.017   0.983   2.007 -0.9386  0.4519  0.4336
 5376SOL    HW227765   2.120   0.895   2.064 -0.8521  0.6760 -1.3501
 5377SOL     OW27766   0.660   3.509   1.590  0.1249 -0.0434 -0.6335
 5377SOL    HW127767   0.656   3.471   1.677  0.5738 -1.0384 -1.0491
 5377SOL    HW227768   0.571   3.492   1.558  1.2394 -2.7843 -2.3057
 5378SOL     OW27769   4.339   1.175  14.703  0.3016  0.0149  0.1136
 5378SOL    HW127770   4.292   1.156  14.621 -1.4076 -0.1079  1.1206
 5378SOL    HW227771   4.387   1.093  14.713 -1.5508 -1.2397 -1.1292
 5379SOL     OW27772   4.106   4.705   4.257  0.9153 -0.0111 -0.4645
 5379SOL    HW127773   4.036   4.649   4.290 -0.7280  2.0788 -0.4369
 5379SOL    HW227774   4.101   0.031   4.331 -1.0554  0.1036 -0.7099
 5380SOL     OW27775   3.112   3.779   7.632 -0.1568 -0.2852 -0.5099
 5380SOL    HW127776   3.137   3.832   7.556 -0.1458 -0.3344 -0.5400
 5380SOL    HW227777   3.161   3.699   7.614  0.6162  0.5394 -2.0037
 5381SOL     OW27778   0.859   0.979   9.839 -0.1201 -0.1406  0.3277
 5381SOL    HW127779   0.839   1.072   9.828 -2.6630 -0.4900  2.1290
 5381SOL    HW227780   0.826   0.959   9.751  1.0564 -0.1222 -0.1189
 5382SOL     OW27781   1.819   3.521   5.633  0.1754  0.2399  0.0279
 5382SOL    HW127782   1.758   3.530   5.559 -0.2840  0.2227  0.4001
 5382SOL    HW227783   1.905   3.520   5.593  1.1451  0.7677  2.0918
 5383SOL     OW27784   3.369   2.230  14.611  0.2527 -0.0280  0.4564
 5383SOL    HW127785   3.455   2.189  14.611  0.3813  0.2251 -2.4398
 5383SOL    HW227786   3.333   2.193  14.530  1.9688  0.6126 -0.5920
 5384SOL     OW27787   2.589   1.559  16.204  0.4947  0.2674 -0.4257
 5384SOL    HW127788   2.640   1.549  16.124  0.0819  0.3420 -0.6987
 5384SOL    HW227789   2.545   1.475  16.221  0.4473  0.1817 -0.9650
 5385SOL     OW27790   3.595   4.365   2.333 -0.1809  0.1000  0.0427
 5385SOL    HW127791   3.652   4.421   2.387 -0.8807  0.2418  0.6361
 5385SOL    HW227792   3.592   4.404   2.245  0.0081 -0.8018 -0.3607
 5386SOL     OW27793   0.158   0.910   8.276 -0.0310 -0.5560 -0.9315
 5386SOL    HW127794   0.220   0.950   8.215 -0.6233 -0.0556 -1.2059
 5386SOL    HW227795   0.075   0.893   8.232 -0.8941 -0.5226  0.6827
 5387SOL     OW27796   1.462   1.029   6.385 -0.2995 -0.0138  0.2468
 5387SOL    HW127797   1.534   0.982   6.343 -1.2157 -1.2976  0.1037
 5387SOL    HW227798   1.458   1.112   6.339 -1.2654  0.3782  1.0304
 5388SOL     OW27799   3.536   3.443   2.000 -0.3389 -0.0684 -0.3176
 5388SOL    HW127800   3.504   3.398   1.922  1.8093 -0.5007 -0.9710
 5388SOL    HW227801   3.452   3.480   2.025  0.0100 -0.6968  1.7307
 5389SOL     OW27802   4.065   4.165   6.017  0.2386 -0.3474  0.6616
 5389SOL    HW127803   4.095   4.083   5.979 -1.6645 -0.7646  0.0541
 5389SOL    HW227804   4.087   4.234   5.955 -1.0160 -3.2847 -3.0671
 5390SOL     OW27805   1.523   2.093   4.824 -0.3519 -0.1953  0.5223
 5390SOL    HW127806   1.594   2.157   4.831 -1.5363  0.9860  1.7008
 5390SOL    HW227807   1.506   2.091   4.918 -0.9236  3.7028  0.4986
 5391SOL     OW27808   1.057   1.610   7.961 -0.1583 -0.8050  0.3202
 5391SOL    HW127809   1.006   1.535   7.990  0.5618 -0.3916  2.7126
 5391SOL    HW227810   1.033   1.624   7.870  2.1380 -2.6848 -0.5774
 5392SOL     OW27811   0.533   3.727  12.067 -0.7985  0.2194 -0.2142
 5392SOL    HW127812   0.593   3.676  12.013  0.7070  0.5779  1.1336
 5392SOL    HW227813   0.600   3.768  12.122 -0.1223 -0.0491 -0.8493
 5393SOL     OW27814   3.960   2.324   2.681  0.1101 -0.5014  0.1561
 5393SOL    HW127815   3.911   2.249   2.645  0.8743  0.6376 -3.2435
 5393SOL    HW227816   3.898   2.396   2.672  0.6989  0.0198  0.2750
 5394SOL     OW27817   4.336   4.136   0.260  0.0304  0.5704 -0.5647
 5394SOL    HW127818   4.403   4.203   0.252  1.7210 -0.7808  2.2120
 5394SOL    HW227819   4.331   4.141   0.355 -1.3742  0.2891 -0.6181
 5395SOL     OW27820   3.185   4.468   1.945 -0.4579 -0.3869 -0.4826
 5395SOL    HW127821   3.161   4.533   2.010 -3.1253 -0.5933 -1.2687
 5395SOL    HW227822   3.276   4.494   1.929 -0.5513  0.3291  0.1472
 5396SOL     OW27823   4.603   2.730   0.958 -0.3236 -0.0564  0.0653
 5396SOL    HW127824   4.631   2.642   0.931  1.8784  0.1794  1.5815
 5396SOL    HW227825   4.654   2.779   0.894  0.8013 -0.3935  0.7059
 5397SOL     OW27826   1.246   1.041  10.872  0.7394  0.4163  0.2856
 5397SOL    HW127827   1.194   1.008  10.799  0.9153  1.6552 -0.3969
 5397SOL    HW227828   1.247   1.130  10.839 -1.7123 -0.4732 -2.1393
 5398SOL     OW27829   2.666   1.972  13.041 -0.2468 -0.4912 -0.0556
 5398SOL    HW127830   2.604   1.931  13.101  0.6819  1.0366  1.9244
 5398SOL    HW227831   2.600   2.002  12.978  1.7192  0.9044 -1.4585
 5399SOL     OW27832   2.122   1.446  17.436 -0.4810  0.0174  0.0067
 5399SOL    HW127833   2.167   1.425  17.354 -0.0226 -0.1511  0.3056
 5399SOL    HW227834   2.198   1.464  17.490 -0.2474  0.4150 -0.4567
 5400SOL     OW27835   3.334   1.272   4.565 -0.1715  0.5203 -0.2467
 5400SOL    HW127836   3.265   1.319   4.517 -0.6264 -0.4059 -0.5215
 5400SOL    HW227837   3.417   1.311   4.540  0.4157 -0.4106  0.2398
 5401SOL     OW27838   3.743   0.689   5.200 -0.2767 -0.1114 -0.1374
 5401SOL    HW127839   3.650   0.670   5.193 -0.3204  0.2979 -0.6082
 5401SOL    HW227840   3.771   0.613   5.252  1.2774 -1.2885 -2.7168
 5402SOL     OW27841   4.204   0.287   7.600  0.0787 -0.5460 -0.1587
 5402SOL    HW127842   4.259   0.214   7.571 -1.4134 -0.8977 -2.1364
 5402SOL    HW227843   4.155   0.305   7.520  0.5122  0.1609 -0.2618
 5403SOL     OW27844   1.661   4.271   7.986 -0.5616 -0.0318  0.3773
 5403SOL    HW127845   1.753   4.291   7.968 -1.0711 -0.0308 -2.1487
 5403SOL    HW227846   1.675   4.189   8.035 -2.0297  1.2874  2.9881
 5404SOL     OW27847   4.185   2.898   4.439 -0.1621 -0.1028 -0.2755
 5404SOL    HW127848   4.261   2.851   4.472 -2.1433 -2.5985  0.7182
 5404SOL    HW227849   4.199   2.881   4.346  0.2865  0.9086 -0.3991
 5405SOL     OW27850   0.744   0.940   9.575  0.6612 -0.1655  0.7713
 5405SOL    HW127851   0.700   0.865   9.536  1.3026  0.8383 -1.8626
 5405SOL    HW227852   0.821   0.951   9.519  0.0138 -2.8795 -0.6654
 5406SOL     OW27853   1.950   3.709   5.967 -0.1976 -0.7374  0.3138
 5406SOL    HW127854   1.916   3.620   5.973  0.4815 -1.0656 -0.6547
 5406SOL    HW227855   1.883   3.739   5.905  0.4283 -2.9410 -1.4238
 5407SOL     OW27856   1.781   4.465   9.593  0.2684 -0.6912 -0.2947
 5407SOL    HW127857   1.796   4.552   9.554  1.3268 -0.5878  0.3409
 5407SOL    HW227858   1.741   4.417   9.521  0.3069 -0.4998 -0.4474
 5408SOL     OW27859   3.108   1.893   3.936 -0.4358  0.2814  0.4192
 5408SOL    HW127860   3.141   1.814   3.894 -1.2385 -1.1379  2.4794
 5408SOL    HW227861   3.127   1.958   3.868  1.2330  0.8273  1.4080
 5409SOL     OW27862   2.533   2.851   2.268 -0.0865 -0.0476  0.1953
 5409SOL    HW127863   2.610   2.866   2.323 -1.3049  2.7497  1.1325
 5409SOL    HW227864   2.496   2.775   2.314  2.7446 -0.6304  1.5136
 5410SOL     OW27865   2.526   0.853   9.973 -0.7784  0.9590  0.5297
 5410SOL    HW127866   2.504   0.766   9.940  0.7824 -0.2135  2.6001
 5410SOL    HW227867   2.494   0.844  10.062 -1.6895 -1.2061 -0.0098
 5411SOL     OW27868   4.691   2.589   2.705  0.0992  0.3221 -0.5985
 5411SOL    HW127869   4.609   2.635   2.725 -0.1312 -0.4818  0.2618
 5411SOL    HW227870   4.669   2.501   2.676  1.1063  0.7357 -2.6378
 5412SOL     OW27871   0.631   0.356  15.338 -0.0578 -0.2353 -0.0088
 5412SOL    HW127872   0.607   0.283  15.280  3.7398 -1.3246 -0.2244
 5412SOL    HW227873   0.701   0.398  15.290 -1.1246 -0.4383 -1.7615
 5413SOL     OW27874   1.980   4.167   3.616  0.1824 -0.0577  0.4428
 5413SOL    HW127875   2.055   4.131   3.663 -0.2819 -1.3756  0.1860
 5413SOL    HW227876   2.019   4.217   3.544  1.6552 -1.1785  0.4715
 5414SOL     OW27877   4.686   3.614   1.154  0.1834  0.4128 -0.2362
 5414SOL    HW127878   4.687   3.568   1.070 -2.1269 -2.1771  1.1921
 5414SOL    HW227879   0.042   3.618   1.182  0.1760 -2.5393  0.1482
 5415SOL     OW27880   3.904   4.424   7.026  0.0727 -0.1121  0.1851
 5415SOL    HW127881   3.842   4.437   7.099  0.9494 -0.8535  1.0633
 5415SOL    HW227882   3.846   4.439   6.952  0.4735 -0.9627 -0.2997
 5416SOL     OW27883   3.685   0.338   4.803  0.7630 -0.3084  0.6638
 5416SOL    HW127884   3.729   0.347   4.888  1.5372 -0.8561  0.3187
 5416SOL    HW227885   3.725   0.414   4.760 -0.4891  0.4647  0.8746
 5417SOL     OW27886   3.388   0.701   7.596  0.2030  0.2957  0.4410
 5417SOL    HW127887   3.407   0.608   7.605 -0.7460  0.0138 -0.4524
 5417SOL    HW227888   3.345   0.724   7.679  0.7206  0.1609  0.7473
 5418SOL     OW27889   4.395   0.850  13.913 -0.1882  0.2607 -0.7261
 5418SOL    HW127890   4.325   0.891  13.863 -1.8463 -0.5864  0.8942
 5418SOL    HW227891   4.346   0.831  13.993  1.4286  1.9514  0.6613
 5419SOL     OW27892   4.561   0.685   9.480 -0.5211  0.0524 -0.2941
 5419SOL    HW127893   4.499   0.757   9.492  1.1511  1.4445 -0.0141
 5419SOL    HW227894   4.573   0.658   9.571 -2.3299 -0.1460 -0.1189
 5420SOL     OW27895   0.659   2.193   5.508 -0.3789 -0.3077  0.6002
 5420SOL    HW127896   0.663   2.285   5.481 -0.3481 -0.6492 -0.5590
 5420SOL    HW227897   0.751   2.178   5.531 -0.5188  1.8533  2.6441
 5421SOL     OW27898   4.193   4.041  12.732  0.1060  0.1691  0.6315
 5421SOL    HW127899   4.136   3.964  12.727 -0.2542  0.5064 -0.3786
 5421SOL    HW227900   4.283   4.011  12.717 -0.0468 -1.3512  2.6465
 5422SOL     OW27901   0.522   4.062   2.199 -0.0239 -0.6720 -0.0685
 5422SOL    HW127902   0.497   4.114   2.275  2.6384  0.6285 -0.0804
 5422SOL    HW227903   0.535   4.141   2.146 -1.3993 -0.2525  0.2201
 5423SOL     OW27904   4.453   4.275   6.082  0.4539  0.1642  0.0478
 5423SOL    HW127905   4.453   4.227   5.999  0.3693 -0.1851  0.2496
 5423SOL    HW227906   4.472   4.202   6.141  0.7573  1.9714  2.2160
 5424SOL     OW27907   1.854   0.176  11.495  0.0759  0.1828 -0.2372
 5424SOL    HW127908   1.813   0.227  11.425  1.2818 -0.4694 -1.4291
 5424SOL    HW227909   1.803   0.097  11.475 -0.5476  0.2196  1.1866
 5425SOL     OW27910   2.984   1.073   3.175  0.0412 -0.6576 -0.4003
 5425SOL    HW127911   3.012   1.114   3.256  0.0853 -0.3058 -0.5920
 5425SOL    HW227912   3.062   1.024   3.150  1.8737  3.3400 -2.4121
 5426SOL     OW27913   1.641   1.835   4.173 -0.2593 -0.0400  0.2815
 5426SOL    HW127914   1.684   1.860   4.255  0.1682 -1.9197  0.6239
 5426SOL    HW227915   1.698   1.763   4.147  0.3681 -0.5758  3.0948
 5427SOL     OW27916   2.726   4.388   2.544 -0.1162 -0.2966 -0.6881
 5427SOL    HW127917   2.721   4.412   2.451 -1.2130  1.7119 -0.1010
 5427SOL    HW227918   2.638   4.402   2.579  0.6470 -0.6662  1.3851
 5428SOL     OW27919   0.408   3.238   6.586  0.3331  0.3976 -0.4309
 5428SOL    HW127920   0.449   3.307   6.639 -2.0813  1.8304 -0.4248
 5428SOL    HW227921   0.315   3.256   6.601 -0.4536 -2.9918 -1.3243
 5429SOL     OW27922   4.315   3.777  16.263 -0.4823  0.4382 -0.0482
 5429SOL    HW127923   4.389   3.718  16.249  1.1224  2.4345  0.0084
 5429SOL    HW227924   4.312   3.788  16.358  1.9243  1.8947 -0.1340
 5430SOL     OW27925   0.137   0.532   9.718  0.2623 -0.0249 -0.0218
 5430SOL    HW127926   0.194   0.602   9.750  1.4121 -0.1857 -1.7345
 5430SOL    HW227927   0.139   0.564   9.628 -0.3186 -0.7350 -0.2860
 5431SOL     OW27928   2.008   2.181   5.681 -0.4780 -0.2995  0.7548
 5431SOL    HW127929   1.929   2.129   5.696 -1.0779  0.0353 -1.3109
 5431SOL    HW227930   2.067   2.114   5.648 -0.3224  0.7314 -1.0815
 5432SOL     OW27931   0.643   2.688   7.816  0.7030  0.1153 -0.1663
 5432SOL    HW127932   0.609   2.725   7.897  0.3315 -0.2062 -0.1777
 5432SOL    HW227933   0.722   2.645   7.847  0.5754  0.6150  0.8682
 5433SOL     OW27934   3.237   0.748   9.323 -0.2572  0.0662 -0.3650
 5433SOL    HW127935   3.213   0.809   9.392 -2.1709 -0.9606 -0.1278
 5433SOL    HW227936   3.227   0.667   9.372  1.9042 -0.4513 -0.7784
 5434SOL     OW27937   3.673   2.321   7.516 -0.5622 -0.0568  0.0949
 5434SOL    HW127938   3.600   2.342   7.457  1.1489 -0.8733 -2.3259
 5434SOL    HW227939   3.669   2.386   7.586  0.4312  0.3520 -0.2330
 5435SOL     OW27940   4.585   1.361  13.471 -0.2327  0.4852 -0.0808
 5435SOL    HW127941   4.565   1.344  13.379 -0.6443 -0.5093  0.1946
 5435SOL    HW227942   4.554   1.452  13.480 -0.3316  0.6405 -1.8700
 5436SOL     OW27943   2.701   3.448   9.199  0.2784 -0.5928 -0.6180
 5436SOL    HW127944   2.720   3.492   9.281  2.3422 -0.5626 -1.1231
 5436SOL    HW227945   2.767   3.492   9.145  0.1366  0.1591 -0.1812
 5437SOL     OW27946   4.447   1.462   7.035 -0.3228 -0.0925  0.7383
 5437SOL    HW127947   4.401   1.398   7.090  0.2177  0.0143  1.3262
 5437SOL    HW227948   4.375   1.484   6.976  0.5613  0.7018 -0.0401
 5438SOL     OW27949   0.534   3.968  12.940  0.1371  0.3417 -0.0405
 5438SOL    HW127950   0.594   3.953  12.867  1.7255  0.3813  1.2448
 5438SOL    HW227951   0.465   4.008  12.887 -0.5474  0.5273  0.9778
 5439SOL     OW27952   3.628   4.651   6.783  0.2907  0.1943  0.0415
 5439SOL    HW127953   3.549   4.658   6.728 -0.3990  2.0678  1.2724
 5439SOL    HW227954   3.682   4.709   6.729 -1.7866  3.9966  2.0094
 5440SOL     OW27955   4.270   2.655   5.166 -0.6521  0.2472  0.4260
 5440SOL    HW127956   4.293   2.571   5.128  0.0003  0.1596  0.9982
 5440SOL    HW227957   4.322   2.717   5.115  0.2901 -0.4363  0.5399
 5441SOL     OW27958   2.855   2.804   3.668  0.1055 -0.3486  0.5309
 5441SOL    HW127959   2.883   2.862   3.739 -1.4454 -1.2675  1.8984
 5441SOL    HW227960   2.888   2.721   3.703  1.3449  0.5608  1.4937
 5442SOL     OW27961   0.761   0.545   7.652 -0.3905 -0.1932  0.1088
 5442SOL    HW127962   0.784   0.591   7.733  2.0676  2.1190 -1.9117
 5442SOL    HW227963   0.681   0.495   7.670 -2.4653  2.8886 -0.6306
 5443SOL     OW27964   1.851   0.859   9.431 -0.2749  0.2472 -0.7136
 5443SOL    HW127965   1.789   0.926   9.462  0.0852  0.5958 -0.7541
 5443SOL    HW227966   1.935   0.903   9.441 -0.0677 -0.3337  0.0934
 5444SOL     OW27967   1.187   0.188   0.468 -0.2595  0.5937 -0.0334
 5444SOL    HW127968   1.170   0.261   0.527  2.2040 -0.3546  1.8376
 5444SOL    HW227969   1.222   0.239   0.395 -1.8787  2.8874  0.7906
 5445SOL     OW27970   0.537   3.634   6.506  0.3610 -0.1932  0.3906
 5445SOL    HW127971   0.528   3.638   6.411  0.7457  2.2760  0.4564
 5445SOL    HW227972   0.594   3.558   6.514  1.2422  0.3067 -1.1203
 5446SOL     OW27973   3.415   3.331   7.276  0.2907  0.1245  0.3989
 5446SOL    HW127974   3.456   3.352   7.192 -1.3067 -1.1002 -0.6987
 5446SOL    HW227975   3.482   3.270   7.305  0.6328 -0.2551 -1.1892
 5447SOL     OW27976   0.315   2.955   7.889  0.0921  0.3679 -0.0570
 5447SOL    HW127977   0.339   3.017   7.820 -1.7742  1.7616  0.5237
 5447SOL    HW227978   0.232   2.995   7.915  0.0569  0.7069 -0.6829
 5448SOL     OW27979   1.472   4.491  16.330 -0.2353  0.1622  0.5929
 5448SOL    HW127980   1.415   4.438  16.386  2.1859 -0.3921  2.4971
 5448SOL    HW227981   1.550   4.461  16.376 -0.5308 -4.0018 -1.6429
 5449SOL     OW27982   4.611   2.138   3.311 -0.2777  0.9269 -0.2675
 5449SOL    HW127983   4.699   2.153   3.276 -1.2552  0.2181 -2.9614
 5449SOL    HW227984   4.570   2.085   3.243  2.4199 -0.1976 -1.0180
 5450SOL     OW27985   1.589   1.834   7.524  0.0163  0.0549 -0.5740
 5450SOL    HW127986   1.589   1.797   7.613 -0.2422  0.6235 -0.3355
 5450SOL    HW227987   1.503   1.794   7.507  0.6322 -1.8787  0.8065
 5451SOL     OW27988   1.656   0.489   8.836 -0.0898 -0.3883  0.0636
 5451SOL    HW127989   1.568   0.459   8.813  0.3657 -1.2709 -0.5718
 5451SOL    HW227990   1.648   0.584   8.838 -2.1582 -0.6039  2.6758
 5452SOL     OW27991   0.576   0.429  10.821  0.2059 -0.5074 -0.0841
 5452SOL    HW127992   0.557   0.345  10.863 -0.3899 -0.7442 -0.8131
 5452SOL    HW227993   0.514   0.434  10.748 -0.1912  1.7272  0.4300
 5453SOL     OW27994   1.341   4.382   4.215  0.0212 -0.5820 -0.5609
 5453SOL    HW127995   1.302   4.360   4.300  0.7752  2.7019  0.6523
 5453SOL    HW227996   1.323   4.302   4.165 -0.4616  0.3130 -1.8179
 5454SOL     OW27997   1.079   4.519  16.941 -0.3561  0.2981 -0.3965
 5454SOL    HW127998   1.044   4.441  16.898  0.0991 -0.2334  0.1980
 5454SOL    HW227999   1.173   4.499  16.942  0.2143  2.8812  0.1169
 5455SOL     OW28000   2.516   4.683   7.048 -0.0331 -0.0896  0.1479
 5455SOL    HW128001   2.579   4.724   7.108 -1.4067  0.8309  0.9452
 5455SOL    HW228002   2.468   0.026   7.019 -1.4758 -0.7017  0.9082
 5456SOL     OW28003   3.833   3.039  17.599 -0.2029  0.6911  0.0937
 5456SOL    HW128004   3.801   3.110  17.543 -0.0692 -0.5592 -1.5802
 5456SOL    HW228005   3.912   3.079  17.637  0.5319  0.0217 -0.7053
 5457SOL     OW28006   2.341   2.782   8.561  1.4253  0.0106 -0.1333
 5457SOL    HW128007   2.345   2.799   8.655  0.9103 -0.2513 -0.0650
 5457SOL    HW228008   2.385   2.857   8.521 -0.1659  2.9147  3.5748
 5458SOL     OW28009   0.303   4.620   1.749  0.0003  0.0903 -0.0131
 5458SOL    HW128010   0.298   4.652   1.839  1.5198  1.7126 -0.5021
 5458SOL    HW228011   0.226   4.665   1.715  0.9402  1.2814 -0.5858
 5459SOL     OW28012   1.785   1.885   1.563  0.1807  0.0863 -0.4816
 5459SOL    HW128013   1.861   1.926   1.523  0.3925  0.7189  0.5572
 5459SOL    HW228014   1.811   1.798   1.594  3.2594  1.5356  1.0758
 5460SOL     OW28015   2.636   0.417   5.557  0.1935 -0.0080 -0.2031
 5460SOL    HW128016   2.561   0.464   5.519 -0.0811  0.4639  0.9129
 5460SOL    HW228017   2.709   0.479   5.564  0.8043 -0.3993 -3.2397
 5461SOL     OW28018   2.379   4.384  14.170 -0.2885 -0.6778 -0.1448
 5461SOL    HW128019   2.307   4.347  14.119  2.8936 -4.1988 -2.1521
 5461SOL    HW228020   2.435   4.310  14.147 -1.6620 -1.1104 -2.0642
 5462SOL     OW28021   1.060   3.380   1.905 -0.3320 -0.5909  0.5153
 5462SOL    HW128022   0.971   3.349   1.917 -1.4712  2.7042  0.6219
 5462SOL    HW228023   1.083   3.398   1.997  2.8457  0.0401 -0.3917
 5463SOL     OW28024   1.550   3.832  15.039  0.4079  0.1475 -0.0710
 5463SOL    HW128025   1.638   3.859  15.066  0.9356 -0.4489 -1.1624
 5463SOL    HW228026   1.530   3.902  14.977 -0.8265  0.4921  0.7362
 5464SOL     OW28027   0.193   1.579   9.714 -0.5414 -0.4655 -0.1472
 5464SOL    HW128028   0.200   1.488   9.686 -1.0251  0.0383 -1.9195
 5464SOL    HW228029   0.133   1.622   9.652 -0.5777 -0.2707  0.0202
 5465SOL     OW28030   0.537   4.468   2.965  0.0576 -0.4437 -0.6795
 5465SOL    HW128031   0.598   4.543   2.968 -0.6963  0.0832  1.1402
 5465SOL    HW228032   0.576   4.409   3.029  2.1314  1.1516 -0.4346
 5466SOL     OW28033   3.019   1.980   7.092  0.2481  0.0414 -0.3626
 5466SOL    HW128034   2.947   1.977   7.029  0.9100 -3.2506 -0.9519
 5466SOL    HW228035   3.063   1.898   7.070  3.1652  1.2407  1.0569
 5467SOL     OW28036   1.032   2.176   4.098 -0.5082 -0.3242 -0.3735
 5467SOL    HW128037   1.007   2.265   4.073 -0.0931 -0.4477 -1.2133
 5467SOL    HW228038   1.083   2.151   4.021 -1.4052  1.2588 -1.4815
 5468SOL     OW28039   1.361   2.409   4.831  0.0881  0.5017 -0.6878
 5468SOL    HW128040   1.446   2.378   4.863  0.7911  1.9475 -1.1344
 5468SOL    HW228041   1.372   2.381   4.741 -2.1042 -0.2698 -0.7184
 5469SOL     OW28042   4.415   1.749   7.167 -0.0634  0.1420 -0.3188
 5469SOL    HW128043   4.495   1.757   7.220  1.0967  1.0034 -2.1945
 5469SOL    HW228044   4.385   1.667   7.207 -1.8321  0.9509  0.0018
 5470SOL     OW28045   0.727   2.105  13.999 -0.0873 -0.7589  0.1816
 5470SOL    HW128046   0.704   2.181  13.945 -0.3250 -1.5037 -0.7601
 5470SOL    HW228047   0.643   2.069  14.028 -0.4880  1.6254  1.9696
 5471SOL     OW28048   1.779   2.352  13.087  0.2433  0.5518 -0.2146
 5471SOL    HW128049   1.788   2.400  13.170 -0.0378 -0.6842  0.5313
 5471SOL    HW228050   1.783   2.421  13.021 -0.2401  0.8945  0.1174
 5472SOL     OW28051   0.201   3.496  15.212  0.2353 -0.4407 -0.6009
 5472SOL    HW128052   0.238   3.436  15.146  1.1647  2.3095 -2.5707
 5472SOL    HW228053   0.193   3.444  15.291 -0.3449  1.9501  0.8996
 5473SOL     OW28054   1.132   3.061  16.352 -0.1098  0.0696  0.0123
 5473SOL    HW128055   1.137   3.001  16.277 -1.3804  2.1387 -1.7539
 5473SOL    HW228056   1.209   3.118  16.339  1.5762 -2.3653 -0.5821
 5474SOL     OW28057   2.136   1.152  16.073 -0.2237  0.4114  0.3793
 5474SOL    HW128058   2.073   1.223  16.070  1.6926  2.0718 -0.2454
 5474SOL    HW228059   2.107   1.104  16.151 -0.9381 -0.3267 -0.3447
 5475SOL     OW28060   2.162   3.127   6.654 -0.0897 -0.2756  0.0692
 5475SOL    HW128061   2.110   3.046   6.651 -0.8772  0.2406 -0.2883
 5475SOL    HW228062   2.163   3.140   6.748  0.5413  1.4015 -0.1758
 5476SOL     OW28063   4.481   3.802   2.668 -0.3787  0.2598  0.3346
 5476SOL    HW128064   4.526   3.756   2.597 -0.1835  0.6031  0.2389
 5476SOL    HW228065   4.449   3.729   2.721  0.9284 -0.4865  0.1084
 5477SOL     OW28066   0.634   3.358   0.734 -0.2066 -0.1380 -0.4093
 5477SOL    HW128067   0.648   3.335   0.642 -0.6615  0.6083 -0.6643
 5477SOL    HW228068   0.624   3.277   0.783  1.9647  0.4608  1.0273
 5478SOL     OW28069   2.721   1.076   9.900  0.3117 -0.4663 -0.6801
 5478SOL    HW128070   2.807   1.034   9.894  1.2275  1.4300 -0.9863
 5478SOL    HW228071   2.662   1.006   9.927  0.6030 -0.3733  0.2015
 5479SOL     OW28072   4.551   1.741   1.676  0.2773  0.3641 -0.0370
 5479SOL    HW128073   4.544   1.825   1.631 -2.9847  1.8030  3.1447
 5479SOL    HW228074   4.571   1.781   1.761  2.3323 -2.8633  1.0014
 5480SOL     OW28075   4.218   1.411   6.824  0.0279  0.3538 -0.1920
 5480SOL    HW128076   4.273   1.358   6.766 -1.2753  1.2644 -2.2513
 5480SOL    HW228077   4.180   1.358   6.894  1.7388 -0.0457  0.4389
 5481SOL     OW28078   0.429   0.288   7.729  0.0017 -0.3275 -0.1047
 5481SOL    HW128079   0.445   0.270   7.636  1.2049 -0.1021  0.0646
 5481SOL    HW228080   0.415   0.383   7.730 -0.5138 -0.3895 -0.9871
 5482SOL     OW28081   4.662   2.917   5.109  0.1466  0.4526  0.3557
 5482SOL    HW128082   4.672   2.952   5.197 -1.9808 -1.2660  1.2814
 5482SOL    HW228083   4.583   2.963   5.080 -0.4867 -0.2822  0.9197
 5483SOL     OW28084   0.873   2.587   7.435 -0.1652  0.0640  0.1013
 5483SOL    HW128085   0.793   2.619   7.392  0.0303  1.7971  1.0465
 5483SOL    HW228086   0.937   2.623   7.374 -0.7801 -0.0286 -0.5973
 5484SOL     OW28087   0.375   4.595   2.062  0.5377  0.2449  0.2871
 5484SOL    HW128088   0.298   4.651   2.052 -0.0662 -0.1859  2.3766
 5484SOL    HW228089   0.327   4.514   2.046 -0.0822  0.5920  0.3910
 5485SOL     OW28090   2.043   2.535   5.194 -0.0930  0.6343 -0.0147
 5485SOL    HW128091   2.117   2.589   5.221  1.2996 -1.7423  0.8281
 5485SOL    HW228092   2.075   2.479   5.123 -0.2865 -0.1338  0.5056
 5486SOL     OW28093   2.646   2.471   2.299  0.4869 -0.5126  0.5119
 5486SOL    HW128094   2.677   2.526   2.370  1.8769 -1.2416  0.4689
 5486SOL    HW228095   2.683   2.387   2.325 -0.2166 -1.0556 -0.2466
 5487SOL     OW28096   3.490   0.278   9.036  0.0376 -0.0572  1.1180
 5487SOL    HW128097   3.411   0.319   9.000  0.6040  0.2188  0.1833
 5487SOL    HW228098   3.446   0.222   9.100 -1.0378 -0.3329  0.1378
 5488SOL     OW28099   0.593   4.670  13.628  0.2937  0.3091 -0.4387
 5488SOL    HW128100   0.627   4.725  13.557 -2.0186 -0.4116 -2.1058
 5488SOL    HW228101   0.517   4.725  13.648 -0.2909 -0.0671 -1.6105
 5489SOL     OW28102   2.391   2.724   4.361  0.7334 -0.3735  0.2850
 5489SOL    HW128103   2.429   2.637   4.350  2.1457  0.4119 -1.1013
 5489SOL    HW228104   2.423   2.745   4.449  0.0887  0.1758  0.3867
 5490SOL     OW28105   2.582   2.672  11.804  0.1826  0.1382 -0.0966
 5490SOL    HW128106   2.557   2.675  11.711 -0.1129  0.7513  0.0062
 5490SOL    HW228107   2.557   2.760  11.831 -0.7508 -0.0471 -0.3190
 5491SOL     OW28108   2.353   2.083  11.165 -0.2160 -0.2557 -0.4006
 5491SOL    HW128109   2.326   2.147  11.231  0.4016 -0.0559 -0.3397
 5491SOL    HW228110   2.276   2.028  11.175 -1.3575  1.0242 -2.0429
 5492SOL     OW28111   1.140   4.095   7.450 -0.1055 -0.8041  0.4044
 5492SOL    HW128112   1.066   4.137   7.492 -0.7429  0.9727 -2.4800
 5492SOL    HW228113   1.210   4.155   7.477  0.0398 -0.3398 -1.0052
 5493SOL     OW28114   2.280   0.184  10.724 -0.4965  0.0320 -0.1941
 5493SOL    HW128115   2.249   0.093  10.724 -0.8058  0.1418 -0.9572
 5493SOL    HW228116   2.270   0.208  10.632  1.1859  3.3402  0.4924
 5494SOL     OW28117   2.494   0.269   5.987  0.4419 -0.2565 -0.0442
 5494SOL    HW128118   2.438   0.228   6.054  1.4013 -0.8248  0.4179
 5494SOL    HW228119   2.564   0.304   6.042  1.5869 -1.8055 -0.4980
 5495SOL     OW28120   0.936   4.406   8.282  0.1631 -0.1522  0.7269
 5495SOL    HW128121   0.970   4.356   8.357  0.4002 -1.6405 -0.3692
 5495SOL    HW228122   0.905   4.486   8.325  1.1766  0.9797 -0.6726
 5496SOL     OW28123   3.441   4.661   2.853  0.6148  0.0098  0.0178
 5496SOL    HW128124   3.384   4.621   2.787  1.1412 -1.9826  0.8046
 5496SOL    HW228125   3.523   4.644   2.808  0.4526  1.3434 -0.8020
 5497SOL     OW28126   1.432   3.422   5.975 -0.2835  0.3670  0.2651
 5497SOL    HW128127   1.465   3.469   6.052  1.3519 -0.1451 -0.1096
 5497SOL    HW228128   1.467   3.469   5.900  1.2232  0.1031  0.7885
 5498SOL     OW28129   4.557   2.060  11.812 -0.0696 -0.5703 -0.4367
 5498SOL    HW128130   4.586   2.145  11.781 -2.8079  0.4689 -0.1896
 5498SOL    HW228131   4.637   2.010  11.825  0.5188  0.4063 -0.2989
 5499SOL     OW28132   1.236   1.899   5.538  0.0802 -0.1530  0.2301
 5499SOL    HW128133   1.197   1.982   5.566 -1.8752 -0.4155 -1.7439
 5499SOL    HW228134   1.195   1.837   5.599 -1.0176  0.7001  0.3518
 5500SOL     OW28135   2.984   2.797   6.353  0.1045  0.1536 -0.0315
 5500SOL    HW128136   2.947   2.734   6.414 -0.9373 -0.7320 -1.5701
 5500SOL    HW228137   3.074   2.762   6.349 -0.0926 -0.4851  1.0667
 5501SOL     OW28138   2.198   0.903   5.629  0.5191  0.7109 -0.5672
 5501SOL    HW128139   2.181   0.958   5.705 -1.1993  1.4637 -1.4999
 5501SOL    HW228140   2.230   0.824   5.672 -0.7813  0.1201 -0.6658
 5502SOL     OW28141   1.929   4.442   4.440  0.4103 -0.3384  0.2058
 5502SOL    HW128142   1.990   4.375   4.471 -0.5189 -0.9167  0.7749
 5502SOL    HW228143   1.944   4.504   4.511 -1.1748  0.1684  0.0982
 5503SOL     OW28144   2.352   1.856   9.028  0.0721 -0.0232 -0.5096
 5503SOL    HW128145   2.345   1.875   9.122  1.4702 -0.4132 -0.3222
 5503SOL    HW228146   2.282   1.793   9.014 -1.3744  0.6843  3.5621
 5504SOL     OW28147   2.955   2.925   5.105 -0.3274  0.1398  0.1313
 5504SOL    HW128148   3.020   2.973   5.155 -0.5878 -0.4841  1.0736
 5504SOL    HW228149   2.993   2.837   5.108  0.6667  0.5216 -1.3239
 5505SOL     OW28150   1.413   1.637   3.229 -0.0018 -0.0002  0.0698
 5505SOL    HW128151   1.469   1.712   3.212 -1.6439  0.7652 -1.8623
 5505SOL    HW228152   1.367   1.665   3.308  0.7448  1.1058  0.1132
 5506SOL     OW28153   0.734   1.826  11.847 -0.5456 -0.0572  0.6400
 5506SOL    HW128154   0.796   1.784  11.788 -0.8085 -1.5258  1.4056
 5506SOL    HW228155   0.776   1.907  11.877 -1.6948  0.8310 -0.1132
 5507SOL     OW28156   1.684   1.014   7.648 -0.5095  0.2214  0.2800
 5507SOL    HW128157   1.742   1.038   7.576 -1.2587 -1.1282 -0.7631
 5507SOL    HW228158   1.620   1.085   7.649  0.4704  1.0952  0.7599
 5508SOL     OW28159   2.389   0.700   7.746 -0.0950 -0.4904 -0.6325
 5508SOL    HW128160   2.432   0.617   7.723 -0.6807 -1.6469  2.5127
 5508SOL    HW228161   2.357   0.684   7.835 -0.6367  0.2987 -0.6925
 5509SOL     OW28162   0.755   4.045   1.521 -0.5836 -0.5894  0.3432
 5509SOL    HW128163   0.672   4.028   1.564 -0.7544  0.8936  0.6104
 5509SOL    HW228164   0.778   4.134   1.547  0.7221 -1.3084  1.6746
 5510SOL     OW28165   0.072   0.132  15.242  0.3660 -0.3081  0.0118
 5510SOL    HW128166   4.730   0.184  15.264  1.4612  1.0358  0.7361
 5510SOL    HW228167   0.053   0.129  15.149 -1.6362 -0.4203  0.4223
 5511SOL     OW28168   2.542   1.063  10.698  0.0440 -0.0627  0.1827
 5511SOL    HW128169   2.630   1.096  10.719  0.0269  0.0525  0.0723
 5511SOL    HW228170   2.519   1.129  10.633  3.1008  0.2927 -0.5522
 5512SOL     OW28171   2.213   0.886   2.868 -0.1147 -0.4076  0.1056
 5512SOL    HW128172   2.274   0.929   2.810 -1.1613 -1.4054 -1.7414
 5512SOL    HW228173   2.268   0.861   2.942  1.4104 -1.2652 -1.3424
 5513SOL     OW28174   0.679   3.611   4.681  0.8258  0.0051  0.1803
 5513SOL    HW128175   0.673   3.656   4.597  1.0122  1.4983  0.9647
 5513SOL    HW228176   0.756   3.555   4.669  1.0614  0.6476 -1.2817
 5514SOL     OW28177   2.918   2.105  16.593  0.2779 -0.0480  0.4338
 5514SOL    HW128178   2.857   2.035  16.618  1.6058 -1.6002 -0.6826
 5514SOL    HW228179   2.887   2.179  16.646  0.9386  1.6055 -1.4990
 5515SOL     OW28180   2.926   3.287   2.870 -0.1937  0.5214 -0.0710
 5515SOL    HW128181   3.017   3.257   2.875 -0.7298 -1.0781  0.1720
 5515SOL    HW228182   2.949   3.378   2.851  3.1803  0.1358  2.2587
 5516SOL     OW28183   2.010   1.302   5.850 -0.2622  0.4910 -0.5091
 5516SOL    HW128184   1.948   1.302   5.778  0.1621 -1.0588 -0.8754
 5516SOL    HW228185   2.018   1.397   5.857 -0.4827  0.5871 -1.6179
 5517SOL     OW28186   0.844   2.421   2.386 -0.9622  0.1869 -0.3055
 5517SOL    HW128187   0.791   2.420   2.465 -0.5298 -0.7225 -0.0238
 5517SOL    HW228188   0.802   2.490   2.334  1.0031  0.2863 -1.7776
 5518SOL     OW28189   1.805   1.413   3.760 -0.0317 -0.7535  0.3282
 5518SOL    HW128190   1.895   1.388   3.739  0.0847  0.0392 -0.0982
 5518SOL    HW228191   1.783   1.361   3.837  2.8660 -0.9902  0.9949
 5519SOL     OW28192   0.289   0.886   3.756 -0.4388 -0.0214  0.2399
 5519SOL    HW128193   0.209   0.929   3.724 -0.0282  0.6256  0.1005
 5519SOL    HW228194   0.304   0.934   3.838 -0.6047  0.0382  0.2373
 5520SOL     OW28195   3.568   3.025   9.102 -0.5194  0.1744 -0.1015
 5520SOL    HW128196   3.617   2.946   9.122 -0.5422  0.0720 -0.4463
 5520SOL    HW228197   3.483   2.990   9.127 -0.9029  1.2759  0.1690
 5521SOL     OW28198   1.299   3.286   1.306  0.7251 -0.3578 -0.1271
 5521SOL    HW128199   1.348   3.295   1.388  0.3137 -0.3688  0.1185
 5521SOL    HW228200   1.338   3.346   1.242  0.7653  1.3869  1.5307
 5522SOL     OW28201   0.437   2.241  14.743  0.6175  0.2144 -0.1630
 5522SOL    HW128202   0.366   2.305  14.733  1.5365  1.1145 -0.8521
 5522SOL    HW228203   0.409   2.174  14.680  1.7809 -0.1802 -0.2596
 5523SOL     OW28204   4.163   0.302   8.226  0.5116  0.3233  0.1644
 5523SOL    HW128205   4.215   0.286   8.305  0.6092  0.2571  0.0881
 5523SOL    HW228206   4.081   0.327   8.268 -0.2635  0.1157 -1.2465
 5524SOL     OW28207   1.238   3.700  10.541 -0.2669  0.5203  0.2432
 5524SOL    HW128208   1.184   3.778  10.531 -1.1287 -0.0587  0.4184
 5524SOL    HW228209   1.327   3.737  10.540 -1.2507  2.8548 -0.5412
 5525SOL     OW28210   4.534   1.489   8.883  0.1725 -0.3335 -0.2094
 5525SOL    HW128211   4.540   1.424   8.812 -0.4631 -0.0843 -0.4917
 5525SOL    HW228212   4.575   1.566   8.844  1.1724 -0.7252  0.0905
 5526SOL     OW28213   0.744   3.442   7.122 -0.2751  0.1205  0.3405
 5526SOL    HW128214   0.758   3.348   7.134 -0.3404  0.3814  2.5820
 5526SOL    HW228215   0.804   3.479   7.187 -0.3230 -0.1876  0.5604
 5527SOL     OW28216   3.854   3.331   7.230  0.0593  0.9252  0.1640
 5527SOL    HW128217   3.828   3.409   7.279 -2.3116  0.6722 -0.6646
 5527SOL    HW228218   3.790   3.340   7.160 -2.8738  0.4526  2.7932
 5528SOL     OW28219   1.620   0.346   7.332 -0.2937 -0.0884  0.2279
 5528SOL    HW128220   1.536   0.371   7.371  0.1573 -1.8046  2.2885
 5528SOL    HW228221   1.674   0.422   7.354 -2.2960  1.6641 -0.8251
 5529SOL     OW28222   2.147   4.237  14.059  0.6144  0.2954 -0.6333
 5529SOL    HW128223   2.160   4.164  14.120  1.5949 -0.0003 -1.1937
 5529SOL    HW228224   2.102   4.197  13.984  2.8239 -2.2442 -0.5973
 5530SOL     OW28225   1.626   4.644   6.209 -0.4394  0.0757  0.5551
 5530SOL    HW128226   1.678   4.583   6.263 -0.5448  1.1921  1.9282
 5530SOL    HW228227   1.675   4.649   6.127 -0.2592  2.8122  0.8390
 5531SOL     OW28228   1.211   0.891  17.621  0.1036 -0.0543  0.2453
 5531SOL    HW128229   1.231   0.864  17.531 -3.6780  1.6923 -1.1025
 5531SOL    HW228230   1.281   0.839  17.661 -0.7724  0.1099  2.0108
 5532SOL     OW28231   1.856   1.827   6.496 -0.5487 -0.8500  0.5316
 5532SOL    HW128232   1.802   1.894   6.537  1.1488  0.2148  0.9997
 5532SOL    HW228233   1.789   1.762   6.474 -2.6015  0.8014  1.8141
 5533SOL     OW28234   2.703   0.462   6.122  0.0494  0.4487 -0.3283
 5533SOL    HW128235   2.667   0.452   6.210  1.1215 -2.6641 -0.2535
 5533SOL    HW228236   2.790   0.429   6.141 -0.7669 -1.1701  0.5986
 5534SOL     OW28237   0.242   1.635   5.729  0.2864  0.0025  0.2742
 5534SOL    HW128238   0.255   1.544   5.756 -0.9790 -0.1841  0.2703
 5534SOL    HW228239   0.309   1.642   5.661 -1.9586  0.3725 -1.9149
 5535SOL     OW28240   3.017   3.504  14.537 -0.6682 -0.5447 -0.1817
 5535SOL    HW128241   3.030   3.421  14.491 -0.4239  2.0457 -4.7782
 5535SOL    HW228242   2.923   3.524  14.544 -0.8343 -0.4903 -2.4426
 5536SOL     OW28243   0.151   4.584   2.913 -0.2924 -0.8852  0.1291
 5536SOL    HW128244   0.162   4.594   3.008 -0.8733  0.7077  0.0370
 5536SOL    HW228245   0.210   4.511   2.896  0.5174 -0.5605  1.5309
 5537SOL     OW28246   4.472   0.781   8.082  0.0518  0.3557 -0.3833
 5537SOL    HW128247   4.456   0.791   8.176 -0.6579  0.8077 -0.5570
 5537SOL    HW228248   4.562   0.749   8.079  0.0971  0.5036 -0.5875
 5538SOL     OW28249   3.697   1.054   6.333 -0.1046 -0.0299 -0.2559
 5538SOL    HW128250   3.660   1.074   6.247  1.9349  2.5028 -0.5365
 5538SOL    HW228251   3.755   1.129   6.346 -0.5540  0.3584 -0.4722
 5539SOL     OW28252   0.843   2.829   4.213 -0.2132 -0.4194  0.2209
 5539SOL    HW128253   0.883   2.761   4.267  0.2962  0.7395  1.2682
 5539SOL    HW228254   0.749   2.808   4.211  0.1196 -1.6428 -3.1197
 5540SOL     OW28255   3.787   4.412   6.778 -0.3944 -0.3710  0.2914
 5540SOL    HW128256   3.736   4.490   6.757 -2.4370 -1.6186  0.6042
 5540SOL    HW228257   3.727   4.347   6.740  0.7888 -0.8352 -0.7910
 5541SOL     OW28258   3.718   0.971  13.016 -0.2956 -0.5410  0.7589
 5541SOL    HW128259   3.656   0.918  12.966  0.2595  0.4649 -0.9848
 5541SOL    HW228260   3.778   1.000  12.947 -1.2046  0.9259  0.5785
 5542SOL     OW28261   3.086   1.535   8.947 -0.1478 -0.0569 -0.5852
 5542SOL    HW128262   3.155   1.480   8.909  1.8798 -0.2086  3.2482
 5542SOL    HW228263   3.124   1.598   9.009 -1.6339 -0.6072  0.9006
 5543SOL     OW28264   4.528   0.152  12.928 -0.3937 -0.3010  0.1990
 5543SOL    HW128265   4.545   0.151  13.022  1.4945  1.0932 -0.1112
 5543SOL    HW228266   4.434   0.170  12.924 -0.8163 -2.5519 -0.1386
 5544SOL     OW28267   3.546   0.482   2.085 -0.2852  0.0816  0.0110
 5544SOL    HW128268   3.557   0.410   2.023  0.3300  1.7874 -1.8394
 5544SOL    HW228269   3.534   0.433   2.167 -0.5473 -0.1490 -0.1612
 5545SOL     OW28270   0.228   3.690   2.239  0.1866 -0.4709  0.3646
 5545SOL    HW128271   0.301   3.726   2.190  1.0737 -1.3029  1.0799
 5545SOL    HW228272   0.260   3.600   2.246 -2.5085 -1.2884  2.0565
 5546SOL     OW28273   0.345   3.502   1.602  0.4895  0.1369  0.3812
 5546SOL    HW128274   0.277   3.565   1.579  0.7946  0.4339  0.2900
 5546SOL    HW228275   0.376   3.519   1.690 -0.0926  3.2680 -0.0027
 5547SOL     OW28276   0.583   3.512  17.359  0.7078  0.1931  0.6242
 5547SOL    HW128277   0.507   3.473  17.316  0.8007  1.1039 -0.3663
 5547SOL    HW228278   0.633   3.508  17.277  1.2679  1.2225  0.9144
 5548SOL     OW28279   3.119   4.073   4.698  0.4842 -0.4859  0.0349
 5548SOL    HW128280   3.038   4.023   4.685  0.2449  0.2548 -1.4061
 5548SOL    HW228281   3.104   4.147   4.639 -1.0203 -0.5185  0.3695
 5549SOL     OW28282   1.738   1.078   9.540  0.0250 -0.3552  0.3224
 5549SOL    HW128283   1.691   1.114   9.616 -0.6685  1.4674 -0.9814
 5549SOL    HW228284   1.804   1.146   9.533 -1.4623  1.2506  1.7577
 5550SOL     OW28285   3.272   0.640   2.779  0.0215 -0.0184  0.2216
 5550SOL    HW128286   3.185   0.635   2.741  0.0498 -0.4669  0.2203
 5550SOL    HW228287   3.289   0.733   2.797 -1.3937  0.2525  0.1102
 5551SOL     OW28288   2.510   4.094   9.558 -0.3170  0.0235 -0.1421
 5551SOL    HW128289   2.601   4.086   9.531 -1.1158 -1.3302 -2.4459
 5551SOL    HW228290   2.482   4.170   9.507 -0.2132 -0.4280 -0.8634
 5552SOL     OW28291   1.746   4.564   5.966  0.3306 -0.3238 -0.3002
 5552SOL    HW128292   1.689   4.608   5.902  0.7726  1.2989  0.4457
 5552SOL    HW228293   1.704   4.478   5.963 -0.1378 -0.1406  1.2015
 5553SOL     OW28294   2.659   1.268   6.382  0.0797  0.0470 -0.1672
 5553SOL    HW128295   2.650   1.223   6.467  2.2534  1.6872  0.9378
 5553SOL    HW228296   2.623   1.206   6.319  0.0393 -1.0754  0.9416
 5554SOL     OW28297   0.396   0.120   9.216  0.3310  0.2562 -0.0517
 5554SOL    HW128298   0.468   0.161   9.167  0.6774 -0.7773 -0.4078
 5554SOL    HW228299   0.436   0.047   9.263 -1.6914 -0.4741  0.5107
 5555SOL     OW28300   0.933   3.941   3.169  0.2080 -0.2509  0.3490
 5555SOL    HW128301   0.919   4.025   3.213 -0.0378  0.3957 -0.9607
 5555SOL    HW228302   0.847   3.901   3.163  0.4957 -0.5928 -1.3898
 5556SOL     OW28303   2.949   1.015   5.059  0.5766  0.1167  0.5469
 5556SOL    HW128304   2.966   1.105   5.033  0.8040  0.2875  1.2724
 5556SOL    HW228305   2.913   1.022   5.148  0.3341  0.3501  0.4285
 5557SOL     OW28306   4.698   0.296   0.121 -0.2219 -0.1424  0.6071
 5557SOL    HW128307   0.002   0.344   0.193  0.6598  1.5947 -1.0288
 5557SOL    HW228308   0.011   0.340   0.051 -0.6503  0.7609  0.8877
 5558SOL     OW28309   1.739   0.676   8.301 -0.1623 -0.0659 -0.0262
 5558SOL    HW128310   1.782   0.718   8.375  0.0041  0.5090 -0.4540
 5558SOL    HW228311   1.740   0.584   8.327  1.6455  0.5953  2.2448
 5559SOL     OW28312   0.817   0.136  13.478 -0.1003  0.0252  0.0847
 5559SOL    HW128313   0.838   0.227  13.500 -1.4055  0.4402 -0.4033
 5559SOL    HW228314   0.900   0.109  13.517 -0.6937  0.7662  1.8517
 5560SOL     OW28315   0.932   1.762   5.967  0.7437  0.2517  0.0064
 5560SOL    HW128316   0.891   1.848   5.959  0.9401  0.1687 -1.7925
 5560SOL    HW228317   0.865   1.717   5.917  0.2540  0.7290  0.2329
 5561SOL     OW28318   1.477   4.472   4.479  0.0278 -0.2818  0.0791
 5561SOL    HW128319   1.439   4.430   4.556  0.2405  1.1666  0.9705
 5561SOL    HW228320   1.517   4.400   4.430  3.0741 -0.5241  2.8993
 5562SOL     OW28321   3.640   0.557   2.444  0.0833 -0.2057 -0.2796
 5562SOL    HW128322   3.612   0.470   2.414 -0.3731  0.3546 -1.4855
 5562SOL    HW228323   3.577   0.564   2.515  1.1612  0.6844  0.5713
 5563SOL     OW28324   1.435   3.386  13.036  0.5060  0.2153  0.5501
 5563SOL    HW128325   1.523   3.422  13.024  0.5560  0.5844  2.1545
 5563SOL    HW228326   1.404   3.453  13.096 -0.6527  0.4585 -0.3246
 5564SOL     OW28327   3.587   2.919   0.414 -0.0481  0.3162 -0.4073
 5564SOL    HW128328   3.600   2.855   0.344  1.7944  3.9251 -3.3490
 5564SOL    HW228329   3.680   2.927   0.435 -0.0083 -0.3703 -0.3037
 5565SOL     OW28330   0.971   2.477   4.582  0.0678  0.3096  0.2499
 5565SOL    HW128331   1.015   2.488   4.666  0.7274 -0.4357  0.0052
 5565SOL    HW228332   0.964   2.382   4.573 -1.3708  0.4699 -0.3538
 5566SOL     OW28333   2.969   4.468  11.701  0.1584  0.1167 -0.3128
 5566SOL    HW128334   2.958   4.410  11.626  1.5020 -0.2605 -0.2056
 5566SOL    HW228335   2.880   4.502  11.714  0.0061  0.0724 -1.2891
 5567SOL     OW28336   2.882   0.811   3.511  0.4063 -0.3737  0.4282
 5567SOL    HW128337   2.889   0.906   3.519  0.3789 -0.3687  0.3952
 5567SOL    HW228338   2.906   0.798   3.419  0.4834  0.7276  0.2973
 5568SOL     OW28339   0.739   3.169  16.392  0.1124  0.3371 -0.4620
 5568SOL    HW128340   0.724   3.248  16.443  2.2119  0.8993 -0.7064
 5568SOL    HW228341   0.659   3.166  16.340  1.4795  0.1310 -2.5565
 5569SOL     OW28342   2.906   1.536   5.522  1.0062  0.0379 -0.7207
 5569SOL    HW128343   2.994   1.548   5.486  1.1368 -1.4947 -0.9011
 5569SOL    HW228344   2.849   1.598   5.475 -0.7115 -1.0434 -0.0458
 5570SOL     OW28345   2.976   3.331  14.866 -0.0210 -0.4839 -0.0999
 5570SOL    HW128346   3.010   3.412  14.830 -3.5081  1.9288  2.0158
 5570SOL    HW228347   2.941   3.290  14.787  0.4696  0.9841 -1.0647
 5571SOL     OW28348   1.854   4.538   7.525  0.6582  0.1807 -0.0961
 5571SOL    HW128349   1.914   4.470   7.556  0.7381 -0.4221 -1.5683
 5571SOL    HW228350   1.913   4.608   7.499  1.3253  0.1575  1.3497
 5572SOL     OW28351   3.124   1.995   3.492 -0.3178 -0.2011 -0.4198
 5572SOL    HW128352   3.212   2.032   3.500 -0.4708 -0.0723  0.6676
 5572SOL    HW228353   3.070   2.035   3.561 -2.0634 -2.9930 -0.1821
 5573SOL     OW28354   3.072   2.555   5.358 -0.2862 -0.1757  0.7551
 5573SOL    HW128355   2.989   2.553   5.406  0.4262  0.4561  2.0145
 5573SOL    HW228356   3.090   2.461   5.359 -0.5100 -0.2476 -1.4473
 5574SOL     OW28357   0.492   2.534   1.628  0.4181 -0.2734  0.5090
 5574SOL    HW128358   0.558   2.598   1.599  0.0200  0.2521  0.7477
 5574SOL    HW228359   0.464   2.494   1.546 -2.9752  0.5811  1.2681
 5575SOL     OW28360   3.207   0.960   9.143 -0.6705 -0.4665  0.0034
 5575SOL    HW128361   3.135   1.020   9.160 -0.3027  0.1082 -0.4715
 5575SOL    HW228362   3.212   0.908   9.223 -2.1875  1.1117  1.1038
 5576SOL     OW28363   3.169   2.125   0.582 -0.4900 -0.1555  0.4923
 5576SOL    HW128364   3.212   2.100   0.663  1.3755  2.3837  0.3042
 5576SOL    HW228365   3.238   2.188   0.562  0.6314 -0.5748  3.1234
 5577SOL     OW28366   3.020   2.555   7.776  0.3584 -0.1517 -0.0090
 5577SOL    HW128367   2.981   2.639   7.752  2.9279  1.4687  1.5030
 5577SOL    HW228368   2.947   2.525   7.830 -0.2835 -0.2980 -0.9651
 5578SOL     OW28369   4.494   0.817   2.817 -0.0891 -0.1001  0.2434
 5578SOL    HW128370   4.444   0.812   2.899 -0.2983  0.3528  0.1478
 5578SOL    HW228371   4.586   0.810   2.845 -0.5407 -0.5649  1.6236
 5579SOL     OW28372   2.189   3.199  10.294  1.1212  0.2825 -0.2579
 5579SOL    HW128373   2.280   3.201  10.327  0.7933 -1.3544  0.7457
 5579SOL    HW228374   2.178   3.104  10.288 -0.8850  0.5642 -0.9236
 5580SOL     OW28375   3.330   3.709  11.852  0.2169 -0.2573  0.2158
 5580SOL    HW128376   3.397   3.725  11.918 -0.1079  0.3286  0.4104
 5580SOL    HW228377   3.247   3.730  11.894 -0.0721 -0.9085 -0.0270
 5581SOL     OW28378   2.997   0.179   3.283  0.3055 -0.0699  0.0249
 5581SOL    HW128379   2.934   0.180   3.355 -0.0140  0.2996 -0.2624
 5581SOL    HW228380   3.069   0.233   3.315 -0.6692  1.5863 -0.5976
 5582SOL     OW28381   1.790   2.993  11.764 -0.2739  0.1940 -0.1501
 5582SOL    HW128382   1.711   3.046  11.761  0.4722  1.2736 -0.4031
 5582SOL    HW228383   1.830   3.013  11.849  0.8663 -0.8806 -0.4206
 5583SOL     OW28384   3.257   0.316   3.732  0.5653  0.0939  0.4837
 5583SOL    HW128385   3.341   0.357   3.753 -1.7013  4.4676  0.9907
 5583SOL    HW228386   3.254   0.343   3.640  1.1981 -1.8149 -0.1003
 5584SOL     OW28387   1.103   3.396   5.001 -0.3118 -0.2160 -0.2099
 5584SOL    HW128388   1.169   3.415   5.068 -1.1953 -1.0878  0.9099
 5584SOL    HW228389   1.149   3.347   4.932  0.9616 -0.3802  0.7593
 5585SOL     OW28390   4.553   0.169  13.190 -0.2809  0.3949  0.4038
 5585SOL    HW128391   4.630   0.216  13.220  0.2974 -0.4795  0.2748
 5585SOL    HW228392   4.547   0.100  13.257  0.9817  0.9821  1.1009
 5586SOL     OW28393   4.657   4.707   1.022 -0.0160  0.0845 -0.6102
 5586SOL    HW128394   4.688   4.619   1.043 -1.7487 -0.6936 -1.3209
 5586SOL    HW228395   4.561   4.712   1.026 -0.1124 -1.5818 -1.0259
 5587SOL     OW28396   0.239   1.191   8.495  0.2722 -0.0120  0.0807
 5587SOL    HW128397   0.305   1.124   8.478  1.1554  1.1559 -1.0131
 5587SOL    HW228398   0.232   1.232   8.409 -0.0008 -0.7915 -0.2624
 5588SOL     OW28399   3.262   1.403  12.122  0.9098 -0.4914  0.3355
 5588SOL    HW128400   3.255   1.317  12.164 -3.4328 -0.8231 -1.0433
 5588SOL    HW228401   3.178   1.436  12.154  1.5885  0.8870  0.7077
 5589SOL     OW28402   0.522   2.132   7.563  0.2522  1.1269 -0.3174
 5589SOL    HW128403   0.593   2.168   7.616  1.8070 -0.2378 -1.5039
 5589SOL    HW228404   0.501   2.199   7.498 -1.6919  0.2492 -0.6069
 5590SOL     OW28405   3.531   2.031   7.228  0.5825  0.4398  0.3190
 5590SOL    HW128406   3.443   2.039   7.266 -0.4735  1.2486 -2.2824
 5590SOL    HW228407   3.526   2.090   7.153 -0.0120  0.6886  0.5584
 5591SOL     OW28408   1.499   2.464  12.569  0.4297 -0.5982  0.0699
 5591SOL    HW128409   1.513   2.373  12.595  2.6721 -0.1026  0.6434
 5591SOL    HW228410   1.425   2.494  12.621  1.0087 -1.5157  1.4226
 5592SOL     OW28411   3.910   4.265   1.552 -0.1976  0.4910 -0.1170
 5592SOL    HW128412   3.883   4.258   1.644  0.2753 -0.1048 -0.0215
 5592SOL    HW228413   3.976   4.335   1.560 -0.2414  0.4603  0.5060
 5593SOL     OW28414   3.450   4.301   5.405  0.1179  0.6386  0.8739
 5593SOL    HW128415   3.517   4.310   5.338  0.2936 -0.4951  0.9031
 5593SOL    HW228416   3.385   4.240   5.370 -0.5924  0.8522  1.7975
 5594SOL     OW28417   1.745   4.106   2.972  0.2939 -0.4523 -0.1519
 5594SOL    HW128418   1.690   4.175   3.008 -0.7259 -0.3496 -1.9266
 5594SOL    HW228419   1.827   4.155   2.961 -0.6158  1.5890  2.1872
 5595SOL     OW28420   0.727   3.952   8.840 -0.2310  0.3561  0.5647
 5595SOL    HW128421   0.796   3.890   8.816  0.4447  0.9163  1.0569
 5595SOL    HW228422   0.685   3.912   8.916  0.0472 -0.9693  0.0270
 5596SOL     OW28423   2.830   1.482  10.676 -0.4912 -0.3243 -0.3451
 5596SOL    HW128424   2.861   1.551  10.735 -2.0065 -0.9108  1.1497
 5596SOL    HW228425   2.737   1.478  10.701 -0.7874  0.0504 -1.3890
 5597SOL     OW28426   1.753   1.302  14.527 -0.4995  0.2784 -0.2408
 5597SOL    HW128427   1.774   1.367  14.461 -3.1405  2.2347  0.8231
 5597SOL    HW228428   1.675   1.342  14.565  0.4820  0.9343  1.1069
 5598SOL     OW28429   1.343   2.019   9.709  0.1804  0.1342  0.7467
 5598SOL    HW128430   1.315   2.040   9.620 -1.1159  0.8739  1.3176
 5598SOL    HW228431   1.424   1.969   9.708  0.9752  1.3839  1.3623
 5599SOL     OW28432   4.542   1.647   1.417 -0.1763 -0.5732 -0.2734
 5599SOL    HW128433   4.525   1.679   1.506 -0.4842  0.0835 -0.5655
 5599SOL    HW228434   4.631   1.614   1.426 -0.2032 -0.4598  0.3958
 5600SOL     OW28435   1.225   3.425  10.516  0.0860 -0.3073  0.6382
 5600SOL    HW128436   1.151   3.420  10.455 -0.6373 -1.9442  1.6502
 5600SOL    HW228437   1.242   3.517  10.494 -0.9390  0.0803  1.4531
 5601SOL     OW28438   4.681   2.746   0.173 -0.0031  0.1520  0.3355
 5601SOL    HW128439   4.716   2.709   0.092  1.1494 -0.5549  1.1734
 5601SOL    HW228440   4.712   2.836   0.168  2.7480 -0.7356  1.5216
 5602SOL     OW28441   4.440   2.792   6.884 -0.1192  0.0134  0.3470
 5602SOL    HW128442   4.399   2.790   6.798  1.4688 -1.4423 -0.3850
 5602SOL    HW228443   4.532   2.814   6.866  0.0958 -0.7122  0.5567
 5603SOL     OW28444   0.031   2.807   1.167  0.4257 -0.4000  0.0373
 5603SOL    HW128445   4.695   2.825   1.105 -0.2958 -0.4817  0.8353
 5603SOL    HW228446   0.033   2.711   1.164  3.6875 -0.3621  1.2185
 5604SOL     OW28447   3.853   3.105   3.277 -0.4964  0.1928 -0.2200
 5604SOL    HW128448   3.836   3.173   3.342  3.4356  0.5559  0.4276
 5604SOL    HW228449   3.946   3.086   3.290  0.1946  2.1973 -2.0483
 5605SOL     OW28450   2.093   4.082   7.223 -0.1489  0.3075 -0.2951
 5605SOL    HW128451   2.047   4.166   7.222  0.6998  0.7762  1.0118
 5605SOL    HW228452   2.014   4.027   7.226  0.1557  0.1377  3.6741
 5606SOL     OW28453   1.065   3.765   4.837 -0.3194  0.4703 -0.3535
 5606SOL    HW128454   1.040   3.771   4.745  0.8584 -0.3185 -0.7220
 5606SOL    HW228455   1.135   3.829   4.833 -0.6547  1.0292  2.6374
 5607SOL     OW28456   0.331   3.944  10.973 -0.0327 -0.3692 -0.1996
 5607SOL    HW128457   0.301   3.862  10.935  0.5753 -1.2706  1.2489
 5607SOL    HW228458   0.270   3.965  11.044  2.1411 -1.8691  2.1155
 5608SOL     OW28459   3.776   4.272   7.821 -0.2295  0.4885  0.1856
 5608SOL    HW128460   3.698   4.294   7.770  0.4642  3.6252  0.4632
 5608SOL    HW228461   3.730   4.260   7.904 -0.8531 -1.4095 -0.4484
 5609SOL     OW28462   4.341   0.616  13.641 -0.6259  0.1145 -0.5164
 5609SOL    HW128463   4.282   0.582  13.708  1.2255  0.8914  1.5134
 5609SOL    HW228464   4.286   0.685  13.604  0.4717  0.9312 -0.6144
 5610SOL     OW28465   0.780   1.672   8.341 -0.1235  0.3827  0.4420
 5610SOL    HW128466   0.873   1.648   8.345 -0.2256 -0.1089 -0.0411
 5610SOL    HW228467   0.778   1.762   8.308  0.3846 -0.1707 -1.0822
 5611SOL     OW28468   4.601   1.225   6.853 -0.0515 -0.1368 -0.0291
 5611SOL    HW128469   4.627   1.313   6.826  0.4605  0.1775  1.5251
 5611SOL    HW228470   4.528   1.227   6.791  0.2697 -2.0366 -0.4848
 5612SOL     OW28471   1.351   1.493   5.434  0.7207  0.2952 -0.5894
 5612SOL    HW128472   1.307   1.459   5.356 -1.0137  1.7933 -0.2639
 5612SOL    HW228473   1.280   1.505   5.497 -0.3914  0.7499 -1.9218
 5613SOL     OW28474   2.676   0.846   4.143  0.0236  0.0680  0.3088
 5613SOL    HW128475   2.679   0.768   4.088 -0.5903  1.5353 -1.7759
 5613SOL    HW228476   2.621   0.821   4.218 -0.1205  1.0445  0.5312
 5614SOL     OW28477   1.900   0.978   9.078  0.1067  0.3317 -0.3842
 5614SOL    HW128478   1.860   0.987   9.164 -0.4622 -0.2724 -0.5890
 5614SOL    HW228479   1.917   0.885   9.063  0.6324  0.1603  1.2709
 5615SOL     OW28480   0.424   1.167  11.903 -0.0760 -0.1753  0.5374
 5615SOL    HW128481   0.475   1.086  11.905 -0.8349 -0.6507  0.5246
 5615SOL    HW228482   0.332   1.149  11.922  0.2172 -1.9916  0.2510
 5616SOL     OW28483   2.657   4.560  10.084  0.2372 -0.1941 -0.3909
 5616SOL    HW128484   2.643   4.551  10.178 -2.2195 -1.3935 -0.8557
 5616SOL    HW228485   2.751   4.568  10.071  0.8676 -3.7158  1.8171
 5617SOL     OW28486   3.519   0.098   4.900 -0.0792 -0.0154 -0.6475
 5617SOL    HW128487   3.432   0.131   4.923 -0.2697 -1.2001  0.2887
 5617SOL    HW228488   3.556   0.182   4.873  1.4167 -1.1042 -1.9975
 5618SOL     OW28489   0.403   2.757   0.468 -0.2009  0.1097 -0.4173
 5618SOL    HW128490   0.328   2.729   0.520  0.0068  0.5766  0.1357
 5618SOL    HW228491   0.429   2.672   0.432  2.1745  0.6528 -0.0183
 5619SOL     OW28492   0.076   2.796   7.378  0.5240 -0.1707 -0.1812
 5619SOL    HW128493   0.076   2.892   7.380  2.1631 -0.1747 -0.2973
 5619SOL    HW228494   0.022   2.780   7.300 -1.6829 -1.4117  1.6115
 5620SOL     OW28495   1.697   2.512   0.541 -0.4191  0.1192 -0.4414
 5620SOL    HW128496   1.710   2.425   0.505 -0.7595  0.2073 -0.7731
 5620SOL    HW228497   1.714   2.560   0.460 -0.5180  0.2528 -0.3838
 5621SOL     OW28498   0.186   0.529  10.985  0.4011 -0.5606  0.1157
 5621SOL    HW128499   0.186   0.570  11.072  1.6421  3.2620 -1.6765
 5621SOL    HW228500   0.222   0.443  11.005 -1.5273 -1.5234 -0.5044
 5622SOL     OW28501   4.072   0.877   8.479  0.2472  0.2015  0.1439
 5622SOL    HW128502   4.037   0.932   8.550  1.2531  0.4008  0.4761
 5622SOL    HW228503   4.106   0.801   8.525 -0.4005 -0.0136  0.2645
 5623SOL     OW28504   2.622   4.018   6.162 -0.7717 -0.0402 -0.0667
 5623SOL    HW128505   2.713   3.988   6.169  0.1958  2.8755 -0.4029
 5623SOL    HW228506   2.584   3.940   6.121 -2.3597  1.0539 -0.6720
 5624SOL     OW28507   3.009   2.571   2.015  1.0114  0.0583 -0.0058
 5624SOL    HW128508   3.042   2.538   2.098  1.2407 -0.7916 -0.4332
 5624SOL    HW228509   2.922   2.599   2.040  0.6776 -1.6288  0.7497
 5625SOL     OW28510   0.552   3.628   2.491  0.0200 -0.1595 -0.6062
 5625SOL    HW128511   0.598   3.573   2.427  3.0584 -0.4924  1.8847
 5625SOL    HW228512   0.616   3.633   2.561  0.2444  0.8836 -0.8821
 5626SOL     OW28513   1.927   0.876  10.057 -0.2576 -0.0394 -0.2619
 5626SOL    HW128514   1.921   0.794  10.008  0.4595 -0.5695  0.5413
 5626SOL    HW228515   1.998   0.921  10.012 -1.1554  0.2372 -1.3954
 5627SOL     OW28516   2.071   2.096   0.136 -0.1285  0.7673  0.2136
 5627SOL    HW128517   2.112   2.070   0.053  0.5948 -0.0902  0.8403
 5627SOL    HW228518   2.022   2.016   0.155  1.2613  0.3253  1.8426
 5628SOL     OW28519   2.334   2.946   9.404  0.2248  0.0514 -0.4239
 5628SOL    HW128520   2.320   3.011   9.336  0.0661  1.3798  0.8618
 5628SOL    HW228521   2.415   2.975   9.446  0.5009 -0.1747 -0.8067
 5629SOL     OW28522   0.872   0.973   2.489 -0.8776 -0.4263 -0.7575
 5629SOL    HW128523   0.841   0.948   2.577  1.0027  1.5536  0.4545
 5629SOL    HW228524   0.958   0.930   2.492  0.1678  1.9011  2.4663
 5630SOL     OW28525   1.822   3.987   8.876  0.5024 -0.0937  0.2069
 5630SOL    HW128526   1.850   3.899   8.849 -0.2948 -0.5497  0.8731
 5630SOL    HW228527   1.833   3.980   8.970  2.6335  2.4275  0.1366
 5631SOL     OW28528   4.219   0.184   4.878  0.1144  0.3262  0.3924
 5631SOL    HW128529   4.220   0.141   4.793 -0.6392 -0.3097  0.7054
 5631SOL    HW228530   4.287   0.251   4.869 -2.2877  2.7619  0.3376
 5632SOL     OW28531   4.048   2.842  13.650 -1.3404 -0.0818  0.0865
 5632SOL    HW128532   4.000   2.917  13.687 -0.0358  1.8648 -2.1858
 5632SOL    HW228533   4.084   2.811  13.733 -1.8791 -3.8536 -1.1022
 5633SOL     OW28534   3.497   3.775  11.263  0.4224  0.7795  0.5470
 5633SOL    HW128535   3.447   3.833  11.321 -0.9251  0.3032 -0.1415
 5633SOL    HW228536   3.589   3.795  11.279  0.6865 -0.3095  0.4049
 5634SOL     OW28537   0.461   0.759  10.588 -0.3938 -0.1099 -0.4646
 5634SOL    HW128538   0.526   0.748  10.657  0.5195 -0.3928 -1.3777
 5634SOL    HW228539   0.384   0.758  10.645  0.0207 -1.8226  0.0608
 5635SOL     OW28540   0.974   2.932   1.456  0.5541  0.5053  0.0743
 5635SOL    HW128541   1.034   3.005   1.442  0.1645  0.5926 -1.1239
 5635SOL    HW228542   0.896   2.979   1.489  0.3956  0.4671 -0.2475
 5636SOL     OW28543   2.458   3.503  15.173 -0.2151  0.0487  0.5756
 5636SOL    HW128544   2.426   3.534  15.089 -1.3142  1.8841  1.6661
 5636SOL    HW228545   2.552   3.499  15.160 -0.3082  1.3314 -0.4393
 5637SOL     OW28546   0.185   4.520   3.614  0.8774 -0.2598  0.3412
 5637SOL    HW128547   0.200   4.452   3.681 -0.6124  1.4689  2.4317
 5637SOL    HW228548   0.107   4.560   3.653 -0.8229 -3.1226 -0.1416
 5638SOL     OW28549   4.368   2.781  13.609 -0.0996 -0.2263 -0.0003
 5638SOL    HW128550   4.388   2.707  13.667  1.2658 -0.6909 -1.0751
 5638SOL    HW228551   4.275   2.800  13.626  0.5909  2.4116  0.8985
 5639SOL     OW28552   4.610   2.775   6.184 -0.8825  0.0933 -0.4759
 5639SOL    HW128553   4.673   2.760   6.113 -2.8613  2.0347 -2.6240
 5639SOL    HW228554   4.612   2.870   6.181  1.5699  0.0205 -1.5632
 5640SOL     OW28555   4.202   3.637  14.778  0.9515  0.3240  1.0369
 5640SOL    HW128556   4.238   3.635  14.689 -3.7077  1.4110 -0.8660
 5640SOL    HW228557   4.167   3.727  14.781 -1.1756 -0.3994 -2.0154
 5641SOL     OW28558   0.954   0.859  17.557  0.0048  0.1431 -0.1569
 5641SOL    HW128559   1.039   0.889  17.588  0.5885  0.8358 -2.3875
 5641SOL    HW228560   0.981   0.768  17.545  0.7757  0.0443  2.3282
 5642SOL     OW28561   1.617   2.287   2.945  0.0608 -0.4671  0.0065
 5642SOL    HW128562   1.600   2.195   2.925  2.1646 -0.9521  0.4563
 5642SOL    HW228563   1.588   2.326   2.862 -2.0954  0.2081  1.0909
 5643SOL     OW28564   0.124   3.249   6.678 -0.6386 -0.3226 -0.5528
 5643SOL    HW128565   0.157   3.338   6.692 -0.7071 -0.3579 -0.1492
 5643SOL    HW228566   0.067   3.231   6.753  0.5388 -1.4013  0.0948
 5644SOL     OW28567   1.492   0.093   6.399  0.5391 -0.1909  0.1768
 5644SOL    HW128568   1.405   0.106   6.362 -0.3732 -0.6910  2.1700
 5644SOL    HW228569   1.535   0.039   6.332 -2.4494 -2.6823  0.2798
 5645SOL     OW28570   2.540   1.562   1.926  0.0393  0.3756  0.4910
 5645SOL    HW128571   2.459   1.609   1.943 -0.1238  0.5793 -0.8877
 5645SOL    HW228572   2.540   1.559   1.830 -1.8593  1.7759  0.4578
 5646SOL     OW28573   4.212   4.672   3.633  0.3207 -0.2212  0.6492
 5646SOL    HW128574   4.129   4.625   3.646 -0.2680  0.6089 -0.1245
 5646SOL    HW228575   4.211   4.657   3.539 -0.1709 -0.7433  0.7347
 5647SOL     OW28576   0.015   2.604   6.776 -0.0223  0.0667  0.0312
 5647SOL    HW128577   4.730   2.597   6.683 -0.3808 -1.7961  0.2360
 5647SOL    HW228578   4.719   2.694   6.787  1.9864  0.9746 -1.8281
 5648SOL     OW28579   2.897   1.906  13.365 -0.0040 -0.1345 -0.0937
 5648SOL    HW128580   2.938   1.967  13.426  0.8388 -0.0948 -0.6931
 5648SOL    HW228581   2.805   1.933  13.368 -0.7960 -2.6868 -1.1910
 5649SOL     OW28582   3.293   0.831  11.313  0.3510  0.3951  0.3013
 5649SOL    HW128583   3.214   0.885  11.324  0.1177 -0.0741  0.9194
 5649SOL    HW228584   3.336   0.873  11.239 -0.1824  0.9181  0.2868
 5650SOL     OW28585   3.916   0.076   7.234  0.7234  0.0845 -0.0243
 5650SOL    HW128586   3.935   0.092   7.142 -0.5681  0.6149 -0.1974
 5650SOL    HW228587   3.954   4.727   7.256  0.7990 -0.5038 -2.5085
 5651SOL     OW28588   3.364   4.596   3.643  0.1015  0.1945  0.0701
 5651SOL    HW128589   3.272   4.614   3.662  0.5728  1.8377  0.7800
 5651SOL    HW228590   3.372   4.516   3.591 -0.8047 -0.4540  0.9357
 5652SOL     OW28591   1.389   2.529  15.009 -0.3570 -0.2023 -0.3837
 5652SOL    HW128592   1.419   2.620  15.002 -1.0628  0.0196 -0.5347
 5652SOL    HW228593   1.466   2.493  15.054 -0.5555  0.7835  0.7514
 5653SOL     OW28594   3.796   3.618   1.549 -0.2866  0.2743 -0.1370
 5653SOL    HW128595   3.758   3.532   1.531 -1.5747  1.0695 -1.1999
 5653SOL    HW228596   3.729   3.660   1.603 -2.2316 -1.0727 -1.5535
 5654SOL     OW28597   3.070   2.163   8.479  0.3885 -0.2045 -0.7468
 5654SOL    HW128598   3.053   2.115   8.398 -1.1889 -1.9030  0.6025
 5654SOL    HW228599   3.056   2.253   8.448 -1.0032 -0.5204 -1.0772
 5655SOL     OW28600   0.415   3.679   0.988  0.4400  0.0315  0.2613
 5655SOL    HW128601   0.366   3.760   0.975  0.1717 -0.0896  0.4887
 5655SOL    HW228602   0.447   3.666   0.899 -1.2581 -0.3262 -0.2975
 5656SOL     OW28603   3.568   3.261   7.515 -0.8257  0.0985 -0.0478
 5656SOL    HW128604   3.645   3.315   7.531 -0.4250 -0.3918 -0.3456
 5656SOL    HW228605   3.527   3.272   7.601  1.2595 -1.2011  1.1183
 5657SOL     OW28606   4.284   2.659   8.168  0.3974  0.8149  0.0054
 5657SOL    HW128607   4.299   2.673   8.261 -3.0759  1.5781  0.4548
 5657SOL    HW228608   4.340   2.583   8.152  2.2252  2.1688 -0.1610
 5658SOL     OW28609   1.616   3.643   2.242 -0.5786 -0.3094 -0.0203
 5658SOL    HW128610   1.604   3.661   2.148  1.1197 -1.7738 -0.5003
 5658SOL    HW228611   1.696   3.694   2.253  0.2839 -1.7194  0.2160
 5659SOL     OW28612   1.855   2.276  10.816  0.5711 -0.6714 -0.1525
 5659SOL    HW128613   1.807   2.334  10.757 -2.1806 -0.6092  2.1210
 5659SOL    HW228614   1.942   2.316  10.823 -0.7097  2.0235  0.5485
 5660SOL     OW28615   4.316   2.660   8.449  0.1249 -0.0989  0.6711
 5660SOL    HW128616   4.396   2.642   8.500  0.4446 -1.8583 -0.4907
 5660SOL    HW228617   4.266   2.581   8.466  0.6195 -0.0706  2.2665
 5661SOL     OW28618   2.978   0.536   8.814 -0.0949  0.3298  0.3914
 5661SOL    HW128619   2.965   0.630   8.821 -0.9143  0.3642 -1.6361
 5661SOL    HW228620   3.037   0.503   8.882  0.0589 -2.5264 -1.0982
 5662SOL     OW28621   4.059   0.651  10.393 -0.0285  0.3728  0.2980
 5662SOL    HW128622   4.033   0.561  10.373 -0.8759  0.6011  0.3590
 5662SOL    HW228623   4.141   0.664  10.346  0.1231 -0.1349  0.4342
 5663SOL     OW28624   0.950   3.933   2.065 -0.4102 -0.1908  0.2930
 5663SOL    HW128625   0.869   3.926   2.114 -0.1334 -1.9863  0.4743
 5663SOL    HW228626   0.924   3.968   1.979 -0.3135 -1.0952 -0.1056
 5664SOL     OW28627   2.866   1.276   7.590  0.0753  0.4306 -0.8265
 5664SOL    HW128628   2.898   1.343   7.651  2.6309 -3.0698  1.7234
 5664SOL    HW228629   2.895   1.204   7.647 -1.1588 -0.0222 -0.7565
 5665SOL     OW28630   2.604   4.192   7.604 -0.1536 -0.4901  0.4466
 5665SOL    HW128631   2.580   4.185   7.512  0.0676  1.4940  0.2251
 5665SOL    HW228632   2.655   4.273   7.614 -1.5159  0.3167  0.9632
 5666SOL     OW28633   2.675   0.879   3.167 -0.8570  0.0442  0.7711
 5666SOL    HW128634   2.635   0.909   3.248  0.5393  2.1162  0.6997
 5666SOL    HW228635   2.617   0.929   3.109  0.7995  0.7203 -0.3253
 5667SOL     OW28636   3.040   4.141   3.869  0.0628  0.6812  0.0202
 5667SOL    HW128637   3.069   4.127   3.960 -1.0474 -0.2770  0.2150
 5667SOL    HW228638   3.093   4.215   3.840  0.8689  0.2535  0.3913
 5668SOL     OW28639   0.923   2.473  14.559 -0.4794 -0.2849 -0.5520
 5668SOL    HW128640   0.986   2.543  14.571  0.1251 -1.3125  2.3314
 5668SOL    HW228641   0.876   2.483  14.641  2.8982 -0.0502  1.3603
 5669SOL     OW28642   0.693   1.223   6.207 -0.4178  0.4020 -0.2043
 5669SOL    HW128643   0.701   1.318   6.213  2.0860  0.1555  0.4678
 5669SOL    HW228644   0.670   1.197   6.117 -0.7079 -1.9190  0.5372
 5670SOL     OW28645   0.928   3.060   1.785 -0.0025 -0.4860 -0.1021
 5670SOL    HW128646   0.918   3.104   1.701 -0.4912 -1.2890 -0.4657
 5670SOL    HW228647   0.880   2.978   1.776 -2.6253  1.1031 -0.5368
 5671SOL     OW28648   1.715   0.892  17.600  0.3452  0.1081  0.1656
 5671SOL    HW128649   1.680   0.980  17.583 -0.8232 -0.5754 -0.9333
 5671SOL    HW228650   1.644   0.858  17.654  1.0778 -0.8245  0.5399
 5672SOL     OW28651   0.521   4.591   1.550  0.1463  0.2843  0.3271
 5672SOL    HW128652   0.595   4.624   1.600  1.5612 -1.6419 -0.4939
 5672SOL    HW228653   0.454   4.591   1.619  0.4422 -0.0601  0.6170
 5673SOL     OW28654   3.834   4.200   5.530  0.0670  0.3605 -0.5000
 5673SOL    HW128655   3.782   4.263   5.581  0.6791  0.1449  0.3971
 5673SOL    HW228656   3.916   4.202   5.580 -2.2603  0.7232  3.3352
 5674SOL     OW28657   0.745   3.119  11.844  0.8583  0.3494 -0.4253
 5674SOL    HW128658   0.712   3.134  11.755  3.8941  1.9825 -1.3029
 5674SOL    HW228659   0.703   3.187  11.896 -0.7199  0.2488 -1.5808
 5675SOL     OW28660   3.546   0.304   2.901  0.4080  0.0264  0.4491
 5675SOL    HW128661   3.467   0.252   2.920  1.0133 -0.2487  2.1396
 5675SOL    HW228662   3.574   0.257   2.822  2.4215  1.5821  0.2429
 5676SOL     OW28663   2.450   2.089  11.569 -0.5336  0.2640  0.4042
 5676SOL    HW128664   2.465   2.154  11.501 -1.9013 -0.7982 -0.9030
 5676SOL    HW228665   2.380   2.033  11.536 -1.4368  1.9281 -0.4629
 5677SOL     OW28666   0.287   2.849   6.018  0.7256 -0.8066  0.3024
 5677SOL    HW128667   0.374   2.826   6.049  1.0710  0.2238  0.0918
 5677SOL    HW228668   0.289   2.935   6.059  1.1183 -0.6945  0.0522
 5678SOL     OW28669   1.253   3.709   2.981 -0.5305  0.7680  0.1607
 5678SOL    HW128670   1.264   3.671   2.894 -1.2936  0.3778  0.2356
 5678SOL    HW228671   1.302   3.650   3.039 -2.9064 -0.3487  1.0645
 5679SOL     OW28672   2.543   2.717   5.974  0.1038  0.4666  0.5365
 5679SOL    HW128673   2.505   2.695   6.059 -1.0738  2.3446  0.5007
 5679SOL    HW228674   2.464   2.717   5.920  0.9078  1.7493 -0.6571
 5680SOL     OW28675   1.460   2.203   0.390  0.0348  0.3350 -0.3816
 5680SOL    HW128676   1.398   2.257   0.342  0.4180  1.5682  0.4835
 5680SOL    HW228677   1.423   2.196   0.478  0.4089 -0.6109 -0.2948
 5681SOL     OW28678   2.325   2.335  11.309  0.5484  0.3173 -0.1134
 5681SOL    HW128679   2.295   2.416  11.267  2.7906  1.9528  1.3731
 5681SOL    HW228680   2.252   2.303  11.361 -0.5824  0.2784 -1.7280
 5682SOL     OW28681   1.181   3.893   1.634  0.0438  0.5287  0.1187
 5682SOL    HW128682   1.179   3.898   1.539 -1.0477 -1.2239  0.0449
 5682SOL    HW228683   1.093   3.858   1.648  0.6063 -0.7680  0.4430
 5683SOL     OW28684   0.816   4.246   9.770  0.0996 -0.3123 -0.0162
 5683SOL    HW128685   0.860   4.217   9.850  0.1183 -0.5606 -0.1147
 5683SOL    HW228686   0.734   4.278   9.807 -0.4250 -0.4782 -1.0367
 5684SOL     OW28687   3.554   3.745  12.573  0.0456  0.2185  0.6964
 5684SOL    HW128688   3.616   3.811  12.605 -0.8139  0.9674  0.8169
 5684SOL    HW228689   3.513   3.794  12.501 -0.4338 -1.0736  0.0973
 5685SOL     OW28690   1.505   3.624   4.918  0.1224  0.0569  0.4783
 5685SOL    HW128691   1.552   3.541   4.909  1.8903  1.1371 -0.1658
 5685SOL    HW228692   1.418   3.600   4.885  0.5859  1.8447 -2.0818
 5686SOL     OW28693   0.494   3.134  17.220  0.1560 -0.7419  0.0974
 5686SOL    HW128694   0.431   3.194  17.261 -0.7830 -0.6547 -1.4691
 5686SOL    HW228695   0.474   3.052  17.264  1.2105 -0.4355  1.1236
 5687SOL     OW28696   3.024   0.143   7.911  0.1666  0.5227  0.2970
 5687SOL    HW128697   3.118   0.162   7.919  0.6451 -0.7650 -2.1702
 5687SOL    HW228698   2.992   0.188   7.833 -2.7734 -0.7791  0.7725
 5688SOL     OW28699   1.219   4.459   9.188 -0.2534 -0.0943 -0.1040
 5688SOL    HW128700   1.258   4.378   9.155  3.3240  1.5584  0.0990
 5688SOL    HW228701   1.281   4.483   9.258  0.2992  1.0096 -0.9878
 5689SOL     OW28702   2.588   4.556   6.461  0.3292 -0.4261  0.0633
 5689SOL    HW128703   2.493   4.545   6.451  0.4070 -1.0388  0.0032
 5689SOL    HW228704   2.620   4.475   6.500 -0.7717 -0.1523  1.5383
 5690SOL     OW28705   3.884   1.628   4.958  0.2527 -0.0858 -0.0248
 5690SOL    HW128706   3.908   1.583   5.039  1.7140 -1.3032 -1.1354
 5690SOL    HW228707   3.819   1.565   4.925  0.0310  0.3968 -0.5100
 5691SOL     OW28708   3.973   1.377   2.028 -0.3570 -0.0210  0.1031
 5691SOL    HW128709   3.988   1.399   1.936 -2.2768 -1.5840 -0.5615
 5691SOL    HW228710   3.928   1.294   2.016 -0.0522 -0.1948  0.1696
 5692SOL     OW28711   2.127   0.945   8.144 -0.1646  0.1401 -0.0196
 5692SOL    HW128712   2.034   0.921   8.137 -0.8082  2.5228  0.3586
 5692SOL    HW228713   2.143   0.992   8.225  1.7854 -2.8840  1.3370
 5693SOL     OW28714   4.188   4.112   2.044 -0.0329  0.8098 -0.4175
 5693SOL    HW128715   4.162   4.184   2.103  0.0614 -0.0490  0.6654
 5693SOL    HW228716   4.194   4.041   2.108  1.3855  0.3827 -1.0287
 5694SOL     OW28717   2.627   1.104   4.845  0.2634  0.4030  0.1538
 5694SOL    HW128718   2.545   1.053   4.848  0.0366  0.8652  1.7670
 5694SOL    HW228719   2.628   1.163   4.920 -1.0296 -0.7112  1.0548
 5695SOL     OW28720   0.864   0.750   6.620  0.2553 -0.3466  0.0749
 5695SOL    HW128721   0.779   0.749   6.576 -0.6053 -2.2297  1.7936
 5695SOL    HW228722   0.878   0.656   6.611 -1.5278 -0.4961 -1.2246
 5696SOL     OW28723   2.397   0.811   5.443  0.1048  0.5317 -0.2833
 5696SOL    HW128724   2.475   0.816   5.498 -0.8902 -0.0272  1.2149
 5696SOL    HW228725   2.317   0.823   5.495 -0.3120 -2.7217 -0.1781
 5697SOL     OW28726   2.630   0.491   9.903  0.5920  0.4795 -0.3328
 5697SOL    HW128727   2.593   0.507   9.990  3.4064 -1.0719  1.1500
 5697SOL    HW228728   2.583   0.412   9.878  0.2535  0.1148  1.4952
 5698SOL     OW28729   4.340   1.684   6.269 -0.2303  0.8762  0.0437
 5698SOL    HW128730   4.246   1.673   6.262 -0.4956  3.5777 -0.7280
 5698SOL    HW228731   4.372   1.594   6.267  0.0341  0.9271  2.3244
 5699SOL     OW28732   0.374   0.906  12.129  0.2750  0.1530  0.5867
 5699SOL    HW128733   0.311   0.978  12.122 -1.1644 -0.8410  3.2815
 5699SOL    HW228734   0.458   0.946  12.150 -0.5528  3.2319 -1.9090
 5700SOL     OW28735   0.127   4.351   1.288 -0.1295  0.2692  0.0629
 5700SOL    HW128736   0.088   4.431   1.253  2.3942  1.0575 -0.9346
 5700SOL    HW228737   0.104   4.372   1.378  1.7140  2.2014  0.0841
 5701SOL     OW28738   0.053   3.690   3.181  0.4148 -0.6829 -0.3389
 5701SOL    HW128739   0.102   3.709   3.101  1.6204 -0.5701  0.4286
 5701SOL    HW228740   0.035   3.597   3.171  1.2080 -0.9922  1.1474
 5702SOL     OW28741   0.124   3.988  16.430 -0.3065  0.6744 -0.6605
 5702SOL    HW128742   0.120   3.898  16.399  3.4091  0.7632 -1.3835
 5702SOL    HW228743   0.194   4.027  16.377  0.8706 -2.7715 -1.6168
 5703SOL     OW28744   0.604   4.451   8.835 -0.5301  0.2685  0.4447
 5703SOL    HW128745   0.527   4.473   8.887 -0.0889  0.8955  0.8408
 5703SOL    HW228746   0.655   4.396   8.896  0.9272  0.9131 -0.1827
 5704SOL     OW28747   4.447   3.115   6.719 -0.5672  0.1244 -0.0058
 5704SOL    HW128748   4.514   3.146   6.658  0.4534 -2.7460 -0.3517
 5704SOL    HW228749   4.480   3.027   6.738  2.3788  0.9861 -1.1436
 5705SOL     OW28750   0.138   1.889   9.546 -0.1009  0.5698  0.5915
 5705SOL    HW128751   0.128   1.803   9.505  1.5796  0.3785  0.5765
 5705SOL    HW228752   0.121   1.944   9.470 -0.0146 -3.3361 -2.2391
 5706SOL     OW28753   4.104   4.603  12.025  0.1831  0.2589  0.0959
 5706SOL    HW128754   4.123   4.608  12.118 -0.6006  0.9384  0.2184
 5706SOL    HW228755   4.097   4.695  11.999 -1.6550  0.3430  0.9266
 5707SOL     OW28756   3.569   0.350   7.855  0.0875 -0.0062  0.3956
 5707SOL    HW128757   3.585   0.259   7.883  1.4439  0.1401  0.0701
 5707SOL    HW228758   3.651   0.389   7.883 -0.7757 -0.7327  3.9211
 5708SOL     OW28759   1.124   2.270   0.376 -0.0165 -0.5224  0.0459
 5708SOL    HW128760   1.159   2.264   0.465  1.9469  0.9775 -0.6426
 5708SOL    HW228761   1.144   2.363   0.364 -0.0373 -0.7593 -1.7615
 5709SOL     OW28762   3.450   1.837   3.914  0.3556  0.0218 -0.1151
 5709SOL    HW128763   3.544   1.824   3.898  0.1294  1.7226 -2.8124
 5709SOL    HW228764   3.455   1.872   4.003  1.3619  1.0707 -0.5849
 5710SOL     OW28765   3.373   1.026   3.078  0.5033 -0.3537 -0.1941
 5710SOL    HW128766   3.304   0.968   3.112  1.6882 -1.7934 -0.2622
 5710SOL    HW228767   3.428   0.953   3.051  0.0264 -0.6381 -0.3865
 5711SOL     OW28768   0.026   3.961   3.687  0.4084  0.1611  0.2578
 5711SOL    HW128769   4.720   3.888   3.641  0.4478  0.7041 -0.6509
 5711SOL    HW228770   0.105   3.920   3.721  1.1756  0.9213 -0.6101
 5712SOL     OW28771   3.005   1.701  17.739 -0.7830 -0.2105  0.4461
 5712SOL    HW128772   3.074   1.759   0.030  1.2549 -1.2717 -2.1428
 5712SOL    HW228773   2.940   1.720   0.067 -0.7889 -0.9759  0.6500
 5713SOL     OW28774   3.031   2.941   2.162 -0.5545 -0.1677  0.3536
 5713SOL    HW128775   3.091   2.993   2.109 -0.7179 -0.7086 -0.3611
 5713SOL    HW228776   3.026   2.985   2.247 -2.7792  0.3564 -0.0639
 5714SOL     OW28777   4.369   3.504   1.685  0.0711  0.4453  0.0081
 5714SOL    HW128778   4.393   3.497   1.593  1.7691 -0.2912  0.5045
 5714SOL    HW228779   4.301   3.438   1.692 -0.4490  0.8899 -0.8791
 5715SOL     OW28780   0.389   2.445   7.535 -0.1070  0.4160 -0.2542
 5715SOL    HW128781   0.423   2.504   7.467 -1.0132  2.1080  0.7662
 5715SOL    HW228782   0.319   2.498   7.575  0.0059  0.4215 -0.0657
 5716SOL     OW28783   0.522   3.526  14.867 -0.0820  0.2054 -0.1412
 5716SOL    HW128784   0.553   3.592  14.805  0.6883  0.0783  0.1097
 5716SOL    HW228785   0.441   3.575  14.881  1.0018  2.0420 -0.2638
 5717SOL     OW28786   2.731   1.828  12.131 -0.2143 -0.1119  0.6516
 5717SOL    HW128787   2.778   1.755  12.171  2.3504  1.2096  0.0392
 5717SOL    HW228788   2.641   1.797  12.123 -0.2730  0.3489 -0.4162
 5718SOL     OW28789   3.490   2.939  10.574 -0.0025 -0.2023 -0.3422
 5718SOL    HW128790   3.514   2.852  10.607 -0.5236 -0.1284  0.2365
 5718SOL    HW228791   3.411   2.917  10.524 -1.5598  1.0464  1.5574
 5719SOL     OW28792   0.952   2.347   8.194 -0.1589  0.0078 -0.3539
 5719SOL    HW128793   0.908   2.425   8.158  0.7354  0.5787 -0.2148
 5719SOL    HW228794   1.004   2.379   8.268 -0.5108 -2.9527  1.1552
 5720SOL     OW28795   2.722   1.362   7.003 -0.1740  0.6913  0.1150
 5720SOL    HW128796   2.629   1.339   7.005  0.0531 -0.2290  0.1727
 5720SOL    HW228797   2.731   1.401   6.916  0.2061 -0.9813 -0.5954
 5721SOL     OW28798   4.327   0.494   4.768  0.5178  0.1521  0.1595
 5721SOL    HW128799   4.333   0.516   4.861  3.9596 -1.7138  0.3926
 5721SOL    HW228800   4.253   0.547   4.741 -0.3112 -1.1057 -0.0328
 5722SOL     OW28801   1.212   2.567  12.114 -0.0957  0.3874 -0.2407
 5722SOL    HW128802   1.211   2.662  12.122 -0.3428  0.3067  0.6941
 5722SOL    HW228803   1.288   2.564  12.171  1.7996  2.0461 -2.6810
 5723SOL     OW28804   3.347   1.462  11.880  0.0651  0.3994 -0.4528
 5723SOL    HW128805   3.437   1.434  11.862 -0.7818 -1.6786 -1.4095
 5723SOL    HW228806   3.336   1.429  11.969  0.5697  1.6134  0.0605
 5724SOL     OW28807   0.427   1.016   2.079  0.4759 -0.1524 -0.1239
 5724SOL    HW128808   0.499   0.955   2.065  1.0456  0.0659  1.9225
 5724SOL    HW228809   0.355   0.975   2.030 -0.2405  1.4694 -0.4096
 5725SOL     OW28810   3.956   1.470  11.470 -0.0933  0.0855  0.2090
 5725SOL    HW128811   4.022   1.540  11.473  0.5602 -0.4711 -1.5693
 5725SOL    HW228812   3.925   1.470  11.561 -1.8920 -0.3111 -0.4012
 5726SOL     OW28813   4.630   1.080  14.521  0.5808  0.1391 -0.1169
 5726SOL    HW128814   4.707   1.078  14.578  2.3616  1.6792 -2.4265
 5726SOL    HW228815   4.663   1.035  14.443  0.4954  1.3308 -0.8454
 5727SOL     OW28816   4.374   4.466   3.204 -0.3982  0.2851 -0.2753
 5727SOL    HW128817   4.465   4.436   3.199 -0.2700  0.1736  2.8253
 5727SOL    HW228818   4.367   4.509   3.118 -4.0418  1.7580  0.7787
 5728SOL     OW28819   3.711   1.688   7.149  0.5015 -0.2129  0.2710
 5728SOL    HW128820   3.746   1.700   7.237  2.9826 -1.2467 -0.5768
 5728SOL    HW228821   3.748   1.761   7.100 -0.0950 -0.2067 -0.1685
 5729SOL     OW28822   0.438   3.788  10.273  0.2112  0.3162  0.4058
 5729SOL    HW128823   0.360   3.815  10.223 -0.1761 -1.2738  0.1614
 5729SOL    HW228824   0.413   3.697  10.287 -0.4244  0.4078 -0.1189
 5730SOL     OW28825   0.669   2.826   4.529 -0.4171 -0.3497 -0.2445
 5730SOL    HW128826   0.614   2.797   4.456  0.3982 -0.5018 -0.7919
 5730SOL    HW228827   0.715   2.752   4.568  0.9127 -0.1753 -1.4774
 5731SOL     OW28828   4.330   0.056   7.163 -0.3353 -0.1107  0.4126
 5731SOL    HW128829   4.400   0.009   7.117 -0.8497  0.2667 -0.7586
 5731SOL    HW228830   4.259   4.730   7.146 -1.0659  0.9944 -0.5167
 5732SOL     OW28831   3.662   3.696   3.263  0.1488 -0.0574 -0.0137
 5732SOL    HW128832   3.739   3.685   3.318 -0.7220 -0.4120  1.1236
 5732SOL    HW228833   3.601   3.734   3.326 -0.9253 -1.6729 -0.0833
 5733SOL     OW28834   4.309   2.185   4.880 -0.2872 -0.0474 -0.3967
 5733SOL    HW128835   4.279   2.095   4.881 -1.0408  0.2059 -0.9180
 5733SOL    HW228836   4.397   2.176   4.842  0.5205  1.3075  1.1332
 5734SOL     OW28837   3.342   2.624   7.442 -0.3508 -0.2325 -0.3569
 5734SOL    HW128838   3.430   2.660   7.450 -0.2490 -0.6808  0.5212
 5734SOL    HW228839   3.338   2.601   7.535 -1.0968  0.1035 -0.3072
 5735SOL     OW28840   4.294   1.466   7.816  0.1469 -0.1649 -0.2983
 5735SOL    HW128841   4.382   1.441   7.789  0.4733 -0.4503  1.0547
 5735SOL    HW228842   4.305   1.476   7.910 -2.0760  0.1490 -0.0625
 5736SOL     OW28843   3.596   2.031   8.105 -0.2420  0.3820 -0.0490
 5736SOL    HW128844   3.618   2.093   8.174 -0.7877  1.3759 -0.7566
 5736SOL    HW228845   3.677   2.038   8.054 -0.1110  0.1905  0.1365
 5737SOL     OW28846   2.436   2.996  11.720 -0.0735 -0.6762 -0.0889
 5737SOL    HW128847   2.493   3.060  11.763 -1.5685  2.1350 -2.3484
 5737SOL    HW228848   2.360   3.052  11.708 -1.0076 -1.5518  1.7030
 5738SOL     OW28849   1.666   1.560   8.932 -0.5759 -0.1514 -0.6537
 5738SOL    HW128850   1.641   1.647   8.902 -0.8594 -0.4360 -1.2462
 5738SOL    HW228851   1.681   1.523   8.844 -0.6036 -1.4597 -0.1105
 5739SOL     OW28852   4.006   2.671   2.597  0.4276 -0.3647  0.1972
 5739SOL    HW128853   3.978   2.621   2.521 -1.2865  2.1577 -0.8142
 5739SOL    HW228854   3.927   2.721   2.617  1.1427  0.5667  0.7098
 5740SOL     OW28855   0.447   2.070   7.081 -0.2093  0.3391  0.2785
 5740SOL    HW128856   0.414   2.047   6.994  0.8347  1.4308 -0.4038
 5740SOL    HW228857   0.438   1.981   7.114  1.6146  0.9712  2.4072
 5741SOL     OW28858   2.309   0.780   9.203 -0.0487 -0.2470 -0.2640
 5741SOL    HW128859   2.300   0.686   9.188 -0.1210 -0.3432  0.3823
 5741SOL    HW228860   2.305   0.813   9.113  1.4451 -3.2543 -1.4611
 5742SOL     OW28861   1.248   2.358   8.284  0.2047  0.1834 -0.0815
 5742SOL    HW128862   1.280   2.268   8.280  0.1094  0.1431  0.0865
 5742SOL    HW228863   1.293   2.404   8.355  2.7015  0.9822 -2.2074
 5743SOL     OW28864   3.878   3.557   6.764  0.1130 -0.8185 -0.1822
 5743SOL    HW128865   3.921   3.472   6.774  0.9763 -0.4198 -0.5629
 5743SOL    HW228866   3.918   3.582   6.681 -0.2177 -0.4718 -0.2382
 5744SOL     OW28867   1.641   2.184   9.843  0.2591 -0.4418 -0.5350
 5744SOL    HW128868   1.625   2.130   9.921  1.8895  2.2631  1.6617
 5744SOL    HW228869   1.734   2.204   9.854 -0.1985  0.7144  1.2521
 5745SOL     OW28870   0.484   4.114   8.392 -0.0098  0.2857 -0.1202
 5745SOL    HW128871   0.535   4.048   8.440 -0.8511  0.2765  0.7417
 5745SOL    HW228872   0.413   4.132   8.453 -0.5069  1.4052 -1.0322
 5746SOL     OW28873   2.845   2.540   3.531  0.6496 -0.0209  0.5118
 5746SOL    HW128874   2.880   2.454   3.510  1.1747  0.2192  0.4020
 5746SOL    HW228875   2.886   2.581   3.455  0.0097  0.3264  0.3538
 5747SOL     OW28876   3.436   3.710   4.646 -0.0245 -0.1630  0.0080
 5747SOL    HW128877   3.524   3.730   4.678  0.7524  2.4006 -3.8369
 5747SOL    HW228878   3.411   3.634   4.700  1.1749 -1.8108 -1.7636
 5748SOL     OW28879   0.565   0.982  17.641 -0.0905 -0.1152  0.5003
 5748SOL    HW128880   0.520   0.935  17.711 -3.5684  2.6223  0.0995
 5748SOL    HW228881   0.596   0.910  17.586 -0.7855  1.3446 -1.8203
 5749SOL     OW28882   1.529   0.493   6.299  0.7224  0.0644  0.1175
 5749SOL    HW128883   1.440   0.494   6.334  0.3874  1.7772 -0.7740
 5749SOL    HW228884   1.522   0.555   6.227  1.8185 -0.7079 -0.6394
 5750SOL     OW28885   3.834   1.294   3.793  0.5000  0.1095  0.0412
 5750SOL    HW128886   3.780   1.235   3.845  2.8306 -0.8350  1.3754
 5750SOL    HW228887   3.915   1.286   3.843  1.4124  0.4012 -1.3941
 5751SOL     OW28888   2.691   2.337   5.577  0.6461 -0.0564  0.0004
 5751SOL    HW128889   2.644   2.254   5.579 -1.0333  0.9388  1.6929
 5751SOL    HW228890   2.707   2.348   5.671 -2.5239  1.7913  0.3286
 5752SOL     OW28891   2.111   3.247  10.002 -0.3165 -0.0067  1.3693
 5752SOL    HW128892   2.017   3.251  10.020 -0.7436 -2.1811 -0.4137
 5752SOL    HW228893   2.144   3.197  10.077 -1.4552 -1.3083  0.9959
 5753SOL     OW28894   1.205   0.043  15.177  0.3041  0.5747  0.2058
 5753SOL    HW128895   1.174   4.708  15.120  0.7230  1.0511 -0.6214
 5753SOL    HW228896   1.258   0.088  15.111 -0.3096  0.2887 -0.4804
 5754SOL     OW28897   1.615   1.294  11.290 -0.6802 -0.3813 -0.5549
 5754SOL    HW128898   1.585   1.343  11.367 -1.0254 -0.2394 -0.7842
 5754SOL    HW228899   1.700   1.261  11.319 -1.2026 -1.3639 -0.1376
 5755SOL     OW28900   0.245   4.058   2.956  0.0909 -0.8849  0.0117
 5755SOL    HW128901   0.223   3.965   2.960  0.2759 -0.8606  1.5261
 5755SOL    HW228902   0.341   4.054   2.958  0.1543  1.5679  1.9659
 5756SOL     OW28903   4.249   1.602   5.419 -0.6939  0.3468  0.2612
 5756SOL    HW128904   4.245   1.596   5.323 -1.6111  0.6666  0.2816
 5756SOL    HW228905   4.301   1.523   5.437  1.0423  0.9743 -1.8758
 5757SOL     OW28906   0.199   4.199   5.435  0.4014 -0.0890 -0.2885
 5757SOL    HW128907   0.159   4.129   5.486 -0.4434  0.3336 -0.3701
 5757SOL    HW228908   0.176   4.171   5.347  0.0501  1.2202 -0.6190
 5758SOL     OW28909   4.585   2.838   2.945 -0.4661  0.5738 -0.1331
 5758SOL    HW128910   4.529   2.891   3.001  0.4755 -0.1420  1.4703
 5758SOL    HW228911   4.523   2.769   2.920  0.1296  0.0811 -0.2500
 5759SOL     OW28912   3.327   1.976  14.782  0.3865  0.3925  0.1598
 5759SOL    HW128913   3.332   2.004  14.691 -0.2251 -0.9337 -0.2781
 5759SOL    HW228914   3.328   1.880  14.778  0.4433  0.4498 -1.3054
 5760SOL     OW28915   1.939   0.559   1.822 -0.0970  0.3319  0.4642
 5760SOL    HW128916   1.952   0.526   1.911  3.7675  0.4002 -0.0797
 5760SOL    HW228917   1.920   0.479   1.772  3.2889  0.3774 -0.8950
 5761SOL     OW28918   3.690   2.036   4.661 -0.0161  0.2309 -0.3159
 5761SOL    HW128919   3.696   1.966   4.726  2.5202  0.5931 -0.1307
 5761SOL    HW228920   3.637   2.106   4.699  1.6796 -0.0395  2.6304
 5762SOL     OW28921   2.215   4.539   3.239 -0.0394 -0.2233  0.0610
 5762SOL    HW128922   2.169   4.621   3.222 -0.8866 -0.4324  1.3386
 5762SOL    HW228923   2.196   4.531   3.333 -1.1641  0.8899 -0.0689
 5763SOL     OW28924   3.157   2.100   5.818 -0.4895 -0.3651  0.0924
 5763SOL    HW128925   3.128   2.155   5.891  1.6744 -0.5536  1.0983
 5763SOL    HW228926   3.200   2.172   5.772 -1.3057  0.1317  0.1078
 5764SOL     OW28927   0.774   2.199   7.640  0.1611  0.5030 -0.3330
 5764SOL    HW128928   0.808   2.289   7.642  2.4488 -0.3570 -0.3001
 5764SOL    HW228929   0.733   2.213   7.554  1.2528 -2.5561 -1.3413
 5765SOL     OW28930   4.495   4.063   2.290 -0.2012 -0.1002 -0.9333
 5765SOL    HW128931   4.590   4.068   2.277  0.1704  0.5255  1.9856
 5765SOL    HW228932   4.474   4.153   2.267  2.4766  0.9512  0.6772
 5766SOL     OW28933   3.144   3.839   2.052 -0.0210 -0.3373  0.0485
 5766SOL    HW128934   3.207   3.788   2.001 -1.2993 -1.5437 -0.3238
 5766SOL    HW228935   3.213   3.889   2.097 -1.9211  0.7847  1.6965
 5767SOL     OW28936   0.941   2.105  13.507  0.0764 -0.3358 -0.1780
 5767SOL    HW128937   0.943   2.011  13.525 -1.1187 -0.6978 -1.9696
 5767SOL    HW228938   1.019   2.112  13.451 -0.8110  1.0901 -1.2402
 5768SOL     OW28939   3.167   3.888   7.391 -0.2822 -0.1014 -0.0365
 5768SOL    HW128940   3.095   3.937   7.350 -0.1777  0.4928  0.4917
 5768SOL    HW228941   3.157   3.810   7.336  0.0372  0.9323 -1.5696
 5769SOL     OW28942   3.971   0.428   5.678  0.0888 -0.4457 -0.1466
 5769SOL    HW128943   3.904   0.369   5.644 -1.8971  1.9455 -0.3683
 5769SOL    HW228944   3.973   0.401   5.770  0.4606  1.3054  0.3691
 5770SOL     OW28945   0.072   4.591   2.604 -0.2032  0.0615 -0.3557
 5770SOL    HW128946   0.064   4.677   2.646 -0.9434  0.7474 -1.9344
 5770SOL    HW228947   0.081   4.613   2.512  0.4419  1.5680  0.0734
 5771SOL     OW28948   1.916   3.955   6.889 -0.5416  0.0054 -0.1452
 5771SOL    HW128949   1.945   3.874   6.931  1.2529  1.9295  2.2975
 5771SOL    HW228950   1.868   3.990   6.964 -0.4660  0.6296 -0.3864
 5772SOL     OW28951   0.023   0.843   2.865  0.1735  0.4638  0.0230
 5772SOL    HW128952   0.087   0.874   2.929  1.9129  0.3787 -1.6967
 5772SOL    HW228953   0.032   0.918   2.807 -1.2059  0.8798  0.3257
 5773SOL     OW28954   3.856   3.936  16.185  0.3269  0.4040  0.1016
 5773SOL    HW128955   3.844   3.951  16.091 -0.3868 -1.0372 -0.0440
 5773SOL    HW228956   3.777   3.957  16.236 -1.0498 -3.2858 -0.5451
 5774SOL     OW28957   0.870   2.423   1.937  0.2748 -0.3069  0.4270
 5774SOL    HW128958   0.915   2.373   1.869  0.7100  0.4515  0.1619
 5774SOL    HW228959   0.901   2.380   2.017 -0.3814 -0.2084  0.7291
 5775SOL     OW28960   1.288   1.790   9.523  0.6472  0.2434 -0.2901
 5775SOL    HW128961   1.205   1.838   9.515  0.3598 -0.5566 -2.0383
 5775SOL    HW228962   1.349   1.854   9.485  0.3930  0.0181 -1.0840
 5776SOL     OW28963   3.205   1.773   6.964  0.4864 -0.2263 -0.1826
 5776SOL    HW128964   3.209   1.688   7.006  0.3606 -0.2196 -0.1583
 5776SOL    HW228965   3.287   1.807   6.999  0.1411 -1.6821  2.0128
 5777SOL     OW28966   2.916   3.382   4.273  0.0757  0.2356 -0.4369
 5777SOL    HW128967   2.927   3.287   4.278 -1.2151  0.1409  0.4600
 5777SOL    HW228968   2.859   3.392   4.349  0.5688 -0.2485 -0.0022
 5778SOL     OW28969   2.632   3.860   5.209 -0.4725  0.0787  0.2048
 5778SOL    HW128970   2.659   3.928   5.148 -0.2544  0.3390  0.5990
 5778SOL    HW228971   2.552   3.902   5.239 -0.8659  0.1330 -0.9218
 5779SOL     OW28972   2.972   0.854   7.941  0.0950 -0.7058 -0.2491
 5779SOL    HW128973   2.929   0.835   8.024 -0.5620  2.7562  0.2101
 5779SOL    HW228974   2.986   0.763   7.914 -0.8760 -1.5113  2.0138
 5780SOL     OW28975   2.741   4.231   5.228 -0.1722  0.9017 -0.1667
 5780SOL    HW128976   2.786   4.211   5.310  1.2796 -2.0495 -1.6506
 5780SOL    HW228977   2.812   4.230   5.164 -1.2938 -0.8323 -1.3848
 5781SOL     OW28978   4.239   2.908  11.336  0.7268  0.4458 -0.4482
 5781SOL    HW128979   4.327   2.945  11.333  0.0959  2.0150  0.3609
 5781SOL    HW228980   4.198   2.966  11.400 -1.4790 -0.5646 -0.9264
 5782SOL     OW28981   0.998   2.883   6.892  0.0434 -0.1850  0.4599
 5782SOL    HW128982   1.009   2.801   6.844 -1.2967  0.2553 -0.6163
 5782SOL    HW228983   0.907   2.859   6.912 -0.1155 -1.8951 -2.3507
 5783SOL     OW28984   3.617   2.729   1.398  0.5262  0.4256 -0.1712
 5783SOL    HW128985   3.582   2.811   1.365 -0.8271 -0.0918 -0.0342
 5783SOL    HW228986   3.710   2.751   1.405  0.5734  0.3928 -0.7194
 5784SOL     OW28987   3.584   2.843   6.948 -0.1297  0.2775 -0.1491
 5784SOL    HW128988   3.572   2.815   7.038  3.0119 -2.0287 -0.4675
 5784SOL    HW228989   3.675   2.870   6.947 -0.7900  2.5160 -1.3642
 5785SOL     OW28990   0.585   2.611   2.321 -0.2217 -0.0413  0.9651
 5785SOL    HW128991   0.530   2.686   2.345  1.1024  0.4583  2.4497
 5785SOL    HW228992   0.541   2.545   2.373  0.6662 -2.0744 -0.8568
 5786SOL     OW28993   4.579   0.226   2.909 -0.4066 -0.4136 -0.2948
 5786SOL    HW128994   4.596   0.198   2.999  0.8939  0.6727 -0.2107
 5786SOL    HW228995   4.646   0.183   2.857  0.2508  1.7022 -1.1876
 5787SOL     OW28996   2.628   3.311   8.288 -0.6064 -0.0577 -0.2509
 5787SOL    HW128997   2.595   3.272   8.207  2.6354  0.1470 -1.6676
 5787SOL    HW228998   2.706   3.256   8.288  0.5743  1.6655 -5.1612
 5788SOL     OW28999   3.842   3.977   0.505 -0.4386 -0.4219  0.5105
 5788SOL    HW129000   3.806   3.934   0.428 -0.9006  1.7319 -0.4744
 5788SOL    HW229001   3.928   3.936   0.503 -0.5690 -0.6661  0.0639
 5789SOL     OW29002   2.384   2.065  10.328  0.5413 -0.3272  0.1302
 5789SOL    HW129003   2.384   2.151  10.285 -0.2692 -1.0670 -1.3647
 5789SOL    HW229004   2.303   2.018  10.312  1.1069 -1.6444  1.1527
 5790SOL     OW29005   3.068   0.494   2.367  0.4001  0.3850 -0.4349
 5790SOL    HW129006   3.020   0.566   2.325 -1.0990  0.4376  1.3359
 5790SOL    HW229007   2.995   0.444   2.403  1.2313  1.1546  2.3883
 5791SOL     OW29008   3.043   3.162   8.157 -0.0221 -0.6340  0.5346
 5791SOL    HW129009   3.049   3.070   8.129  0.2862 -0.0442 -1.3313
 5791SOL    HW229010   3.130   3.195   8.180 -0.0027 -0.8109  0.7165
 5792SOL     OW29011   4.020   0.077   8.999  0.0969  0.0348 -0.3683
 5792SOL    HW129012   3.926   0.088   9.016  0.0087  0.0652 -0.8923
 5792SOL    HW229013   4.046   4.735   9.049 -0.2116  1.1685  1.5660
 5793SOL     OW29014   0.725   0.975   3.667  0.4493  0.1427 -0.0672
 5793SOL    HW129015   0.772   0.924   3.602 -1.3575  1.3991 -2.3592
 5793SOL    HW229016   0.675   0.902   3.703 -2.1019  1.0136 -1.8296
 5794SOL     OW29017   3.023   3.365   5.985  0.2563  0.0801  0.3207
 5794SOL    HW129018   2.946   3.308   5.980 -1.0890  2.1119 -1.9636
 5794SOL    HW229019   2.990   3.425   6.052  1.1916 -0.4751  1.2771
 5795SOL     OW29020   1.347   1.697   9.052 -0.7074  0.0778 -0.4457
 5795SOL    HW129021   1.357   1.765   8.986  0.3832  0.6712  0.3218
 5795SOL    HW229022   1.359   1.611   9.011 -1.9739  1.2723 -3.2285
 5796SOL     OW29023   2.503   1.914   1.801 -0.6316 -0.8926  0.4780
 5796SOL    HW129024   2.484   1.992   1.853 -0.9661  0.9535 -2.3972
 5796SOL    HW229025   2.448   1.840   1.828 -1.3894 -0.6307 -0.3498
 5797SOL     OW29026   1.057   1.326   3.247 -0.4559  0.0251  0.5248
 5797SOL    HW129027   1.012   1.254   3.291 -1.2529  1.0603  1.3921
 5797SOL    HW229028   1.074   1.285   3.162  2.6005  2.2639  0.0177
 5798SOL     OW29029   1.146   3.125   1.955 -0.6044 -0.0575 -0.1881
 5798SOL    HW129030   1.071   3.080   1.917 -0.4356 -0.4609 -0.0403
 5798SOL    HW229031   1.111   3.214   1.942  1.2671  0.7719  0.5015
 5799SOL     OW29032   2.549   1.323   5.295  0.6825 -0.0006 -0.1755
 5799SOL    HW129033   2.495   1.261   5.343  0.3728  0.7611  0.4489
 5799SOL    HW229034   2.634   1.299   5.332  0.8300  1.8309  0.6249
 5800SOL     OW29035   0.087   0.103   2.785 -0.3945 -0.3105  0.0999
 5800SOL    HW129036   0.120   0.017   2.807 -0.8534 -1.0786 -2.2321
 5800SOL    HW229037   0.156   0.162   2.816 -0.7679  0.7615 -1.1309
 5801SOL     OW29038   4.317   2.129   3.902  0.2169  0.4898  0.1001
 5801SOL    HW129039   4.266   2.094   3.974 -0.5116  1.8744  0.2528
 5801SOL    HW229040   4.258   2.202   3.884  0.5164  0.2251 -1.9892
 5802SOL     OW29041   1.339   0.499   7.378 -0.3230  0.1400 -0.2287
 5802SOL    HW129042   1.253   0.475   7.343  0.0755 -1.4866 -0.0784
 5802SOL    HW229043   1.338   0.441   7.454 -1.6814 -0.4465 -0.7000
 5803SOL     OW29044   0.871   2.880   7.492  0.1240 -0.1710 -0.2573
 5803SOL    HW129045   0.867   2.831   7.410 -0.3239  1.0782 -0.9766
 5803SOL    HW229046   0.815   2.823   7.544  3.7997 -2.6675  0.9436
 5804SOL     OW29047   0.173   1.488   7.228  0.1649 -0.3656 -0.2739
 5804SOL    HW129048   0.128   1.543   7.292  1.8353 -0.3394  0.8955
 5804SOL    HW229049   0.229   1.555   7.187  0.5940 -0.0488  0.8109
 5805SOL     OW29050   2.264   0.474   5.916  0.4010  0.3914 -0.1961
 5805SOL    HW129051   2.348   0.450   5.955 -0.1366 -0.9918  0.0777
 5805SOL    HW229052   2.205   0.414   5.960  0.5122 -0.5219 -1.3086
 5806SOL     OW29053   2.701   0.134   5.875 -0.3925 -0.6807  0.9749
 5806SOL    HW129054   2.631   0.200   5.876  1.1800  1.0011 -0.2155
 5806SOL    HW229055   2.700   0.103   5.966  3.9645 -3.1880  0.1370
 5807SOL     OW29056   2.377   4.007   0.982 -0.3846 -0.0226  0.1500
 5807SOL    HW129057   2.378   4.028   1.075  0.4193  1.6602 -0.2435
 5807SOL    HW229058   2.354   4.093   0.949  0.0285 -0.4213 -1.1793
 5808SOL     OW29059   2.161   3.441  16.872 -0.0759 -0.2896  0.2248
 5808SOL    HW129060   2.085   3.494  16.898  1.7490  1.1994  2.5375
 5808SOL    HW229061   2.121   3.383  16.808 -1.9586  1.8634 -0.5536
 5809SOL     OW29062   3.190   2.009   4.166 -0.0590  0.4948  0.1291
 5809SOL    HW129063   3.247   2.062   4.109 -1.5389  0.2146 -1.5888
 5809SOL    HW229064   3.184   1.935   4.106  1.4822  1.9743 -1.8835
 5810SOL     OW29065   4.585   3.204   3.184 -0.0344 -0.1843 -0.2329
 5810SOL    HW129066   4.571   3.115   3.214 -0.2806  0.4695  1.5643
 5810SOL    HW229067   4.513   3.216   3.122  1.0202 -2.0508 -1.8292
 5811SOL     OW29068   4.122   3.510  12.377  0.3279  0.4244  0.3643
 5811SOL    HW129069   4.114   3.436  12.316 -0.7368  0.6875  0.1860
 5811SOL    HW229070   4.217   3.509  12.382  0.2418 -0.6649  1.7430
 5812SOL     OW29071   1.733   2.115   2.658 -0.1547 -0.0649  0.0124
 5812SOL    HW129072   1.747   2.057   2.733  1.6707  0.5884  0.1787
 5812SOL    HW229073   1.765   2.201   2.685 -0.1203  0.1018 -0.5729
 5813SOL     OW29074   0.296   2.952  17.707 -0.0300 -0.4037  0.4924
 5813SOL    HW129075   0.334   2.868  17.733  1.6140  0.1687 -0.0610
 5813SOL    HW229076   0.264   2.977   0.054 -1.2189 -0.3289  0.0390
 5814SOL     OW29077   0.700   1.165   6.903 -0.1529  0.0592 -0.1008
 5814SOL    HW129078   0.679   1.115   6.982  0.0849 -0.2566 -0.2407
 5814SOL    HW229079   0.761   1.228   6.940 -0.6714  1.3190 -1.3849
 5815SOL     OW29080   1.288   4.632   8.035  0.5354  0.1595  0.7593
 5815SOL    HW129081   1.197   4.629   8.006  1.1631  2.0369 -1.4012
 5815SOL    HW229082   1.331   4.564   7.984  0.0016  0.7878 -0.5261
 5816SOL     OW29083   4.154   0.026   6.135  0.4868  0.0985 -0.0368
 5816SOL    HW129084   4.178   0.016   6.227  1.6046 -3.8819 -0.7486
 5816SOL    HW229085   4.092   0.097   6.151  0.9015  0.0621  1.6863
 5817SOL     OW29086   2.222   2.371   2.536  0.4050  0.1895  0.1490
 5817SOL    HW129087   2.164   2.444   2.514  1.6096  0.6517 -1.4462
 5817SOL    HW229088   2.197   2.301   2.476 -0.9066  0.6474  0.1583
 5818SOL     OW29089   1.543   0.969   4.049  0.1074  0.1503 -0.8069
 5818SOL    HW129090   1.606   0.916   3.998  0.5454 -1.0435  0.9797
 5818SOL    HW229091   1.586   0.966   4.134  1.2752  1.7075 -1.3447
 5819SOL     OW29092   2.606   0.415   4.689 -0.2848  0.3300 -0.1566
 5819SOL    HW129093   2.546   0.360   4.638  0.0226 -2.3754  2.3656
 5819SOL    HW229094   2.677   0.432   4.627 -1.5492 -1.7895 -2.2163
 5820SOL     OW29095   1.038   0.957   5.622 -0.3607  0.4137  0.2264
 5820SOL    HW129096   1.039   0.879   5.566  2.5560  0.7376 -0.1446
 5820SOL    HW229097   1.130   0.975   5.641  0.1323 -3.3035  1.2400
 5821SOL     OW29098   3.952   2.192   2.355  0.1961  0.0053 -0.3413
 5821SOL    HW129099   4.047   2.196   2.349  0.0864  1.0880 -1.2489
 5821SOL    HW229100   3.948   2.108   2.401 -2.2480  1.5547  2.3383
 5822SOL     OW29101   3.798   0.041   5.699  0.1663 -0.4524  0.1755
 5822SOL    HW129102   3.782   0.125   5.743 -0.2831 -0.5922  0.2788
 5822SOL    HW229103   3.760   4.713   5.759 -1.9048 -1.3389 -2.0623
 5823SOL     OW29104   4.655   1.807  15.633  0.6815  0.2674 -0.1813
 5823SOL    HW129105   4.702   1.829  15.713 -0.7442 -0.9872  0.9836
 5823SOL    HW229106   4.572   1.854  15.634  0.8510  0.5446  0.6216
 5824SOL     OW29107   3.448   4.603   7.230  0.1305 -0.2395  0.0773
 5824SOL    HW129108   3.368   4.556   7.207  0.5769 -0.3469 -1.2626
 5824SOL    HW229109   3.436   4.648   7.313 -1.6661  0.2016 -0.4181
 5825SOL     OW29110   1.040   0.320   5.180 -0.1683 -0.9124 -0.2386
 5825SOL    HW129111   1.015   0.402   5.223  1.9675 -0.5634  0.3419
 5825SOL    HW229112   1.089   0.363   5.111 -1.3242  1.3053  0.3297
 5826SOL     OW29113   1.739   4.332   2.481  0.6244 -0.0843 -0.0099
 5826SOL    HW129114   1.681   4.261   2.507  1.2472 -0.1390  1.2692
 5826SOL    HW229115   1.816   4.287   2.447  1.6076  1.0688  0.6700
 5827SOL     OW29116   4.367   3.508  17.508  0.0195  0.2534 -1.2916
 5827SOL    HW129117   4.330   3.443  17.567  1.1431  0.0445 -0.8204
 5827SOL    HW229118   4.374   3.584  17.565 -1.6542  0.1846 -0.9804
 5828SOL     OW29119   2.616   2.559   7.442 -0.3047 -0.0368  0.1411
 5828SOL    HW129120   2.673   2.520   7.509  0.2869  0.1350 -0.2625
 5828SOL    HW229121   2.587   2.483   7.391  1.2931 -0.5223 -0.0447
 5829SOL     OW29122   1.643   0.241   3.925 -0.6575  0.0856  0.2856
 5829SOL    HW129123   1.587   0.164   3.916  0.1558 -0.4327 -0.3775
 5829SOL    HW229124   1.580   0.308   3.898 -1.4003 -1.8301 -2.7545
 5830SOL     OW29125   1.785   3.016   8.834  0.5800  0.0395 -0.0246
 5830SOL    HW129126   1.861   2.957   8.836  0.2007 -0.4483 -0.2159
 5830SOL    HW229127   1.767   3.020   8.928  0.4590  1.6844 -0.1235
 5831SOL     OW29128   4.451   1.007   6.375  0.0164 -0.1598 -0.8722
 5831SOL    HW129129   4.396   1.005   6.454  0.1090 -0.0370 -0.8056
 5831SOL    HW229130   4.495   0.924   6.395  0.2592  0.4919  1.3622
 5832SOL     OW29131   2.678   1.253   9.056  0.4398  0.1470 -0.1640
 5832SOL    HW129132   2.745   1.317   9.077 -1.1639  1.8625 -0.2921
 5832SOL    HW229133   2.597   1.304   9.048  1.1888  1.9687  3.7174
 5833SOL     OW29134   0.453   3.075   9.572 -0.0391  0.2719  0.7467
 5833SOL    HW129135   0.406   3.010   9.520  2.3853  0.8145 -2.1065
 5833SOL    HW229136   0.448   3.038   9.660 -2.0932  0.7918  0.8399
 5834SOL     OW29137   0.860   1.851  15.026  0.2367 -0.3171  0.1050
 5834SOL    HW129138   0.839   1.924  14.968 -1.2472  0.7112  1.9289
 5834SOL    HW229139   0.817   1.780  14.978  1.5914 -1.1242  0.0710
 5835SOL     OW29140   1.866   3.641  15.614 -0.0856 -0.2165 -0.0638
 5835SOL    HW129141   1.794   3.578  15.604  0.9403 -1.4750  0.4690
 5835SOL    HW229142   1.834   3.704  15.679 -2.4231 -2.0388  0.5792
 5836SOL     OW29143   4.307   1.648  11.247  0.2183  0.0224  0.4733
 5836SOL    HW129144   4.228   1.631  11.195  1.4913 -0.6183 -1.2202
 5836SOL    HW229145   4.376   1.602  11.200  0.4250  1.9179 -1.0565
 5837SOL     OW29146   0.370   1.382   7.424 -0.5973 -0.3410 -0.4384
 5837SOL    HW129147   0.281   1.417   7.419 -0.7602 -0.2391  3.0488
 5837SOL    HW229148   0.387   1.391   7.518 -0.4414  3.0870 -0.7836
 5838SOL     OW29149   2.172   2.009   1.980 -0.3318  0.0064  0.0828
 5838SOL    HW129150   2.187   1.947   2.051 -1.5735  0.9832  1.2043
 5838SOL    HW229151   2.208   2.090   2.017  1.0199 -0.4620 -0.2020
 5839SOL     OW29152   1.392   1.610   6.099 -0.1930 -0.1968 -0.3610
 5839SOL    HW129153   1.360   1.576   6.182  2.1684  1.7672  1.3672
 5839SOL    HW229154   1.308   1.627   6.055  0.6146 -1.5329 -2.4162
 5840SOL     OW29155   4.507   1.696   9.397  0.1022  0.0503 -0.2479
 5840SOL    HW129156   4.496   1.601   9.389 -1.5135  0.1680  0.6147
 5840SOL    HW229157   4.444   1.731   9.335 -0.1444  2.0855  1.1509
 5841SOL     OW29158   0.581   4.106  12.008  0.0095  0.4885 -0.4139
 5841SOL    HW129159   0.621   4.150  12.083  1.0368 -0.4321 -0.4339
 5841SOL    HW229160   0.663   4.078  11.967 -0.3529  1.2270 -1.6518
 5842SOL     OW29161   3.603   0.424   6.020 -0.3513 -0.4574  0.4959
 5842SOL    HW129162   3.521   0.431   6.069  0.5318 -0.3089  1.9223
 5842SOL    HW229163   3.611   0.516   5.997 -1.0216 -0.5852 -0.2755
 5843SOL     OW29164   0.144   3.966   5.536  0.0105 -0.2128  0.0966
 5843SOL    HW129165   0.214   3.911   5.501  1.0681 -0.7471  2.9745
 5843SOL    HW229166   0.067   3.910   5.532 -1.1309  1.3616  0.0674
 5844SOL     OW29167   1.608   3.678   8.665 -0.6396 -0.0283 -0.5098
 5844SOL    HW129168   1.650   3.650   8.747 -1.8739  1.6696  0.7001
 5844SOL    HW229169   1.683   3.716   8.620  0.1266 -0.4689  0.3960
 5845SOL     OW29170   3.394   0.040   7.457  0.1761  0.1096 -0.6797
 5845SOL    HW129171   3.451   0.030   7.533 -1.1898 -0.9680  0.2097
 5845SOL    HW229172   3.407   0.131   7.430 -1.4374  0.5461 -0.0175
 5846SOL     OW29173   4.509   4.492   3.509 -0.2967  0.3668 -0.0762
 5846SOL    HW129174   4.553   4.494   3.423 -1.7769  1.2708 -0.8054
 5846SOL    HW229175   4.563   4.554   3.560  2.2257 -1.1985 -0.8233
 5847SOL     OW29176   1.147   0.057   6.830 -0.3462  0.2465 -0.5201
 5847SOL    HW129177   1.160   0.101   6.914  2.6047 -0.8284 -0.4162
 5847SOL    HW229178   1.053   0.036   6.822 -0.1296 -1.2106  0.6048
 5848SOL     OW29179   0.700   3.648   8.643  0.7680  0.6063 -0.2198
 5848SOL    HW129180   0.763   3.655   8.714 -1.8062 -0.1201  2.1338
 5848SOL    HW229181   0.740   3.714   8.586  3.8661 -1.0266  0.1198
 5849SOL     OW29182   1.349   3.933   9.577 -0.0950 -0.4308 -0.3271
 5849SOL    HW129183   1.382   3.856   9.625 -1.3187 -1.7393 -1.5668
 5849SOL    HW229184   1.254   3.928   9.589 -0.1746  0.5954 -0.5460
 5850SOL     OW29185   4.415   3.683   4.213  0.0084  0.0134 -0.8892
 5850SOL    HW129186   4.324   3.662   4.233  0.1868  0.0115 -0.0829
 5850SOL    HW229187   4.465   3.610   4.249 -0.4506 -1.1814 -2.6914
 5851SOL     OW29188   0.120   1.642   4.380 -0.2341 -0.3069 -0.3249
 5851SOL    HW129189   0.110   1.582   4.454 -2.8142  0.8793  0.2839
 5851SOL    HW229190   0.032   1.633   4.344  0.5496  0.3658 -2.3854
 5852SOL     OW29191   2.564   3.367  12.754 -0.0640  0.2771  0.1148
 5852SOL    HW129192   2.618   3.425  12.809 -2.0060  1.5783  0.6523
 5852SOL    HW229193   2.533   3.305  12.820 -1.3198 -0.6541 -1.3710
 5853SOL     OW29194   1.905   1.879  12.474 -0.4770 -0.1201 -0.7967
 5853SOL    HW129195   1.974   1.897  12.409 -1.3516 -3.9889 -2.8259
 5853SOL    HW229196   1.954   1.891  12.555 -0.1412  1.5844 -1.2504
 5854SOL     OW29197   4.218   1.270  13.508 -0.5813 -0.1435  0.2400
 5854SOL    HW129198   4.209   1.210  13.434 -0.9368  1.2962 -0.8605
 5854SOL    HW229199   4.227   1.204  13.577  0.3938 -1.2911 -0.9763
 5855SOL     OW29200   0.319   1.177   6.128 -0.6854  0.3893  0.4584
 5855SOL    HW129201   0.282   1.102   6.175 -1.9194 -0.3151 -1.6328
 5855SOL    HW229202   0.246   1.202   6.072  0.2074  0.9543 -0.4540
 5856SOL     OW29203   2.525   0.861   3.887 -0.2698  0.4967 -0.0232
 5856SOL    HW129204   2.545   0.931   3.950  1.5467  0.7047 -0.8370
 5856SOL    HW229205   2.542   0.785   3.942  3.1418  2.1491  1.2470
 5857SOL     OW29206   2.399   1.124   8.272  0.4367 -0.4852 -0.1833
 5857SOL    HW129207   2.398   1.208   8.317 -0.4039  0.2483 -1.5693
 5857SOL    HW229208   2.482   1.084   8.298  0.6050  0.7432  1.1889
 5858SOL     OW29209   1.839   3.220   5.883  0.0953  0.0320  0.0718
 5858SOL    HW129210   1.829   3.204   5.789  0.6718  0.3646 -0.0478
 5858SOL    HW229211   1.815   3.132   5.910  1.0695 -0.5802 -1.0554
 5859SOL     OW29212   0.339   1.937  17.658 -0.9144  0.3343 -0.0705
 5859SOL    HW129213   0.428   1.935  17.693  0.2828  2.6455 -2.9628
 5859SOL    HW229214   0.330   1.849  17.623 -1.2868  0.8724 -1.3275
 5860SOL     OW29215   2.472   2.296  13.671 -0.4114 -0.2103  0.2248
 5860SOL    HW129216   2.512   2.380  13.694 -0.7508 -0.4530  1.7228
 5860SOL    HW229217   2.407   2.324  13.607 -1.7694  0.4177  1.8772
 5861SOL     OW29218   1.841   1.104  12.973  0.2931  0.6307 -0.1050
 5861SOL    HW129219   1.833   1.030  13.033 -0.0689  0.6889 -0.0854
 5861SOL    HW229220   1.825   1.063  12.888 -0.4019  0.5985  0.0421
 5862SOL     OW29221   2.544   4.130   8.781  0.2135  0.3631  0.4596
 5862SOL    HW129222   2.609   4.085   8.727  0.0683  0.5583  0.1304
 5862SOL    HW229223   2.459   4.112   8.741  0.1290  1.1343  0.3072
 5863SOL     OW29224   4.319   1.481   4.547 -0.8211 -0.6377  0.0842
 5863SOL    HW129225   4.382   1.508   4.614 -0.3351 -2.1760  0.2459
 5863SOL    HW229226   4.306   1.564   4.502  2.7416 -0.6516 -0.9759
 5864SOL     OW29227   1.790   1.234  11.567  0.3753 -0.1829 -0.4351
 5864SOL    HW129228   1.803   1.187  11.649  1.7589 -1.1813 -1.2279
 5864SOL    HW229229   1.881   1.252  11.542  0.3183 -0.2355 -0.6753
 5865SOL     OW29230   1.359   1.156  16.869  0.3109  0.0402  0.2703
 5865SOL    HW129231   1.299   1.110  16.810 -0.1765 -0.3766  1.0990
 5865SOL    HW229232   1.300   1.209  16.923  0.3910  2.0863 -1.6283
 5866SOL     OW29233   3.911   2.502   7.427 -0.0241 -0.2619  0.2778
 5866SOL    HW129234   3.968   2.580   7.426  0.9799 -1.0145 -1.5730
 5866SOL    HW229235   3.825   2.542   7.413  0.1945 -0.3842 -1.4049
 5867SOL     OW29236   3.066   0.844  11.625  0.0557  0.6218 -0.1980
 5867SOL    HW129237   3.024   0.898  11.558  0.5351  0.6620 -0.4692
 5867SOL    HW229238   3.154   0.882  11.625  0.0609  0.6127  0.1984
 5868SOL     OW29239   0.218   2.366  16.203  0.6507 -0.2222 -0.2043
 5868SOL    HW129240   0.150   2.311  16.242  1.1231  0.4980  1.6449
 5868SOL    HW229241   0.234   2.338  16.113 -2.0064 -0.7957 -0.4835
 5869SOL     OW29242   3.435   0.794  14.117  0.5132 -0.4983  0.1366
 5869SOL    HW129243   3.397   0.707  14.125  1.2276 -0.4838  3.8853
 5869SOL    HW229244   3.487   0.790  14.036  0.1703 -0.1577 -0.1026
 5870SOL     OW29245   4.104   0.282   2.602 -0.1680 -0.2704  0.1149
 5870SOL    HW129246   4.159   0.359   2.617  0.1011 -0.2777 -0.8307
 5870SOL    HW229247   4.017   0.322   2.602  0.3173  0.7897 -0.3805
 5871SOL     OW29248   1.241   2.496   0.851  0.0470 -0.0286 -0.0098
 5871SOL    HW129249   1.336   2.498   0.842  0.1338 -3.3024  0.1160
 5871SOL    HW229250   1.225   2.466   0.940  2.6526 -0.1815  0.4074
 5872SOL     OW29251   0.542   1.986   9.441  0.1562 -0.1995 -0.0513
 5872SOL    HW129252   0.610   2.007   9.376  0.3883  0.6691  0.4669
 5872SOL    HW229253   0.573   2.050   9.505 -1.0505  0.5340 -0.2162
 5873SOL     OW29254   0.615   0.210   6.586  0.7733 -0.0533  0.1270
 5873SOL    HW129255   0.632   0.264   6.663  2.2772 -0.8339  0.3586
 5873SOL    HW229256   0.706   0.196   6.559  1.2475  0.7650  1.3458
 5874SOL     OW29257   3.157   4.111   4.134  0.1020  0.0513 -0.3728
 5874SOL    HW129258   3.249   4.135   4.136 -0.1331  0.9704 -0.8570
 5874SOL    HW229259   3.150   4.050   4.208 -0.7650  1.2801  0.5500
 5875SOL     OW29260   4.048   1.121  17.160  0.0760  0.5050 -0.2963
 5875SOL    HW129261   4.011   1.033  17.148  1.2701 -0.2870  1.7825
 5875SOL    HW229262   3.973   1.179  17.172  0.8901  1.1784  1.4843
 5876SOL     OW29263   1.511   3.364  13.323  0.1236 -0.2447  0.1269
 5876SOL    HW129264   1.560   3.317  13.390  0.2653 -0.6990 -0.2940
 5876SOL    HW229265   1.577   3.369  13.253  1.6690  2.6620  1.7673
 5877SOL     OW29266   3.260   2.471  13.632 -0.3418  0.5227  0.1412
 5877SOL    HW129267   3.271   2.470  13.537 -0.6922  0.7946  0.0958
 5877SOL    HW229268   3.244   2.566  13.636  0.7293  0.6541  1.1001
 5878SOL     OW29269   1.126   1.540  14.481  0.4025 -0.4271 -0.3534
 5878SOL    HW129270   1.060   1.489  14.527 -0.6069  1.5149  0.3839
 5878SOL    HW229271   1.158   1.600  14.549 -0.6418 -1.8406  1.3731
 5879SOL     OW29272   3.827   2.303   7.902 -0.2785 -0.4623  0.5735
 5879SOL    HW129273   3.851   2.381   7.951  1.6773 -0.0578 -1.0413
 5879SOL    HW229274   3.871   2.315   7.818  0.0320 -1.9547  0.5154
 5880SOL     OW29275   4.031   0.635  17.058 -0.3189  0.1353 -0.1204
 5880SOL    HW129276   3.957   0.582  17.030 -1.0882 -0.7644  3.5468
 5880SOL    HW229277   4.099   0.588  17.009  1.4665  2.3524  0.2268
 5881SOL     OW29278   0.188   0.657   4.884  0.2801 -0.2615 -0.1004
 5881SOL    HW129279   0.201   0.565   4.904 -2.3667 -0.4502  0.6496
 5881SOL    HW229280   0.113   0.675   4.942 -0.9231 -2.5908 -0.9639
 5882SOL     OW29281   3.159   0.008   8.215 -0.1733 -0.3328 -0.0453
 5882SOL    HW129282   3.106   4.663   8.211 -0.1139 -0.2580 -1.9558
 5882SOL    HW229283   3.104   0.078   8.249 -1.3568 -1.2624 -0.0309
 5883SOL     OW29284   2.658   3.966   0.961  0.4946  0.0654  0.4540
 5883SOL    HW129285   2.565   3.981   0.978  0.7335  1.3574  0.6545
 5883SOL    HW229286   2.691   4.055   0.976 -0.2317  0.2083  1.2716
 5884SOL     OW29287   2.486   1.463   2.934 -0.3231  0.5855 -0.1724
 5884SOL    HW129288   2.554   1.518   2.973 -0.6000  2.0778 -1.8028
 5884SOL    HW229289   2.527   1.454   2.848  2.3431  0.0636  1.1566
 5885SOL     OW29290   3.745   3.827   0.714  0.2591 -0.6135 -0.2758
 5885SOL    HW129291   3.657   3.817   0.676  0.0359 -0.8724  0.3130
 5885SOL    HW229292   3.795   3.867   0.643  1.2967  0.6733  1.1801
 5886SOL     OW29293   2.842   3.626   6.356 -0.4228  0.3660 -0.5874
 5886SOL    HW129294   2.877   3.597   6.441 -0.0846  1.4220 -0.3621
 5886SOL    HW229295   2.875   3.552   6.306  1.7806  0.8126  0.2163
 5887SOL     OW29296   0.193   2.584  14.585 -0.2315  0.3010  0.3897
 5887SOL    HW129297   0.166   2.672  14.611  2.6196  0.5881  2.4074
 5887SOL    HW229298   0.285   2.600  14.563 -1.1742  0.0912 -3.6426
 5888SOL     OW29299   1.693   0.845  13.861 -0.3121  0.3942  0.6805
 5888SOL    HW129300   1.663   0.876  13.775 -1.7460 -0.5740  0.8346
 5888SOL    HW229301   1.708   0.929  13.904 -0.5583  0.3434  0.8614
 5889SOL     OW29302   2.408   0.563  16.469  0.5829 -0.3574  0.0559
 5889SOL    HW129303   2.434   0.655  16.477 -2.1139  0.3859  0.4219
 5889SOL    HW229304   2.370   0.562  16.381  1.0797  0.9933 -0.1792
 5890SOL     OW29305   1.954   3.503  14.879 -0.4965  0.2132 -0.6187
 5890SOL    HW129306   2.045   3.493  14.909 -1.5375  0.2307  2.5274
 5890SOL    HW229307   1.945   3.598  14.870 -0.9536  0.1364 -0.8997
 5891SOL     OW29308   1.926   2.632  11.381  0.6179 -0.2888 -0.1271
 5891SOL    HW129309   1.892   2.652  11.468 -0.1670 -0.5039 -0.3866
 5891SOL    HW229310   1.841   2.619  11.339  0.6181  0.7110 -0.4457
 5892SOL     OW29311   0.666   1.674   6.858  0.2288 -0.4967 -0.0559
 5892SOL    HW129312   0.636   1.622   6.932 -3.5144  0.2936 -1.0112
 5892SOL    HW229313   0.759   1.651   6.850  0.7325  1.2839  0.7507
 5893SOL     OW29314   4.449   2.236   5.617 -0.1727 -0.2235  0.0912
 5893SOL    HW129315   4.382   2.181   5.658  0.0117 -0.9929 -0.6475
 5893SOL    HW229316   4.418   2.327   5.625 -0.1053 -0.1975  0.0575
 5894SOL     OW29317   2.933   0.327   5.496  0.4122  0.1895  0.3458
 5894SOL    HW129318   2.909   0.389   5.428 -0.0566 -0.8052 -0.3974
 5894SOL    HW229319   2.928   0.239   5.458 -0.3635 -1.0735  3.3131
 5895SOL     OW29320   2.715   2.968   7.151 -0.0065  0.2527 -0.6424
 5895SOL    HW129321   2.729   2.887   7.200  1.3009  0.7778 -0.1393
 5895SOL    HW229322   2.688   2.932   7.067  0.9612  1.1413 -1.3446
 5896SOL     OW29323   0.718   3.663   2.738 -0.1362  1.0916  0.1933
 5896SOL    HW129324   0.747   3.740   2.786  0.6963  0.0959  1.3067
 5896SOL    HW229325   0.801   3.631   2.701  0.2800  0.6135  1.5450
 5897SOL     OW29326   1.113   4.594   3.821 -0.3803  0.0214  0.4355
 5897SOL    HW129327   1.046   4.590   3.753  1.0414  0.8866 -1.0231
 5897SOL    HW229328   1.139   4.503   3.830 -1.1197 -0.2107  0.1733
 5898SOL     OW29329   4.361   1.782   4.131  0.1329 -0.3548  0.0069
 5898SOL    HW129330   4.392   1.723   4.063  1.1202  0.2758 -0.0758
 5898SOL    HW229331   4.276   1.743   4.156  0.4644 -0.9235  0.2676
 5899SOL     OW29332   1.049   3.453   6.659  0.0610 -0.2720  0.4510
 5899SOL    HW129333   0.984   3.493   6.717  0.7983 -0.8369  1.6529
 5899SOL    HW229334   1.050   3.523   6.594 -0.2613 -0.9467 -0.2820
 5900SOL     OW29335   4.635   2.915   9.132  0.5650 -0.0986  0.1886
 5900SOL    HW129336   4.569   2.940   9.067  0.6270 -1.5846 -0.4368
 5900SOL    HW229337   4.697   2.988   9.124  0.8846 -0.5834 -1.7312
 5901SOL     OW29338   1.282   4.622   4.857 -0.4963 -0.3163  0.1465
 5901SOL    HW129339   1.207   4.680   4.871 -0.1658 -0.4125  2.3173
 5901SOL    HW229340   1.279   4.625   4.761 -0.2908  0.2760  0.1594
 5902SOL     OW29341   4.107   4.226  15.346  0.0294  0.4032  0.4450
 5902SOL    HW129342   4.067   4.159  15.290 -0.0920  0.1361  0.8483
 5902SOL    HW229343   4.200   4.208  15.336  0.0517  1.4424 -1.1787
 5903SOL     OW29344   4.185   3.433   0.136 -0.0989 -0.4514  0.2630
 5903SOL    HW129345   4.103   3.444   0.185 -0.7918 -1.7777 -0.6189
 5903SOL    HW229346   4.197   3.525   0.113  1.6590  0.0780  3.3310
 5904SOL     OW29347   1.303   2.211   0.619  0.0293  0.3693  0.2010
 5904SOL    HW129348   1.250   2.200   0.697 -1.9858  2.0879 -0.9276
 5904SOL    HW229349   1.367   2.263   0.668  1.0642 -1.2888  0.6259
 5905SOL     OW29350   3.321   2.647   4.251 -0.3108 -0.5370  0.3752
 5905SOL    HW129351   3.339   2.580   4.317  1.3734 -0.3602  0.0787
 5905SOL    HW229352   3.406   2.644   4.209 -1.5431 -0.2655 -2.1287
 5906SOL     OW29353   3.176   0.177   2.714  0.2748  0.3588  0.0988
 5906SOL    HW129354   3.123   0.136   2.783 -1.6262  0.0762 -1.5179
 5906SOL    HW229355   3.116   0.170   2.640  2.6043  0.4530 -1.8068
 5907SOL     OW29356   4.306   4.312   3.570 -0.3191  0.2422  0.1578
 5907SOL    HW129357   4.319   4.278   3.482 -0.7751 -2.1848  1.0414
 5907SOL    HW229358   4.381   4.372   3.573  0.5625 -0.8820  0.5330
 5908SOL     OW29359   2.185   1.584   6.942  0.8744 -0.0537 -0.4498
 5908SOL    HW129360   2.135   1.632   6.877  1.0802  1.0105  0.1686
 5908SOL    HW229361   2.236   1.513   6.903 -1.9098 -2.0428 -0.4541
 5909SOL     OW29362   1.450   2.462  17.621  0.7523  0.1532  0.4197
 5909SOL    HW129363   1.500   2.542  17.639  0.5554  0.0839  1.2715
 5909SOL    HW229364   1.392   2.490  17.550  0.0707  0.7266  1.2067
 5910SOL     OW29365   0.156   4.252  11.000  0.0053 -0.1577 -0.8708
 5910SOL    HW129366   0.077   4.300  11.025 -0.6487  0.3619 -3.9217
 5910SOL    HW229367   0.115   4.169  10.978 -2.3200  0.5308  0.8378
 5911SOL     OW29368   1.967   2.943   0.911  0.2055 -0.1542 -0.0886
 5911SOL    HW129369   1.883   2.964   0.952  0.2431  0.7179 -0.4677
 5911SOL    HW229370   2.010   2.894   0.981  0.2789  2.1545  1.4762
 5912SOL     OW29371   2.483   0.101  10.957 -0.5110  0.5856  0.0328
 5912SOL    HW129372   2.390   0.084  10.949 -0.1805 -1.4086  0.4219
 5912SOL    HW229373   2.468   0.162  11.029 -1.1446  1.1370 -0.5756
 5913SOL     OW29374   2.585   0.597   7.982  0.4557  0.3572 -0.3612
 5913SOL    HW129375   2.677   0.599   7.956  0.0783 -1.0135 -1.8488
 5913SOL    HW229376   2.568   0.536   7.910 -1.9422 -0.1642  0.6382
 5914SOL     OW29377   3.912   0.556   4.390 -0.4559 -0.1152 -0.6149
 5914SOL    HW129378   3.979   0.487   4.387  0.8778  1.1382  0.5081
 5914SOL    HW229379   3.915   0.568   4.295 -0.5609 -1.3995 -0.7857
 5915SOL     OW29380   2.545   0.337   3.817 -0.0334 -0.8917  0.0700
 5915SOL    HW129381   2.618   0.346   3.879  0.3050  1.8682 -0.7013
 5915SOL    HW229382   2.589   0.286   3.749  0.7801  0.3064 -0.3173
 5916SOL     OW29383   3.442   0.449   1.401  0.1691  0.1384 -0.0545
 5916SOL    HW129384   3.378   0.393   1.446  1.1936 -0.8354  0.1686
 5916SOL    HW229385   3.476   0.500   1.475 -1.3618 -2.0331  2.1644
 5917SOL     OW29386   4.404   1.923  10.149  0.0835 -0.2434  0.0597
 5917SOL    HW129387   4.408   2.016  10.127  1.6786 -0.5772 -1.0834
 5917SOL    HW229388   4.328   1.898  10.097 -0.0454  0.3888 -0.0528
 5918SOL     OW29389   1.172   4.585  15.720  0.1441 -0.0747  0.0330
 5918SOL    HW129390   1.184   4.652  15.787 -0.5823  2.8455 -2.7963
 5918SOL    HW229391   1.090   4.611  15.678 -0.0508 -3.0976 -1.4435
 5919SOL     OW29392   2.459   0.085   2.176 -0.2742  0.2358  0.2238
 5919SOL    HW129393   2.436   4.735   2.212 -0.1223 -0.4015 -1.2007
 5919SOL    HW229394   2.554   0.091   2.187 -0.3611  1.2578  0.4311
 5920SOL     OW29395   2.712   0.291   7.625  0.3041 -0.4578  0.7671
 5920SOL    HW129396   2.709   0.197   7.641 -1.9434 -0.4297  0.5092
 5920SOL    HW229397   2.800   0.306   7.660  1.6068 -0.8693 -2.2781
 5921SOL     OW29398   1.135   3.885  17.627 -0.4412  0.4921 -0.4584
 5921SOL    HW129399   1.168   3.901  17.715 -2.6388  1.7519  0.1486
 5921SOL    HW229400   1.172   3.947  17.563  1.9919 -1.1959 -0.6780
 5922SOL     OW29401   1.777   4.375   3.455 -0.4500  0.1565 -0.2504
 5922SOL    HW129402   1.784   4.281   3.436  1.3669 -0.0747  1.5699
 5922SOL    HW229403   1.810   4.374   3.545 -1.4494 -1.9137  0.0902
 5923SOL     OW29404   0.255   0.263  11.043  0.1004 -0.3646  0.2551
 5923SOL    HW129405   0.195   0.198  11.080  0.4409 -1.6085 -1.3730
 5923SOL    HW229406   0.277   0.221  10.959 -0.9967 -0.2644 -0.0906
 5924SOL     OW29407   1.648   1.960  13.431 -0.5433 -0.1977  0.0224
 5924SOL    HW129408   1.687   1.984  13.347  0.6528  1.3958  1.0227
 5924SOL    HW229409   1.574   1.905  13.405 -1.0908  0.0665  1.0445
 5925SOL     OW29410   1.567   2.488   6.067  0.4623 -0.5057  0.2770
 5925SOL    HW129411   1.488   2.433   6.064  0.3871 -0.4069  0.4761
 5925SOL    HW229412   1.613   2.445   5.995  1.1826 -2.4008  1.8799
 5926SOL     OW29413   2.662   0.793   0.308  0.2319  0.3670 -0.2323
 5926SOL    HW129414   2.719   0.736   0.359 -0.0438  0.0225 -0.3145
 5926SOL    HW229415   2.713   0.874   0.307 -0.7652  1.0036  0.3202
 5927SOL     OW29416   4.292   1.032   3.577  0.5743 -0.2398 -0.5981
 5927SOL    HW129417   4.362   1.041   3.641  2.2658  0.7454 -2.6064
 5927SOL    HW229418   4.314   0.945   3.543  2.9161 -0.6562  1.9713
 5928SOL     OW29419   1.976   4.401  14.946  0.0238 -0.1036  0.8022
 5928SOL    HW129420   2.002   4.362  14.863  0.7790 -0.8855  1.4031
 5928SOL    HW229421   1.891   4.359  14.961 -0.0610 -1.0011 -2.1831
 5929SOL     OW29422   1.203   0.711   1.845 -0.4563  0.1245 -0.1813
 5929SOL    HW129423   1.109   0.712   1.859 -0.4148  1.1943 -0.0218
 5929SOL    HW229424   1.208   0.641   1.780  1.9510  0.1807 -0.0577
 5930SOL     OW29425   3.992   1.167   9.858  0.0085  0.4793 -0.2014
 5930SOL    HW129426   4.038   1.114   9.923  0.2764  0.3347 -0.5101
 5930SOL    HW229427   4.067   1.211   9.818 -1.1851  1.4742 -1.3317
 5931SOL     OW29428   4.228   3.935   5.909  0.1332 -0.0883  0.2891
 5931SOL    HW129429   4.213   3.858   5.855  0.5104  1.9119 -2.6973
 5931SOL    HW229430   4.320   3.949   5.889  0.0412  0.2832  0.1103
 5932SOL     OW29431   4.381   1.700  17.334  0.6157 -0.3362 -0.0093
 5932SOL    HW129432   4.454   1.667  17.282 -0.0105  1.1723 -1.8633
 5932SOL    HW229433   4.368   1.781  17.283  0.3735  0.2010  0.9044
 5933SOL     OW29434   2.121   3.166   3.522  0.1816 -0.4102 -0.0745
 5933SOL    HW129435   2.178   3.210   3.584  0.7731 -1.3062  0.0169
 5933SOL    HW229436   2.057   3.119   3.576 -2.2635  2.9587 -0.0353
 5934SOL     OW29437   0.543   2.735  17.495 -0.1572 -0.4578  0.3017
 5934SOL    HW129438   0.500   2.736  17.580  1.6705 -0.2905  1.2147
 5934SOL    HW229439   0.595   2.815  17.496  0.1975 -0.7036  1.0316
 5935SOL     OW29440   0.921   2.401   6.927  0.2138 -0.3175  0.0089
 5935SOL    HW129441   0.880   2.348   6.995 -1.6186 -0.1431 -0.9515
 5935SOL    HW229442   1.003   2.405   6.976  0.1961  1.8299 -0.1269
 5936SOL     OW29443   4.130   3.251   5.499 -0.1306 -0.7172  0.2422
 5936SOL    HW129444   4.058   3.197   5.533 -0.0281  0.0018  1.6119
 5936SOL    HW229445   4.125   3.242   5.404  0.2337 -1.8907  0.3289
 5937SOL     OW29446   3.525   0.361   3.419  0.2992  0.2992  0.0902
 5937SOL    HW129447   3.501   0.371   3.327 -0.3509  0.9183  0.3347
 5937SOL    HW229448   3.473   0.287   3.451 -1.6017  1.2324 -0.8661
 5938SOL     OW29449   4.724   3.796   2.300  0.6134 -0.1512 -0.0212
 5938SOL    HW129450   0.077   3.773   2.272  0.9414  0.1717  0.7407
 5938SOL    HW229451   0.010   3.866   2.362  1.8415 -0.3168 -0.2610
 5939SOL     OW29452   3.533   1.594   6.849  0.3886  0.2506  0.8192
 5939SOL    HW129453   3.577   1.677   6.830 -0.1938  0.2462 -0.5426
 5939SOL    HW229454   3.563   1.570   6.937  0.5293 -0.3466  0.6125
 5940SOL     OW29455   3.731   1.579   5.821  0.0105  0.0741 -0.2763
 5940SOL    HW129456   3.635   1.578   5.824 -0.0251  1.0086 -1.2117
 5940SOL    HW229457   3.742   1.674   5.823 -1.4653  0.2421  0.1438
 5941SOL     OW29458   2.969   3.602   6.871  0.0751 -0.3343  0.5963
 5941SOL    HW129459   2.908   3.664   6.911  1.1493  0.1593  1.4805
 5941SOL    HW229460   3.057   3.626   6.900  0.2537 -0.8273  0.4591
 5942SOL     OW29461   2.550   1.707   9.271  0.4082  0.2822 -0.8530
 5942SOL    HW129462   2.513   1.710   9.183  0.1956  0.7952 -0.7455
 5942SOL    HW229463   2.608   1.783   9.264  0.0577  0.7571  1.6581
 5943SOL     OW29464   1.294   1.276   0.245 -0.1840 -0.9321  0.0509
 5943SOL    HW129465   1.243   1.200   0.273 -1.9961  0.3572  0.2278
 5943SOL    HW229466   1.304   1.252   0.153  1.8705  0.4592 -0.0886
 5944SOL     OW29467   3.912   3.002   5.905 -0.0698 -0.1753 -0.2972
 5944SOL    HW129468   4.007   3.001   5.893 -0.0861  0.2188 -0.4463
 5944SOL    HW229469   3.881   2.914   5.884 -1.0448  0.1307 -0.1456
 5945SOL     OW29470   3.271   1.693   9.111 -0.2922  0.6169  0.2089
 5945SOL    HW129471   3.223   1.726   9.187 -0.8525 -0.9877  0.5365
 5945SOL    HW229472   3.341   1.655   9.164 -0.9742 -1.4700 -0.4124
 5946SOL     OW29473   0.288   3.987   4.416 -0.6056  0.2018  0.0204
 5946SOL    HW129474   0.357   4.036   4.371  1.1255 -1.6741  0.6631
 5946SOL    HW229475   0.206   4.025   4.383 -0.5784  1.1311  1.0401
 5947SOL     OW29476   0.174   1.991   3.589  0.3538 -0.4840  0.2729
 5947SOL    HW129477   0.104   2.056   3.582 -0.0965 -1.2032 -1.8532
 5947SOL    HW229478   0.138   1.907   3.616  0.7890 -0.3644  1.2519
 5948SOL     OW29479   2.415   3.112  12.022  0.2771  0.1758 -0.3531
 5948SOL    HW129480   2.446   3.190  12.068  0.3206 -0.0182 -0.0531
 5948SOL    HW229481   2.320   3.110  12.034  0.2226  0.3255 -0.7822
 5949SOL     OW29482   2.734   2.873   9.293  0.3122 -0.0501  0.0668
 5949SOL    HW129483   2.703   2.794   9.250  1.3268 -0.4632  0.0931
 5949SOL    HW229484   2.822   2.865   9.258  0.7412  0.2162  1.0740
 5950SOL     OW29485   1.878   2.865   9.310 -0.2085  0.5590 -0.2386
 5950SOL    HW129486   1.866   2.772   9.290 -1.9055  1.2542 -2.5679
 5950SOL    HW229487   1.939   2.865   9.383  0.2806  1.6130 -0.6446
 5951SOL     OW29488   2.387   0.990   2.304 -0.4528  0.2258  0.4796
 5951SOL    HW129489   2.477   1.011   2.279 -0.6820  1.3596  0.6163
 5951SOL    HW229490   2.346   1.076   2.303  2.0565  1.3939 -1.0488
 5952SOL     OW29491   3.573   4.393   8.004  1.0640 -0.3268  0.4183
 5952SOL    HW129492   3.568   4.354   8.091 -0.3555 -1.6719 -0.2925
 5952SOL    HW229493   3.503   4.459   8.007 -0.4291 -1.8452 -1.5691
 5953SOL     OW29494   4.023   3.970   2.829 -0.4294  0.3141 -0.6623
 5953SOL    HW129495   3.987   3.996   2.914  1.0013 -1.8362  0.5986
 5953SOL    HW229496   4.085   4.042   2.820  1.1382 -0.9642 -0.0250
 5954SOL     OW29497   0.318   4.567  10.054 -0.0507 -0.1984  0.0740
 5954SOL    HW129498   0.337   4.532  10.142  1.5275 -1.3114 -0.7053
 5954SOL    HW229499   0.392   4.620  10.026 -1.7799  2.2925  0.2338
 5955SOL     OW29500   0.696   2.568   8.733  0.0923  0.3622  0.1368
 5955SOL    HW129501   0.678   2.622   8.810 -0.5269 -0.0175  0.2552
 5955SOL    HW229502   0.710   2.480   8.768 -0.3730 -0.0664 -0.7558
 5956SOL     OW29503   1.329   0.025   1.875  0.0964 -0.2937 -0.3452
 5956SOL    HW129504   1.274   0.048   1.949  2.1240 -1.9842  1.6758
 5956SOL    HW229505   1.374   0.103   1.841  0.4206 -0.5539 -0.5187
 5957SOL     OW29506   2.623   4.469   6.917 -0.6130 -0.6727  1.2259
 5957SOL    HW129507   2.585   4.555   6.936  2.1739  0.7726  0.2827
 5957SOL    HW229508   2.709   4.491   6.952 -0.7191  2.1673 -0.2214
 5958SOL     OW29509   2.711   2.510  15.780 -0.1967 -0.2148  0.2013
 5958SOL    HW129510   2.633   2.565  15.783 -0.7418 -0.8935 -1.4271
 5958SOL    HW229511   2.761   2.560  15.715  0.4886  0.0958  0.9798
 5959SOL     OW29512   1.779   1.078  13.994  0.6757  0.0315  0.1555
 5959SOL    HW129513   1.832   1.141  14.042 -0.5188  0.5043  0.8611
 5959SOL    HW229514   1.703   1.134  13.976  1.6233  0.6391 -1.9717
 5960SOL     OW29515   1.426   3.457   8.980 -0.5539 -0.6868 -0.1683
 5960SOL    HW129516   1.433   3.366   9.010  1.7086 -0.3876  0.2093
 5960SOL    HW229517   1.438   3.449   8.885 -0.4673 -1.8665 -0.0588
 5961SOL     OW29518   2.753   3.150   2.289 -0.6893  0.1870  0.3504
 5961SOL    HW129519   2.842   3.117   2.293 -0.4724  0.6845 -0.4578
 5961SOL    HW229520   2.724   3.136   2.199  0.3201 -0.6979  0.1668
 5962SOL     OW29521   4.707   2.773   3.176 -0.4775 -0.2640  0.1314
 5962SOL    HW129522   4.654   2.784   3.097 -0.1484 -1.1932 -0.2223
 5962SOL    HW229523   4.705   2.677   3.167  3.3045 -0.1752 -1.3509
 5963SOL     OW29524   4.004   3.160   8.726 -0.3733  0.6347 -1.0402
 5963SOL    HW129525   3.970   3.249   8.716  0.0850  0.8571 -0.6046
 5963SOL    HW229526   4.100   3.161   8.731 -0.3947  0.9907 -0.6876
 5964SOL     OW29527   4.620   0.377   4.987 -0.1980 -0.1885 -0.2774
 5964SOL    HW129528   4.619   0.341   5.075  1.7400 -0.3287 -0.3006
 5964SOL    HW229529   4.590   0.468   4.994  0.0996 -0.1488  0.4012
 5965SOL     OW29530   3.108   0.746   6.069  0.1527 -0.1271 -0.1407
 5965SOL    HW129531   3.076   0.657   6.063 -1.5368  0.3572  1.7661
 5965SOL    HW229532   3.142   0.762   6.157 -0.4843  0.2949  0.0309
 5966SOL     OW29533   1.986   2.501   9.419 -0.5959 -0.3038  0.5117
 5966SOL    HW129534   1.966   2.410   9.395 -0.5858 -0.3812  0.7951
 5966SOL    HW229535   2.003   2.539   9.333  2.3767 -1.4581  0.5880
 5967SOL     OW29536   2.005   0.163   5.814 -0.4461  0.4213 -0.6777
 5967SOL    HW129537   2.056   0.140   5.737  1.3603  0.6148  0.4527
 5967SOL    HW229538   1.934   0.220   5.786 -1.4394 -0.7748 -0.6049
 5968SOL     OW29539   2.698   4.656   8.506 -0.2471 -0.2460  0.2367
 5968SOL    HW129540   2.638   4.672   8.433  1.2472  1.1643 -0.6713
 5968SOL    HW229541   2.693   0.003   8.553  1.1189 -1.7772  3.0695
 5969SOL     OW29542   4.441   3.511   1.223  0.0679  0.0384  0.1151
 5969SOL    HW129543   4.490   3.569   1.165  0.3200 -0.5039 -0.2114
 5969SOL    HW229544   4.487   3.430   1.202 -0.9713 -0.9264  1.5391
 5970SOL     OW29545   2.395   4.412  14.450  0.1284  0.0396  0.2826
 5970SOL    HW129546   2.313   4.363  14.461  0.7483 -1.0773 -0.0678
 5970SOL    HW229547   2.393   4.424  14.355 -1.6464  0.8366  0.4139
 5971SOL     OW29548   3.391   2.435  14.165 -0.0937 -0.1621 -0.5629
 5971SOL    HW129549   3.312   2.465  14.120 -0.2316  0.8055  0.3467
 5971SOL    HW229550   3.354   2.453  14.251  2.4160  0.8309  0.2815
 5972SOL     OW29551   2.419   3.604  14.903 -0.0413  0.2590  0.1197
 5972SOL    HW129552   2.461   3.615  14.818  3.1999 -2.3646  1.3933
 5972SOL    HW229553   2.454   3.682  14.946  0.0138 -0.5625  1.5583
 5973SOL     OW29554   1.018   2.563  12.645  0.3744 -0.2791 -0.5166
 5973SOL    HW129555   1.086   2.601  12.701  1.2295 -1.1131 -0.9781
 5973SOL    HW229556   1.041   2.603  12.561  2.9663  2.8684  1.6752
 5974SOL     OW29557   1.011   2.748  16.000  0.2434  0.2578 -0.2416
 5974SOL    HW129558   1.043   2.706  15.920  0.8379  0.4393 -0.0999
 5974SOL    HW229559   0.925   2.769  15.966  0.6567  3.2067  0.5695
 5975SOL     OW29560   0.899   1.202   2.827 -0.0998 -0.7538 -0.1691
 5975SOL    HW129561   0.988   1.208   2.860 -0.7119  0.4667  1.2843
 5975SOL    HW229562   0.882   1.109   2.813  2.0864 -0.8763 -1.9176
 5976SOL     OW29563   1.668   0.090  15.802 -0.3917  0.3610  0.1613
 5976SOL    HW129564   1.639   0.099  15.893 -0.7822  0.0356  0.0692
 5976SOL    HW229565   1.611   0.159  15.767 -0.6524 -1.2897 -2.6442
 5977SOL     OW29566   3.774   2.707   8.493 -0.1644 -0.3034 -0.1374
 5977SOL    HW129567   3.708   2.686   8.559 -0.2431 -1.3965 -0.5740
 5977SOL    HW229568   3.758   2.802   8.488 -0.3928 -0.3945 -1.2058
 5978SOL     OW29569   4.274   3.095   8.702  0.0659 -0.0783 -0.3487
 5978SOL    HW129570   4.287   3.075   8.609 -2.4473 -0.9082 -0.5107
 5978SOL    HW229571   4.293   3.007   8.735 -0.2575  0.3890  1.0362
 5979SOL     OW29572   2.986   0.670   6.548 -0.3022  0.6251  0.2536
 5979SOL    HW129573   3.035   0.708   6.620 -0.4059  0.2241  0.5377
 5979SOL    HW229574   3.003   0.576   6.547 -1.5719  0.4034 -1.2254
 5980SOL     OW29575   3.225   2.065   8.962 -0.0472  0.2157  0.1948
 5980SOL    HW129576   3.163   2.069   8.890 -0.7736  0.4106  0.8265
 5980SOL    HW229577   3.263   1.977   8.952  0.8863  0.6550 -0.1514
 5981SOL     OW29578   2.440   4.339   7.850 -0.2152 -0.0755 -0.2036
 5981SOL    HW129579   2.501   4.272   7.881  2.4279  1.7078 -1.5409
 5981SOL    HW229580   2.393   4.290   7.783  1.2328  1.0742 -2.0771
 5982SOL     OW29581   2.130   4.402  10.465 -0.3653  0.5231  0.0758
 5982SOL    HW129582   2.072   4.460  10.514  0.0440  0.4985  0.5910
 5982SOL    HW229583   2.077   4.399  10.385 -1.4015  0.2041  0.7753
 5983SOL     OW29584   0.847   4.734  14.870 -0.1601  0.1912  0.3316
 5983SOL    HW129585   0.884   0.083  14.843  0.1636 -0.1534 -0.2957
 5983SOL    HW229586   0.754   0.017  14.855 -0.5718  0.1913  2.9052
 5984SOL     OW29587   3.417   1.708   1.899  0.0653  0.2910  0.2647
 5984SOL    HW129588   3.467   1.658   1.963  0.0563  0.4195  0.3698
 5984SOL    HW229589   3.366   1.752   1.966 -0.8452 -1.0505  0.4471
 5985SOL     OW29590   1.414   4.479   8.582  0.3853  0.2853 -0.2076
 5985SOL    HW129591   1.500   4.522   8.586  1.2401 -1.4666  0.1948
 5985SOL    HW229592   1.363   4.547   8.625  0.0822 -0.6148  0.8369
 5986SOL     OW29593   1.963   2.460   7.873  0.3452  0.0936  0.1410
 5986SOL    HW129594   1.874   2.494   7.883 -0.0976 -0.7921 -0.7451
 5986SOL    HW229595   1.996   2.550   7.875  0.0840  0.2000 -0.2587
 5987SOL     OW29596   2.760   0.759   6.062  0.1771  0.0814 -0.3261
 5987SOL    HW129597   2.794   0.678   6.026  0.0203 -0.5480  0.9293
 5987SOL    HW229598   2.844   0.805   6.065  1.6703 -2.8241  2.2183
 5988SOL     OW29599   1.297   0.964  12.362  0.2939 -0.1938 -0.2436
 5988SOL    HW129600   1.341   1.045  12.337  0.7642 -0.8151 -1.4524
 5988SOL    HW229601   1.207   0.997  12.360 -0.3547 -1.8908  0.5371
 5989SOL     OW29602   3.695   4.439   0.983 -0.5488 -0.6129  0.2057
 5989SOL    HW129603   3.702   4.421   1.077  0.4590  0.6118  0.3589
 5989SOL    HW229604   3.649   4.523   0.982 -0.1220 -0.3786  0.1502
 5990SOL     OW29605   1.512   0.511   0.386  0.0260 -0.7403  0.1292
 5990SOL    HW129606   1.597   0.519   0.430 -1.4127  0.6937  2.6561
 5990SOL    HW229607   1.465   0.585   0.425  1.8850 -0.3047  1.5677
 5991SOL     OW29608   3.587   1.141   9.181  0.1133 -0.1347  0.3419
 5991SOL    HW129609   3.505   1.141   9.133 -0.2871  0.9238  1.0351
 5991SOL    HW229610   3.608   1.234   9.185  1.2408 -0.3588 -0.1939
 5992SOL     OW29611   2.352   1.991  17.166 -0.2615  0.4615  0.2869
 5992SOL    HW129612   2.368   1.898  17.180  0.1553  0.6703  1.1859
 5992SOL    HW229613   2.307   2.014  17.247  0.1159 -0.1741  0.6745
 5993SOL     OW29614   0.729   2.610  15.222 -0.0846  0.3852  0.1501
 5993SOL    HW129615   0.763   2.690  15.182 -0.2676  1.3108  1.8696
 5993SOL    HW229616   0.635   2.619  15.204 -0.4935 -0.7406  1.6802
 5994SOL     OW29617   0.089   2.695   1.742 -0.0744 -0.0808  0.3085
 5994SOL    HW129618   0.105   2.691   1.836  0.7968  0.6350  0.1878
 5994SOL    HW229619   0.010   2.747   1.725  0.3324  1.2007  2.3354
 5995SOL     OW29620   1.507   0.485  10.279 -0.0756  0.1997 -0.1133
 5995SOL    HW129621   1.535   0.409  10.329 -1.3012 -0.3189 -0.2192
 5995SOL    HW229622   1.550   0.555  10.328 -0.8312  0.8073 -0.3127
 5996SOL     OW29623   3.124   2.808   2.473 -0.2726  0.1315 -0.0325
 5996SOL    HW129624   3.087   2.890   2.505  0.1901  0.9440 -1.5927
 5996SOL    HW229625   3.150   2.771   2.558 -2.4067  0.5283  0.7858
 5997SOL     OW29626   0.485   0.018   2.422 -0.1256 -0.5283  0.0176
 5997SOL    HW129627   0.429   4.716   2.490 -0.7005 -2.0229 -1.2841
 5997SOL    HW229628   0.547   4.682   2.407 -0.2941 -1.0304  1.6539
 5998SOL     OW29629   2.632   3.679   6.823  0.1421  0.1379  0.1609
 5998SOL    HW129630   2.611   3.610   6.887 -2.1420 -0.9436 -1.7446
 5998SOL    HW229631   2.591   3.759   6.856  2.1184  1.3806 -0.4465
 5999SOL     OW29632   2.720   1.205   5.480  0.5785 -0.1216 -0.3447
 5999SOL    HW129633   2.788   1.257   5.522 -0.4161  0.9335 -0.0295
 5999SOL    HW229634   2.682   1.152   5.549  2.5725 -1.6992 -0.4726
 6000SOL     OW29635   3.202   2.193  12.853 -0.1375  0.3172  0.1469
 6000SOL    HW129636   3.232   2.133  12.784  0.7843 -0.2900  1.0834
 6000SOL    HW229637   3.202   2.271  12.798  0.8861 -0.2350 -0.6610
 6001SOL     OW29638   0.359   2.227   5.907  0.3191 -0.0088  0.3320
 6001SOL    HW129639   0.399   2.168   5.844  0.6151  1.9021 -1.2955
 6001SOL    HW229640   0.391   2.309   5.869  1.7587 -0.4333  0.6116
 6002SOL     OW29641   3.256   1.866   1.722 -0.4074  0.0549  0.1489
 6002SOL    HW129642   3.276   1.887   1.814  2.7718 -0.4859 -0.4047
 6002SOL    HW229643   3.332   1.811   1.702  2.0149  3.2223  0.6182
 6003SOL     OW29644   1.606   2.301  16.890 -0.7764  0.0602  0.1781
 6003SOL    HW129645   1.652   2.379  16.860  0.0452  0.2858  2.0424
 6003SOL    HW229646   1.513   2.311  16.870 -0.1657  1.7788 -1.8129
 6004SOL     OW29647   4.599   0.011   5.511  1.0500 -0.2545  0.4564
 6004SOL    HW129648   4.694   0.011   5.500  0.7687 -0.2793 -1.9288
 6004SOL    HW229649   4.581   0.105   5.503 -0.4886 -0.4457  1.8386
 6005SOL     OW29650   0.585   1.319   7.926  0.4621 -0.3710 -0.4322
 6005SOL    HW129651   0.510   1.360   7.969  0.6430 -2.4774  1.8467
 6005SOL    HW229652   0.622   1.396   7.883  3.0393 -0.4433  1.6358
 6006SOL     OW29653   3.912   1.986   8.524 -0.4216 -0.2693  0.1379
 6006SOL    HW129654   3.891   1.898   8.491 -0.3292  0.9116 -3.0786
 6006SOL    HW229655   3.841   2.040   8.488  0.7053  2.0052  1.3450
 6007SOL     OW29656   0.580   1.656  10.819  0.5744  0.2961 -0.3361
 6007SOL    HW129657   0.515   1.725  10.834 -1.1664 -1.6714  1.1608
 6007SOL    HW229658   0.637   1.658  10.896  1.5885 -1.0647 -1.0419
 6008SOL     OW29659   1.104   1.740   5.727  0.7433  0.3049 -0.2347
 6008SOL    HW129660   1.010   1.730   5.744  0.7096  2.9605  1.1893
 6008SOL    HW229661   1.128   1.648   5.726  1.4875  0.5091 -0.5612
 6009SOL     OW29662   1.395   0.190  17.517  0.1203  0.3132  0.0053
 6009SOL    HW129663   1.418   0.156  17.430  2.7724 -0.6857  1.0931
 6009SOL    HW229664   1.372   0.107  17.558 -3.2040  1.3223  0.1298
 6010SOL     OW29665   1.591   2.269   4.169 -0.0681  0.8677  0.2385
 6010SOL    HW129666   1.591   2.231   4.257  0.4941 -0.4456 -0.3290
 6010SOL    HW229667   1.636   2.201   4.119  0.9634  0.7018  1.3762
 6011SOL     OW29668   1.632   2.337   5.563 -0.2008 -0.8616 -0.5886
 6011SOL    HW129669   1.703   2.401   5.571 -0.7182 -0.3101 -0.3600
 6011SOL    HW229670   1.580   2.377   5.494 -1.4309  1.0109  1.4109
 6012SOL     OW29671   2.856   3.817   3.409 -0.2722  0.4448  0.3793
 6012SOL    HW129672   2.848   3.798   3.315 -1.4406  2.0573  0.1367
 6012SOL    HW229673   2.950   3.836   3.413  0.4825 -2.9630 -1.7704
 6013SOL     OW29674   2.906   2.122  11.397  0.9364 -0.0555 -0.0162
 6013SOL    HW129675   2.936   2.199  11.445 -0.8155  1.1928 -0.8959
 6013SOL    HW229676   2.985   2.069  11.391  1.2205  0.2651  0.9548
 6014SOL     OW29677   1.152   3.856   7.681  0.1619  0.3986 -0.4602
 6014SOL    HW129678   1.211   3.895   7.618 -1.7630  0.3314 -2.3011
 6014SOL    HW229679   1.126   3.929   7.738 -4.0274 -1.3551 -0.0832
 6015SOL     OW29680   1.236   0.334  14.403  0.0763 -0.1613 -0.1925
 6015SOL    HW129681   1.210   0.391  14.475 -0.7172  0.2490 -0.8041
 6015SOL    HW229682   1.247   0.405  14.340 -0.3271 -1.0327 -1.2324
 6016SOL     OW29683   2.229   4.276   3.274 -0.3643 -0.2149 -0.4736
 6016SOL    HW129684   2.198   4.363   3.247 -2.4037 -1.0950 -1.0243
 6016SOL    HW229685   2.162   4.263   3.341 -0.2883  1.3786 -0.0883
 6017SOL     OW29686   0.514   3.997   3.318 -0.3080  0.3013 -0.1648
 6017SOL    HW129687   0.418   3.989   3.316 -0.3082  0.7766 -2.9318
 6017SOL    HW229688   0.522   4.053   3.395 -0.9483  0.4117 -0.1737
 6018SOL     OW29689   3.593   2.669   4.184 -0.2383 -0.2738 -0.1010
 6018SOL    HW129690   3.639   2.749   4.156  0.5958 -0.1526  1.6215
 6018SOL    HW229691   3.632   2.656   4.271  0.5202  3.6990  0.1939
 6019SOL     OW29692   2.574   1.290   4.643 -0.1670 -0.2398  0.1503
 6019SOL    HW129693   2.651   1.285   4.585 -0.4398 -1.3596 -0.1024
 6019SOL    HW229694   2.599   1.232   4.714 -1.4616 -0.6298  0.2777
 6020SOL     OW29695   0.292   2.633  11.792  0.3334  0.0198 -0.1880
 6020SOL    HW129696   0.372   2.684  11.782  0.9591 -1.1489 -1.1827
 6020SOL    HW229697   0.273   2.652  11.884  1.5339  0.0462  0.0534
 6021SOL     OW29698   2.380   3.294  15.341  0.3064 -0.2085  0.8330
 6021SOL    HW129699   2.340   3.346  15.411 -1.7293  1.4293 -1.5439
 6021SOL    HW229700   2.387   3.359  15.271 -0.9616  0.0632  0.9575
 6022SOL     OW29701   1.521   2.038   5.587  0.2399 -0.2526 -0.2311
 6022SOL    HW129702   1.560   2.089   5.516 -0.3941  3.2014  1.8943
 6022SOL    HW229703   1.435   2.081   5.591  0.9470  1.2020 -0.8052
 6023SOL     OW29704   2.437   0.884  17.669  0.6722  0.7091 -0.5603
 6023SOL    HW129705   2.344   0.863  17.666  0.9334 -0.5824  0.4500
 6023SOL    HW229706   2.452   0.893   0.023  0.4038 -2.2428 -0.2659
 6024SOL     OW29707   4.172   1.604   1.956 -0.1761  0.2565  0.0761
 6024SOL    HW129708   4.238   1.544   1.991 -0.1693  1.0780  1.4902
 6024SOL    HW229709   4.130   1.553   1.887  1.0629  1.6018 -1.6719
 6025SOL     OW29710   0.248   0.456   2.239  0.5180 -0.1004 -0.1772
 6025SOL    HW129711   0.283   0.540   2.208 -4.2150  1.8258 -0.2820
 6025SOL    HW229712   0.168   0.458   2.187 -0.3832  1.0260  1.2477
 6026SOL     OW29713   0.387   2.330   2.354  0.4743  0.3890 -0.2479
 6026SOL    HW129714   0.328   2.402   2.332  1.4744  1.6841  1.3823
 6026SOL    HW229715   0.399   2.345   2.447  1.7439  0.2344 -0.3881
 6027SOL     OW29716   1.329   2.752   0.114 -0.0549  0.2332 -0.4679
 6027SOL    HW129717   1.301   2.781   0.201  2.3506  0.1079  0.3743
 6027SOL    HW229718   1.248   2.713   0.083  0.3614  0.4182 -1.7762
 6028SOL     OW29719   1.922   3.574  13.182  0.1085  0.0515  0.1487
 6028SOL    HW129720   1.886   3.657  13.149  0.8230 -0.3607 -1.6301
 6028SOL    HW229721   1.974   3.609  13.255 -1.4985  1.0808  0.7961
 6029SOL     OW29722   0.048   0.918   6.829  0.2853  0.0716 -0.2351
 6029SOL    HW129723   0.045   0.997   6.882  0.5293  0.9164 -1.4833
 6029SOL    HW229724   0.066   0.852   6.896  0.0657 -1.2451 -1.4488
 6030SOL     OW29725   3.715   4.399  16.701 -0.8470  0.3157  0.4708
 6030SOL    HW129726   3.697   4.312  16.666 -1.5584  0.4313  0.5477
 6030SOL    HW229727   3.648   4.453  16.659 -1.4038  0.3119  1.3627
 6031SOL     OW29728   0.524   0.267   1.786  0.0857 -0.6861  0.0204
 6031SOL    HW129729   0.464   0.242   1.856 -0.1885  0.1435  0.0711
 6031SOL    HW229730   0.483   0.346   1.752  1.1601  1.0853  2.8287
 6032SOL     OW29731   1.429   1.124  15.634  0.3559 -0.4700 -0.0738
 6032SOL    HW129732   1.493   1.189  15.663  1.7791 -0.0547 -4.1249
 6032SOL    HW229733   1.456   1.106  15.544 -1.6631  0.8238 -0.9455
 6033SOL     OW29734   0.542   0.203   6.331 -0.3740  0.5773 -0.0603
 6033SOL    HW129735   0.560   0.184   6.423 -0.6897  0.3686 -0.0397
 6033SOL    HW229736   0.573   0.290   6.307  1.4561 -0.2239 -0.5890
 6034SOL     OW29737   1.722   0.639   4.711  0.5874 -0.2341  0.0079
 6034SOL    HW129738   1.697   0.713   4.656 -2.2405 -0.4584  0.9868
 6034SOL    HW229739   1.747   0.580   4.640  0.9126  2.3786 -2.0305
 6035SOL     OW29740   2.022   1.841  12.716 -0.4266 -0.2043 -0.6389
 6035SOL    HW129741   2.054   1.901  12.783  0.2485  0.1830 -1.3080
 6035SOL    HW229742   2.095   1.780  12.704 -0.2579  0.1443 -1.3578
 6036SOL     OW29743   0.613   0.928  11.812  0.3826  0.5827 -0.6190
 6036SOL    HW129744   0.645   0.863  11.749  0.0505 -0.4795  0.3022
 6036SOL    HW229745   0.683   0.992  11.806  0.0713  1.0503  0.6849
 6037SOL     OW29746   3.371   0.868   1.538 -0.4280  0.0806 -0.2580
 6037SOL    HW129747   3.455   0.913   1.543  1.2507 -3.2225  1.5222
 6037SOL    HW229748   3.393   0.790   1.589 -0.0386 -0.2687 -0.9576
 6038SOL     OW29749   1.789   0.255   4.166  0.3687 -0.3694  0.1623
 6038SOL    HW129750   1.755   0.268   4.078 -0.1542  0.2370  0.4505
 6038SOL    HW229751   1.874   0.293   4.144 -0.9142  0.9970 -2.4146
 6039SOL     OW29752   0.714   0.080  10.676  0.5802  0.2862  0.3475
 6039SOL    HW129753   0.640   0.134  10.703  0.8401 -0.2984  2.2396
 6039SOL    HW229754   0.682   4.727  10.692  0.5577  0.1641 -0.3741
 6040SOL     OW29755   2.987   1.140   2.417  1.0019  0.3210  0.4560
 6040SOL    HW129756   3.000   1.175   2.329 -1.2621  1.6645  0.6523
 6040SOL    HW229757   3.069   1.090   2.419 -0.2008 -1.6306  1.0949
 6041SOL     OW29758   0.448   4.630  17.285 -0.0796  0.1915  0.3776
 6041SOL    HW129759   0.510   4.667  17.348  1.4606 -0.1092 -0.9672
 6041SOL    HW229760   0.506   4.591  17.220  0.4620  0.0246  0.9686
 6042SOL     OW29761   3.999   1.197   1.603 -0.5414 -0.3796 -0.1321
 6042SOL    HW129762   4.062   1.173   1.671 -2.0318 -2.5708  0.4840
 6042SOL    HW229763   4.040   1.142   1.536 -0.4818 -0.9226  0.3545
 6043SOL     OW29764   2.639   0.798   5.575  0.4648  0.3659 -0.4780
 6043SOL    HW129765   2.667   0.879   5.618  1.2993 -0.2536  0.1226
 6043SOL    HW229766   2.678   0.815   5.490 -0.0602 -0.8196 -0.9561
 6044SOL     OW29767   3.410   1.724   6.033  0.7469  0.7955 -0.0672
 6044SOL    HW129768   3.352   1.797   6.053  1.2459  0.6147  2.0163
 6044SOL    HW229769   3.347   1.656   6.008  0.3568  0.0789  2.8794
 6045SOL     OW29770   0.786   3.903   2.491  0.1562 -0.0374 -0.1272
 6045SOL    HW129771   0.826   3.986   2.517  1.7316 -0.9415  0.3504
 6045SOL    HW229772   0.865   3.849   2.498  0.2796  0.4529  2.2269
 6046SOL     OW29773   1.210   1.380   7.126  0.0480  0.3820 -0.0150
 6046SOL    HW129774   1.235   1.411   7.212 -1.7619 -1.3090  1.1290
 6046SOL    HW229775   1.156   1.302   7.142 -0.3837  0.3595 -1.5837
 6047SOL     OW29776   1.734   2.794   1.522 -0.4294 -0.0442 -0.0885
 6047SOL    HW129777   1.812   2.839   1.490  0.1756  0.1414  1.6323
 6047SOL    HW229778   1.690   2.786   1.437  2.0957 -0.4955 -1.3696
 6048SOL     OW29779   4.066   1.591   6.260  0.1684 -0.9791 -0.2299
 6048SOL    HW129780   4.067   1.496   6.257  0.6939 -1.0196  1.0083
 6048SOL    HW229781   4.027   1.601   6.347 -1.4668  0.3424 -1.1354
 6049SOL     OW29782   0.563   2.178   6.726 -0.0940 -0.6905 -0.4669
 6049SOL    HW129783   0.478   2.138   6.745 -1.3900  1.5028 -1.7481
 6049SOL    HW229784   0.628   2.114   6.696  0.9017 -0.6291  1.5456
 6050SOL     OW29785   3.236   3.454   4.520  0.1214 -0.0086 -0.5874
 6050SOL    HW129786   3.224   3.450   4.615  1.0221  0.0376 -0.4696
 6050SOL    HW229787   3.325   3.420   4.511  0.2960  0.2484  0.1358
 6051SOL     OW29788   1.310   0.350   5.030  0.0246  0.7702 -0.4567
 6051SOL    HW129789   1.224   0.356   4.990 -0.3586 -2.6903 -0.1773
 6051SOL    HW229790   1.361   0.363   4.950  1.2560 -1.4190 -0.0392
 6052SOL     OW29791   4.045   4.582   7.365  0.7028 -0.5814 -0.4844
 6052SOL    HW129792   4.047   4.487   7.358  0.1443 -0.6955  0.9611
 6052SOL    HW229793   3.965   4.596   7.416  0.8734 -2.0853  0.2029
 6053SOL     OW29794   3.064   0.225  16.747  0.9757  0.4567  0.1098
 6053SOL    HW129795   3.105   0.230  16.661 -0.0701  1.6266 -0.3202
 6053SOL    HW229796   3.132   0.194  16.807 -0.8504 -0.8035  1.5273
 6054SOL     OW29797   3.156   0.865   0.567  0.1238  0.0864 -0.0413
 6054SOL    HW129798   3.124   0.890   0.480 -0.0379 -3.7705 -1.0939
 6054SOL    HW229799   3.181   0.955   0.588 -1.2322  0.2812  0.6965
 6055SOL     OW29800   3.892   4.629   9.211 -0.4904  0.0350  0.1320
 6055SOL    HW129801   3.966   4.598   9.159 -0.7797  1.4461 -1.1204
 6055SOL    HW229802   3.820   4.574   9.181 -0.0974 -0.8015  0.7177
 6056SOL     OW29803   2.567   1.683  13.076 -0.0855 -0.2088 -0.5491
 6056SOL    HW129804   2.614   1.609  13.115  0.2241 -0.0606 -0.6368
 6056SOL    HW229805   2.636   1.715  13.018  0.9642  0.7494  1.2234
 6057SOL     OW29806   0.858   2.144   9.387 -0.0607 -0.1391 -0.1592
 6057SOL    HW129807   0.772   2.174   9.415 -0.0844  0.7403 -1.1939
 6057SOL    HW229808   0.909   2.210   9.433  3.2950 -2.2464 -0.8642
 6058SOL     OW29809   2.176   4.261   1.721  0.9641  0.3810  0.1315
 6058SOL    HW129810   2.188   4.170   1.697  3.0029  1.3162 -2.3828
 6058SOL    HW229811   2.161   4.296   1.633  2.2394 -0.0729 -0.2618
 6059SOL     OW29812   2.648   1.481   0.103 -0.0794 -0.0844 -0.3928
 6059SOL    HW129813   2.599   1.480   0.021  2.3724  0.0707 -1.8758
 6059SOL    HW229814   2.699   1.400   0.098 -0.0500 -0.0745 -0.2717
 6060SOL     OW29815   0.318   0.490   8.094  0.0779 -0.1384  0.3060
 6060SOL    HW129816   0.233   0.469   8.131  1.1418 -1.8852  1.7536
 6060SOL    HW229817   0.343   0.403   8.064 -0.7394 -0.5504  0.8295
 6061SOL     OW29818   0.074   2.541   5.366  0.5763  0.1338  0.1135
 6061SOL    HW129819   0.046   2.460   5.410 -0.4904  0.0759 -0.6657
 6061SOL    HW229820   0.167   2.538   5.387  1.1431 -0.6465 -2.5991
 6062SOL     OW29821   3.528   1.265   3.105 -0.2136 -0.3586 -0.3071
 6062SOL    HW129822   3.499   1.175   3.093 -1.1795  0.0127 -0.7779
 6062SOL    HW229823   3.528   1.302   3.016  1.0729  2.1002  0.7066
 6063SOL     OW29824   0.299   3.647  14.899 -0.0681 -0.1112  0.2110
 6063SOL    HW129825   0.227   3.673  14.956  1.0048  1.3197  0.9144
 6063SOL    HW229826   0.246   3.652  14.819  0.3515  1.9024  0.0620
 6064SOL     OW29827   4.122   1.285   6.174  0.3188 -0.2506 -0.2672
 6064SOL    HW129828   4.198   1.272   6.117 -0.2536  1.7142 -1.4824
 6064SOL    HW229829   4.059   1.301   6.104  0.1350  1.6747  0.3581
 6065SOL     OW29830   3.241   4.454   8.840 -0.5871  0.0798 -0.0430
 6065SOL    HW129831   3.265   4.525   8.782  1.1421 -0.5359 -0.0839
 6065SOL    HW229832   3.211   4.393   8.773 -0.0477 -1.6613  1.2799
 6066SOL     OW29833   3.086   4.033  12.215  0.5108 -0.6674  0.2597
 6066SOL    HW129834   3.114   4.059  12.303 -2.1613  1.4680  0.4840
 6066SOL    HW229835   3.113   4.106  12.159 -0.8958 -0.3940 -0.0694
 6067SOL     OW29836   3.883   3.354  16.032 -0.4356  0.5983 -0.0675
 6067SOL    HW129837   3.898   3.428  16.091  2.1741  0.9456 -1.1595
 6067SOL    HW229838   3.796   3.369  15.995 -1.3481  0.1041  1.8869
 6068SOL     OW29839   2.709   0.032   6.575 -0.0832 -0.0687  0.6051
 6068SOL    HW129840   2.796   0.049   6.539 -1.1854 -0.0137 -2.0690
 6068SOL    HW229841   2.684   4.686   6.532 -1.2769 -0.4028  1.9529
 6069SOL     OW29842   2.830   1.026   1.421 -0.4129 -0.1137 -0.5523
 6069SOL    HW129843   2.902   1.042   1.483  0.3291  1.3790 -1.7901
 6069SOL    HW229844   2.878   1.060   1.345  1.2757 -0.9299  0.1280
 6070SOL     OW29845   1.147   2.860  12.207 -0.0650 -0.0767  0.2535
 6070SOL    HW129846   1.229   2.909  12.202 -0.2550  0.4389  1.9053
 6070SOL    HW229847   1.092   2.910  12.147  0.0118 -0.5974 -0.2479
 6071SOL     OW29848   0.247   0.937   2.468  0.6159  0.6481  0.2005
 6071SOL    HW129849   0.278   1.001   2.405  2.6315  0.6240  1.1921
 6071SOL    HW229850   0.319   0.948   2.529  2.2007  0.2183 -1.6097
 6072SOL     OW29851   2.615   1.962  15.858 -0.3414 -0.0496  0.2028
 6072SOL    HW129852   2.522   1.948  15.842  0.2300  0.0631 -3.1973
 6072SOL    HW229853   2.644   1.997  15.774 -0.3818  0.8193  0.5412
 6073SOL     OW29854   0.239   2.385   6.716 -0.4663  0.1946 -0.0548
 6073SOL    HW129855   0.222   2.477   6.736 -0.6890  0.5692 -1.9547
 6073SOL    HW229856   0.305   2.394   6.647  2.0239 -0.9072  2.1496
 6074SOL     OW29857   3.928   3.853   1.658  0.3070 -0.3086 -0.3867
 6074SOL    HW129858   3.997   3.824   1.718 -0.9184 -2.0997  0.1355
 6074SOL    HW229859   3.873   3.775   1.663 -2.0663  1.3458 -0.5368
 6075SOL     OW29860   1.770   0.622  11.542 -0.1986 -0.3963  0.1997
 6075SOL    HW129861   1.842   0.679  11.570  1.1532 -2.8933  1.8528
 6075SOL    HW229862   1.783   0.560  11.614  4.6093  0.8155  0.4047
 6076SOL     OW29863   1.917   2.567   1.506  0.2531 -0.4374 -0.3704
 6076SOL    HW129864   1.827   2.582   1.479  0.6013 -0.1112 -1.3757
 6076SOL    HW229865   1.905   2.495   1.568  0.0320  1.6700  2.0300
 6077SOL     OW29866   2.876   3.481   3.134  0.2553  0.5429  0.2119
 6077SOL    HW129867   2.957   3.435   3.111 -0.3239 -0.5436  0.3060
 6077SOL    HW229868   2.815   3.409   3.151  0.6419  0.1806  0.0688
 6078SOL     OW29869   2.337   0.495  10.343 -0.2822 -0.5149  0.1198
 6078SOL    HW129870   2.254   0.449  10.337  0.5067 -1.7882 -0.9523
 6078SOL    HW229871   2.392   0.429  10.384  1.8242  0.6711 -0.7723
 6079SOL     OW29872   1.355   0.090   1.483 -0.5525  0.2853  0.3639
 6079SOL    HW129873   1.380   0.106   1.392  0.8565 -0.2067  0.6659
 6079SOL    HW229874   1.386   4.735   1.489  0.4571  0.5997 -0.1596
 6080SOL     OW29875   1.637   2.990   4.661 -1.0337  0.2091 -0.3579
 6080SOL    HW129876   1.595   2.967   4.578 -0.8635 -1.1605 -0.0689
 6080SOL    HW229877   1.726   2.996   4.627 -0.9662  2.3888  0.1675
 6081SOL     OW29878   2.857   2.568   8.218  0.7687 -0.9256  0.2580
 6081SOL    HW129879   2.910   2.630   8.269 -1.2661  1.3431 -0.3837
 6081SOL    HW229880   2.924   2.519   8.170 -0.5605 -0.6995 -1.8160
 6082SOL     OW29881   1.149   0.749   4.306 -0.1237 -0.2223  0.5040
 6082SOL    HW129882   1.120   0.840   4.317 -2.1990 -0.6920 -1.2457
 6082SOL    HW229883   1.197   0.745   4.389 -0.2968  2.6712  0.7643
 6083SOL     OW29884   4.351   1.821  10.916  0.2811 -0.4664  0.2218
 6083SOL    HW129885   4.392   1.808  10.831 -0.6512 -2.7674  0.1384
 6083SOL    HW229886   4.307   1.736  10.920  1.6053 -1.1874 -0.4632
 6084SOL     OW29887   2.290   0.310   7.585 -0.6276  0.2543  0.1759
 6084SOL    HW129888   2.341   0.234   7.557  0.3184  0.5181  1.1916
 6084SOL    HW229889   2.259   0.277   7.669 -3.0602  2.3246  0.0895
 6085SOL     OW29890   2.157   3.376  12.389  0.3847 -0.6506  0.2953
 6085SOL    HW129891   2.123   3.293  12.423  1.7602 -0.4838  2.0353
 6085SOL    HW229892   2.167   3.432  12.465 -0.4385  1.4611 -1.1568
 6086SOL     OW29893   4.345   1.934   8.609  0.1149  0.1049  0.1440
 6086SOL    HW129894   4.280   1.972   8.550 -0.8984  0.3172  1.3856
 6086SOL    HW229895   4.418   1.912   8.552  1.8708 -2.4872  3.3822
 6087SOL     OW29896   0.809   0.482   4.487 -0.1635  0.7018  0.1539
 6087SOL    HW129897   0.872   0.411   4.499  1.3728  1.9309 -0.6225
 6087SOL    HW229898   0.829   0.548   4.555  0.2261 -0.1480  0.8624
 6088SOL     OW29899   2.098   0.852  10.295  0.1145 -0.8055 -0.3331
 6088SOL    HW129900   2.060   0.764  10.289 -2.8831  0.4746 -0.2062
 6088SOL    HW229901   2.054   0.900  10.225  0.7402  0.1000 -0.1049
 6089SOL     OW29902   3.815   3.913   2.241 -0.7527 -0.2587  0.4284
 6089SOL    HW129903   3.855   3.859   2.309 -0.8351 -0.6825  0.1398
 6089SOL    HW229904   3.820   4.002   2.276 -0.8716  0.6980 -2.0359
 6090SOL     OW29905   1.131   2.038   2.057  0.2510 -0.6519 -0.3692
 6090SOL    HW129906   1.077   2.005   1.986  0.4664 -1.0617 -0.3434
 6090SOL    HW229907   1.063   2.067   2.117  0.3078  0.7872 -0.9807
 6091SOL     OW29908   1.554   4.089   8.891  0.0207 -0.3919  0.2803
 6091SOL    HW129909   1.597   4.168   8.923 -0.7140  1.0526 -2.2913
 6091SOL    HW229910   1.633   4.045   8.861 -0.2853 -1.0313  0.4195
 6092SOL     OW29911   0.666   2.213  13.421 -0.2879 -0.2542 -0.3746
 6092SOL    HW129912   0.679   2.170  13.505  0.4199  0.5506 -0.0678
 6092SOL    HW229913   0.754   2.239  13.394 -1.0255 -0.9371 -3.4218
 6093SOL     OW29914   3.540   3.437   7.077  0.2100  0.0519  0.1630
 6093SOL    HW129915   3.494   3.441   6.993 -0.8644 -0.0010  0.7553
 6093SOL    HW229916   3.623   3.410   7.037 -0.9282  0.2553 -2.3435
 6094SOL     OW29917   4.347   1.767  13.388  0.6908 -0.7268 -0.2696
 6094SOL    HW129918   4.421   1.720  13.427  1.5626 -1.6227 -2.9539
 6094SOL    HW229919   4.281   1.737  13.450  1.7361 -1.0529  0.6863
 6095SOL     OW29920   1.986   4.430   6.735 -0.5314  0.4474 -0.7449
 6095SOL    HW129921   2.050   4.422   6.664  0.7883  1.3618  0.3636
 6095SOL    HW229922   1.908   4.390   6.696  0.1905 -3.3608  1.6468
 6096SOL     OW29923   0.024   4.284  11.319  0.5890 -0.2863  0.3735
 6096SOL    HW129924   0.061   4.198  11.297 -2.9004 -1.3951 -1.1541
 6096SOL    HW229925   0.027   4.272  11.414 -0.5529  1.3175  0.6053
 6097SOL     OW29926   4.208   4.492   7.022 -0.0718  0.1561  0.0435
 6097SOL    HW129927   4.121   4.457   7.003  0.4874  0.0659 -2.4015
 6097SOL    HW229928   4.250   4.432   7.084 -1.7224 -0.3235  0.7017
 6098SOL     OW29929   2.104   2.613   3.333  0.7319 -0.1409  0.1863
 6098SOL    HW129930   2.013   2.624   3.306  0.9145 -0.1751 -0.4263
 6098SOL    HW229931   2.124   2.706   3.345 -2.9121  0.4017  2.2526
 6099SOL     OW29932   1.147   2.437   3.255 -0.2846 -0.1984 -0.3008
 6099SOL    HW129933   1.149   2.450   3.160 -2.2237  0.9154 -0.2051
 6099SOL    HW229934   1.076   2.374   3.268  0.2426 -1.0518 -1.5713
 6100SOL     OW29935   1.756   0.827   5.252  0.3971 -0.5543 -0.4381
 6100SOL    HW129936   1.756   0.790   5.163  2.3884  1.8110 -1.4177
 6100SOL    HW229937   1.840   0.795   5.285  0.8812 -0.5417 -1.6470
 6101SOL     OW29938   2.855   4.244   3.703  0.3406 -0.3909 -0.5474
 6101SOL    HW129939   2.909   4.216   3.776  0.3307  1.2770  0.1090
 6101SOL    HW229940   2.773   4.197   3.718 -0.9621  2.3801  0.9332
 6102SOL     OW29941   1.589   2.572   2.979  0.0808 -0.0384 -0.5694
 6102SOL    HW129942   1.553   2.492   2.941  1.5942 -1.3563  0.7807
 6102SOL    HW229943   1.519   2.638   2.984  0.3780  0.2200  0.1257
 6103SOL     OW29944   3.685   3.343  12.616  0.1732  0.0901  0.0053
 6103SOL    HW129945   3.716   3.334  12.526  1.5493 -1.0293  0.5944
 6103SOL    HW229946   3.593   3.323  12.603  0.2575 -0.2595 -0.0529
 6104SOL     OW29947   3.604   2.483   6.369 -0.7604 -0.4484  0.1980
 6104SOL    HW129948   3.561   2.399   6.385 -1.4090 -0.3260 -0.8495
 6104SOL    HW229949   3.538   2.535   6.323 -0.0481  0.0025 -0.3131
 6105SOL     OW29950   0.454   0.513   3.073 -0.2527 -0.4572 -0.5245
 6105SOL    HW129951   0.496   0.485   3.154 -0.8062  0.1611 -0.0211
 6105SOL    HW229952   0.464   0.437   3.015  4.5206 -0.8622  0.8941
 6106SOL     OW29953   2.469   0.346  16.593  0.1699  0.1163  0.1609
 6106SOL    HW129954   2.551   0.327  16.548  0.3917  0.8659  0.2486
 6106SOL    HW229955   2.449   0.429  16.550  1.3869  0.6359  0.5991
 6107SOL     OW29956   0.960   1.957  13.935 -0.5319  0.5068 -0.1581
 6107SOL    HW129957   0.914   1.882  13.972  2.0044 -1.1763 -0.4568
 6107SOL    HW229958   0.902   2.030  13.956 -0.2865 -0.3410  3.5490
 6108SOL     OW29959   2.991   1.077   0.774  0.5531 -0.0586 -0.0334
 6108SOL    HW129960   2.933   1.031   0.713  0.8610 -0.0420 -0.3367
 6108SOL    HW229961   3.078   1.051   0.745  0.9282  0.2354  0.8163
 6109SOL     OW29962   0.482   1.133   5.681  0.0046 -0.0868  0.1643
 6109SOL    HW129963   0.534   1.130   5.601 -0.6489 -1.5283 -0.2092
 6109SOL    HW229964   0.439   1.217   5.666 -1.4586 -0.5132  1.8972
 6110SOL     OW29965   1.077   4.201   8.064 -0.2640  0.2832 -0.1301
 6110SOL    HW129966   1.165   4.236   8.078 -0.6304  1.3988 -0.6593
 6110SOL    HW229967   1.027   4.232   8.139  0.6207  0.0343  0.5711
 6111SOL     OW29968   3.127   3.112  11.547  0.4238  0.2734  0.2236
 6111SOL    HW129969   3.064   3.151  11.487  0.2910  0.0071  0.1909
 6111SOL    HW229970   3.064   3.051  11.584  0.1819  0.0273 -0.5893
 6112SOL     OW29971   0.750   4.202  10.181  0.3825 -0.1795 -0.0959
 6112SOL    HW129972   0.682   4.141  10.209  0.4300 -2.2318 -4.4258
 6112SOL    HW229973   0.704   4.284  10.197 -0.7842 -0.6052 -1.2992
 6113SOL     OW29974   3.241   1.456   8.692  0.0712  0.0563  0.1252
 6113SOL    HW129975   3.185   1.440   8.616 -0.4889  0.0577  0.5461
 6113SOL    HW229976   3.258   1.550   8.693 -4.1443  0.8515 -2.1115
 6114SOL     OW29977   4.657   1.789   9.120  1.0913 -0.1082 -0.6828
 6114SOL    HW129978   4.682   1.712   9.171 -0.7025 -1.4950 -1.9071
 6114SOL    HW229979   4.713   1.800   9.043  1.9828  0.4888  0.0455
 6115SOL     OW29980   1.037   1.776   3.550  0.1808 -0.0165  0.2491
 6115SOL    HW129981   1.051   1.766   3.456  0.9656 -1.8052  0.5580
 6115SOL    HW229982   0.999   1.861   3.572 -0.9203 -0.5199  0.3063
 6116SOL     OW29983   2.383   1.417   4.818  0.1864 -0.4566 -0.3255
 6116SOL    HW129984   2.454   1.390   4.760  1.4712  0.1627  0.9564
 6116SOL    HW229985   2.401   1.372   4.901  1.8044  1.1370  0.1854
 6117SOL     OW29986   3.925   1.083  14.019  0.1791 -0.4233  0.2112
 6117SOL    HW129987   3.911   1.088  14.113 -0.1184 -0.0325  0.1474
 6117SOL    HW229988   3.840   1.116  13.991 -0.0904  0.4047  2.0501
 6118SOL     OW29989   1.547   1.481   7.357  0.1708 -0.3568  0.1525
 6118SOL    HW129990   1.628   1.502   7.404  0.9549  0.2395 -1.4303
 6118SOL    HW229991   1.570   1.409   7.299  0.9250  0.8439 -1.0556
 6119SOL     OW29992   0.704   4.490   5.359  0.2622  0.0934 -0.5260
 6119SOL    HW129993   0.737   4.569   5.403 -0.0328  0.2224 -0.5350
 6119SOL    HW229994   0.756   4.489   5.279  2.1684 -1.9601  0.7539
 6120SOL     OW29995   2.466   0.553   5.367  0.2464 -0.0727 -0.6558
 6120SOL    HW129996   2.446   0.545   5.273 -0.8066  1.0535 -0.5183
 6120SOL    HW229997   2.446   0.646   5.376  0.2502 -0.0035 -1.3555
 6121SOL     OW29998   1.869   1.474   6.988  0.3874 -0.3036 -0.5884
 6121SOL    HW129999   1.898   1.549   6.936  2.6863  0.5922  1.9616
 6121SOL    HW230000   1.931   1.404   6.967  1.2086  0.6082 -1.1775
 6122SOL     OW30001   2.290   1.243   7.596 -0.6261 -0.6890  0.1888
 6122SOL    HW130002   2.344   1.309   7.554 -1.0680  1.3099  2.7219
 6122SOL    HW230003   2.204   1.285   7.605 -0.0957  0.4196  0.0698
 6123SOL     OW30004   3.617   3.788   1.708 -0.4540  0.1542 -0.8598
 6123SOL    HW130005   3.611   3.809   1.801  0.6802 -2.5442 -0.1776
 6123SOL    HW230006   3.549   3.842   1.667 -0.6545 -0.3653 -1.2072
 6124SOL     OW30007   3.897   3.654   0.052 -0.0692  0.2140 -0.4257
 6124SOL    HW130008   3.820   3.676  17.739  0.1927  0.7771 -0.5661
 6124SOL    HW230009   3.884   3.559   0.056  0.3574  0.0985 -1.8722
 6125SOL     OW30010   3.692   1.260   6.852  0.0291 -0.0274  0.2218
 6125SOL    HW130011   3.712   1.297   6.766 -3.5524  1.6374  0.0841
 6125SOL    HW230012   3.648   1.328   6.903  0.3150 -0.0068  0.4390
 6126SOL     OW30013   2.046   1.321   3.673 -0.0997  0.0204  0.2319
 6126SOL    HW130014   2.103   1.368   3.735  0.0785  1.8437 -1.2937
 6126SOL    HW230015   2.087   1.235   3.665  0.4563  0.1813  1.3593
 6127SOL     OW30016   2.412   3.049   7.559  0.2192 -0.1475  0.7003
 6127SOL    HW130017   2.411   2.954   7.568  1.4023 -0.1958  0.2945
 6127SOL    HW230018   2.500   3.078   7.582  0.3279  0.6385 -0.6913
 6128SOL     OW30019   1.647   1.305   1.591 -1.2048 -0.2676 -0.1916
 6128SOL    HW130020   1.635   1.396   1.616 -1.0745  0.5532 -3.1081
 6128SOL    HW230021   1.560   1.277   1.619 -2.1788  2.9703 -0.0188
 6129SOL     OW30022   0.610   0.502   5.679 -0.3112 -0.2546 -0.4901
 6129SOL    HW130023   0.550   0.540   5.615 -1.9303 -3.1477 -0.7325
 6129SOL    HW230024   0.561   0.538   5.753 -1.0868  0.6407 -1.4370
 6130SOL     OW30025   4.067   4.426   0.617 -0.0642 -0.3676 -0.1988
 6130SOL    HW130026   4.101   4.416   0.528 -0.3172  0.9839 -0.4458
 6130SOL    HW230027   3.976   4.451   0.600 -0.0396  0.9507  1.6831
 6131SOL     OW30028   0.687   1.022   7.137 -0.0531  0.2740  0.1138
 6131SOL    HW130029   0.734   0.949   7.178 -2.8111 -0.8024  1.3573
 6131SOL    HW230030   0.682   1.072   7.219 -1.1719 -1.7152  1.2529
 6132SOL     OW30031   1.758   2.881   3.210  0.1953 -0.7311 -0.6199
 6132SOL    HW130032   1.679   2.833   3.235  0.2831 -0.4323  0.2321
 6132SOL    HW230033   1.750   2.957   3.267 -0.9768 -0.0517 -1.6805
 6133SOL     OW30034   1.023   3.537   8.832  0.9584  0.7979  0.2330
 6133SOL    HW130035   1.083   3.497   8.895  1.2453  0.7286 -0.0842
 6133SOL    HW230036   1.043   3.487   8.753 -0.3523  0.1961  0.2777
 6134SOL     OW30037   1.120   0.493   2.103 -0.0173  0.4174 -0.3394
 6134SOL    HW130038   1.051   0.535   2.155 -0.3283 -0.4964 -0.0233
 6134SOL    HW230039   1.066   0.488   2.025  0.8213  1.2123 -0.9709
 6135SOL     OW30040   4.479   1.422   6.289  0.3709 -0.3888  0.3727
 6135SOL    HW130041   4.428   1.341   6.294 -2.1796  1.3179  1.8506
 6135SOL    HW230042   4.524   1.415   6.204  1.7509  0.5859  1.0324
 6136SOL     OW30043   1.406   3.360  13.815 -0.6167 -0.3292  0.3452
 6136SOL    HW130044   1.451   3.439  13.784  1.6426 -0.9412  2.0795
 6136SOL    HW230045   1.333   3.356  13.753 -1.2374  2.1341  0.8921
 6137SOL     OW30046   2.290   0.111   3.409 -0.3485  0.2814 -0.9717
 6137SOL    HW130047   2.317   0.201   3.426  1.2446 -0.2199 -0.8707
 6137SOL    HW230048   2.319   0.091   3.320 -1.2704  0.8017 -1.3995
 6138SOL     OW30049   1.863   0.774   6.249 -0.7394  0.4172 -0.3522
 6138SOL    HW130050   1.891   0.715   6.179  1.2151 -0.4721  1.1836
 6138SOL    HW230051   1.832   0.714   6.318  0.9435 -1.5520 -1.3261
 6139SOL     OW30052   1.836   2.906   7.006 -0.5505 -0.6134 -0.4150
 6139SOL    HW130053   1.797   2.945   7.084 -0.6581  1.4194 -1.4885
 6139SOL    HW230054   1.912   2.865   7.048 -0.5996 -1.1356 -0.8460
 6140SOL     OW30055   3.551   0.800   9.562 -0.3330  0.3332  0.6130
 6140SOL    HW130056   3.524   0.882   9.521 -1.4641  0.4102  1.4897
 6140SOL    HW230057   3.613   0.763   9.500 -0.5681 -0.7246  1.0052
 6141SOL     OW30058   2.856   4.613   4.254 -0.2741  0.3739 -0.7034
 6141SOL    HW130059   2.934   4.614   4.309 -1.0396  1.4190  0.3795
 6141SOL    HW230060   2.875   4.530   4.211  0.8001 -0.4752  1.4246
 6142SOL     OW30061   2.527   2.005  10.561  0.1606 -0.1154 -0.0195
 6142SOL    HW130062   2.519   2.079  10.623 -1.1223  0.6703 -1.1228
 6142SOL    HW230063   2.482   2.040  10.484  1.0411 -1.9214 -1.3580
 6143SOL     OW30064   2.149   2.858   7.432 -0.3299 -0.2482 -0.2358
 6143SOL    HW130065   2.224   2.823   7.383 -0.6743 -0.7419 -0.4120
 6143SOL    HW230066   2.143   2.950   7.405 -1.8439  0.0105  0.9914
 6144SOL     OW30067   2.356   0.572   4.894  0.3549 -0.3186  0.2244
 6144SOL    HW130068   2.327   0.481   4.905  1.6015 -0.7678 -0.2193
 6144SOL    HW230069   2.408   0.578   4.814  0.7087 -1.4415  0.3697
 6145SOL     OW30070   0.957   1.752   3.894  0.5458 -0.0406 -0.4184
 6145SOL    HW130071   0.977   1.664   3.862 -0.6032  0.2725 -1.9623
 6145SOL    HW230072   0.861   1.751   3.890  0.4927  0.8681  0.5529
 6146SOL     OW30073   2.111   0.829  10.585  0.4182 -0.1948  0.4480
 6146SOL    HW130074   2.201   0.857  10.601  0.8437 -0.9191 -0.6579
 6146SOL    HW230075   2.111   0.826  10.489 -0.2593 -1.8489  0.4894
 6147SOL     OW30076   4.082   4.363   5.825  0.2332  0.4287  0.3070
 6147SOL    HW130077   3.988   4.369   5.841  0.2944 -2.4828  1.7988
 6147SOL    HW230078   4.100   4.456   5.816  1.1616  0.3178  1.1010
 6148SOL     OW30079   3.088   3.393   7.778  0.4343  0.4748 -0.3065
 6148SOL    HW130080   3.102   3.312   7.828  0.5392  0.5055 -0.2858
 6148SOL    HW230081   3.076   3.353   7.692 -1.8398 -0.6999  0.5661
 6149SOL     OW30082   2.169   1.628   2.717  0.2138 -0.4057  0.2549
 6149SOL    HW130083   2.128   1.576   2.648 -0.3325 -0.7936  0.8729
 6149SOL    HW230084   2.224   1.563   2.760  0.1740 -1.6496 -1.5847
 6150SOL     OW30085   3.277   3.614   5.415  0.0717 -0.0808  0.0454
 6150SOL    HW130086   3.277   3.562   5.496  3.8410 -0.6693 -0.3115
 6150SOL    HW230087   3.369   3.620   5.390 -0.0480 -1.5234 -0.7578
 6151SOL     OW30088   0.333   3.209   2.470  0.0041  0.6032  0.4551
 6151SOL    HW130089   0.288   3.125   2.462  1.2523 -0.1135  0.8946
 6151SOL    HW230090   0.411   3.178   2.516  0.9004 -0.0806 -1.5295
 6152SOL     OW30091   1.885   1.323  12.298 -0.1653  0.1989  0.3214
 6152SOL    HW130092   1.907   1.416  12.289  0.5544  0.0029  0.0508
 6152SOL    HW230093   1.892   1.316  12.393 -2.6908 -1.1271  0.4079
 6153SOL     OW30094   3.552   1.078   1.630 -0.0899 -0.0726 -0.2587
 6153SOL    HW130095   3.534   1.132   1.553  0.0450  1.5224  0.8327
 6153SOL    HW230096   3.611   1.013   1.592 -1.0071 -0.2715 -1.3217
 6154SOL     OW30097   2.261   2.984   5.945  0.8496 -0.1757  0.0093
 6154SOL    HW130098   2.188   3.012   5.890  2.1129 -0.7514 -1.9708
 6154SOL    HW230099   2.335   3.040   5.920  0.0934  0.8117  0.0013
 6155SOL     OW30100   2.464   0.266   9.786 -0.0264 -0.3137 -0.6787
 6155SOL    HW130101   2.523   0.207   9.738  0.0803 -1.7865  1.2390
 6155SOL    HW230102   2.453   0.221   9.870 -0.0014 -1.6645 -1.4060
 6156SOL     OW30103   1.069   2.874   5.546  0.8078  0.5667  0.3234
 6156SOL    HW130104   0.998   2.830   5.593  1.9090  0.7872  2.1769
 6156SOL    HW230105   1.149   2.857   5.596  1.5374 -0.1994 -1.0988
 6157SOL     OW30106   0.126   3.046   2.210 -0.2958 -0.3063 -0.3689
 6157SOL    HW130107   0.078   2.966   2.234  0.3930 -0.4474  0.5491
 6157SOL    HW230108   0.157   3.067   2.298 -1.1924 -1.8714  0.3327
 6158SOL     OW30109   3.136   2.516   2.826  0.3848 -0.1161 -0.1009
 6158SOL    HW130110   3.199   2.452   2.793 -0.8090 -1.2206 -0.2278
 6158SOL    HW230111   3.053   2.482   2.793  1.7898 -1.8904 -1.8112
 6159SOL     OW30112   3.325   2.283   9.085 -0.5989 -0.2565 -0.1551
 6159SOL    HW130113   3.398   2.298   9.025  1.5013 -0.2311  2.3656
 6159SOL    HW230114   3.313   2.189   9.070 -1.3083  0.1332 -1.9882
 6160SOL     OW30115   2.472   1.042   6.269 -0.0196  0.0605 -0.2173
 6160SOL    HW130116   2.507   0.966   6.316 -1.2093 -0.6341 -0.4485
 6160SOL    HW230117   2.386   1.013   6.237  0.2062 -0.6600 -0.1873
 6161SOL     OW30118   1.144   2.362   1.461 -0.2650 -0.5544  0.5166
 6161SOL    HW130119   1.178   2.357   1.550 -0.0898  0.2307  0.4912
 6161SOL    HW230120   1.184   2.445   1.439 -1.2799  0.4292  2.4027
 6162SOL     OW30121   1.128   1.014  16.726 -0.4430  0.4647  0.6368
 6162SOL    HW130122   1.034   0.999  16.738 -0.6783  0.5382 -1.0503
 6162SOL    HW230123   1.145   0.976  16.639  0.5244  0.9694  0.6050
 6163SOL     OW30124   2.230   1.324   2.746  0.0359 -0.3932 -0.5033
 6163SOL    HW130125   2.302   1.310   2.684  0.3589  0.9490 -0.4201
 6163SOL    HW230126   2.152   1.311   2.692  0.7486 -2.5658 -1.0235
 6164SOL     OW30127   2.570   2.348   5.316  0.4773  0.4246  0.5726
 6164SOL    HW130128   2.574   2.420   5.379  2.9779  0.5914  0.2350
 6164SOL    HW230129   2.485   2.366   5.276  1.5408 -1.0581 -2.3294
 6165SOL     OW30130   1.453   3.339   2.608 -0.2094 -0.1434 -0.1063
 6165SOL    HW130131   1.463   3.373   2.519 -1.4844 -0.1081 -0.2432
 6165SOL    HW230132   1.433   3.246   2.600 -1.3763 -0.0400  1.6166
 6166SOL     OW30133   2.439   2.565   8.442 -0.5144 -0.4752 -0.3764
 6166SOL    HW130134   2.512   2.558   8.502 -1.3999 -0.1875  0.7271
 6166SOL    HW230135   2.401   2.646   8.477 -4.3980 -2.6049  0.2364
 6167SOL     OW30136   4.242   1.384   7.530 -0.2017 -0.3181 -0.6102
 6167SOL    HW130137   4.302   1.314   7.555 -1.4711 -0.8805  0.8392
 6167SOL    HW230138   4.246   1.431   7.613 -0.2291 -1.4270  0.0154
 6168SOL     OW30139   0.400   0.849   9.315 -0.5371 -0.6294 -0.1127
 6168SOL    HW130140   0.460   0.921   9.297 -1.3731 -0.1284 -0.8659
 6168SOL    HW230141   0.423   0.791   9.242 -1.5542 -3.1666  1.5683
 6169SOL     OW30142   3.679   0.429   9.450  0.1877 -0.6700  0.0904
 6169SOL    HW130143   3.751   0.369   9.432  1.8196  1.1516  0.5111
 6169SOL    HW230144   3.628   0.366   9.501 -1.9957  0.1787 -1.0569
 6170SOL     OW30145   0.376   3.640  12.285 -0.4285  0.0533 -0.1012
 6170SOL    HW130146   0.423   3.666  12.206  2.0600 -0.1983  1.3085
 6170SOL    HW230147   0.402   3.711  12.344  0.3792  0.4182 -0.8916
 6171SOL     OW30148   4.699   3.994   6.777 -0.1116 -0.2617  0.5156
 6171SOL    HW130149   0.042   3.963   6.822 -1.0389 -1.1125  1.5364
 6171SOL    HW230150   4.636   3.994   6.849 -0.9808  0.4179 -0.2400
 6172SOL     OW30151   0.855   3.418   4.626  0.2111 -0.7839  0.5436
 6172SOL    HW130152   0.894   3.415   4.539 -1.4941  0.2096 -0.2701
 6172SOL    HW230153   0.896   3.343   4.669  1.2966 -1.7179 -2.1348
 6173SOL     OW30154   2.912   3.093   4.495  0.1335  0.2670  0.8435
 6173SOL    HW130155   2.868   3.043   4.427  0.5946  2.7251 -1.2727
 6173SOL    HW230156   2.993   3.045   4.510 -0.8004 -1.1638  1.2998
 6174SOL     OW30157   0.417   1.733   5.468 -0.1405 -0.2839 -0.1476
 6174SOL    HW130158   0.354   1.797   5.436 -1.0172 -2.4679 -2.7382
 6174SOL    HW230159   0.482   1.790   5.509  1.2810  0.6325 -3.6646
 6175SOL     OW30160   4.605   3.779   6.610  0.0989  1.1412 -0.6533
 6175SOL    HW130161   4.645   3.860   6.642 -1.1761 -0.3590  4.8571
 6175SOL    HW230162   4.620   3.725   6.688 -0.8301 -1.0022 -1.9693
 6176SOL     OW30163   3.045   3.719   7.193 -0.0410 -0.4568 -0.1610
 6176SOL    HW130164   2.963   3.758   7.161 -1.2943 -2.1070  1.0191
 6176SOL    HW230165   3.015   3.633   7.224  1.9085 -1.3558 -0.7819
 6177SOL     OW30166   4.035   2.710   1.798 -0.4774  0.0838 -0.3130
 6177SOL    HW130167   4.025   2.688   1.891  0.8795 -0.0438 -0.1878
 6177SOL    HW230168   4.131   2.715   1.791 -0.5341  0.1859 -0.9804
 6178SOL     OW30169   3.314   0.949  11.634  0.2376  0.2291  0.5201
 6178SOL    HW130170   3.314   0.927  11.541 -2.6195 -0.1178  0.6151
 6178SOL    HW230171   3.317   1.045  11.631  0.7539  0.1976  0.0477
 6179SOL     OW30172   2.187   3.555   3.660  0.1738 -0.5716  0.0369
 6179SOL    HW130173   2.161   3.638   3.620  1.6715  1.1416  2.6576
 6179SOL    HW230174   2.221   3.578   3.746 -1.0118  0.1731  0.3029
 6180SOL     OW30175   3.824   3.655  14.911 -0.0796  0.3156 -0.0049
 6180SOL    HW130176   3.844   3.567  14.877  1.2075  0.7406 -0.3464
 6180SOL    HW230177   3.764   3.628  14.980  0.5948 -3.3160 -0.8369
 6181SOL     OW30178   4.103   4.671   5.178  0.7127 -0.9669 -0.0595
 6181SOL    HW130179   4.023   4.723   5.173  2.0462  1.2208  1.5872
 6181SOL    HW230180   4.128   4.668   5.271 -0.6379 -1.1042  0.2971
 6182SOL     OW30181   3.342   2.914   5.094 -0.3951 -0.0224 -0.1003
 6182SOL    HW130182   3.343   2.830   5.138  0.8906 -0.6135 -1.2593
 6182SOL    HW230183   3.311   2.967   5.167  2.0145  1.6585 -0.2868
 6183SOL     OW30184   4.605   0.275  13.532 -0.1800  0.1334  0.3364
 6183SOL    HW130185   4.686   0.322  13.510 -0.1768  0.6400  1.4622
 6183SOL    HW230186   4.543   0.333  13.489 -1.9386 -1.6880  0.4158
 6184SOL     OW30187   3.526   2.956   8.834 -0.0488  0.4743 -0.7787
 6184SOL    HW130188   3.504   2.980   8.924 -2.4078 -1.4917 -0.8426
 6184SOL    HW230189   3.598   3.016   8.813  0.8690  0.0896  1.3149
 6185SOL     OW30190   0.419   3.192  17.667 -0.1022  0.7320  0.3203
 6185SOL    HW130191   0.386   3.106  17.641 -1.7012  1.4162  0.0433
 6185SOL    HW230192   0.437   3.177   0.020 -0.3129  0.7299  0.3622
 6186SOL     OW30193   2.360   0.275   4.954 -0.2440  0.2743  0.0221
 6186SOL    HW130194   2.302   0.235   5.018 -0.0780  2.0127  1.2779
 6186SOL    HW230195   2.315   0.248   4.874 -1.5804  0.9875  0.5256
 6187SOL     OW30196   3.102   1.326   6.846  0.2920  0.0177 -0.8523
 6187SOL    HW130197   3.076   1.396   6.905  1.1713 -0.9761  0.6972
 6187SOL    HW230198   3.198   1.326   6.851  0.3643  2.1979 -2.4013
 6188SOL     OW30199   3.504   2.899   4.895 -0.2998  0.1679 -0.2726
 6188SOL    HW130200   3.547   2.814   4.903  0.9378  0.9547  1.4378
 6188SOL    HW230201   3.436   2.901   4.963 -1.0541  0.9537 -1.0444
 6189SOL     OW30202   1.757   4.380   5.451 -0.3410  0.2331  0.2717
 6189SOL    HW130203   1.753   4.434   5.372  0.3953 -0.3396 -0.1577
 6189SOL    HW230204   1.701   4.311   5.417  0.4768 -0.0116 -0.5946
 6190SOL     OW30205   1.288   0.795  17.373  0.0072  0.5700 -0.6857
 6190SOL    HW130206   1.268   0.702  17.369 -0.0475  0.5576 -0.1019
 6190SOL    HW230207   1.290   0.812  17.278 -0.1402  0.2300 -0.7487
 6191SOL     OW30208   0.057   2.706   5.936 -0.1103 -0.7316 -0.0995
 6191SOL    HW130209   0.104   2.633   5.978 -1.3245 -0.3585  1.9063
 6191SOL    HW230210   0.126   2.772   5.936  0.6859 -1.5672 -1.6335
 6192SOL     OW30211   0.343   3.454  13.447  0.0114  0.2490 -0.2040
 6192SOL    HW130212   0.275   3.400  13.407 -0.3608  0.1352  0.6008
 6192SOL    HW230213   0.363   3.402  13.525  0.9254 -0.7186 -1.0715
 6193SOL     OW30214   0.912   0.837   5.212  0.0911 -0.1589  0.2158
 6193SOL    HW130215   0.898   0.747   5.184  0.5453  0.1746 -1.1134
 6193SOL    HW230216   0.868   0.875   5.136  1.1693 -0.9300 -0.7948
 6194SOL     OW30217   0.934   3.612   3.932  0.0583  0.4147  0.6546
 6194SOL    HW130218   0.990   3.536   3.947  0.8091  0.5071 -1.7313
 6194SOL    HW230219   0.986   3.666   3.872  0.2456  0.6362  1.0140
 6195SOL     OW30220   2.716   4.344  14.300  0.0704  0.3872 -0.0837
 6195SOL    HW130221   2.632   4.338  14.346 -0.3110 -0.1329 -0.8418
 6195SOL    HW230222   2.749   4.430  14.323  0.2279  0.2508  0.2027
 6196SOL     OW30223   1.850   0.208   9.236  0.0003  0.6184  0.3359
 6196SOL    HW130224   1.867   0.276   9.301  0.2664  0.2414  0.6592
 6196SOL    HW230225   1.866   0.264   9.160 -0.2424 -0.1830 -0.3113
 6197SOL     OW30226   1.815   1.587   6.162 -0.2817 -0.2225 -0.6782
 6197SOL    HW130227   1.807   1.496   6.135 -1.5244 -0.6637  1.1542
 6197SOL    HW230228   1.832   1.634   6.081 -2.9180  0.2044 -0.9812
 6198SOL     OW30229   1.893   4.079   5.536 -0.0325 -0.0227  0.3111
 6198SOL    HW130230   1.913   4.097   5.444 -0.3388  1.4688  0.5284
 6198SOL    HW230231   1.798   4.091   5.534  0.0693  0.8805  0.7263
 6199SOL     OW30232   3.849   2.961   0.434  0.0886 -0.1682 -0.4888
 6199SOL    HW130233   3.889   2.904   0.368  0.8298 -0.0643 -0.1328
 6199SOL    HW230234   3.919   2.959   0.500 -0.8864 -2.5107  0.4794
 6200SOL     OW30235   2.027   1.243   6.966  0.3684 -0.3990 -0.8023
 6200SOL    HW130236   2.110   1.251   6.920  0.6253  0.1829 -0.2451
 6200SOL    HW230237   1.970   1.189   6.912 -2.4492  0.6774  1.0471
 6201SOL     OW30238   0.361   4.052  12.731 -0.2430  0.0105 -0.3508
 6201SOL    HW130239   0.313   4.134  12.734  1.3451  1.0077 -1.7365
 6201SOL    HW230240   0.307   3.997  12.675  1.5969 -0.6668 -1.4710
 6202SOL     OW30241   0.715   0.047  13.159  0.2514 -0.5947 -0.0984
 6202SOL    HW130242   0.721   4.709  13.220  2.7976 -1.3217 -1.2198
 6202SOL    HW230243   0.793   0.037  13.105  0.3927  0.8435 -0.1792
 6203SOL     OW30244   0.717   3.881  15.901 -0.8941 -0.1578  0.0726
 6203SOL    HW130245   0.659   3.892  15.826 -1.3961  0.4459  0.5504
 6203SOL    HW230246   0.724   3.971  15.934  0.7377 -1.6896  3.8464
 6204SOL     OW30247   3.570   2.195   7.011  0.2989  0.5905 -0.6936
 6204SOL    HW130248   3.539   2.274   6.967  0.0025 -0.6193 -2.6540
 6204SOL    HW230249   3.664   2.212   7.016  0.4517 -0.5531  0.0830
 6205SOL     OW30250   0.891   4.158   7.669  0.2891  0.4376 -0.0568
 6205SOL    HW130251   0.820   4.112   7.714 -0.3888  0.8010 -0.7524
 6205SOL    HW230252   0.968   4.136   7.722 -0.4096 -0.1122  0.7381
 6206SOL     OW30253   0.359   2.546  14.821  0.3466  0.3511 -0.3587
 6206SOL    HW130254   0.425   2.548  14.752 -2.8492  0.7447 -3.3988
 6206SOL    HW230255   0.277   2.538  14.773 -2.0336  2.7265  3.2660
 6207SOL     OW30256   1.582   3.524  13.639 -0.3552 -0.3987  0.2794
 6207SOL    HW130257   1.579   3.439  13.594  1.4102  0.4049 -1.3208
 6207SOL    HW230258   1.676   3.534  13.654  0.1679 -0.3846 -3.0049
 6208SOL     OW30259   3.797   4.681   9.465 -0.0070  0.5135  0.1971
 6208SOL    HW130260   3.824   0.037   9.451 -0.7524  0.7269  0.1154
 6208SOL    HW230261   3.846   4.643   9.392 -1.9893 -1.5494 -0.0447
 6209SOL     OW30262   3.782   0.819   1.261 -0.6335  0.0643 -0.1060
 6209SOL    HW130263   3.785   0.724   1.272 -2.8303 -0.0553 -0.4221
 6209SOL    HW230264   3.753   0.825   1.170 -0.7414  0.6668 -0.0332
 6210SOL     OW30265   2.896   4.121   5.423  0.2198  0.5798  0.4551
 6210SOL    HW130266   2.940   4.042   5.390 -1.2908 -0.0683  0.0011
 6210SOL    HW230267   2.831   4.086   5.484  1.4077 -0.3689  1.1775
 6211SOL     OW30268   2.721   3.094   5.399 -0.2749  0.4257 -0.4308
 6211SOL    HW130269   2.764   3.087   5.314 -0.0840  0.1252 -0.3063
 6211SOL    HW230270   2.728   3.008   5.439  0.9851  0.6987 -0.0840
 6212SOL     OW30271   2.352   0.238   1.715 -0.0602  0.1171 -0.0972
 6212SOL    HW130272   2.448   0.233   1.716 -0.1164 -1.1558 -0.8973
 6212SOL    HW230273   2.327   0.200   1.799  2.4779 -0.4183  0.4271
 6213SOL     OW30274   3.363   1.049   7.668  0.2452  0.7411 -0.2947
 6213SOL    HW130275   3.343   1.136   7.703  0.6838  0.8425 -0.2956
 6213SOL    HW230276   3.459   1.053   7.674  0.2691 -0.9111  0.5366
 6214SOL     OW30277   3.877   2.523   6.967 -0.7042 -0.0741  0.6408
 6214SOL    HW130278   3.887   2.559   7.055  0.4145  0.6612  0.2209
 6214SOL    HW230279   3.962   2.540   6.926 -2.0169 -0.0394 -2.1206
 6215SOL     OW30280   1.388   2.590  16.834  0.3000  0.2968 -0.3622
 6215SOL    HW130281   1.383   2.674  16.880 -0.6928  0.9491 -1.6552
 6215SOL    HW230282   1.317   2.542  16.876  1.0924  0.9767  1.7379
 6216SOL     OW30283   0.572   2.416   7.736  0.1178 -0.1693  0.1125
 6216SOL    HW130284   0.527   2.410   7.652  1.3787  0.1711 -0.5899
 6216SOL    HW230285   0.493   2.432   7.787 -1.2340 -1.5494 -1.5729
 6217SOL     OW30286   4.350   0.251   8.417 -0.3994 -0.8974 -0.0862
 6217SOL    HW130287   4.368   0.222   8.506 -0.1850 -1.2760 -0.2537
 6217SOL    HW230288   4.355   0.344   8.437  0.0188 -0.7714 -0.8023
 6218SOL     OW30289   3.377   1.815  17.624  0.0049 -0.1836  0.4954
 6218SOL    HW130290   3.293   1.796  17.665 -0.3559  0.7365  0.2047
 6218SOL    HW230291   3.424   1.739  17.658  3.6455  1.3413 -1.0693
 6219SOL     OW30292   3.898   2.915   1.665 -0.0823 -0.1171  0.0075
 6219SOL    HW130293   3.881   2.884   1.576 -0.0696 -0.8101  0.2438
 6219SOL    HW230294   3.960   2.851   1.699 -0.0395 -1.2840 -2.2332
 6220SOL     OW30295   1.108   2.707  12.441 -0.0522  0.0718 -0.0005
 6220SOL    HW130296   1.147   2.760  12.510  1.2810  0.0954 -0.7775
 6220SOL    HW230297   1.121   2.767  12.368  3.7534 -0.8413 -0.0511
 6221SOL     OW30298   0.656   1.357   3.892 -0.5319 -0.7059 -0.1745
 6221SOL    HW130299   0.708   1.313   3.825  0.6339 -0.2626  0.4340
 6221SOL    HW230300   0.711   1.371   3.969 -0.7690 -0.3601 -0.0672
 6222SOL     OW30301   1.821   0.451   7.922 -0.5963 -0.2785  0.1337
 6222SOL    HW130302   1.739   0.427   7.965 -0.7308 -0.8843 -0.4691
 6222SOL    HW230303   1.790   0.473   7.835 -0.2576 -1.5836 -0.3128
 6223SOL     OW30304   0.611   0.686  10.801  0.0565 -0.0835  0.3190
 6223SOL    HW130305   0.574   0.716  10.884  0.1920 -0.3901  0.4949
 6223SOL    HW230306   0.619   0.592  10.820  0.5854  0.6493  3.7319
 6224SOL     OW30307   4.393   0.185   2.159 -0.2276  0.5934 -0.3500
 6224SOL    HW130308   4.425   0.275   2.154 -0.9065  0.8574  0.0265
 6224SOL    HW230309   4.328   0.191   2.229 -2.6223  0.0694 -2.5257
 6225SOL     OW30310   3.384   4.102   7.363  0.4412 -0.2109 -0.4979
 6225SOL    HW130311   3.333   4.180   7.384 -1.3436 -1.4657 -0.1728
 6225SOL    HW230312   3.333   4.029   7.397 -0.4646 -0.1258 -1.6781
 6226SOL     OW30313   0.854   0.728  11.084  0.1372  0.2950 -0.3398
 6226SOL    HW130314   0.936   0.764  11.050 -0.8691  1.3290 -1.6623
 6226SOL    HW230315   0.866   0.635  11.064 -0.2806  0.0195  0.7094
 6227SOL     OW30316   2.718   4.115  11.616  0.2783  0.0914  0.1367
 6227SOL    HW130317   2.626   4.125  11.641  0.4715  0.2827  0.7782
 6227SOL    HW230318   2.726   4.196  11.566  1.8783 -0.0019  0.2569
 6228SOL     OW30319   2.350   3.734   9.174 -0.2569 -0.3537 -0.1293
 6228SOL    HW130320   2.376   3.660   9.229  0.2981  0.8617  1.2188
 6228SOL    HW230321   2.431   3.751   9.126  0.0983 -2.0545 -0.1499
 6229SOL     OW30322   3.390   2.167   4.008 -0.0339 -0.1852  0.1859
 6229SOL    HW130323   3.426   2.090   4.051 -1.9627 -0.3368  1.5275
 6229SOL    HW230324   3.440   2.239   4.047  0.4847 -0.3840 -0.1131
 6230SOL     OW30325   2.098   1.050   9.468  0.0270 -0.4697 -0.2151
 6230SOL    HW130326   2.070   1.060   9.559  1.8196  0.2720  0.2573
 6230SOL    HW230327   2.135   1.134   9.442 -0.1242  0.1391  1.5617
 6231SOL     OW30328   1.804   3.663  11.745  0.0721  0.0007  0.1241
 6231SOL    HW130329   1.744   3.662  11.670 -0.2465 -2.4025  0.4317
 6231SOL    HW230330   1.867   3.729  11.717  0.7955 -1.3725 -1.4757
 6232SOL     OW30331   3.997   0.163  11.956 -0.2367  0.6313  0.4731
 6232SOL    HW130332   3.969   0.230  11.892  1.4683 -0.2702 -1.2058
 6232SOL    HW230333   3.915   0.114  11.967 -0.7536  0.8389 -2.2515
 6233SOL     OW30334   0.033   0.761   2.395 -0.0132  0.2541 -0.2783
 6233SOL    HW130335   0.105   0.824   2.398 -0.4538  0.7419 -0.0838
 6233SOL    HW230336   0.021   0.763   2.490  0.1518 -1.4103 -0.2075
 6234SOL     OW30337   1.292   4.161   8.869  0.6678 -0.0100  0.1967
 6234SOL    HW130338   1.285   4.208   8.952  1.4576 -0.2488  0.4055
 6234SOL    HW230339   1.375   4.113   8.878  1.8299  1.9771  0.0236
 6235SOL     OW30340   3.946   2.894   8.731 -0.4924  0.3077  0.1930
 6235SOL    HW130341   3.971   2.987   8.727 -0.4045  0.3466  1.7072
 6235SOL    HW230342   3.986   2.867   8.648 -0.3620 -0.9172  0.6533
 6236SOL     OW30343   0.761   1.646   3.334  0.0690  0.1285 -0.1456
 6236SOL    HW130344   0.709   1.655   3.414 -0.9634 -0.8148 -0.7130
 6236SOL    HW230345   0.804   1.563   3.359  1.2115  0.8514  0.2876
 6237SOL     OW30346   4.602   3.271  16.923  0.2970 -0.6245 -0.0328
 6237SOL    HW130347   4.596   3.182  16.957  1.4669 -0.8979 -0.5391
 6237SOL    HW230348   4.523   3.300  16.877  0.6052  0.4917  0.1278
 6238SOL     OW30349   4.164   1.570   1.234 -0.1303  0.1805  0.3974
 6238SOL    HW130350   4.180   1.565   1.140 -0.8384  1.2608  0.2204
 6238SOL    HW230351   4.069   1.566   1.247 -0.1437  2.7345  1.2388
 6239SOL     OW30352   3.749   4.572   7.846  0.0358 -0.3426 -0.0010
 6239SOL    HW130353   3.699   4.506   7.894 -1.4122  0.7281 -0.0032
 6239SOL    HW230354   3.763   4.534   7.759 -1.0457 -0.2238 -0.2332
 6240SOL     OW30355   2.609   2.520   3.392 -0.4077  0.5514 -0.1847
 6240SOL    HW130356   2.691   2.535   3.439 -0.0517  1.5572 -1.1111
 6240SOL    HW230357   2.600   2.429   3.366 -0.3398  0.7834 -1.0270
 6241SOL     OW30358   0.854   4.494   5.133 -0.1812 -0.1910  0.1587
 6241SOL    HW130359   0.921   4.458   5.075 -0.7997 -0.3380 -0.4577
 6241SOL    HW230360   0.831   4.567   5.076 -1.7156 -1.7771 -1.2532
 6242SOL     OW30361   4.616   0.603   6.917  0.5726 -0.2580  0.3002
 6242SOL    HW130362   4.523   0.625   6.915  1.1119  1.7985 -2.4440
 6242SOL    HW230363   4.613   0.516   6.876  2.6397  0.5313 -1.5413
 6243SOL     OW30364   2.617   3.966  12.464 -0.0755 -0.1132  0.2698
 6243SOL    HW130365   2.654   4.046  12.501 -0.5209 -0.0699  0.6272
 6243SOL    HW230366   2.683   3.900  12.483  2.8331  2.2801 -1.5599
 6244SOL     OW30367   3.470   4.132  12.546  0.3502  0.5784 -0.5349
 6244SOL    HW130368   3.564   4.116  12.536  0.4171  0.3799  0.4202
 6244SOL    HW230369   3.443   4.040  12.541 -1.3115  1.1244 -1.5930
 6245SOL     OW30370   2.347   0.517  11.443 -0.4964  0.4266 -0.2037
 6245SOL    HW130371   2.328   0.549  11.355 -0.9500  0.1338 -0.2141
 6245SOL    HW230372   2.314   0.427  11.439  0.2605  0.1429 -0.1325
 6246SOL     OW30373   2.074   3.393   4.886 -0.1475 -0.4305  0.1172
 6246SOL    HW130374   1.991   3.383   4.839 -0.2376  1.0322 -0.0439
 6246SOL    HW230375   2.074   3.473   4.939  0.0293 -0.9716  0.9207
 6247SOL     OW30376   3.901   3.620  17.459 -0.8073  0.4824  0.6480
 6247SOL    HW130377   3.944   3.541  17.491  0.3105 -0.1860 -2.5137
 6247SOL    HW230378   3.974   3.680  17.446 -0.4405 -0.4465 -1.4909
 6248SOL     OW30379   1.821   1.618   4.765  0.0563  0.4665  0.4070
 6248SOL    HW130380   1.757   1.547   4.765 -1.2372  1.6289  0.4599
 6248SOL    HW230381   1.877   1.592   4.692  0.0733 -2.0924  1.3372
 6249SOL     OW30382   2.070   3.980   4.205 -0.0049  0.0449 -0.4236
 6249SOL    HW130383   2.114   3.989   4.120 -2.3322 -1.8475 -1.8442
 6249SOL    HW230384   2.113   4.042   4.264 -0.8126  0.5427 -0.3520
 6250SOL     OW30385   0.528   3.689   3.902 -0.5448 -0.4171 -0.2976
 6250SOL    HW130386   0.435   3.667   3.906 -0.6330 -0.0330 -0.1385
 6250SOL    HW230387   0.537   3.740   3.983  1.0947 -2.0355  0.5315
 6251SOL     OW30388   2.491   1.723   8.479  0.3971 -0.0729 -0.1276
 6251SOL    HW130389   2.428   1.771   8.425 -1.0636 -1.2570  0.5138
 6251SOL    HW230390   2.476   1.758   8.566 -2.7609  1.3385 -1.2292
 6252SOL     OW30391   0.312   1.417  14.922  0.5353 -0.0283 -0.7365
 6252SOL    HW130392   0.234   1.430  14.975  0.4623  1.0365 -1.1041
 6252SOL    HW230393   0.275   1.421  14.833 -0.0055  1.8982 -0.4257
 6253SOL     OW30394   2.199   0.199   2.508 -0.2958  0.2028 -0.3239
 6253SOL    HW130395   2.194   0.293   2.490  1.0154  0.8708  2.8374
 6253SOL    HW230396   2.188   0.159   2.422 -0.1511  0.5026 -0.4811
 6254SOL     OW30397   0.106   0.314   6.559 -0.0715 -0.5931  0.6220
 6254SOL    HW130398   0.087   0.392   6.612 -1.8610  1.4966 -3.0641
 6254SOL    HW230399   0.198   0.307   6.584 -0.0268 -0.1418  0.5999
 6255SOL     OW30400   0.424   4.554   9.003  0.1604 -0.0408 -0.0032
 6255SOL    HW130401   0.472   4.610   9.065 -0.0274  1.3091 -1.0581
 6255SOL    HW230402   0.382   4.494   9.064 -3.4919  2.5642  0.1034
 6256SOL     OW30403   4.138   2.245   1.946  0.4380 -0.1425 -0.3511
 6256SOL    HW130404   4.180   2.268   1.864 -1.2212 -3.2190 -2.0559
 6256SOL    HW230405   4.080   2.171   1.932  0.0659  0.5774 -2.5212
 6257SOL     OW30406   4.529   3.912  10.476 -0.4610  0.1005 -0.5063
 6257SOL    HW130407   4.479   3.990  10.500 -1.8438 -0.2275 -2.3619
 6257SOL    HW230408   4.478   3.843  10.517 -1.0546  2.2712  2.4373
 6258SOL     OW30409   3.802   4.219  14.293  0.3397  0.1824  0.5711
 6258SOL    HW130410   3.847   4.284  14.240 -0.1558  0.3689  0.3843
 6258SOL    HW230411   3.765   4.266  14.368 -1.0852  1.0413 -0.6961
 6259SOL     OW30412   3.562   1.953  16.549 -0.6154 -0.1181  0.4882
 6259SOL    HW130413   3.483   1.975  16.598 -0.1161 -2.2547  2.2358
 6259SOL    HW230414   3.588   1.866  16.579 -3.9888 -1.2800  0.0432
 6260SOL     OW30415   0.176   3.741   0.009 -0.0116  0.2630  0.5095
 6260SOL    HW130416   0.140   3.718  17.663  1.1278  0.8890 -0.1208
 6260SOL    HW230417   0.267   3.714  17.739  0.0653  0.6585  0.1548
 6261SOL     OW30418   3.963   0.813   5.748  0.1830  0.6029  0.1563
 6261SOL    HW130419   3.982   0.907   5.745  0.9079  0.4918  1.2116
 6261SOL    HW230420   3.956   0.792   5.655 -0.1409 -1.7956  0.7292
 6262SOL     OW30421   1.614   0.561   2.527 -0.0002 -0.1009  0.1316
 6262SOL    HW130422   1.619   0.610   2.445 -2.6171  0.7951  0.4944
 6262SOL    HW230423   1.521   0.575   2.544 -0.1917 -0.3771 -0.6872
 6263SOL     OW30424   0.759   1.699   5.608  0.4678 -0.0106  0.2792
 6263SOL    HW130425   0.759   1.672   5.700 -1.7804 -1.4842 -0.1376
 6263SOL    HW230426   0.718   1.786   5.605 -1.9846 -1.1465  0.2040
 6264SOL     OW30427   4.479   3.084   4.933  0.1816 -0.1609  0.2624
 6264SOL    HW130428   4.389   3.087   4.965  0.0113 -2.7355  0.0444
 6264SOL    HW230429   4.485   3.168   4.888 -0.3906 -1.1930 -1.6994
 6265SOL     OW30430   1.728   4.209   2.066  0.3487  0.7246 -0.3178
 6265SOL    HW130431   1.670   4.264   2.118 -1.3502 -1.1481 -0.2113
 6265SOL    HW230432   1.777   4.269   2.011  2.6190  2.7501  3.9601
 6266SOL     OW30433   1.091   0.830  11.060 -0.4717 -0.3754 -0.4414
 6266SOL    HW130434   1.136   0.874  11.132 -1.2263 -0.7999  0.2806
 6266SOL    HW230435   1.114   0.884  10.984  1.3340 -0.2544  0.1944
 6267SOL     OW30436   4.004   0.110   1.785 -0.6511 -0.0858 -0.2995
 6267SOL    HW130437   4.090   0.121   1.745 -0.5514 -1.3980 -0.4447
 6267SOL    HW230438   4.004   0.192   1.836  0.0556 -0.9079  1.0230
 6268SOL     OW30439   4.629   4.062  14.071  0.7204  0.0329 -0.4479
 6268SOL    HW130440   4.610   4.090  13.981 -2.9823  0.7146  0.5563
 6268SOL    HW230441   4.565   3.992  14.084  1.5668 -1.0485 -2.1859
 6269SOL     OW30442   2.575   1.691   0.264 -0.2454  0.0036  0.1279
 6269SOL    HW130443   2.513   1.755   0.227 -0.8021 -1.9372 -2.2501
 6269SOL    HW230444   2.593   1.643   0.183 -1.3236 -2.3380  1.2934
 6270SOL     OW30445   0.787   1.415   3.460  0.2009  0.2351 -0.3836
 6270SOL    HW130446   0.694   1.426   3.438  0.5927 -0.5463 -2.4720
 6270SOL    HW230447   0.791   1.330   3.503  1.2839  2.0581  3.0894
 6271SOL     OW30448   1.811   2.315   7.239 -0.1726  0.0888 -0.0032
 6271SOL    HW130449   1.902   2.329   7.265 -0.7294  3.0068  0.3164
 6271SOL    HW230450   1.807   2.340   7.146 -2.9477 -1.0973 -0.1868
 6272SOL     OW30451   2.515   3.379   5.171 -0.4732 -0.3924  0.6638
 6272SOL    HW130452   2.460   3.457   5.173  0.1528  0.0099  1.9896
 6272SOL    HW230453   2.592   3.412   5.217  0.5087  0.4930 -1.6146
 6273SOL     OW30454   2.904   0.313   9.795 -0.8523 -0.1727 -0.2302
 6273SOL    HW130455   2.858   0.345   9.873  0.0707  1.1076 -0.2256
 6273SOL    HW230456   2.897   0.219   9.812 -4.1954  0.0978 -0.0913
 6274SOL     OW30457   2.619   2.410  17.656  0.1109  0.0690  0.0576
 6274SOL    HW130458   2.640   2.502  17.672 -0.9449  0.6646 -2.0197
 6274SOL    HW230459   2.539   2.395  17.708  0.2664  0.4782  0.4157
 6275SOL     OW30460   1.612   1.497  11.071  0.4570 -0.1571 -0.0100
 6275SOL    HW130461   1.654   1.502  11.157  0.5587  1.7279 -0.1806
 6275SOL    HW230462   1.576   1.408  11.075  1.7583 -0.7131 -0.5959
 6276SOL     OW30463   0.474   1.504   5.919  0.8282 -0.1448 -0.5248
 6276SOL    HW130464   0.428   1.469   5.996 -1.2297  2.1376 -0.7370
 6276SOL    HW230465   0.533   1.431   5.898 -0.4148 -1.8082  1.6171
 6277SOL     OW30466   0.839   0.508  15.260 -0.2614  0.2886 -0.9156
 6277SOL    HW130467   0.858   0.585  15.313 -1.0691 -0.0266 -0.1610
 6277SOL    HW230468   0.928   0.497  15.228 -0.3236  0.5665 -1.1795
 6278SOL     OW30469   4.292   3.847   5.481  0.0510  0.5448  0.5491
 6278SOL    HW130470   4.342   3.853   5.399  1.1563 -0.0594  1.1802
 6278SOL    HW230471   4.210   3.893   5.462 -0.0966  0.5220  1.1438
 6279SOL     OW30472   3.493   4.297  11.978  0.1748  0.5848 -0.3208
 6279SOL    HW130473   3.552   4.230  11.944 -1.8929 -1.8858  0.9408
 6279SOL    HW230474   3.460   4.263  12.061  2.4537 -0.5711  0.1255
 6280SOL     OW30475   1.912   0.917  11.587  0.0467 -0.2311 -0.3332
 6280SOL    HW130476   1.908   0.994  11.645 -1.1949 -1.2576  0.9355
 6280SOL    HW230477   1.952   0.852  11.644  1.5101  0.7470 -0.2310
 6281SOL     OW30478   0.752   1.968   8.391 -0.3117  0.1124 -0.2808
 6281SOL    HW130479   0.811   1.925   8.453  0.2278  0.8659 -0.2709
 6281SOL    HW230480   0.758   2.059   8.420 -0.3506 -1.0563  3.3275
 6282SOL     OW30481   1.954   1.322   3.228 -0.2641 -0.1921 -0.1450
 6282SOL    HW130482   1.882   1.300   3.287 -1.7188  0.2742 -1.7594
 6282SOL    HW230483   1.920   1.295   3.143  1.1036 -1.5426 -0.2684
 6283SOL     OW30484   1.266   3.639   6.972 -0.0012 -0.0012  0.2496
 6283SOL    HW130485   1.359   3.622   6.983  0.0878  0.3243 -0.0021
 6283SOL    HW230486   1.245   3.550   6.943 -1.2807 -0.4691  2.5913
 6284SOL     OW30487   4.254   2.220   1.012 -0.1215  0.6006  0.1965
 6284SOL    HW130488   4.231   2.287   1.077 -0.7370  1.3098 -0.7509
 6284SOL    HW230489   4.173   2.208   0.963  0.1494 -0.9202  0.1157
 6285SOL     OW30490   4.356   0.804   8.619 -0.2087 -0.4346  0.3386
 6285SOL    HW130491   4.344   0.741   8.690 -0.5401 -1.3581 -0.5387
 6285SOL    HW230492   4.404   0.877   8.658  2.4117 -2.6650  1.2428
 6286SOL     OW30493   3.665   1.993   2.619 -0.2690 -0.0506 -0.1914
 6286SOL    HW130494   3.720   2.022   2.692 -0.6594  1.3781 -0.4652
 6286SOL    HW230495   3.617   1.923   2.664  0.3293 -0.2493  0.1447
 6287SOL     OW30496   0.277   2.735   6.342 -0.1581 -0.0162  0.4005
 6287SOL    HW130497   0.255   2.644   6.323 -1.2161  1.5569 -5.7701
 6287SOL    HW230498   0.332   2.759   6.268  0.5404 -1.0087  0.5905
 6288SOL     OW30499   0.460   3.430   2.701  0.1437 -0.4285 -0.2097
 6288SOL    HW130500   0.531   3.373   2.732  1.3611  1.3530  0.3162
 6288SOL    HW230501   0.507   3.497   2.651  0.5859 -1.5113 -1.2493
 6289SOL     OW30502   3.828   0.143   2.495  0.4049  0.4301  0.0254
 6289SOL    HW130503   3.867   0.056   2.504 -1.7352 -0.6494 -1.0963
 6289SOL    HW230504   3.852   0.169   2.406  0.3347  0.1162 -0.0845
 6290SOL     OW30505   2.632   0.360  10.966 -0.4166 -0.1183 -0.4596
 6290SOL    HW130506   2.551   0.368  10.915 -3.2190 -2.6089  3.6405
 6290SOL    HW230507   2.697   0.366  10.896  0.8134  0.6775  0.7475
 6291SOL     OW30508   0.774   2.174   7.017 -0.2433  0.3694  0.0320
 6291SOL    HW130509   0.768   2.078   7.018 -3.2698  0.5174 -3.5114
 6291SOL    HW230510   0.687   2.192   7.055  0.9026  1.5649  2.0686
 6292SOL     OW30511   0.325   2.742   0.901 -0.2445 -0.2744 -0.5106
 6292SOL    HW130512   0.346   2.671   0.841 -4.6551 -1.6666 -0.4472
 6292SOL    HW230513   0.408   2.787   0.915 -0.1897  0.1477 -2.2300
 6293SOL     OW30514   1.653   1.027   8.016 -0.0269  0.3197 -0.2829
 6293SOL    HW130515   1.638   1.030   8.111  2.8560  1.5589  0.1208
 6293SOL    HW230516   1.739   1.067   8.005 -1.0440  2.8095  0.9362
 6294SOL     OW30517   1.467   3.927  11.932  0.0980  0.5797  0.4619
 6294SOL    HW130518   1.390   3.968  11.893 -1.1026 -1.3635  0.7499
 6294SOL    HW230519   1.523   4.004  11.932 -0.7369  1.1590 -2.3084
 6295SOL     OW30520   4.563   3.033   5.635 -0.3740  0.1975  0.2438
 6295SOL    HW130521   4.470   3.049   5.649 -0.8240  0.0054 -2.4257
 6295SOL    HW230522   4.578   2.939   5.645  0.0821  0.4568  1.9091
 6296SOL     OW30523   1.677   1.747   2.470  0.2858 -0.0878  0.2117
 6296SOL    HW130524   1.612   1.710   2.410  1.6639 -0.8942 -0.7831
 6296SOL    HW230525   1.652   1.839   2.469  0.8392  0.0551 -1.1975
 6297SOL     OW30526   0.314   1.365   5.621 -0.6516  0.3194  0.2001
 6297SOL    HW130527   0.310   1.378   5.527  2.1769 -1.3674 -0.1664
 6297SOL    HW230528   0.221   1.359   5.642 -1.1750  1.9282 -1.6873
 6298SOL     OW30529   1.303   1.121   5.582 -0.7520 -0.4844 -0.4076
 6298SOL    HW130530   1.229   1.155   5.533 -0.2087 -0.7909 -1.4323
 6298SOL    HW230531   1.376   1.136   5.523  0.2937  0.1917  1.0427
 6299SOL     OW30532   3.741   2.787   2.640 -0.3540 -0.3783  0.2928
 6299SOL    HW130533   3.808   2.839   2.685  2.0496 -1.9507 -1.4653
 6299SOL    HW230534   3.660   2.832   2.665  0.1740 -0.1841  1.6763
 6300SOL     OW30535   3.897   2.351   4.382 -0.1608 -0.2441  0.3284
 6300SOL    HW130536   3.925   2.300   4.458  0.8829  0.9739  0.7458
 6300SOL    HW230537   3.975   2.357   4.327 -0.4500 -0.9571 -0.1603
 6301SOL     OW30538   1.231   4.094  13.356 -0.0681 -0.8185  0.6930
 6301SOL    HW130539   1.219   4.118  13.264  2.7298  0.1478  0.5981
 6301SOL    HW230540   1.149   4.050  13.379 -0.2487 -0.7283  0.2256
 6302SOL     OW30541   0.513   4.010   2.979 -0.2873  0.0443 -0.8554
 6302SOL    HW130542   0.533   4.006   2.885 -0.8710 -2.7836 -0.8586
 6302SOL    HW230543   0.556   3.931   3.009  2.1946  2.3504  1.6656
 6303SOL     OW30544   1.564   0.406   9.756  0.6958  0.4812  0.0103
 6303SOL    HW130545   1.654   0.421   9.726 -0.4941  0.7025 -3.4042
 6303SOL    HW230546   1.534   0.340   9.694  1.0036  1.6601 -1.3862
 6304SOL     OW30547   0.591   0.914   9.968  0.4318  0.3075  0.0507
 6304SOL    HW130548   0.662   0.914   9.904  2.5167 -0.2961  2.3481
 6304SOL    HW230549   0.626   0.976  10.033 -0.7829  0.8034  0.2348
 6305SOL     OW30550   3.031   1.307   2.796  0.1838  0.8300  0.3035
 6305SOL    HW130551   2.952   1.261   2.826  0.4299  0.7652  0.8391
 6305SOL    HW230552   3.097   1.238   2.805  0.3466  1.2423  2.3341
 6306SOL     OW30553   3.196   0.355   3.389 -0.1352 -0.1701  0.2063
 6306SOL    HW130554   3.248   0.380   3.312  0.3725  0.8535  0.8756
 6306SOL    HW230555   3.142   0.433   3.400 -0.4815 -0.3329 -0.3145
 6307SOL     OW30556   4.438   3.394   6.752  0.4189 -0.1227 -0.2668
 6307SOL    HW130557   4.516   3.415   6.701 -0.2254  3.1080  0.0791
 6307SOL    HW230558   4.439   3.299   6.763  2.6091  0.0803  1.3445
 6308SOL     OW30559   4.111   2.982  14.099 -0.5410  0.4595  0.0129
 6308SOL    HW130560   4.131   2.920  14.169 -0.0028 -0.3807 -0.8855
 6308SOL    HW230561   4.148   2.939  14.022  2.2778  1.4443  0.8008
 6309SOL     OW30562   4.025   2.226  10.624 -0.3654  0.6034 -0.1014
 6309SOL    HW130563   4.047   2.149  10.678  0.1887  1.3675  0.7801
 6309SOL    HW230564   4.002   2.283  10.698  1.2605  1.9611 -0.6388
 6310SOL     OW30565   3.494   3.025   6.562 -0.3939  0.3861 -0.3248
 6310SOL    HW130566   3.476   2.956   6.625  0.2575  0.0722 -0.4796
 6310SOL    HW230567   3.476   3.105   6.611  0.0622  0.4277 -0.2259
 6311SOL     OW30568   4.019   2.555   5.300 -0.0185  0.3552 -0.1832
 6311SOL    HW130569   4.043   2.504   5.222 -2.2080  0.3626 -0.8642
 6311SOL    HW230570   4.097   2.536   5.352 -0.4239 -0.4002  0.1520
 6312SOL     OW30571   3.114   1.412   1.078  0.1627 -0.1780  0.3262
 6312SOL    HW130572   3.081   1.422   0.989  0.2344  0.8144  0.4062
 6312SOL    HW230573   3.061   1.477   1.125 -2.1071 -3.5381  2.3706
 6313SOL     OW30574   3.036   3.096   0.478 -0.1557  0.9367  0.4771
 6313SOL    HW130575   3.048   3.002   0.494 -3.4169  0.0830 -1.9881
 6313SOL    HW230576   3.081   3.130   0.555  4.4655 -0.7100 -1.4912
 6314SOL     OW30577   4.162   4.239   4.824 -0.0333  0.1815 -0.7285
 6314SOL    HW130578   4.219   4.315   4.814  0.2786  0.2295  1.3495
 6314SOL    HW230579   4.127   4.256   4.912  2.9357 -1.4027  0.7746
 6315SOL     OW30580   4.321   2.414   9.601  0.4983 -0.4104 -0.2044
 6315SOL    HW130581   4.389   2.478   9.583  1.0838 -0.7970  0.6344
 6315SOL    HW230582   4.256   2.468   9.645  0.6838 -0.5092  0.1866
 6316SOL     OW30583   4.660   3.216   2.384  0.2611 -0.0901 -0.0791
 6316SOL    HW130584   4.704   3.140   2.423  3.4744  0.9921 -1.6257
 6316SOL    HW230585   4.722   3.287   2.397 -2.1536  1.6149  2.2909
 6317SOL     OW30586   2.058   2.381   7.349  0.3748 -0.1610 -0.4951
 6317SOL    HW130587   2.036   2.468   7.382 -0.1542 -0.2704 -0.5607
 6317SOL    HW230588   2.152   2.373   7.362  0.3746 -1.3785 -1.2237
 6318SOL     OW30589   1.458   1.881   4.470  0.4702  0.1568 -0.1476
 6318SOL    HW130590   1.551   1.868   4.457 -0.0407 -2.4942 -1.0791
 6318SOL    HW230591   1.437   1.796   4.509 -0.9421 -0.1450 -1.5623
 6319SOL     OW30592   2.384   2.365   8.285 -0.4536 -0.0886 -0.5167
 6319SOL    HW130593   2.318   2.422   8.245 -0.9977  0.0062  0.5160
 6319SOL    HW230594   2.417   2.438   8.337 -1.3370  1.2002 -1.7745
 6320SOL     OW30595   1.744   2.117   1.722 -0.2127  0.8298  0.3795
 6320SOL    HW130596   1.767   2.032   1.685  1.1502 -0.0710  3.3111
 6320SOL    HW230597   1.768   2.173   1.649 -1.2149  0.7248 -0.0413
 6321SOL     OW30598   0.690   0.302  13.179  0.6213 -0.3027  0.3954
 6321SOL    HW130599   0.659   0.314  13.089 -1.6702 -3.5574  0.7507
 6321SOL    HW230600   0.714   0.209  13.186  0.4707 -0.1291  3.0469
 6322SOL     OW30601   3.916   0.307   7.407  0.9153 -0.3622 -0.4000
 6322SOL    HW130602   3.914   0.292   7.502  0.8473 -0.3194 -0.3947
 6322SOL    HW230603   3.940   0.223   7.368  1.0432 -0.8587  0.7597
 6323SOL     OW30604   1.548   0.584  16.988  0.4739  0.3980 -0.2136
 6323SOL    HW130605   1.476   0.591  16.925 -0.9842 -1.3664  1.2700
 6323SOL    HW230606   1.549   0.679  17.005 -0.4724  0.4822 -0.6245
 6324SOL     OW30607   1.171   1.187   8.863  0.1360  0.7421  0.1457
 6324SOL    HW130608   1.100   1.251   8.872 -1.3781 -0.8525 -0.4754
 6324SOL    HW230609   1.118   1.109   8.846 -0.9593  1.5746 -0.2543
 6325SOL     OW30610   2.608   3.773  10.442  0.4300 -0.5258 -0.1963
 6325SOL    HW130611   2.559   3.843  10.398  0.5328 -0.8139 -0.7698
 6325SOL    HW230612   2.590   3.693  10.393  2.6323 -0.9196 -0.3659
 6326SOL     OW30613   3.705   4.460   4.553  0.7768 -0.1327 -0.6009
 6326SOL    HW130614   3.669   4.489   4.637  2.8961  2.0399 -0.4281
 6326SOL    HW230615   3.622   4.464   4.504  0.6298  0.5582 -0.3052
 6327SOL     OW30616   3.738   0.278   5.824  0.0166  0.0491  0.2892
 6327SOL    HW130617   3.825   0.264   5.864 -0.3868  0.4372  1.2970
 6327SOL    HW230618   3.704   0.348   5.879 -0.5461 -0.5816  0.7443
 6328SOL     OW30619   1.198   3.849   7.312  0.3373 -0.6740  0.2614
 6328SOL    HW130620   1.292   3.865   7.320  0.5676 -1.8718 -0.1282
 6328SOL    HW230621   1.167   3.928   7.356 -1.1688 -1.3627  0.4090
 6329SOL     OW30622   0.728   2.285  17.140  0.5373  0.4441 -1.2710
 6329SOL    HW130623   0.801   2.342  17.162  0.1179  0.4724  0.0901
 6329SOL    HW230624   0.740   2.262  17.048 -0.4321 -0.3584 -1.2043
 6330SOL     OW30625   0.682   1.339  14.633 -0.5237  0.3316  0.0397
 6330SOL    HW130626   0.643   1.414  14.588  0.8678 -1.0289 -3.4509
 6330SOL    HW230627   0.766   1.333  14.588 -0.5967  1.3180 -0.2261
 6331SOL     OW30628   0.033   1.575   9.246  0.3306  0.3900 -0.0008
 6331SOL    HW130629   0.005   1.504   9.189 -2.5980  0.6071  1.1411
 6331SOL    HW230630   0.128   1.575   9.232  0.5391 -0.5165  1.3892
 6332SOL     OW30631   3.335   0.992   8.277  0.0288  0.0358  0.8647
 6332SOL    HW130632   3.279   0.959   8.207  0.5638 -0.5260  0.6978
 6332SOL    HW230633   3.348   0.910   8.324  0.5517  0.0136  0.6838
 6333SOL     OW30634   2.576   3.427  16.019 -0.1064  0.1799 -0.2742
 6333SOL    HW130635   2.538   3.341  16.035  0.6841 -0.0281  0.5167
 6333SOL    HW230636   2.517   3.492  16.057  0.7583  2.2712 -2.5206
 6334SOL     OW30637   4.504   0.731   4.769 -0.1351 -0.2641  0.3155
 6334SOL    HW130638   4.503   0.783   4.850 -0.0704 -1.0738  0.8355
 6334SOL    HW230639   4.518   0.650   4.818 -0.7485 -0.0325  0.8773
 6335SOL     OW30640   1.274   3.122   7.987 -0.5219  0.0017  0.1135
 6335SOL    HW130641   1.239   3.127   7.898 -2.9450 -0.3826  1.0396
 6335SOL    HW230642   1.230   3.194   8.033  2.6618  1.8376  0.2333
 6336SOL     OW30643   0.887   0.202   6.553 -0.3797 -0.3050 -0.1837
 6336SOL    HW130644   0.953   0.137   6.579 -1.2815 -1.0985  0.1024
 6336SOL    HW230645   0.925   0.213   6.465 -0.7735 -0.5039 -0.3777
 6337SOL     OW30646   2.736   2.585   2.884  0.2234  0.3873  0.4634
 6337SOL    HW130647   2.723   2.679   2.881  0.1197  0.3510 -0.1732
 6337SOL    HW230648   2.662   2.567   2.942 -1.6276 -1.2787 -2.3817
 6338SOL     OW30649   1.262   0.958   8.591  0.0734 -0.0849  0.5090
 6338SOL    HW130650   1.250   0.915   8.506 -0.9904  0.7974  0.2024
 6338SOL    HW230651   1.324   0.894   8.626 -1.6641 -2.1200 -0.1077
 6339SOL     OW30652   3.785   1.768  14.365  0.4935 -0.4432 -0.6664
 6339SOL    HW130653   3.765   1.699  14.302 -0.5990  1.7053 -2.6540
 6339SOL    HW230654   3.720   1.748  14.432  0.7186  0.3492 -0.2125
 6340SOL     OW30655   4.283   2.333   8.446  0.2749  0.1028  0.0487
 6340SOL    HW130656   4.345   2.262   8.463  0.7386 -0.2948 -3.2890
 6340SOL    HW230657   4.208   2.320   8.504 -1.2164  1.5377 -1.5669
 6341SOL     OW30658   2.521   2.438  15.052  0.1493  0.2244 -0.0164
 6341SOL    HW130659   2.577   2.377  15.005 -0.1918 -0.4666  0.4755
 6341SOL    HW230660   2.514   2.510  14.989  2.4682 -0.5439 -1.1239
 6342SOL     OW30661   0.119   2.075   9.037 -0.7867 -0.4741 -0.0761
 6342SOL    HW130662   0.165   2.149   8.999  1.9290 -0.8817  2.4438
 6342SOL    HW230663   0.029   2.096   9.012 -0.1783  1.9147 -0.2616
 6343SOL     OW30664   3.847   3.672   1.256  0.1383 -0.4820 -0.1618
 6343SOL    HW130665   3.830   3.676   1.350 -3.1367 -3.4772 -0.5986
 6343SOL    HW230666   3.915   3.738   1.264 -2.2746  2.0098 -0.0992
 6344SOL     OW30667   1.650   3.721  11.978  0.4078  0.1949 -0.1079
 6344SOL    HW130668   1.593   3.797  11.962 -0.7943 -0.4278  1.2438
 6344SOL    HW230669   1.695   3.711  11.895  2.8377 -0.9007  1.3456
 6345SOL     OW30670   4.584   0.813   7.245 -0.8382  0.3340 -0.1811
 6345SOL    HW130671   4.676   0.834   7.260 -0.7282  0.5905 -1.2520
 6345SOL    HW230672   4.587   0.719   7.230  0.5802  0.5624 -1.2743
 6346SOL     OW30673   2.334   0.418   4.009 -0.0426  0.4325  0.5467
 6346SOL    HW130674   2.400   0.352   3.989  0.1013  0.9844 -0.7934
 6346SOL    HW230675   2.363   0.497   3.964 -1.3599  0.7864  0.3256
 6347SOL     OW30676   0.183   2.935   3.291  0.7060 -0.3639  0.4903
 6347SOL    HW130677   0.132   2.862   3.256 -0.7962  0.0950  1.7774
 6347SOL    HW230678   0.193   2.996   3.218  0.2621 -0.0612  0.6880
 6348SOL     OW30679   0.091   3.462   7.646  0.3101 -0.2089  0.4955
 6348SOL    HW130680   0.115   3.451   7.738  0.6365 -0.2879  0.4014
 6348SOL    HW230681   0.119   3.551   7.628 -1.7133  0.1267 -0.9435
 6349SOL     OW30682   3.109   1.832  17.515 -0.4476  0.5247  0.2653
 6349SOL    HW130683   3.089   1.894  17.584 -1.5958  1.6090 -1.0510
 6349SOL    HW230684   3.026   1.786  17.503  0.2293 -0.4150 -0.7970
 6350SOL     OW30685   3.920   3.698   2.894  0.0845  0.8351  0.0825
 6350SOL    HW130686   3.845   3.733   2.942 -1.3542  0.0185 -1.6216
 6350SOL    HW230687   3.969   3.779   2.882  1.8594 -0.0978  0.9739
 6351SOL     OW30688   2.484   2.052  12.856 -0.0109  0.5705  0.2372
 6351SOL    HW130689   2.446   1.968  12.833  0.0193  0.2419  1.3676
 6351SOL    HW230690   2.457   2.110  12.784  2.3332  1.2317 -0.1032
 6352SOL     OW30691   0.233   2.945   0.738 -0.3211  0.1649  0.2924
 6352SOL    HW130692   0.267   2.895   0.813  1.6305  1.0327 -0.0137
 6352SOL    HW230693   0.188   2.873   0.695  0.3909  1.0285 -1.8810
 6353SOL     OW30694   2.022   3.988   4.844  0.9371 -0.2794  0.2243
 6353SOL    HW130695   2.031   3.909   4.789  0.2529 -0.1936 -0.0110
 6353SOL    HW230696   1.963   4.044   4.793  1.1480  0.4779  0.8130
 6354SOL     OW30697   3.686   1.890   8.773  0.1090  0.4656  0.0990
 6354SOL    HW130698   3.662   1.934   8.691  1.1977 -0.1380 -0.5404
 6354SOL    HW230699   3.662   1.965   8.827  3.2069 -0.4388  2.7479
 6355SOL     OW30700   3.258   0.583   3.593 -0.3318  0.1748  0.1387
 6355SOL    HW130701   3.223   0.621   3.512  1.4768 -0.9457 -1.1683
 6355SOL    HW230702   3.338   0.635   3.607 -0.8979  1.2619 -0.6831
 6356SOL     OW30703   3.634   3.407   1.623 -0.9258  0.2036  0.2696
 6356SOL    HW130704   3.646   3.320   1.584 -0.2106 -0.7136  2.4587
 6356SOL    HW230705   3.702   3.410   1.691 -1.0954  2.6434  0.3168
 6357SOL     OW30706   0.076   2.521   2.982 -0.1451  0.2789 -0.4542
 6357SOL    HW130707   0.089   2.596   2.924 -1.8187  0.5255 -0.5050
 6357SOL    HW230708   0.045   2.451   2.925 -2.0777 -0.9617  2.0809
 6358SOL     OW30709   3.716   1.205   9.857 -0.3223 -0.4069 -0.0547
 6358SOL    HW130710   3.687   1.113   9.857  0.9761 -0.8147 -0.8625
 6358SOL    HW230711   3.811   1.198   9.868 -0.2849 -1.0392 -0.7002
 6359SOL     OW30712   2.679   1.793  14.270 -0.3025  0.1631 -0.0195
 6359SOL    HW130713   2.756   1.834  14.229 -0.5772 -0.8113 -1.5171
 6359SOL    HW230714   2.615   1.826  14.206 -0.5313  0.8640  0.5687
 6360SOL     OW30715   3.102   1.043   4.572 -0.0174  0.1672 -0.4473
 6360SOL    HW130716   3.116   1.054   4.477 -0.0403 -1.3238 -0.6214
 6360SOL    HW230717   3.038   1.109   4.599 -0.3305 -0.5460  0.5067
 6361SOL     OW30718   0.044   2.731   0.725  0.2337  0.6796 -0.9148
 6361SOL    HW130719   4.703   2.720   0.669  0.5431  1.5459 -1.5091
 6361SOL    HW230720   0.087   2.645   0.720  0.7001  0.8168  0.5945
 6362SOL     OW30721   0.526   1.208  11.637 -0.0108  0.0210 -0.3307
 6362SOL    HW130722   0.576   1.287  11.657  0.1325 -0.1748  0.0884
 6362SOL    HW230723   0.502   1.172  11.722  1.4205  0.9194  0.4527
 6363SOL     OW30724   3.896   0.307   7.704  0.0757  0.3351  0.6063
 6363SOL    HW130725   3.923   0.342   7.790 -4.3288  0.8383  1.7789
 6363SOL    HW230726   3.935   0.220   7.695 -0.4285  0.0304  1.3496
 6364SOL     OW30727   3.954   0.692   7.375 -0.2396  0.1244  0.4877
 6364SOL    HW130728   3.892   0.765   7.375 -0.9649 -0.5020 -1.5132
 6364SOL    HW230729   3.904   0.620   7.414 -0.1726  0.8542  1.9282
 6365SOL     OW30730   1.926   1.284   9.523  0.0072  0.3604 -0.2050
 6365SOL    HW130731   2.001   1.312   9.471  0.1162 -0.1676 -0.3273
 6365SOL    HW230732   1.856   1.325   9.473 -0.4677  0.9157  0.9189
 6366SOL     OW30733   3.227   2.630   3.738  0.3898  0.9329 -0.2678
 6366SOL    HW130734   3.231   2.702   3.676  0.2131 -0.1930 -1.5844
 6366SOL    HW230735   3.134   2.606   3.741 -0.0963  2.8816  0.4632
 6367SOL     OW30736   0.849   4.613  14.501 -0.4760  0.1100 -0.1142
 6367SOL    HW130737   0.910   4.542  14.524  0.7766  1.3864  0.5403
 6367SOL    HW230738   0.846   4.612  14.406 -1.6268 -0.3334 -0.0646
 6368SOL     OW30739   3.292   4.257  14.688 -0.3202 -0.2392  0.5111
 6368SOL    HW130740   3.226   4.255  14.757  0.8577  1.0617  1.6672
 6368SOL    HW230741   3.364   4.210  14.730  1.6470 -0.0530 -2.6238
 6369SOL     OW30742   1.136   3.894   8.833  0.2101  0.0854  0.3105
 6369SOL    HW130743   1.147   3.978   8.787  2.2549 -0.9490 -1.0749
 6369SOL    HW230744   1.169   3.932   8.915 -0.4745  2.1695 -0.3743
 6370SOL     OW30745   0.766   0.724   9.343 -0.2169 -0.0782 -0.2893
 6370SOL    HW130746   0.697   0.692   9.285  0.2073 -1.0970 -0.2438
 6370SOL    HW230747   0.717   0.722   9.425  0.3294  0.1809  0.0418
 6371SOL     OW30748   1.612   2.626   3.836 -0.0003 -0.7154  0.2241
 6371SOL    HW130749   1.607   2.604   3.929  0.0761  3.0984  1.1423
 6371SOL    HW230750   1.650   2.542   3.809  0.3086 -0.7867  0.8808
 6372SOL     OW30751   4.591   0.130   2.576  0.0308 -0.1519 -0.1400
 6372SOL    HW130752   4.563   0.104   2.663  0.3026 -2.0198 -0.6078
 6372SOL    HW230753   4.503   0.150   2.544  0.8584  1.4345 -1.4323
 6373SOL     OW30754   4.093   2.181   8.645 -0.2385  0.2036 -0.5062
 6373SOL    HW130755   4.014   2.147   8.687 -0.6453 -1.6930 -2.7787
 6373SOL    HW230756   4.095   2.122   8.569 -3.4016 -1.3639  0.6418
 6374SOL     OW30757   2.263   2.232   2.111 -0.6239 -0.0136  0.1108
 6374SOL    HW130758   2.223   2.208   2.194 -0.5974  1.1700  0.4680
 6374SOL    HW230759   2.277   2.325   2.129 -0.0676 -0.7503  3.4643
 6375SOL     OW30760   2.133   0.454   5.328 -0.1470  0.2716  0.5211
 6375SOL    HW130761   2.173   0.518   5.269  0.3058 -0.2128  0.2981
 6375SOL    HW230762   2.164   0.370   5.293  0.6792  1.2745 -1.1573
 6376SOL     OW30763   1.927   2.108   8.509 -0.1169 -0.1838 -0.0963
 6376SOL    HW130764   1.883   2.130   8.591  1.2080  2.6345 -0.1387
 6376SOL    HW230765   1.927   2.012   8.505  0.6729 -0.2051  0.6236
 6377SOL     OW30766   1.343   2.653  14.225 -0.2706  0.0755 -0.2890
 6377SOL    HW130767   1.365   2.601  14.147  1.2044 -0.8606  0.7624
 6377SOL    HW230768   1.426   2.673  14.268 -0.8358 -0.5971  1.1266
 6378SOL     OW30769   2.267   1.235   8.039  0.2132 -0.1933  0.2164
 6378SOL    HW130770   2.292   1.179   8.112  1.7928 -0.1983 -0.3332
 6378SOL    HW230771   2.234   1.163   7.984 -3.1114  1.2829  0.3156
 6379SOL     OW30772   0.462   2.783   8.017  0.3670  0.6189 -0.0330
 6379SOL    HW130773   0.392   2.847   8.006 -0.3295 -0.7616 -3.7626
 6379SOL    HW230774   0.453   2.771   8.111 -0.3638 -2.1213 -0.4569
 6380SOL     OW30775   1.103   4.682   5.393 -0.1901  0.0331  0.3478
 6380SOL    HW130776   1.024   4.664   5.343  0.1669  0.2072 -0.2875
 6380SOL    HW230777   1.080   4.624   5.465 -2.5869 -0.3222 -0.7237
 6381SOL     OW30778   3.621   1.008   8.175  0.2634  0.0878 -0.8013
 6381SOL    HW130779   3.548   1.017   8.236  1.1039 -0.2679  0.2580
 6381SOL    HW230780   3.666   1.090   8.191 -0.3902  0.2777  0.0788
 6382SOL     OW30781   0.669   2.394  15.706  0.2795 -0.1959 -0.2851
 6382SOL    HW130782   0.636   2.393  15.617 -3.0151  1.7790  0.9389
 6382SOL    HW230783   0.677   2.488  15.723  2.3297 -0.4494  0.2084
 6383SOL     OW30784   2.545   1.665  14.445  0.7109  0.0766  0.2230
 6383SOL    HW130785   2.607   1.711  14.389 -0.7484  2.0640  0.2715
 6383SOL    HW230786   2.462   1.712  14.437 -0.1826 -1.6351 -0.6277
 6384SOL     OW30787   0.512   2.470   9.495 -0.3677  0.2297  0.3120
 6384SOL    HW130788   0.511   2.564   9.475 -0.1141  0.5124  1.5651
 6384SOL    HW230789   0.431   2.459   9.544 -0.1170 -0.2964  0.6065
 6385SOL     OW30790   1.527   2.902   2.649  0.0071 -0.1019 -0.1864
 6385SOL    HW130791   1.548   2.973   2.589 -0.4892 -0.3243 -0.6166
 6385SOL    HW230792   1.547   2.936   2.736  2.9345 -0.0770 -0.8516
 6386SOL     OW30793   3.934   1.605  16.702 -0.1331 -0.0570 -0.3976
 6386SOL    HW130794   3.846   1.615  16.664 -0.0745 -2.4724 -1.1283
 6386SOL    HW230795   3.915   1.620  16.795 -0.6642  1.3372 -0.7301
 6387SOL     OW30796   3.876   0.147   4.378  0.0749 -0.2127 -0.5992
 6387SOL    HW130797   3.813   0.143   4.451  1.5208  2.2769  0.7722
 6387SOL    HW230798   3.936   0.214   4.411  0.9882 -1.1680 -0.3020
 6388SOL     OW30799   0.989   1.202   9.370  0.2273 -0.6331  0.8851
 6388SOL    HW130800   1.017   1.111   9.370  0.1772 -0.6481  1.0138
 6388SOL    HW230801   0.962   1.216   9.461  1.2165  1.6149  0.8286
 6389SOL     OW30802   3.864   0.632   2.646 -0.4831  0.6317  0.0871
 6389SOL    HW130803   3.913   0.553   2.622  0.2014  0.9368  0.4572
 6389SOL    HW230804   3.781   0.620   2.600  1.4898 -3.7869 -2.3714
 6390SOL     OW30805   3.699   3.803   3.032  0.4286 -0.7118 -0.7053
 6390SOL    HW130806   3.690   3.736   3.099  3.9129  0.0685  0.5271
 6390SOL    HW230807   3.698   3.883   3.085  0.0035 -1.1336 -0.0922
 6391SOL     OW30808   4.331   3.421  12.595 -0.4021  0.4836 -0.0215
 6391SOL    HW130809   4.406   3.456  12.644 -0.2119 -1.1699  0.8663
 6391SOL    HW230810   4.369   3.340  12.562  0.4086  1.5713 -1.8010
 6392SOL     OW30811   4.645   2.682  12.115 -0.3667 -0.7906  0.0549
 6392SOL    HW130812   4.591   2.759  12.099  2.4354  1.0484 -0.5904
 6392SOL    HW230813   4.587   2.608  12.100  0.6100 -1.6180  0.3603
 6393SOL     OW30814   4.048   3.194   0.743  0.7344 -0.2357  0.2060
 6393SOL    HW130815   4.030   3.279   0.782  0.0605 -0.6873  0.8718
 6393SOL    HW230816   4.038   3.129   0.813  1.2678 -1.4893 -0.8633
 6394SOL     OW30817   1.390   0.952   6.724  0.2779  0.2030 -0.5497
 6394SOL    HW130818   1.462   0.997   6.680  1.1881 -1.6633 -0.9746
 6394SOL    HW230819   1.406   0.860   6.703 -0.7211 -0.0549 -0.2030
 6395SOL     OW30820   4.252   3.736  16.546 -0.0930  0.1794  0.0447
 6395SOL    HW130821   4.175   3.715  16.599  0.1536 -1.5105 -0.2954
 6395SOL    HW230822   4.245   3.831  16.530 -0.7724 -0.2220 -1.9973
 6396SOL     OW30823   0.737   3.339  13.018 -0.1019 -0.1557  0.2145
 6396SOL    HW130824   0.744   3.244  13.007  0.1096 -0.4287  2.6503
 6396SOL    HW230825   0.828   3.367  13.005  0.1446 -0.7946  0.5540
 6397SOL     OW30826   1.206   2.149   9.938  0.0466 -0.8453  0.0417
 6397SOL    HW130827   1.258   2.096   9.877  0.2396  0.6592 -1.0797
 6397SOL    HW230828   1.257   2.135  10.018  0.6933 -0.8210 -0.3643
 6398SOL     OW30829   2.012   4.072  15.688 -0.3211  0.5555  0.2558
 6398SOL    HW130830   2.026   4.163  15.714  1.5234  0.2782  0.1854
 6398SOL    HW230831   2.081   4.062  15.623 -1.1675 -0.0155 -0.5701
 6399SOL     OW30832   1.230   3.811   2.282 -0.0247 -0.3524  0.5654
 6399SOL    HW130833   1.298   3.808   2.349 -1.0210  1.9936  1.6862
 6399SOL    HW230834   1.240   3.888   2.227  2.6678  1.0532  3.0065
 6400SOL     OW30835   3.949   3.397   2.016  0.6227 -0.6887 -0.4127
 6400SOL    HW130836   3.994   3.345   2.083  0.7830 -2.3804 -1.8193
 6400SOL    HW230837   3.957   3.484   2.056  1.2198 -1.5295  1.2990
 6401SOL     OW30838   0.961   3.165   4.679 -0.2723 -0.0958 -0.5740
 6401SOL    HW130839   0.993   3.076   4.696 -0.2925 -0.0050 -0.0579
 6401SOL    HW230840   0.905   3.156   4.602 -0.2321  0.6496 -0.6856
 6402SOL     OW30841   1.191   3.391  17.620 -0.0511 -0.7258  0.4647
 6402SOL    HW130842   1.106   3.424  17.649  0.6782  1.1711  0.4892
 6402SOL    HW230843   1.174   3.299  17.639  1.5233 -1.5733 -2.2674
 6403SOL     OW30844   4.049   2.727  16.402 -0.3257  0.4076  0.0602
 6403SOL    HW130845   4.041   2.788  16.329  1.2350  0.0402 -0.4143
 6403SOL    HW230846   3.966   2.684  16.383  0.2922 -1.2117  1.0355
 6404SOL     OW30847   4.304   1.600  10.239  0.2134  0.3347 -0.1718
 6404SOL    HW130848   4.388   1.587  10.284  0.2295  0.1431 -0.2555
 6404SOL    HW230849   4.310   1.689  10.206  1.3730  0.0268 -0.7845
 6405SOL     OW30850   1.000   3.917  13.054  0.9216 -0.5348  0.2676
 6405SOL    HW130851   1.036   3.977  13.120 -1.1872  2.0806 -0.9687
 6405SOL    HW230852   0.906   3.928  13.065  0.5231 -0.3306 -3.2127
 6406SOL     OW30853   2.766   0.744  10.339  0.2167  0.2144  0.0964
 6406SOL    HW130854   2.684   0.704  10.368  0.8745 -0.3170  1.2147
 6406SOL    HW230855   2.752   0.834  10.370  0.9528  1.0933 -2.0971
 6407SOL     OW30856   1.604   2.544   4.072 -0.4049  0.6412  0.3524
 6407SOL    HW130857   1.551   2.560   4.150  0.3813 -0.2441  1.0634
 6407SOL    HW230858   1.610   2.449   4.079 -2.7141  0.4119 -0.9164
 6408SOL     OW30859   2.954   2.712   3.323 -0.8982 -0.0852 -0.0492
 6408SOL    HW130860   2.910   2.731   3.241 -0.1939  1.3768 -0.0781
 6408SOL    HW230861   3.023   2.777   3.331  0.9739 -1.8935 -1.4665
 6409SOL     OW30862   1.760   4.172   8.646  0.1905  0.0707  0.0003
 6409SOL    HW130863   1.783   4.114   8.718 -1.7774 -1.3819 -0.5661
 6409SOL    HW230864   1.712   4.238   8.696  1.6712  0.8170  0.4331
 6410SOL     OW30865   4.082   1.673  14.232  0.3871  0.0695 -0.4210
 6410SOL    HW130866   4.008   1.682  14.293  0.1339  0.9987 -0.8713
 6410SOL    HW230867   4.101   1.582  14.256  0.6714  0.3869  0.5814
 6411SOL     OW30868   2.412   1.058  13.329 -0.2218 -0.5294  0.3584
 6411SOL    HW130869   2.404   1.027  13.419 -1.0211  1.0461  0.8162
 6411SOL    HW230870   2.498   1.100  13.328  0.4012 -1.8203 -0.0058
 6412SOL     OW30871   4.098   3.744   9.976  0.6853 -0.2087 -0.0689
 6412SOL    HW130872   4.012   3.785   9.973  0.0826 -1.4645 -0.3077
 6412SOL    HW230873   4.138   3.778  10.056  1.6345  0.9012 -1.0190
 6413SOL     OW30874   3.235   3.897  17.502  0.8023 -0.7400 -0.1133
 6413SOL    HW130875   3.245   3.822  17.444 -0.8803 -0.7901 -0.3413
 6413SOL    HW230876   3.262   3.872  17.590 -0.5675  2.4543  1.2111
 6414SOL     OW30877   3.756   4.588   2.123  0.5294  1.0556 -0.1124
 6414SOL    HW130878   3.848   4.564   2.114  0.8420  1.7718  1.1317
 6414SOL    HW230879   3.710   4.542   2.053  2.9856 -2.3150  0.4889
 6415SOL     OW30880   3.547   2.094   8.925  0.3655  0.3842  0.2895
 6415SOL    HW130881   3.476   2.140   8.880  1.0050  1.6333  0.5914
 6415SOL    HW230882   3.508   2.028   8.982  0.3792  0.0669 -0.0676
 6416SOL     OW30883   0.352   2.658   2.798  0.0220  0.1705 -0.1026
 6416SOL    HW130884   0.307   2.716   2.858  0.2472 -0.0179  0.2467
 6416SOL    HW230885   0.443   2.687   2.790 -0.9389  2.8900 -1.1374
 6417SOL     OW30886   1.203   2.847   8.509  0.2334  0.0318  0.0587
 6417SOL    HW130887   1.187   2.877   8.420  0.0720 -2.8646 -0.8755
 6417SOL    HW230888   1.167   2.759   8.500 -1.5699  0.6152  1.5025
 6418SOL     OW30889   4.116   0.940  13.858 -0.3256  0.4530  0.0772
 6418SOL    HW130890   4.061   0.941  13.779  1.9974 -0.5404 -1.5765
 6418SOL    HW230891   4.057   0.994  13.910 -1.6958  0.6243 -1.6818
 6419SOL     OW30892   4.417   4.531  10.197 -0.1206 -0.6815  0.0647
 6419SOL    HW130893   4.472   4.535  10.275 -0.9974  1.5896  0.5464
 6419SOL    HW230894   4.479   4.504  10.130  0.2544  1.2224 -0.3455
 6420SOL     OW30895   3.390   3.909  13.320 -0.1112  0.5433 -0.4989
 6420SOL    HW130896   3.360   3.990  13.279 -1.7984  0.5431  0.7629
 6420SOL    HW230897   3.420   3.850  13.251 -0.9338 -0.0173 -0.3858
 6421SOL     OW30898   1.233   0.655   9.261  0.2676 -0.5173 -0.1369
 6421SOL    HW130899   1.154   0.631   9.310  0.1934 -0.9869 -0.4973
 6421SOL    HW230900   1.231   0.748   9.287 -0.7206 -0.4581 -0.4327
 6422SOL     OW30901   3.006   1.122   8.839  0.2783 -0.1396  0.4356
 6422SOL    HW130902   3.028   1.125   8.932 -0.7872 -0.1988  0.6887
 6422SOL    HW230903   2.912   1.109   8.854 -0.1640  1.9282 -0.6798
 6423SOL     OW30904   2.646   0.563   8.618 -0.6173 -0.9413  0.6556
 6423SOL    HW130905   2.636   0.468   8.611 -1.6291 -1.1052  4.3977
 6423SOL    HW230906   2.625   0.585   8.709 -1.6794  1.3741 -0.1503
 6424SOL     OW30907   3.019   1.094   5.996  0.0644 -0.0154  0.0723
 6424SOL    HW130908   3.074   1.026   6.036  0.6715  0.6954  0.4423
 6424SOL    HW230909   2.955   1.103   6.066  0.6003  0.0739  0.5542
 6425SOL     OW30910   1.110   0.754   8.000 -0.6026 -0.0047  0.5269
 6425SOL    HW130911   1.156   0.672   8.020  0.9266  0.2398 -2.0370
 6425SOL    HW230912   1.176   0.803   7.950 -2.8812 -0.1898 -2.6648
 6426SOL     OW30913   3.570   2.708   7.177  0.7199 -0.3742 -0.0595
 6426SOL    HW130914   3.597   2.617   7.168 -1.2465 -0.9132 -0.3905
 6426SOL    HW230915   3.653   2.753   7.195  0.1514  0.7242 -0.1709
 6427SOL     OW30916   3.595   4.695   1.003  0.3314  0.3022 -0.4259
 6427SOL    HW130917   3.641   0.022   0.948  2.3700 -0.1595  0.7587
 6427SOL    HW230918   3.504   4.706   0.976 -0.0665 -0.0287  0.7892
 6428SOL     OW30919   4.720   0.285   8.617  0.7130  0.1740 -0.7039
 6428SOL    HW130920   4.681   0.370   8.637  0.3464 -0.0279 -0.5682
 6428SOL    HW230921   4.692   0.241   8.697  0.8490  0.1361 -0.6767
 6429SOL     OW30922   3.739   1.801   3.967  0.2271 -0.6249 -0.3338
 6429SOL    HW130923   3.767   1.787   4.057  3.9362  0.2504 -1.3432
 6429SOL    HW230924   3.776   1.722   3.927  2.3268  0.5376 -0.7027
 6430SOL     OW30925   1.517   4.351   5.954  0.1395 -0.1950 -0.5019
 6430SOL    HW130926   1.440   4.344   5.898 -1.7873  1.4940  1.9680
 6430SOL    HW230927   1.575   4.300   5.897  0.2379 -0.4499 -0.1759
 6431SOL     OW30928   3.658   3.047  10.871  0.2789  0.0960 -0.4933
 6431SOL    HW130929   3.615   3.108  10.931 -0.9207 -1.6465  0.4278
 6431SOL    HW230930   3.750   3.057  10.895  0.6940 -1.1132 -1.6140
 6432SOL     OW30931   0.477   4.173   3.979  0.4621 -0.2176 -0.8090
 6432SOL    HW130932   0.422   4.239   4.022 -1.4929 -2.0409 -0.5162
 6432SOL    HW230933   0.487   4.114   4.054  1.5514 -0.6766 -1.3113
 6433SOL     OW30934   3.241   3.092   3.620  0.5426  0.5140 -0.1079
 6433SOL    HW130935   3.153   3.060   3.596  0.8282 -0.7672  0.5258
 6433SOL    HW230936   3.275   3.105   3.532  0.6747  1.2077  0.0509
 6434SOL     OW30937   0.161   0.154   0.986 -0.1480 -0.7619  0.1994
 6434SOL    HW130938   0.220   0.085   1.018 -1.3582 -0.7160  2.5631
 6434SOL    HW230939   0.085   0.101   1.010  0.3488 -0.1521  3.2074
 6435SOL     OW30940   0.395   3.063   6.168 -0.4346  0.1731  0.5339
 6435SOL    HW130941   0.338   3.140   6.172 -1.0221 -0.3069  1.2772
 6435SOL    HW230942   0.480   3.099   6.193  0.0759 -0.9393  0.3882
 6436SOL     OW30943   4.262   4.219  17.722 -0.4077  0.0404 -0.0589
 6436SOL    HW130944   4.254   4.134   0.025  0.3126 -0.3377 -0.6550
 6436SOL    HW230945   4.348   4.252   0.008 -0.7436  1.1166 -0.2916
 6437SOL     OW30946   3.724   2.626   2.326  0.1483  0.3165  0.1574
 6437SOL    HW130947   3.701   2.717   2.347 -1.8467 -0.1537 -0.0249
 6437SOL    HW230948   3.638   2.588   2.345 -1.0077  3.3142  0.9286
 6438SOL     OW30949   0.934   2.100   6.745 -0.2606 -0.2185 -0.2992
 6438SOL    HW130950   1.021   2.137   6.763  0.0546 -0.7918 -0.6549
 6438SOL    HW230951   0.930   2.046   6.824 -2.3933  1.7386  0.9037
 6439SOL     OW30952   3.412   0.568  10.311 -0.5663 -0.2380  0.2025
 6439SOL    HW130953   3.464   0.639  10.348 -0.0176 -0.5932  0.1151
 6439SOL    HW230954   3.353   0.621  10.257 -1.4422  0.6624  2.0381
 6440SOL     OW30955   1.999   3.148   5.451  0.3761  0.6419 -0.8234
 6440SOL    HW130956   2.073   3.205   5.430  0.2517  0.3942 -1.9286
 6440SOL    HW230957   2.038   3.063   5.429  1.1080  1.1064 -1.3331
 6441SOL     OW30958   0.247   1.695   7.055 -0.2897 -0.0145  0.1430
 6441SOL    HW130959   0.170   1.752   7.066 -0.0654  1.1093 -4.0811
 6441SOL    HW230960   0.249   1.701   6.959  0.3785  0.2764  0.1749
 6442SOL     OW30961   1.964   4.658   4.591 -0.3602 -0.3951 -0.0458
 6442SOL    HW130962   2.043   4.649   4.645 -0.6620 -0.5035  0.3801
 6442SOL    HW230963   1.909   4.720   4.638 -1.5739 -0.6548 -1.1239
 6443SOL     OW30964   1.613   0.290   2.786  0.3735  0.0051 -0.1326
 6443SOL    HW130965   1.535   0.235   2.797  0.6379 -0.6730 -1.7142
 6443SOL    HW230966   1.678   0.220   2.781  1.0779  0.4526  2.8466
 6444SOL     OW30967   4.093   1.602   7.139 -0.1612 -0.4805  0.4566
 6444SOL    HW130968   4.094   1.669   7.208 -0.1897  0.5134 -0.5059
 6444SOL    HW230969   4.153   1.539   7.178  0.1149 -0.1890  0.5040
 6445SOL     OW30970   2.720   4.147   7.067  0.2286  0.1942 -0.3306
 6445SOL    HW130971   2.656   4.189   7.009 -1.0494 -0.3880  0.6538
 6445SOL    HW230972   2.802   4.148   7.017 -0.3867  0.0962 -1.3342
 6446SOL     OW30973   1.049   1.930   9.525  0.2420  0.0588 -0.1288
 6446SOL    HW130974   1.030   2.015   9.564 -1.8140 -0.5347  0.1672
 6446SOL    HW230975   0.964   1.905   9.488  0.0224 -0.1915  0.5528
 6447SOL     OW30976   1.958   1.723   9.192 -0.0089 -0.2544  0.9259
 6447SOL    HW130977   1.966   1.628   9.191 -0.0626 -0.2525  0.4853
 6447SOL    HW230978   1.909   1.729   9.110 -0.7245  1.3097  1.4724
 6448SOL     OW30979   2.227   4.339   8.277 -0.3111  0.0016 -0.2683
 6448SOL    HW130980   2.143   4.373   8.247 -0.1687  0.5998  0.0033
 6448SOL    HW230981   2.260   4.417   8.321  1.4231  0.1083 -1.7607
 6449SOL     OW30982   0.810   0.849   6.039 -0.1729 -0.0764  0.4241
 6449SOL    HW130983   0.888   0.876   6.089  1.1885 -0.0342 -1.7145
 6449SOL    HW230984   0.811   0.915   5.969  2.4461 -0.9105 -0.3272
 6450SOL     OW30985   4.399   3.979   6.698 -0.3108  0.3162  0.3004
 6450SOL    HW130986   4.449   3.898   6.688 -0.6216  0.3603 -1.5197
 6450SOL    HW230987   4.384   3.997   6.605 -0.3841 -0.9940  0.0457
 6451SOL     OW30988   3.485   3.929  12.059  0.3269 -0.2557 -0.0136
 6451SOL    HW130989   3.561   3.970  12.017 -0.6995  1.0174 -0.6400
 6451SOL    HW230990   3.524   3.899  12.141 -1.4260 -1.4833  0.3747
 6452SOL     OW30991   1.662   3.543   1.681  0.6297  0.1425 -0.4070
 6452SOL    HW130992   1.567   3.533   1.674  0.3277  2.3302  0.5825
 6452SOL    HW230993   1.674   3.504   1.767 -2.4413 -0.9618 -0.4842
 6453SOL     OW30994   4.678   2.308  13.056  0.1646 -0.0870  0.1690
 6453SOL    HW130995   4.686   2.217  13.085 -0.0269 -0.2856 -0.3790
 6453SOL    HW230996   0.029   2.343  13.074  0.7673 -1.5886  0.1924
 6454SOL     OW30997   3.161   3.957   1.197 -0.4312  0.4574  0.3717
 6454SOL    HW130998   3.218   3.915   1.132  0.3443 -1.2731  2.1880
 6454SOL    HW230999   3.181   3.909   1.277 -1.6467 -0.6036  0.0360
 6455SOL     OW31000   0.960   0.914  10.064  0.0042  0.3212  0.7806
 6455SOL    HW131001   0.931   0.960   9.985  0.0339 -0.0050  0.5804
 6455SOL    HW231002   1.032   0.970  10.090  0.2112  0.0952  0.6929
 6456SOL     OW31003   3.676   4.156  17.649 -0.1266 -0.0187 -0.3273
 6456SOL    HW131004   3.675   4.163   0.004 -3.2261  4.2965 -0.6665
 6456SOL    HW231005   3.761   4.195  17.628 -1.2306  1.2959 -2.3834
 6457SOL     OW31006   2.586   1.388   6.029  0.0959  0.3462  0.3159
 6457SOL    HW131007   2.530   1.382   5.952  1.6920  4.4519 -1.1742
 6457SOL    HW231008   2.530   1.417   6.101 -0.7952 -2.7774  0.8466
 6458SOL     OW31009   1.117   4.514   2.990  0.2194  0.0474 -0.4001
 6458SOL    HW131010   1.165   4.472   3.060  2.3088  1.6988 -0.8188
 6458SOL    HW231011   1.033   4.468   2.992  1.1165 -1.5624  0.0409
 6459SOL     OW31012   2.330   3.866  10.561 -0.0429 -0.1619  1.2290
 6459SOL    HW131013   2.326   3.868  10.466  1.3025  0.4305  1.1828
 6459SOL    HW231014   2.378   3.949  10.570 -0.6672  0.1462  1.7810
 6460SOL     OW31015   2.369   2.700   6.851 -0.3517  0.7548 -0.1268
 6460SOL    HW131016   2.356   2.609   6.879 -0.4347  0.5615 -0.7844
 6460SOL    HW231017   2.278   2.729   6.859 -0.3712  0.5684  0.3314
 6461SOL     OW31018   0.034   4.157  10.027 -0.1847  0.1912 -0.0051
 6461SOL    HW131019   4.731   4.225   9.972 -0.1759  0.7754  0.7203
 6461SOL    HW231020   4.688   4.118  10.060  0.0775  0.7757  1.3355
 6462SOL     OW31021   3.312   1.245   3.686 -0.1973 -0.2524  0.2223
 6462SOL    HW131022   3.387   1.267   3.741 -0.4819  1.4477 -0.0930
 6462SOL    HW231023   3.271   1.329   3.668 -1.3366 -0.9292 -0.3460
 6463SOL     OW31024   4.254   3.471   6.544  0.4652 -0.0165 -0.0741
 6463SOL    HW131025   4.291   3.501   6.627  1.2331  1.7404 -1.0603
 6463SOL    HW231026   4.163   3.453   6.568 -0.1887  4.2120  0.5204
 6464SOL     OW31027   0.138   0.144   5.724  0.6215 -0.1098  0.4112
 6464SOL    HW131028   0.200   0.217   5.719 -2.3888  2.4792  0.4426
 6464SOL    HW231029   0.104   0.143   5.634  0.7768  0.3534  0.3436
 6465SOL     OW31030   4.276   3.912   8.207  0.3021  0.4704 -0.2012
 6465SOL    HW131031   4.272   3.928   8.301 -1.2708  0.9796 -0.3556
 6465SOL    HW231032   4.296   3.999   8.172  0.0412  2.1231  3.7916
 6466SOL     OW31033   1.058   2.451   8.783  0.2684  0.3724 -0.0568
 6466SOL    HW131034   1.077   2.536   8.823 -0.7639  0.0124  1.1762
 6466SOL    HW231035   0.977   2.434   8.831  0.5170 -1.1595 -0.1865
 6467SOL     OW31036   0.255   3.818   3.887  0.1045  0.1289 -0.0599
 6467SOL    HW131037   0.240   3.886   3.954 -1.3320  0.1351 -0.3897
 6467SOL    HW231038   0.307   3.870   3.826 -0.4502 -0.3345 -0.9197
 6468SOL     OW31039   2.982   4.149   6.185 -0.2104  0.1681 -0.4787
 6468SOL    HW131040   2.990   4.176   6.277  1.4806  1.1546 -0.9086
 6468SOL    HW231041   2.949   4.060   6.194  0.3020 -0.0355 -0.6351
 6469SOL     OW31042   3.141   4.490  14.666 -0.5140 -0.0852 -0.1047
 6469SOL    HW131043   3.195   4.411  14.675 -0.6827 -0.0199  1.4969
 6469SOL    HW231044   3.112   4.488  14.575 -1.8526 -3.5313  0.3964
 6470SOL     OW31045   0.623   4.310   7.628 -0.0006  0.4141  0.1696
 6470SOL    HW131046   0.643   4.386   7.574 -1.8315 -0.0627 -1.1722
 6470SOL    HW231047   0.644   4.246   7.559 -0.7286  0.5528 -0.1692
 6471SOL     OW31048   0.026   1.273   1.261 -0.3743 -0.2886  0.8343
 6471SOL    HW131049   0.113   1.235   1.274 -0.1246 -0.1088 -0.3604
 6471SOL    HW231050   0.021   1.334   1.335  0.0844 -0.7135  1.2144
 6472SOL     OW31051   3.985   2.492   2.010 -0.1411  0.3469  0.1209
 6472SOL    HW131052   3.904   2.455   2.043 -0.6629  1.4269  0.0544
 6472SOL    HW231053   4.023   2.412   1.973 -1.0911  0.5261 -1.2174
 6473SOL     OW31054   2.325   2.664   2.396 -0.4692 -0.4309 -0.3818
 6473SOL    HW131055   2.340   2.679   2.490  1.1835  1.5196 -0.9503
 6473SOL    HW231056   2.248   2.719   2.380  1.9108  3.0564  0.0689
 6474SOL     OW31057   2.932   1.988   4.611  0.0513 -0.6716  0.3976
 6474SOL    HW131058   2.840   2.016   4.613  0.1437 -0.3314  0.0018
 6474SOL    HW231059   2.964   2.068   4.655  0.8621  0.2504 -1.9038
 6475SOL     OW31060   2.376   0.351   3.403 -0.4735 -0.3130 -0.0892
 6475SOL    HW131061   2.451   0.377   3.350  0.5654 -0.6335  1.2153
 6475SOL    HW231062   2.383   0.414   3.475  0.8427  0.4309 -0.8669
 6476SOL     OW31063   4.481   1.337  14.449 -0.1111  0.3987 -0.2837
 6476SOL    HW131064   4.386   1.328  14.443  0.0223 -0.4283 -1.1698
 6476SOL    HW231065   4.500   1.243  14.451 -2.2383 -0.0287 -0.1469
 6477SOL     OW31066   1.711   1.937   3.637 -0.0845  0.4452  0.0509
 6477SOL    HW131067   1.616   1.944   3.633 -0.1475 -0.1853  0.4660
 6477SOL    HW231068   1.734   1.849   3.607  0.3468  0.1860  1.1345
 6478SOL     OW31069   3.299   2.310   2.307  0.3554 -0.6454 -0.2300
 6478SOL    HW131070   3.222   2.259   2.282 -1.1562  1.8768 -0.7971
 6478SOL    HW231071   3.330   2.328   2.218  1.0913 -3.2958 -0.5092
 6479SOL     OW31072   4.666   3.821   0.574 -0.6749  0.1118  0.6368
 6479SOL    HW131073   4.646   3.882   0.503  0.0202  1.1893  1.3656
 6479SOL    HW231074   4.726   3.763   0.527 -1.8307 -2.0900  1.8413
 6480SOL     OW31075   1.484   1.299   6.307 -0.0343 -0.6091 -0.2699
 6480SOL    HW131076   1.436   1.357   6.366  0.1966 -0.5660 -0.1243
 6480SOL    HW231077   1.570   1.338   6.320 -0.2244  0.3116 -1.6859
 6481SOL     OW31078   3.257   2.021   6.443 -0.1505 -0.1672  0.2397
 6481SOL    HW131079   3.342   2.006   6.404  0.1991  0.9831  0.5428
 6481SOL    HW231080   3.260   1.972   6.525  1.9334  0.8422  0.7706
 6482SOL     OW31081   1.805   0.087  11.150  0.1982 -0.3395  0.2859
 6482SOL    HW131082   1.817   0.135  11.068 -0.7906  0.8235  0.8326
 6482SOL    HW231083   1.725   0.037  11.135 -0.3689  0.7917 -0.4274
 6483SOL     OW31084   4.640   2.329   3.831 -0.3847 -0.8897  0.3558
 6483SOL    HW131085   4.639   2.294   3.742 -0.3057  1.0037 -0.3833
 6483SOL    HW231086   4.556   2.375   3.841  0.5583  0.0059  4.2715
 6484SOL     OW31087   2.390   0.514   9.146 -0.0438 -0.5960 -0.1428
 6484SOL    HW131088   2.381   0.451   9.218 -1.4313 -0.2819 -0.0463
 6484SOL    HW231089   2.463   0.470   9.101 -0.3688  1.7535 -2.9220
 6485SOL     OW31090   3.765   2.824   9.124 -0.0654  0.4866 -0.0817
 6485SOL    HW131091   3.841   2.860   9.078 -1.0516  2.1695 -0.4087
 6485SOL    HW231092   3.803   2.774   9.196  1.4368  1.8493  0.0746
 6486SOL     OW31093   2.133   4.269   9.974 -0.2177 -0.1347 -0.5839
 6486SOL    HW131094   2.133   4.360   9.943 -0.4196 -1.0377 -3.1837
 6486SOL    HW231095   2.196   4.225   9.918 -0.6870  0.4147 -1.5549
 6487SOL     OW31096   0.103   2.571   3.798  0.0144 -0.1997  0.1103
 6487SOL    HW131097   0.024   2.543   3.751  0.2413 -2.6638  1.1603
 6487SOL    HW231098   0.172   2.571   3.730  0.0609 -0.1218  0.1584
 6488SOL     OW31099   4.435   0.826   7.483  0.2360  0.5260 -0.4970
 6488SOL    HW131100   4.358   0.874   7.453 -2.0178 -1.9243  1.4279
 6488SOL    HW231101   4.482   0.817   7.400  0.1425 -0.0772 -0.4876
 6489SOL     OW31102   2.839   1.361  16.579  0.3293 -0.0783 -0.0796
 6489SOL    HW131103   2.804   1.278  16.612 -2.8760  2.5251  3.0255
 6489SOL    HW231104   2.894   1.334  16.506  0.9754 -0.2602  0.4764
 6490SOL     OW31105   2.739   1.152   0.533  0.4473  0.1314  0.3538
 6490SOL    HW131106   2.768   1.072   0.577 -2.4579 -1.4264 -0.6025
 6490SOL    HW231107   2.646   1.155   0.553  0.2665  1.0090 -0.5890
 6491SOL     OW31108   0.970   2.194  13.184  0.3310 -0.3663 -0.1481
 6491SOL    HW131109   0.937   2.256  13.249  0.1410 -0.2960 -0.3125
 6491SOL    HW231110   1.034   2.144  13.235  1.5915  0.4949 -0.8731
 6492SOL     OW31111   0.617   2.503   6.357  0.1932 -0.0035 -0.2712
 6492SOL    HW131112   0.559   2.445   6.307 -0.2312  0.3838 -0.2196
 6492SOL    HW231113   0.594   2.480   6.447  1.0802 -1.1568 -0.3365
 6493SOL     OW31114   3.001   4.430   7.440 -1.0356 -0.1014 -0.0681
 6493SOL    HW131115   2.966   4.496   7.499  0.1376  1.1754 -0.7986
 6493SOL    HW231116   2.933   4.421   7.373  0.6426 -2.5149 -1.4579
 6494SOL     OW31117   1.363   2.037  13.182 -0.1821  0.3590  0.0962
 6494SOL    HW131118   1.369   1.942  13.170 -1.4426  0.0054  2.1775
 6494SOL    HW231119   1.407   2.076  13.107 -0.0184 -0.6374 -0.3208
 6495SOL     OW31120   0.255   1.287   2.906  0.2500  0.1170 -0.5638
 6495SOL    HW131121   0.194   1.246   2.968 -1.7241  2.5715 -0.8753
 6495SOL    HW231122   0.333   1.290   2.960 -0.1102  0.5915 -0.0647
 6496SOL     OW31123   0.563   0.540  13.688 -0.1235 -0.0949  0.3527
 6496SOL    HW131124   0.557   0.560  13.781  0.5653 -0.1332  0.4017
 6496SOL    HW231125   0.503   0.468  13.667 -0.8739  0.5299  0.3397
 6497SOL     OW31126   2.364   0.860  13.155 -0.3770  0.7714  0.3697
 6497SOL    HW131127   2.443   0.819  13.120 -0.5969  1.3945 -0.8579
 6497SOL    HW231128   2.394   0.928  13.215 -0.1217 -0.3678  1.5282
 6498SOL     OW31129   1.777   0.889   3.613 -0.3988  0.0533 -0.0008
 6498SOL    HW131130   1.866   0.890   3.580 -0.7618  0.1824 -0.9771
 6498SOL    HW231131   1.722   0.874   3.536 -0.6081 -2.4235  0.6192
 6499SOL     OW31132   1.120   4.670   4.336  0.5246  0.2592 -0.6075
 6499SOL    HW131133   1.024   4.665   4.335  0.5458 -0.0858 -0.8590
 6499SOL    HW231134   1.139   4.676   4.242  0.9503  3.9496 -0.2755
 6500SOL     OW31135   3.210   1.606   5.866  0.0999  0.3959 -0.2182
 6500SOL    HW131136   3.155   1.647   5.799 -1.2118  0.0038  0.6121
 6500SOL    HW231137   3.268   1.556   5.809 -1.1837 -1.2526 -0.0936
 6501SOL     OW31138   2.022   1.849   7.099 -0.1440 -0.0797  0.1562
 6501SOL    HW131139   2.042   1.776   7.157  3.5782 -0.0725 -1.0995
 6501SOL    HW231140   1.996   1.903   7.173 -1.5505 -0.3854 -0.1287
 6502SOL     OW31141   2.979   2.130   8.220  0.5800 -0.5442 -0.4075
 6502SOL    HW131142   3.002   2.205   8.165  1.0724 -0.5639 -0.2283
 6502SOL    HW231143   2.961   2.073   8.146  0.1337 -2.0271  0.8615
 6503SOL     OW31144   3.925   0.564   9.009 -0.4533 -0.0197  0.6162
 6503SOL    HW131145   3.882   0.531   8.931 -0.8935  1.5885  0.1759
 6503SOL    HW231146   3.856   0.537   9.070 -0.9303 -0.6446 -0.2031
 6504SOL     OW31147   0.397   1.454   7.743 -0.3078 -0.6899  0.2698
 6504SOL    HW131148   0.313   1.442   7.699  0.1384 -0.6117 -0.5868
 6504SOL    HW231149   0.358   1.462   7.831 -0.0643  0.3039  0.2852
 6505SOL     OW31150   4.420   3.858   5.250 -0.3679 -0.1558  0.1193
 6505SOL    HW131151   4.377   3.842   5.166  0.5508 -0.4704 -0.2871
 6505SOL    HW231152   4.507   3.875   5.213 -0.9193  0.1232 -1.0555
 6506SOL     OW31153   3.054   4.149   3.526  0.1146  0.1846 -0.2640
 6506SOL    HW131154   3.000   4.193   3.592  2.2037  0.0607  1.5295
 6506SOL    HW231155   3.037   4.191   3.442 -1.3659  0.0592 -0.0254
 6507SOL     OW31156   3.268   2.368   3.503 -0.5207 -0.2474 -0.1584
 6507SOL    HW131157   3.251   2.322   3.585  1.3361  0.0831  0.4061
 6507SOL    HW231158   3.258   2.458   3.535  0.6749 -0.5832  1.1326
 6508SOL     OW31159   1.156   3.954   2.715 -0.3457 -0.1651  0.5542
 6508SOL    HW131160   1.167   3.997   2.800  0.3388 -0.2899  0.5288
 6508SOL    HW231161   1.221   4.005   2.668 -1.5852 -0.9253 -1.9865
 6509SOL     OW31162   1.701   0.919   6.932 -0.2663  0.1851  0.3858
 6509SOL    HW131163   1.761   0.935   7.005 -0.5273 -1.3080  0.9054
 6509SOL    HW231164   1.621   0.958   6.967  0.0354  1.7823 -0.7038
 6510SOL     OW31165   1.480   0.200   5.198 -0.3800 -0.6769  0.7733
 6510SOL    HW131166   1.425   0.126   5.172 -0.5424 -0.9234  1.8407
 6510SOL    HW231167   1.431   0.265   5.148 -0.1987 -0.9951  0.1736
 6511SOL     OW31168   2.110   3.579   2.939 -0.2424 -0.0158 -0.0489
 6511SOL    HW131169   2.159   3.544   3.014 -3.0022 -0.7775  1.3865
 6511SOL    HW231170   2.037   3.517   2.940  0.9157 -1.3845  0.6950
 6512SOL     OW31171   0.262   1.351   9.587  0.1721 -0.0902  0.3536
 6512SOL    HW131172   0.204   1.276   9.571 -1.3415  0.5637  2.6750
 6512SOL    HW231173   0.323   1.345   9.514 -1.4218 -1.0540 -0.9167
 6513SOL     OW31174   3.565   3.337   3.330  0.5467 -0.2318 -0.1054
 6513SOL    HW131175   3.509   3.385   3.391  0.3416  1.7960 -1.9136
 6513SOL    HW231176   3.590   3.399   3.262  0.0857 -0.1185 -0.1695
 6514SOL     OW31177   3.169   0.515   6.873  0.2674  0.0736 -0.1168
 6514SOL    HW131178   3.084   0.504   6.915 -0.2032  0.1863 -1.0461
 6514SOL    HW231179   3.155   0.596   6.825 -1.0012 -0.0841 -0.0004
 6515SOL     OW31180   3.823   3.886   8.405  0.2046 -0.8206  0.1234
 6515SOL    HW131181   3.832   3.803   8.356  0.6528 -0.5530 -0.2453
 6515SOL    HW231182   3.843   3.954   8.341 -0.0122 -0.4193  0.4841
 6516SOL     OW31183   2.610   1.626   3.163 -0.1984  0.1575 -0.4344
 6516SOL    HW131184   2.589   1.630   3.257 -2.0590  1.2934 -0.9033
 6516SOL    HW231185   2.699   1.589   3.168 -0.7464 -1.2202 -0.8531
 6517SOL     OW31186   1.759   2.931   8.498 -0.0119 -0.6825  0.3218
 6517SOL    HW131187   1.766   2.992   8.571 -1.1466  0.9382 -0.9343
 6517SOL    HW231188   1.794   2.979   8.422 -0.0054 -1.9465 -0.4920
 6518SOL     OW31189   4.726   1.741   3.340  0.0647 -0.2501  0.2366
 6518SOL    HW131190   4.670   1.779   3.273  2.9299 -0.8559 -2.5229
 6518SOL    HW231191   4.696   1.650   3.333  1.3451 -0.5909 -0.9555
 6519SOL     OW31192   2.117   4.464   5.321  0.3674 -0.1717 -0.3313
 6519SOL    HW131193   2.066   4.405   5.264  2.8600 -1.1221 -1.5727
 6519SOL    HW231194   2.159   4.403   5.381  1.6226  0.3931 -0.6404
 6520SOL     OW31195   0.165   1.096   5.404  0.4686 -0.1353 -0.3468
 6520SOL    HW131196   0.168   1.183   5.364  1.0146  0.1319  0.2842
 6520SOL    HW231197   0.119   1.040   5.340 -0.2650 -0.7278  0.7047
 6521SOL     OW31198   1.585   3.824   3.184 -0.0780 -0.0480 -0.0925
 6521SOL    HW131199   1.670   3.853   3.218 -1.0229  0.5707  1.7248
 6521SOL    HW231200   1.589   3.836   3.089  0.0927 -1.4673 -0.2643
 6522SOL     OW31201   4.547   1.302   2.892 -0.2457  0.5265 -0.1284
 6522SOL    HW131202   4.499   1.230   2.851  1.9730 -0.9398 -0.1286
 6522SOL    HW231203   4.576   1.353   2.817 -0.8871 -0.4469 -1.0401
 6523SOL     OW31204   4.212   2.038   8.396  0.3334  0.2125 -0.2362
 6523SOL    HW131205   4.139   1.992   8.355  2.0613 -0.6126 -2.4105
 6523SOL    HW231206   4.278   2.022   8.328 -0.2336  0.4060 -0.8270
 6524SOL     OW31207   4.207   4.716   5.510 -0.3382  0.2463 -0.4220
 6524SOL    HW131208   4.234   4.711   5.602 -2.5590  0.6903  0.2571
 6524SOL    HW231209   4.171   4.628   5.501  1.9933 -0.8117  0.5280
 6525SOL     OW31210   1.840   3.065  13.237  0.2605 -0.3086  0.3855
 6525SOL    HW131211   1.764   3.074  13.294 -0.8651 -0.9743 -1.0030
 6525SOL    HW231212   1.910   3.040  13.297  2.6204  1.3809 -1.6087
 6526SOL     OW31213   1.486   2.023  10.071  0.1128 -0.2020  0.3813
 6526SOL    HW131214   1.500   2.088  10.140  0.0800  1.9273 -1.6631
 6526SOL    HW231215   1.565   1.970  10.077  1.0438  1.2850  1.1848
 6527SOL     OW31216   0.826   1.089   5.324  0.9627  0.2884  0.4019
 6527SOL    HW131217   0.871   1.012   5.290  3.7857  1.9434  0.4109
 6527SOL    HW231218   0.801   1.129   5.240 -1.1400  0.4872  1.1308
 6528SOL     OW31219   3.210   0.404   0.965  0.4272 -0.1655 -0.0811
 6528SOL    HW131220   3.203   0.498   0.949  2.3441 -0.1064 -0.5783
 6528SOL    HW231221   3.294   0.395   1.009  1.6712 -0.6859 -2.5772
 6529SOL     OW31222   2.552   3.054   8.870 -0.3479 -0.2222  0.3902
 6529SOL    HW131223   2.580   3.107   8.946  1.1737  2.5940 -2.1374
 6529SOL    HW231224   2.509   3.120   8.816  1.0915 -0.8629 -1.5084
 6530SOL     OW31225   4.107   1.249   7.036 -0.2685  0.0325 -0.7412
 6530SOL    HW131226   4.142   1.190   7.103  1.4266 -0.4697 -2.0750
 6530SOL    HW231227   4.049   1.190   6.988 -0.1617  0.4345 -1.3648
 6531SOL     OW31228   2.168   2.152  10.064  0.1159 -0.2668 -0.0706
 6531SOL    HW131229   2.230   2.079  10.063 -1.4626 -1.6012  0.4769
 6531SOL    HW231230   2.159   2.169   9.970  0.4905  0.5683  0.0420
 6532SOL     OW31231   4.226   4.354  10.078  0.4858 -0.1554 -0.5490
 6532SOL    HW131232   4.308   4.402  10.086  0.7707 -0.4847 -1.4801
 6532SOL    HW231233   4.183   4.404  10.009  0.8099  0.3245 -0.3985
 6533SOL     OW31234   2.756   4.324   7.917  0.2329 -0.1997 -0.0709
 6533SOL    HW131235   2.851   4.322   7.912  0.2673 -0.7544  0.9044
 6533SOL    HW231236   2.743   4.345   8.009 -1.6326 -0.2791 -0.3044
 6534SOL     OW31237   1.353   2.340  15.327  0.3226  0.6845 -0.0934
 6534SOL    HW131238   1.263   2.321  15.299  1.1940 -2.6247 -0.5374
 6534SOL    HW231239   1.379   2.270  15.387 -1.8395  1.1537  1.4141
 6535SOL     OW31240   3.524   2.270   2.444  0.6361 -0.3315 -0.5522
 6535SOL    HW131241   3.452   2.296   2.387 -0.7358 -2.9299  0.0192
 6535SOL    HW231242   3.482   2.187   2.467  0.6680 -0.0739  0.4301
 6536SOL     OW31243   0.099   2.584  14.222  0.4865  0.5104 -0.1792
 6536SOL    HW131244   0.194   2.580  14.233  0.5080 -0.4271 -0.6947
 6536SOL    HW231245   0.079   2.514  14.161  0.3171  0.6700 -0.3062
 6537SOL     OW31246   0.580   1.249  13.684 -0.4110 -0.8419  0.3214
 6537SOL    HW131247   0.486   1.244  13.699 -0.9212  1.2619 -2.2816
 6537SOL    HW231248   0.580   1.274  13.592  3.6815 -0.7227  0.3422
 6538SOL     OW31249   4.403   3.741  10.277  0.0132  0.0061 -0.1152
 6538SOL    HW131250   4.484   3.781  10.309 -0.1028 -0.6948  1.0728
 6538SOL    HW231251   4.337   3.811  10.271 -2.5352 -2.3558  0.4192
 6539SOL     OW31252   3.716   2.815  12.974  0.1628  0.8267 -0.3441
 6539SOL    HW131253   3.788   2.772  13.019 -0.0796 -0.0381 -0.7870
 6539SOL    HW231254   3.649   2.792  13.039  1.5774  1.6171  1.4174
 6540SOL     OW31255   4.249   3.430   7.215  0.4294  0.2735 -0.3466
 6540SOL    HW131256   4.322   3.427   7.276 -0.6030 -1.2662  0.8103
 6540SOL    HW231257   4.180   3.415   7.280 -0.7254 -3.3228 -2.3831
 6541SOL     OW31258   4.080   4.214   1.825  0.1731  0.8125 -0.4340
 6541SOL    HW131259   4.114   4.168   1.901  1.4743 -0.2832 -1.6874
 6541SOL    HW231260   4.121   4.169   1.752 -0.8016  0.4607 -0.7693
 6542SOL     OW31261   1.637   3.415   5.435 -0.2063 -0.3072  0.3922
 6542SOL    HW131262   1.684   3.394   5.354 -1.2215 -0.1393 -0.2530
 6542SOL    HW231263   1.554   3.370   5.416 -0.4768  0.5819 -0.5708
 6543SOL     OW31264   4.297   4.416  10.754 -1.0498  0.3487  0.2631
 6543SOL    HW131265   4.268   4.330  10.784 -1.7694  0.1274 -1.0363
 6543SOL    HW231266   4.333   4.458  10.832  0.3814  0.6308 -0.5460
 6544SOL     OW31267   2.888   1.012   4.104 -0.0614  0.6455 -0.1763
 6544SOL    HW131268   2.889   0.993   4.011  1.3996 -0.5300  0.0709
 6544SOL    HW231269   2.823   0.946   4.127  0.7940 -0.1895 -0.1865
 6545SOL     OW31270   3.881   3.460  11.244 -0.3002  0.7979 -0.4897
 6545SOL    HW131271   3.891   3.365  11.247  2.2191  1.0983  0.5633
 6545SOL    HW231272   3.786   3.471  11.253 -0.2974  0.8238 -0.4917
 6546SOL     OW31273   0.107   2.496   1.499 -0.1722  0.3999 -0.1684
 6546SOL    HW131274   0.097   2.568   1.560 -0.1664  1.6424 -1.6394
 6546SOL    HW231275   0.159   2.431   1.547 -0.6569 -1.3410 -1.9593
 6547SOL     OW31276   4.603   2.031  17.336 -0.2039  0.4152  0.0842
 6547SOL    HW131277   4.610   2.050  17.430 -2.1826 -0.1338  0.3331
 6547SOL    HW231278   4.618   2.118  17.299 -0.4423  0.0057 -0.9676
 6548SOL     OW31279   4.047   3.573  12.083  0.1008  0.2399  0.0967
 6548SOL    HW131280   4.098   3.579  12.002 -1.0545  2.9670 -0.4309
 6548SOL    HW231281   4.069   3.484  12.109  0.6838 -0.2423 -2.0411
 6549SOL     OW31282   3.556   2.698  13.164  0.4524 -0.0717  0.2006
 6549SOL    HW131283   3.487   2.764  13.166  0.8220  0.3520 -1.4771
 6549SOL    HW231284   3.531   2.656  13.247 -0.7255  2.1178  0.9519
 6550SOL     OW31285   4.645   3.631   2.492  0.3862 -0.0725  0.5710
 6550SOL    HW131286   4.716   3.569   2.477  0.5210  0.4936 -1.2575
 6550SOL    HW231287   4.673   3.703   2.434 -2.1554  0.6870  0.3096
 6551SOL     OW31288   3.347   1.122  16.500  0.0428  0.3146 -0.0114
 6551SOL    HW131289   3.419   1.185  16.511 -0.1333  0.7977 -1.6829
 6551SOL    HW231290   3.294   1.178  16.443 -0.1267  0.0521 -0.1077
 6552SOL     OW31291   3.365   3.643   3.170 -0.1200 -0.1579  0.2893
 6552SOL    HW131292   3.442   3.593   3.144 -0.8631 -1.0809 -0.1263
 6552SOL    HW231293   3.417   3.720   3.196  0.3231  0.1928 -1.6353
 6553SOL     OW31294   2.158   0.681   9.804 -0.0762 -0.5617 -0.4206
 6553SOL    HW131295   2.131   0.770   9.780 -3.1081 -0.7466  2.2782
 6553SOL    HW231296   2.068   0.652   9.821 -0.1718  1.5044  2.6452
 6554SOL     OW31297   0.704   0.095   7.546  0.3125 -0.0221 -0.2953
 6554SOL    HW131298   0.621   0.108   7.500 -0.0901 -1.2124  0.0891
 6554SOL    HW231299   0.753   0.174   7.523  1.4330 -0.4594  0.6101
 6555SOL     OW31300   1.657   4.578   5.664 -0.4787 -0.4791  0.3297
 6555SOL    HW131301   1.724   4.616   5.607 -1.1991  0.9870  0.4494
 6555SOL    HW231302   1.695   4.494   5.687 -0.2576  0.6402  4.0650
 6556SOL     OW31303   0.732   1.510   8.848  0.3902  0.1771 -0.2215
 6556SOL    HW131304   0.758   1.418   8.861  0.5475  0.0184 -1.7316
 6556SOL    HW231305   0.775   1.537   8.768 -0.5578 -0.3788 -0.9216
 6557SOL     OW31306   2.765   4.458   7.243 -0.3025  0.2864 -1.2066
 6557SOL    HW131307   2.817   4.457   7.163 -1.5694  0.0408 -2.0224
 6557SOL    HW231308   2.780   4.548   7.274 -2.2230 -0.0631  0.7198
 6558SOL     OW31309   4.016   3.346   0.421 -0.0100 -0.3011 -0.2003
 6558SOL    HW131310   3.989   3.326   0.511  1.1588 -0.7482  0.0522
 6558SOL    HW231311   4.003   3.263   0.376  1.2132 -1.3585  1.3986
 6559SOL     OW31312   3.074   4.257   9.612 -0.0359 -0.0912 -0.0555
 6559SOL    HW131313   3.153   4.218   9.649  0.7208  2.0225  0.5663
 6559SOL    HW231314   3.112   4.291   9.531 -0.7053 -0.4779 -0.5240
 6560SOL     OW31315   2.534   4.652  16.434 -0.0020  0.1225 -0.0486
 6560SOL    HW131316   2.474   4.578  16.441 -0.2965  0.4309  0.7698
 6560SOL    HW231317   2.526   4.706  16.513 -1.8341 -0.7248  0.3342
 6561SOL     OW31318   0.292   4.405   2.322  0.6178  0.3564 -0.4817
 6561SOL    HW131319   0.244   4.392   2.240 -2.5789 -1.0577  1.6131
 6561SOL    HW231320   0.293   4.313   2.350  1.8462 -0.0901 -1.9215
 6562SOL     OW31321   3.107   1.067   4.307 -0.1658  0.1534 -0.0284
 6562SOL    HW131322   3.031   1.059   4.249  0.7979 -1.3521 -1.0807
 6562SOL    HW231323   3.166   1.127   4.261 -0.8360 -1.6145 -3.1895
 6563SOL     OW31324   4.466   2.689  10.625  0.4207  0.4695  0.5645
 6563SOL    HW131325   4.515   2.718  10.703 -0.0848 -2.9886  2.1724
 6563SOL    HW231326   4.442   2.774  10.587 -1.0389  0.6607  1.9081
 6564SOL     OW31327   1.765   1.480   5.097  0.5086 -0.7876  0.2700
 6564SOL    HW131328   1.848   1.445   5.130  3.8700  3.3680 -3.8205
 6564SOL    HW231329   1.759   1.455   5.005 -1.3302  1.4268 -0.2139
 6565SOL     OW31330   4.127   4.552  14.349  0.0833  0.1330  0.2311
 6565SOL    HW131331   4.059   4.565  14.415  0.9564  1.1313  0.9532
 6565SOL    HW231332   4.180   4.493  14.402  1.9217  0.5236 -1.1435
 6566SOL     OW31333   4.594   4.562   2.284  0.0413 -0.0638 -0.5533
 6566SOL    HW131334   4.547   4.639   2.251  2.3059  1.5777  0.0738
 6566SOL    HW231335   4.680   4.594   2.312  0.0009 -0.6886  0.2766
 6567SOL     OW31336   0.169   0.787   6.475  0.3736 -0.6588  0.3966
 6567SOL    HW131337   0.096   0.840   6.442  2.0425  1.2981 -0.1118
 6567SOL    HW231338   0.174   0.816   6.566  1.1386 -2.0770  0.8152
 6568SOL     OW31339   0.151   1.176   4.186  0.1703  0.0281  0.3434
 6568SOL    HW131340   0.160   1.261   4.144 -1.8238 -0.6066 -1.3496
 6568SOL    HW231341   0.163   1.212   4.274 -0.4582  0.5232  0.2249
 6569SOL     OW31342   2.891   0.733   3.215 -1.1123  0.5945 -0.4424
 6569SOL    HW131343   2.814   0.772   3.175 -0.0739  0.3868 -2.6174
 6569SOL    HW231344   2.913   0.658   3.160 -0.9140  2.3226 -2.6759
 6570SOL     OW31345   1.349   3.055  12.200 -0.3158 -0.2999 -0.0579
 6570SOL    HW131346   1.329   3.085  12.289 -0.3696 -0.5833  0.0251
 6570SOL    HW231347   1.405   3.123  12.163 -1.6054  0.5991 -0.3454
 6571SOL     OW31348   4.127   0.688   4.726  0.0441  0.8762 -0.0636
 6571SOL    HW131349   4.053   0.647   4.682  0.2464  1.3634 -0.8584
 6571SOL    HW231350   4.095   0.778   4.741  1.8589  1.9812 -2.7404
 6572SOL     OW31351   4.734   3.940   4.839 -0.4069  0.3413  0.0796
 6572SOL    HW131352   4.678   3.888   4.896 -1.1939  0.7176 -0.3449
 6572SOL    HW231353   0.086   3.919   4.872 -0.4384 -2.2780 -1.5998
 6573SOL     OW31354   1.375   3.057   9.642  0.2414 -0.6074  0.5656
 6573SOL    HW131355   1.429   3.073   9.564  0.5381 -1.5943  0.5580
 6573SOL    HW231356   1.379   2.962   9.654  2.2778 -0.7309 -1.0177
 6574SOL     OW31357   1.235   0.781   2.857  0.3917  0.2041  0.5980
 6574SOL    HW131358   1.331   0.784   2.865  0.4210  0.7377  0.0408
 6574SOL    HW231359   1.228   0.856   2.799  1.1952  0.5587  0.9601
 6575SOL     OW31360   0.517   3.556   7.233  0.0389 -0.6107  0.4006
 6575SOL    HW131361   0.605   3.521   7.218 -0.5998 -1.8961 -0.3855
 6575SOL    HW231362   0.546   3.630   7.286 -1.1705  0.0946  0.0619
 6576SOL     OW31363   0.855   4.432  12.252  0.1897 -0.2352  0.2204
 6576SOL    HW131364   0.879   4.438  12.159 -0.9666 -0.9326 -0.1179
 6576SOL    HW231365   0.896   4.513  12.283  1.5502 -0.1985 -1.6731
 6577SOL     OW31366   3.085   0.595   3.370 -0.1455 -0.3427 -0.0060
 6577SOL    HW131367   3.116   0.619   3.283 -0.5978  1.0337  0.2044
 6577SOL    HW231368   3.004   0.645   3.381 -1.0199 -1.8892  0.4550
 6578SOL     OW31369   0.023   1.666  11.322 -0.2899  0.0545  0.2654
 6578SOL    HW131370   0.044   1.726  11.250 -2.1357 -1.5792 -1.6499
 6578SOL    HW231371   0.048   1.719  11.397  0.9772 -2.7839  1.8375
 6579SOL     OW31372   0.583   1.911  11.623  0.4006  0.3933 -0.1129
 6579SOL    HW131373   0.641   1.940  11.553  0.9173  0.5225  0.3676
 6579SOL    HW231374   0.632   1.854  11.684 -1.1456 -1.2331 -0.4043
 6580SOL     OW31375   2.315   2.661  15.001  0.6037  0.2198  0.4460
 6580SOL    HW131376   2.336   2.729  14.938 -0.5373  0.1523 -0.0173
 6580SOL    HW231377   2.282   2.594  14.941 -0.6287  1.9694 -0.8440
 6581SOL     OW31378   2.890   3.387   4.843 -0.4662  0.1888 -0.3789
 6581SOL    HW131379   2.849   3.301   4.841 -1.7831  0.8053 -0.0217
 6581SOL    HW231380   2.945   3.374   4.766  0.8626  0.7623  0.4729
 6582SOL     OW31381   2.770   1.290   3.495 -0.1420 -0.7963 -0.1753
 6582SOL    HW131382   2.811   1.369   3.460  0.5031 -0.7428  0.6823
 6582SOL    HW231383   2.738   1.263   3.409 -1.7383 -1.4649  0.6434
 6583SOL     OW31384   0.390   1.993   9.193 -0.0016 -0.7177  0.2546
 6583SOL    HW131385   0.300   1.996   9.227 -0.3182 -2.2849 -0.4601
 6583SOL    HW231386   0.437   1.990   9.276 -1.2028  0.8630  0.9999
 6584SOL     OW31387   2.475   1.749  10.652  0.2695 -0.4192  0.2248
 6584SOL    HW131388   2.445   1.807  10.722  1.2065  2.6334 -1.8967
 6584SOL    HW231389   2.508   1.809  10.585 -1.0193 -0.5384 -0.4949
 6585SOL     OW31390   2.378   1.686   1.240 -0.0683  0.6380  0.4616
 6585SOL    HW131391   2.364   1.591   1.249  0.3527  0.5016 -0.2777
 6585SOL    HW231392   2.473   1.695   1.229 -0.0821  1.6350  1.2002
 6586SOL     OW31393   4.326   3.493   0.947 -0.3353 -0.1030  0.5646
 6586SOL    HW131394   4.377   3.562   0.903  0.1125 -0.8137 -0.0290
 6586SOL    HW231395   4.330   3.418   0.887  0.2390  0.1070  0.3368
 6587SOL     OW31396   0.815   3.142  13.480 -0.8618  0.2013 -0.0136
 6587SOL    HW131397   0.863   3.194  13.416  0.1453 -1.2731 -0.4654
 6587SOL    HW231398   0.819   3.202  13.554 -0.8730  2.6536 -2.0048
 6588SOL     OW31399   3.837   1.828   5.789  0.2127  0.3987  0.0163
 6588SOL    HW131400   3.853   1.897   5.853  0.6711 -0.4637  0.8380
 6588SOL    HW231401   3.810   1.875   5.710  0.8660  0.3967 -0.2110
 6589SOL     OW31402   0.210   3.943  15.998 -0.2881  0.2965 -0.6986
 6589SOL    HW131403   0.128   3.927  16.043 -0.8485 -0.2049 -1.9131
 6589SOL    HW231404   0.201   4.034  15.971  0.0364  0.5205 -0.0622
 6590SOL     OW31405   2.184   0.480   2.484  0.1551 -0.0443 -0.0942
 6590SOL    HW131406   2.165   0.541   2.413 -0.2550 -0.4820 -0.3564
 6590SOL    HW231407   2.132   0.529   2.548  1.6297  0.4537  0.7438
 6591SOL     OW31408   3.392   2.240  12.445  0.5233  0.3723 -0.3076
 6591SOL    HW131409   3.342   2.289  12.509  0.4288 -0.4881  0.2818
 6591SOL    HW231410   3.467   2.208  12.496 -0.4249  1.0356  1.4638
 6592SOL     OW31411   2.736   1.205   3.222 -0.5717 -0.1759 -0.1101
 6592SOL    HW131412   2.643   1.191   3.242 -0.2122 -0.5595  1.3487
 6592SOL    HW231413   2.770   1.117   3.207  0.0843  0.1582 -0.5647
 6593SOL     OW31414   0.698   2.661  15.703  0.2522 -0.8355 -0.2684
 6593SOL    HW131415   0.734   2.717  15.771 -0.6430  0.6005 -0.9855
 6593SOL    HW231416   0.675   2.723  15.634  2.7011  0.2578 -0.1037
 6594SOL     OW31417   1.480   3.918   6.184  0.1004 -0.4373 -0.2478
 6594SOL    HW131418   1.531   3.986   6.140 -2.1307  1.1978 -0.3214
 6594SOL    HW231419   1.513   3.926   6.273 -0.9097  0.7275  0.0207
 6595SOL     OW31420   4.300   1.085  10.262  0.0549  0.2634  0.1248
 6595SOL    HW131421   4.245   1.067  10.185 -0.3880 -0.5544  0.6321
 6595SOL    HW231422   4.302   1.180  10.260  1.9755  0.2292  0.1220
 6596SOL     OW31423   2.724   0.634   6.580  0.5498  0.4245 -0.3710
 6596SOL    HW131424   2.815   0.660   6.595  0.9073 -1.3433  0.5542
 6596SOL    HW231425   2.708   0.678   6.497 -1.9978  0.7414  0.2742
 6597SOL     OW31426   2.816   2.611   9.441  0.5677 -0.1231 -0.3262
 6597SOL    HW131427   2.885   2.597   9.506 -0.9929 -1.3526  1.0778
 6597SOL    HW231428   2.866   2.651   9.370  1.3471 -1.5320 -0.5703
 6598SOL     OW31429   2.099   0.060   4.368  0.1116 -0.1421  0.2702
 6598SOL    HW131430   2.026   0.021   4.416 -1.9534  0.5158 -2.3543
 6598SOL    HW231431   2.176   0.032   4.417 -0.5909 -2.0726  0.2649
 6599SOL     OW31432   3.426   2.199   6.710  0.2401  0.3609 -0.5088
 6599SOL    HW131433   3.474   2.223   6.789  0.6442  2.0417 -1.2771
 6599SOL    HW231434   3.374   2.120   6.727  0.8809  0.1698  0.5989
 6600SOL     OW31435   1.569   2.584   4.601 -0.2851 -0.3079 -0.0750
 6600SOL    HW131436   1.627   2.622   4.535  1.6855 -0.6555  1.4759
 6600SOL    HW231437   1.589   2.636   4.679 -1.3615 -1.6043  1.0680
 6601SOL     OW31438   2.286   0.883   1.429 -0.0339  0.4030  0.0568
 6601SOL    HW131439   2.198   0.890   1.465  1.2226  0.5070  3.0824
 6601SOL    HW231440   2.336   0.836   1.496  2.9097  1.4845 -1.4100
 6602SOL     OW31441   0.132   1.284   2.370  0.6776  0.0025  0.4210
 6602SOL    HW131442   0.206   1.236   2.333  0.6447  0.4252 -0.2055
 6602SOL    HW231443   0.128   1.268   2.464  1.7246 -0.9610  0.2972
 6603SOL     OW31444   3.604   4.030   7.651 -0.5628 -0.4532  0.9383
 6603SOL    HW131445   3.690   4.044   7.612  0.3168  0.7695  3.2760
 6603SOL    HW231446   3.592   3.936   7.644  0.9318 -0.6635  1.1665
 6604SOL     OW31447   0.591   1.764   4.965  0.0856  0.5849 -0.0961
 6604SOL    HW131448   0.645   1.831   5.007 -0.1059  1.8338 -1.8268
 6604SOL    HW231449   0.600   1.797   4.875  3.0917  0.5237  0.1807
 6605SOL     OW31450   3.839   2.928  10.106  0.0336  0.1196 -0.5285
 6605SOL    HW131451   3.888   3.009  10.121 -1.0408  0.9459 -1.5037
 6605SOL    HW231452   3.825   2.935  10.012 -1.2525 -1.0377 -0.4269
 6606SOL     OW31453   0.830   3.852   7.993  0.0489 -0.6631 -0.5546
 6606SOL    HW131454   0.807   3.941   7.966 -1.3922 -1.3168 -1.4510
 6606SOL    HW231455   0.774   3.847   8.071 -1.2165 -1.1717 -1.5042
 6607SOL     OW31456   0.641   2.744   7.566  0.4932 -0.3189  0.5007
 6607SOL    HW131457   0.573   2.812   7.566  2.0782  1.2378  3.9140
 6607SOL    HW231458   0.637   2.716   7.657  1.3832 -1.4934  0.1749
 6608SOL     OW31459   0.584   0.830   6.525 -0.5259  0.6487 -0.0664
 6608SOL    HW131460   0.623   0.915   6.548 -1.4070  0.5288  1.9062
 6608SOL    HW231461   0.506   0.838   6.581  1.8427  0.8026  3.2022
 6609SOL     OW31462   0.687   3.579   3.714  0.2926  0.4752  0.6010
 6609SOL    HW131463   0.620   3.610   3.653  0.2815 -0.5107  0.1198
 6609SOL    HW231464   0.647   3.617   3.792  0.1414  1.1270  0.2165
 6610SOL     OW31465   1.940   2.748   8.008  0.3453 -0.0398  0.6584
 6610SOL    HW131466   2.010   2.808   8.031  2.7993 -2.8985  0.6930
 6610SOL    HW231467   1.881   2.813   7.971  0.6630  0.4734  1.0671
 6611SOL     OW31468   0.376   0.214   1.992  0.4399 -0.4420  0.1985
 6611SOL    HW131469   0.327   0.131   1.990  2.7133 -1.7558 -0.2862
 6611SOL    HW231470   0.420   0.220   2.076  0.6500  0.2966  0.0365
 6612SOL     OW31471   4.078   2.276   4.171  0.1057 -0.3044  0.6951
 6612SOL    HW131472   4.070   2.192   4.127  0.5922 -0.5076  0.9876
 6612SOL    HW231473   3.987   2.306   4.166  0.4068  0.6834  1.0697
 6613SOL     OW31474   0.669   3.168   0.481 -0.0099 -0.0773 -0.2393
 6613SOL    HW131475   0.597   3.148   0.541 -0.4249  0.1546 -0.6492
 6613SOL    HW231476   0.691   3.085   0.440  0.9031  0.1251 -0.1485
 6614SOL     OW31477   3.049   4.425  15.994  0.5043  0.0120  0.4173
 6614SOL    HW131478   2.965   4.467  15.974 -0.9436 -2.3578  1.5841
 6614SOL    HW231479   3.051   4.429  16.090 -2.3880  1.6973  0.4094
 6615SOL     OW31480   3.645   3.157   2.512 -0.4038 -0.0257 -0.0268
 6615SOL    HW131481   3.627   3.204   2.593 -1.3238  0.8048 -0.6956
 6615SOL    HW231482   3.606   3.211   2.442  1.5574 -0.4983 -1.4954
 6616SOL     OW31483   2.126   1.544   5.935  0.4528 -0.2688 -0.1520
 6616SOL    HW131484   2.109   1.563   6.027 -1.7454  1.8054 -1.0042
 6616SOL    HW231485   2.086   1.624   5.902  0.3023  0.0762  0.8550
 6617SOL     OW31486   3.363   0.289   4.436  0.2141 -0.2950  0.3919
 6617SOL    HW131487   3.376   0.365   4.493  0.5626 -0.2976  0.3130
 6617SOL    HW231488   3.450   0.268   4.402 -0.1365  1.1678 -1.4745
 6618SOL     OW31489   0.440   3.526   1.872 -0.0687 -0.6382 -0.0861
 6618SOL    HW131490   0.385   3.501   1.946  0.0689 -1.2037 -0.1734
 6618SOL    HW231491   0.514   3.575   1.908 -1.2482 -0.4847  2.1050
 6619SOL     OW31492   0.958   3.563   2.634 -0.4995  0.1626  0.3271
 6619SOL    HW131493   0.997   3.638   2.589 -1.9033  0.8336  0.2093
 6619SOL    HW231494   1.038   3.514   2.653 -0.3642 -0.0571 -0.8091
 6620SOL     OW31495   3.382   0.475   4.613 -0.2114 -0.0949  0.6027
 6620SOL    HW131496   3.375   0.468   4.708  2.8586  0.0024  0.8664
 6620SOL    HW231497   3.354   0.566   4.609 -0.7940 -0.4040 -2.3329
 6621SOL     OW31498   3.347   3.021   1.552  0.1927 -0.4581 -0.7288
 6621SOL    HW131499   3.290   3.093   1.525  2.0003  1.4658  0.7092
 6621SOL    HW231500   3.356   2.977   1.467 -3.7133 -1.1895 -0.7549
 6622SOL     OW31501   4.263   3.910  14.942 -0.0763 -0.0085  0.6690
 6622SOL    HW131502   4.274   3.835  15.000  0.0813  1.1043  2.0719
 6622SOL    HW231503   4.175   3.939  14.968 -0.5612 -1.1560  0.3065
 6623SOL     OW31504   0.133   0.278   9.639  0.4194 -0.2907 -0.0282
 6623SOL    HW131505   0.138   0.360   9.688  0.5916  0.4101 -1.2046
 6623SOL    HW231506   0.215   0.282   9.590 -0.6830  1.1911 -1.8034
 6624SOL     OW31507   4.179   3.313   1.666  0.4880 -0.2735 -0.1485
 6624SOL    HW131508   4.186   3.229   1.620  1.2969 -0.3751  0.1757
 6624SOL    HW231509   4.089   3.309   1.698  0.0816  1.1536 -1.0650
 6625SOL     OW31510   1.729   3.441   9.117  0.4266  0.1380  0.2631
 6625SOL    HW131511   1.793   3.480   9.058  1.6881 -2.7684 -0.2835
 6625SOL    HW231512   1.790   3.387   9.169  0.8217  0.1438 -0.1926
 6626SOL     OW31513   4.148   0.743   2.356 -0.2549  0.4452 -0.6426
 6626SOL    HW131514   4.175   0.697   2.277 -3.2171 -3.1794  0.4242
 6626SOL    HW231515   4.195   0.825   2.347  0.5508 -0.0742 -1.1338
 6627SOL     OW31516   1.623   2.437  11.087  0.1348 -0.0627  0.0545
 6627SOL    HW131517   1.710   2.397  11.081  0.7032  1.1635  0.0880
 6627SOL    HW231518   1.633   2.479  11.173  1.4966  1.5793 -0.9055
 6628SOL     OW31519   3.128   0.966   7.579 -0.2144  0.0114  0.0160
 6628SOL    HW131520   3.078   1.011   7.647  0.0122  0.4664 -0.1149
 6628SOL    HW231521   3.219   0.973   7.608 -0.1618 -0.6578  0.0114
 6629SOL     OW31522   1.551   0.863   1.994  0.0133 -0.5170 -0.4943
 6629SOL    HW131523   1.623   0.838   1.935 -0.8539  0.4168 -1.9573
 6629SOL    HW231524   1.538   0.785   2.048 -1.4212  0.6717  0.8590
 6630SOL     OW31525   1.695   2.834   1.784 -0.0718 -0.0259  0.7601
 6630SOL    HW131526   1.607   2.866   1.764 -0.1092  0.3973  1.6006
 6630SOL    HW231527   1.727   2.807   1.698  2.8346  3.0583  0.8470
 6631SOL     OW31528   3.620   1.880   5.174  0.1422  0.0003 -0.3174
 6631SOL    HW131529   3.696   1.874   5.232  0.8029  2.0075 -0.9725
 6631SOL    HW231530   3.576   1.798   5.196  0.5355 -0.3779 -0.9520
 6632SOL     OW31531   2.302   4.415   9.175  0.3092  0.0808 -0.2828
 6632SOL    HW131532   2.351   4.383   9.099  0.2939 -1.8892  0.5240
 6632SOL    HW231533   2.327   4.506   9.187 -0.1910 -0.1347  2.3828
 6633SOL     OW31534   1.108   3.038   2.659 -0.3614 -0.6741  0.3079
 6633SOL    HW131535   1.050   3.114   2.650  1.5939  0.6995 -0.7704
 6633SOL    HW231536   1.151   3.044   2.744  0.1065  0.2028  0.0105
 6634SOL     OW31537   4.516   3.712  12.824  0.1246  0.1388  0.2463
 6634SOL    HW131538   4.459   3.655  12.875 -0.2774  1.0442  0.8078
 6634SOL    HW231539   4.545   3.659  12.749  0.8389 -0.8084  1.1865
 6635SOL     OW31540   2.021   4.473  17.561 -0.0172 -0.0584 -0.4270
 6635SOL    HW131541   2.057   4.520  17.486  2.2577 -0.2376  0.5598
 6635SOL    HW231542   1.927   4.473  17.543 -0.0172  0.7540 -0.4360
 6636SOL     OW31543   1.567   2.150   3.827  0.1600  0.2423 -0.2835
 6636SOL    HW131544   1.539   2.081   3.767 -0.0046 -0.1303  0.2274
 6636SOL    HW231545   1.626   2.106   3.889 -1.8631 -1.9168  0.1130
 6637SOL     OW31546   3.286   1.912   5.162 -0.9761 -0.1375  0.5189
 6637SOL    HW131547   3.331   1.831   5.187  3.0929  2.0083  0.1147
 6637SOL    HW231548   3.223   1.880   5.097 -0.2147 -0.6890  0.0550
 6638SOL     OW31549   0.736   3.658   4.203  0.7075  0.5702 -0.6345
 6638SOL    HW131550   0.711   3.580   4.154  0.3042 -0.1042  0.6217
 6638SOL    HW231551   0.825   3.632   4.228  1.1780  0.9628 -1.9528
 6639SOL     OW31552   2.726   0.456   4.184 -1.2497  0.2858 -0.1764
 6639SOL    HW131553   2.819   0.473   4.171 -1.4374  1.3966 -0.0228
 6639SOL    HW231554   2.694   0.511   4.113  1.6937  0.1074 -1.6110
 6640SOL     OW31555   0.872   1.419   1.772 -0.0609  0.5920 -0.6265
 6640SOL    HW131556   0.895   1.429   1.864 -0.0176 -1.9491 -0.3864
 6640SOL    HW231557   0.777   1.426   1.783 -0.2829  1.7744 -3.2236
 6641SOL     OW31558   0.483   2.234   7.305  0.0254  0.0328 -0.1739
 6641SOL    HW131559   0.452   2.163   7.249 -2.8500 -0.7221  2.3772
 6641SOL    HW231560   0.413   2.298   7.290  0.7242  0.3025 -2.1855
 6642SOL     OW31561   2.338   2.671  16.117 -0.0873  0.0833 -0.0342
 6642SOL    HW131562   2.319   2.606  16.185 -0.7171 -0.0676 -0.3538
 6642SOL    HW231563   2.294   2.623  16.046  0.7121  1.6645 -1.6085
 6643SOL     OW31564   2.358   2.489   4.528  0.1849 -0.5035 -0.1535
 6643SOL    HW131565   2.385   2.574   4.562  1.5765  0.0207 -2.5907
 6643SOL    HW231566   2.264   2.494   4.540 -0.2589 -1.0804 -3.2201
 6644SOL     OW31567   3.950   0.166  14.350  0.4301 -0.2439  0.0337
 6644SOL    HW131568   3.990   0.160  14.263  1.1066 -0.4645  0.3534
 6644SOL    HW231569   3.861   0.172  14.316  0.2752  0.2428  0.5285
 6645SOL     OW31570   3.355   0.029  16.616  0.5780  0.3425  0.0310
 6645SOL    HW131571   3.416   0.066  16.680 -0.4652  1.1075  0.5731
 6645SOL    HW231572   3.310   0.111  16.595 -1.1187 -1.1131 -2.0188
 6646SOL     OW31573   0.454   3.168  15.741  0.1105  0.1671 -0.1828
 6646SOL    HW131574   0.417   3.154  15.654  0.5163  1.0599 -0.4987
 6646SOL    HW231575   0.504   3.249  15.730 -0.6965  0.7023  0.0970
 6647SOL     OW31576   3.602   4.233   0.162 -0.2143  0.1530 -0.3216
 6647SOL    HW131577   3.642   4.320   0.164 -1.4901  0.7287  0.2967
 6647SOL    HW231578   3.531   4.235   0.227 -1.1287  2.8081 -1.4137
 6648SOL     OW31579   2.278   1.521   3.314 -0.2049  0.1215  0.1819
 6648SOL    HW131580   2.308   1.592   3.257  1.6653  0.8061  2.0370
 6648SOL    HW231581   2.200   1.491   3.266 -0.4064  1.6508 -0.4573
 6649SOL     OW31582   4.097   1.132  11.255  0.1094  0.2539 -1.0730
 6649SOL    HW131583   4.126   1.183  11.180  0.9933  1.9929  0.4526
 6649SOL    HW231584   4.170   1.069  11.254 -0.7958 -0.8078 -0.1451
 6650SOL     OW31585   2.603   4.385   1.463  0.4795 -0.1295  0.4724
 6650SOL    HW131586   2.538   4.368   1.530 -1.6348  0.0858 -1.5367
 6650SOL    HW231587   2.667   4.424   1.523  2.1037 -0.8264 -0.7922
 6651SOL     OW31588   1.393   0.205  14.236  0.7130 -0.1738 -0.7704
 6651SOL    HW131589   1.325   0.219  14.301  1.7183  0.6585  0.0928
 6651SOL    HW231590   1.462   0.271  14.246  0.5624 -0.0856 -0.3409
 6652SOL     OW31591   0.827   0.399   8.174 -0.3415  0.7734 -0.4040
 6652SOL    HW131592   0.841   0.373   8.083 -0.8928  0.9382 -0.5391
 6652SOL    HW231593   0.772   0.476   8.162 -0.2039  1.0982  1.1625
 6653SOL     OW31594   0.603   2.671   6.630 -0.1741 -0.4119 -1.1490
 6653SOL    HW131595   0.635   2.721   6.555  3.5808  0.2844  0.9033
 6653SOL    HW231596   0.634   2.727   6.702 -2.1028 -1.5508  0.5729
 6654SOL     OW31597   3.356   2.610   1.501  0.4669  0.1462 -0.4664
 6654SOL    HW131598   3.439   2.648   1.472  0.6398 -0.0356 -0.2048
 6654SOL    HW231599   3.376   2.518   1.484  1.5248 -0.1781  2.5719
 6655SOL     OW31600   0.391   1.785   5.950  0.0394 -0.0056  0.1673
 6655SOL    HW131601   0.431   1.708   5.909  0.1331  0.3010 -0.3225
 6655SOL    HW231602   0.313   1.743   5.986  0.1975 -0.2851  0.1830
 6656SOL     OW31603   0.260   2.800  12.810  0.2110 -0.4547 -0.3022
 6656SOL    HW131604   0.195   2.867  12.788 -1.2661 -1.3485  1.3033
 6656SOL    HW231605   0.240   2.772  12.899  2.4047 -1.7763 -0.2311
 6657SOL     OW31606   2.911   3.899   4.710  0.1507  0.9139 -0.1435
 6657SOL    HW131607   2.890   3.833   4.645  3.2713  0.3944 -0.6316
 6657SOL    HW231608   2.868   3.859   4.786  1.0672 -1.1146 -0.7019
 6658SOL     OW31609   1.877   2.078  11.318  0.1441 -0.4587  0.4687
 6658SOL    HW131610   1.886   2.133  11.240 -3.0067  0.1025  0.5242
 6658SOL    HW231611   1.797   2.119  11.351 -0.6601 -1.0724 -0.7631
 6659SOL     OW31612   2.460   1.267   3.308 -0.4236 -1.0289  0.2621
 6659SOL    HW131613   2.372   1.293   3.279  0.1911 -0.4833 -1.1467
 6659SOL    HW231614   2.489   1.358   3.305 -1.6954 -0.5955  0.9471
 6660SOL     OW31615   0.326   3.951   9.130 -0.3395 -0.0322  0.3534
 6660SOL    HW131616   0.354   3.966   9.220 -1.3325 -1.8329  0.9654
 6660SOL    HW231617   0.299   3.860   9.137 -0.8158  0.2107  1.6389
 6661SOL     OW31618   1.147   2.859   7.123  0.1650 -0.2537 -0.2078
 6661SOL    HW131619   1.189   2.938   7.158  0.8313 -0.8628  0.3728
 6661SOL    HW231620   1.119   2.891   7.037  0.1618  0.6161  0.1173
 6662SOL     OW31621   1.881   0.842   8.108  0.3473 -0.1837  0.3989
 6662SOL    HW131622   1.791   0.811   8.124  0.5927  0.2662  2.6144
 6662SOL    HW231623   1.912   0.759   8.143  1.1414 -0.1976 -0.3488
 6663SOL     OW31624   1.089   1.595  15.299  0.1192 -0.0788 -0.0669
 6663SOL    HW131625   1.178   1.591  15.333 -0.2669  1.1790  1.1180
 6663SOL    HW231626   1.066   1.512  15.257 -0.0533  0.0724 -0.2724
 6664SOL     OW31627   1.420   1.632  10.821  0.1784  0.3598  0.2726
 6664SOL    HW131628   1.375   1.705  10.862 -0.3986 -0.1571  0.5688
 6664SOL    HW231629   1.496   1.631  10.878  0.1006 -2.5689  0.3667
 6665SOL     OW31630   2.945   3.473   7.268 -0.7823  0.2344 -0.0046
 6665SOL    HW131631   2.922   3.507   7.355 -0.3406 -1.9592  0.9814
 6665SOL    HW231632   2.979   3.391   7.303 -0.1107  1.8675  3.1766
 6666SOL     OW31633   4.301   4.172   5.520 -0.4352  0.0832  0.5955
 6666SOL    HW131634   4.391   4.165   5.553  0.4952  1.6941 -1.5821
 6666SOL    HW231635   4.325   4.201   5.432 -0.5526 -0.4847  0.3804
 6667SOL     OW31636   1.516   0.323  13.400 -0.2521  0.2304  0.2511
 6667SOL    HW131637   1.537   0.262  13.471  1.0140 -0.3241 -0.6075
 6667SOL    HW231638   1.604   0.349  13.373 -0.6781  3.0566  1.5182
 6668SOL     OW31639   1.638   3.865   4.961  0.4039  0.3610 -0.6285
 6668SOL    HW131640   1.656   3.857   4.867 -1.2822  0.7288 -0.9763
 6668SOL    HW231641   1.592   3.784   4.982  0.1987  0.2408 -1.5540
 6669SOL     OW31642   0.018   1.110   6.295 -0.6562 -0.0267 -0.0680
 6669SOL    HW131643   4.716   1.027   6.265  1.8316 -0.8083 -1.0143
 6669SOL    HW231644   0.009   1.096   6.389  0.0364  1.8600  0.2880
 6670SOL     OW31645   3.122   1.833  15.801 -0.1831  0.5839  0.5344
 6670SOL    HW131646   3.104   1.835  15.707  1.3944 -0.9133  0.2063
 6670SOL    HW231647   3.194   1.896  15.807 -0.8471  1.3202  0.7920
 6671SOL     OW31648   4.575   0.965   7.719  0.5843  0.1796 -0.2607
 6671SOL    HW131649   4.610   0.879   7.694  2.1841  0.9215 -0.5592
 6671SOL    HW231650   4.500   0.977   7.661 -0.7529 -0.0602  1.4166
 6672SOL     OW31651   3.009   2.231  12.200  0.2070 -0.0208  0.2406
 6672SOL    HW131652   3.003   2.154  12.144  0.5027 -0.9304  1.4716
 6672SOL    HW231653   2.923   2.263  12.171  0.1652  0.1624  0.5721
 6673SOL     OW31654   3.211   2.999   3.053  0.1345 -0.0414 -0.0137
 6673SOL    HW131655   3.297   3.019   3.016  0.4061  0.6319  0.9703
 6673SOL    HW231656   3.158   2.992   2.974 -1.0604  1.6010  0.6591
 6674SOL     OW31657   4.716   3.403  14.518 -0.1817 -0.3429 -0.1153
 6674SOL    HW131658   4.717   3.336  14.449 -0.9908  0.7321 -1.1826
 6674SOL    HW231659   4.659   3.474  14.488  0.8505  0.3944 -0.3607
 6675SOL     OW31660   2.031   0.147  12.667  0.0273 -0.6331 -0.1515
 6675SOL    HW131661   2.009   0.235  12.637  1.0112 -0.1549  0.5163
 6675SOL    HW231662   2.122   0.173  12.684 -0.7251  2.2233 -0.4261
 6676SOL     OW31663   1.450   0.458   5.930  0.2364  0.4487 -0.1761
 6676SOL    HW131664   1.484   0.516   5.862  2.3406 -1.0616 -0.4238
 6676SOL    HW231665   1.464   0.520   6.003  0.1599 -0.9352  1.0073
 6677SOL     OW31666   0.106   3.353  14.753  0.6839  0.3992 -0.1361
 6677SOL    HW131667   0.063   3.363  14.668 -0.2539  1.3357  0.4508
 6677SOL    HW231668   0.035   3.379  14.811  1.2538 -2.2483  1.7276
 6678SOL     OW31669   0.343   1.821   4.316  0.3941  0.2594 -0.3272
 6678SOL    HW131670   0.281   1.774   4.371 -0.6120  2.0148  0.0397
 6678SOL    HW231671   0.333   1.912   4.343 -0.2473 -0.2567  1.1557
 6679SOL     OW31672   0.240   1.841   1.832  0.7582  0.1224  0.1661
 6679SOL    HW131673   0.228   1.866   1.924 -0.9891 -0.6044  0.1534
 6679SOL    HW231674   0.335   1.837   1.823  1.0383  0.9181  2.6008
 6680SOL     OW31675   0.447   0.159  13.006  0.1069  0.4511  0.1436
 6680SOL    HW131676   0.471   0.236  12.954  0.8934  0.9259  1.2064
 6680SOL    HW231677   0.512   0.098  12.969  0.5989  0.8965  0.2785
 6681SOL     OW31678   1.427   0.344   8.831 -0.6539  0.0547  0.1774
 6681SOL    HW131679   1.342   0.366   8.870  0.8730  1.1627  2.8979
 6681SOL    HW231680   1.436   0.251   8.852 -0.2312 -0.0589 -0.5343
 6682SOL     OW31681   1.050   0.347  15.016  0.2678 -0.5793  0.6912
 6682SOL    HW131682   1.144   0.337  15.035  0.8799  0.6001 -1.6717
 6682SOL    HW231683   1.030   0.428  15.063  2.2647  0.8916 -0.9850
 6683SOL     OW31684   4.067   2.452   2.925  0.3909  0.5655 -0.0021
 6683SOL    HW131685   4.088   2.421   2.837  1.8201 -1.1921  0.9514
 6683SOL    HW231686   3.973   2.437   2.936  0.1959  1.1784 -0.8943
 6684SOL     OW31687   0.644   0.672  12.520 -0.5422  0.4621  0.0213
 6684SOL    HW131688   0.665   0.731  12.593 -2.7564  2.0911 -0.6385
 6684SOL    HW231689   0.550   0.660  12.532 -0.0443 -2.3674  0.9993
 6685SOL     OW31690   1.805   0.330  10.245  0.4644 -0.2618  0.5834
 6685SOL    HW131691   1.724   0.286  10.271  0.1399 -0.5466 -0.9317
 6685SOL    HW231692   1.852   0.343  10.328  2.6183 -0.7681 -0.5694
 6686SOL     OW31693   4.355   1.538  15.526 -0.0037 -0.2098 -0.9609
 6686SOL    HW131694   4.387   1.614  15.478 -0.4658 -0.0845 -1.0692
 6686SOL    HW231695   4.436   1.507  15.567 -1.1490 -0.8893  0.8010
 6687SOL     OW31696   2.563   0.470   6.473 -0.6508  0.3782  0.1429
 6687SOL    HW131697   2.628   0.510   6.531  0.5674  2.5524 -2.7637
 6687SOL    HW231698   2.514   0.548   6.448 -2.2695 -0.4390  0.6797
 6688SOL     OW31699   3.436   4.450   5.914  0.4811  0.3122  0.0365
 6688SOL    HW131700   3.467   4.436   5.825  0.3545 -2.2852  0.3936
 6688SOL    HW231701   3.350   4.410   5.900  0.0025  1.0208  0.9579
 6689SOL     OW31702   1.760   3.863  16.756  0.5028  0.7612  0.0657
 6689SOL    HW131703   1.715   3.927  16.811  0.0394  1.9398 -1.6750
 6689SOL    HW231704   1.705   3.878  16.679  0.8842 -1.8979 -0.7019
 6690SOL     OW31705   3.100   3.937   2.539  0.9822 -0.2089 -0.3403
 6690SOL    HW131706   3.048   3.961   2.462  1.9628  0.2132 -0.8735
 6690SOL    HW231707   3.079   4.014   2.592 -2.1443 -0.6945 -0.8713
 6691SOL     OW31708   0.616   3.075   3.635 -0.5443 -0.3458 -0.2363
 6691SOL    HW131709   0.571   3.012   3.578 -0.8204 -0.8099  0.4835
 6691SOL    HW231710   0.541   3.113   3.680  0.3526  0.3459  0.6749
 6692SOL     OW31711   1.997   0.575  10.241 -0.1364  0.6151  0.2725
 6692SOL    HW131712   1.989   0.512  10.312  0.7234  0.9722  0.6910
 6692SOL    HW231713   1.913   0.561  10.197  0.6517  1.6936 -1.5885
 6693SOL     OW31714   4.115   2.850   1.275 -0.1178 -0.2763 -0.1264
 6693SOL    HW131715   4.164   2.825   1.353  2.3058 -0.1960 -1.6043
 6693SOL    HW231716   4.156   2.790   1.213  0.2261  0.0324 -0.1935
 6694SOL     OW31717   3.279   3.869   0.065 -0.3531 -0.9285 -0.2829
 6694SOL    HW131718   3.368   3.838   0.082  0.4257  0.3229 -2.1865
 6694SOL    HW231719   3.220   3.819   0.122  0.7821 -1.7616  0.1713
 6695SOL     OW31720   3.347   3.975   4.497  0.1928  0.0835 -0.2502
 6695SOL    HW131721   3.292   3.993   4.573 -0.0930  1.4797 -0.7814
 6695SOL    HW231722   3.437   3.963   4.527  0.5794  0.6840 -1.1592
 6696SOL     OW31723   2.109   0.517   5.591 -0.1125  0.1897 -0.4486
 6696SOL    HW131724   2.099   0.489   5.501  0.2930 -0.0977 -0.4015
 6696SOL    HW231725   2.205   0.516   5.586 -0.0213  0.2655  1.2460
 6697SOL     OW31726   4.612   3.451   0.629  0.5983 -0.3350 -0.2272
 6697SOL    HW131727   4.606   3.356   0.626 -2.9796 -0.1781  1.9845
 6697SOL    HW231728   4.574   3.483   0.548  0.9163 -2.2586 -1.1319
 6698SOL     OW31729   0.124   4.329   2.607 -0.4479  0.6787 -0.1538
 6698SOL    HW131730   0.125   4.419   2.573  1.5715  0.7136  0.0542
 6698SOL    HW231731   0.038   4.302   2.575 -1.0280  1.3855  0.7831
 6699SOL     OW31732   3.806   4.399   5.815  0.3939 -0.0201  0.1312
 6699SOL    HW131733   3.759   4.474   5.851  1.9714  0.7700  0.5929
 6699SOL    HW231734   3.731   4.353   5.778  0.2142  0.8692 -0.6024
 6700SOL     OW31735   3.791   0.460   7.995  0.1392 -0.2666 -0.3941
 6700SOL    HW131736   3.771   0.489   8.083  0.1269  0.0018 -0.4875
 6700SOL    HW231737   3.839   0.537   7.965 -0.3397 -0.0046 -0.4790
 6701SOL     OW31738   2.628   4.257   1.930 -0.5274 -0.2075  0.2107
 6701SOL    HW131739   2.582   4.252   1.846 -0.4760 -0.8045  0.2143
 6701SOL    HW231740   2.590   4.183   1.978 -0.1959 -1.3239 -1.2480
 6702SOL     OW31741   3.556   0.676  10.828  0.0273  0.3233  0.5861
 6702SOL    HW131742   3.595   0.739  10.767 -0.5453 -1.7965 -1.9820
 6702SOL    HW231743   3.477   0.727  10.847 -0.3557  0.4087 -1.2324
 6703SOL     OW31744   3.736   3.889   8.746  0.3842 -0.4105 -0.1313
 6703SOL    HW131745   3.682   3.909   8.670  0.6120  1.5716  0.2241
 6703SOL    HW231746   3.682   3.908   8.822 -0.6034 -0.7950 -0.7387
 6704SOL     OW31747   1.816   4.248   6.557  0.3595 -0.4724  0.5029
 6704SOL    HW131748   1.758   4.172   6.556  1.0154 -1.0336  3.0908
 6704SOL    HW231749   1.865   4.225   6.478 -1.1149 -4.4593  0.7546
 6705SOL     OW31750   1.360   1.908   7.948  0.0808  0.2474  0.3852
 6705SOL    HW131751   1.335   1.994   7.914  0.0476 -0.4764 -1.3726
 6705SOL    HW231752   1.373   1.859   7.867  0.7455  1.8843 -0.4841
 6706SOL     OW31753   3.762   0.904   4.305  0.1502 -0.1447 -0.6861
 6706SOL    HW131754   3.787   0.817   4.274  1.5087  0.3288 -0.9104
 6706SOL    HW231755   3.690   0.872   4.359  0.9917  0.8145  1.0090
 6707SOL     OW31756   3.485   1.660   6.366 -0.6494 -0.1772 -0.4739
 6707SOL    HW131757   3.473   1.755   6.367  0.7027 -0.0486  3.0783
 6707SOL    HW231758   3.482   1.647   6.271  2.7951 -0.2033 -0.5711
 6708SOL     OW31759   0.823   1.583  15.451  0.5015 -0.1134  0.1334
 6708SOL    HW131760   0.910   1.577  15.410  0.3252 -0.7424 -0.1453
 6708SOL    HW231761   0.801   1.675  15.442  1.6953  0.1907  0.3988
 6709SOL     OW31762   1.386   4.696   2.652 -0.1683 -0.3910 -0.6851
 6709SOL    HW131763   1.465   4.711   2.601  0.3040 -0.6903 -0.0503
 6709SOL    HW231764   1.418   4.642   2.725 -2.4522 -1.3019 -0.3552
 6710SOL     OW31765   2.575   4.291  17.082  0.8591  0.9966  0.3502
 6710SOL    HW131766   2.511   4.359  17.106 -0.6771 -0.5336  0.6351
 6710SOL    HW231767   2.590   4.336  16.999  0.5994 -1.5758 -1.0801
 6711SOL     OW31768   0.339   4.282   7.685  0.1405  0.0853 -0.2865
 6711SOL    HW131769   0.430   4.276   7.657 -0.8449 -0.8152 -3.3119
 6711SOL    HW231770   0.320   4.206   7.739 -0.5277  1.1919  1.0090
 6712SOL     OW31771   2.901   0.696   9.833 -0.1787  0.4266  0.4489
 6712SOL    HW131772   2.850   0.692   9.913 -0.5277 -0.0805  0.2026
 6712SOL    HW231773   2.837   0.653   9.777 -0.0101  1.0345 -0.2214
 6713SOL     OW31774   2.085   3.032   5.715 -0.7160 -0.0320  0.3779
 6713SOL    HW131775   2.004   2.982   5.704 -0.5207 -0.2948  0.1222
 6713SOL    HW231776   2.136   3.006   5.638  0.2076  1.1984  0.5802
 6714SOL     OW31777   0.379   4.482   4.863 -0.1596  0.1100  0.8148
 6714SOL    HW131778   0.473   4.489   4.843 -0.7964 -0.2759 -2.2844
 6714SOL    HW231779   0.349   4.567   4.830 -0.1316  0.3812  1.4932
 6715SOL     OW31780   0.256   4.407  15.831  0.8144 -0.0249  0.6150
 6715SOL    HW131781   0.213   4.354  15.898  1.3036 -0.5604  0.4986
 6715SOL    HW231782   0.182   4.427  15.773  0.8217  1.2770  1.0420
 6716SOL     OW31783   0.827   3.249  14.057  0.6068  0.7795 -0.2320
 6716SOL    HW131784   0.849   3.323  14.114 -0.5570  1.4050 -0.6026
 6716SOL    HW231785   0.806   3.290  13.973  1.4415  2.0180  0.1545
 6717SOL     OW31786   4.230   1.754   6.961  0.4483  0.2261  0.4543
 6717SOL    HW131787   4.161   1.706   7.007 -0.8048 -0.7072 -2.3270
 6717SOL    HW231788   4.306   1.712   7.001 -0.4188 -1.0117  0.8119
 6718SOL     OW31789   1.051   0.934   6.150  0.0143 -0.9730  0.3318
 6718SOL    HW131790   1.024   1.015   6.193 -0.3461  0.3043 -2.2951
 6718SOL    HW231791   1.118   0.920   6.217 -0.8358 -0.1248  1.3740
 6719SOL     OW31792   4.442   1.699   8.158 -0.0506 -0.0141 -0.1123
 6719SOL    HW131793   4.516   1.739   8.112 -2.4959  2.1733 -2.1584
 6719SOL    HW231794   4.462   1.733   8.245  1.6363 -0.2243 -0.4298
 6720SOL     OW31795   1.544   3.202   8.313  0.6344 -0.2328  0.2609
 6720SOL    HW131796   1.583   3.250   8.240  1.3479 -2.1603 -0.6394
 6720SOL    HW231797   1.490   3.137   8.269  0.6486  0.3647 -0.6399
 6721SOL     OW31798   2.739   1.871   4.244 -1.0494 -0.5501  0.2270
 6721SOL    HW131799   2.672   1.919   4.293  0.0373 -0.2237  1.3742
 6721SOL    HW231800   2.816   1.926   4.256 -0.7543 -1.2654  1.6448
 6722SOL     OW31801   2.925   1.546   2.860 -0.0382  0.7140 -0.1048
 6722SOL    HW131802   2.895   1.518   2.946  1.1284  2.6426  0.9408
 6722SOL    HW231803   2.956   1.462   2.828 -0.7274  1.0203 -1.5882
 6723SOL     OW31804   0.362   0.292   6.631 -0.1133  0.0782 -0.7386
 6723SOL    HW131805   0.445   0.247   6.613  1.4322  2.2928  0.7120
 6723SOL    HW231806   0.389   0.379   6.663 -0.3363  0.4346 -1.5061
 6724SOL     OW31807   2.545   4.354   4.715 -0.5790 -1.0522  0.0824
 6724SOL    HW131808   2.615   4.311   4.764 -1.0157 -2.1441 -0.2484
 6724SOL    HW231809   2.581   4.440   4.693 -3.8628  0.3491  0.1696
 6725SOL     OW31810   3.287   0.453   8.973 -0.2458  0.0321 -0.8411
 6725SOL    HW131811   3.292   0.473   8.880  0.7451  1.6978 -0.4341
 6725SOL    HW231812   3.315   0.540   9.002  1.4705 -0.9141  0.3512
 6726SOL     OW31813   3.932   4.348  13.927 -0.4938 -0.5414  0.0288
 6726SOL    HW131814   4.003   4.290  13.899  0.0693  0.4466 -0.6167
 6726SOL    HW231815   3.938   4.353  14.022 -1.9742 -1.8535  0.1881
 6727SOL     OW31816   2.721   1.220   7.884  0.3959 -0.1606  0.0449
 6727SOL    HW131817   2.683   1.138   7.852  0.0516 -0.0744  0.2298
 6727SOL    HW231818   2.811   1.216   7.854  0.4559 -0.1969  0.2279
 6728SOL     OW31819   2.451   4.407   3.844 -0.6769  0.8076  0.2611
 6728SOL    HW131820   2.485   4.439   3.928  1.6306  0.0112 -0.3710
 6728SOL    HW231821   2.361   4.440   3.847 -1.3101 -0.9852  1.0740
 6729SOL     OW31822   2.212   4.600  16.019 -0.0990 -0.0500 -0.3056
 6729SOL    HW131823   2.245   4.617  16.107  2.5271  1.0347 -1.4763
 6729SOL    HW231824   2.243   4.510  16.013  0.9407  0.1912  1.3908
 6730SOL     OW31825   3.155   4.328   8.608  0.2160 -0.1350  0.2062
 6730SOL    HW131826   3.223   4.366   8.551 -0.2891  1.0206  0.3708
 6730SOL    HW231827   3.127   4.253   8.556  0.0351  0.1370 -0.0927
 6731SOL     OW31828   1.417   4.663   8.980  0.3481  0.2487 -0.5072
 6731SOL    HW131829   1.500   4.703   9.006 -0.9403  1.9345  1.0640
 6731SOL    HW231830   1.398   4.614   9.061  1.2574 -0.1787 -0.5483
 6732SOL     OW31831   3.052   3.798   5.050  0.1110  0.3016 -0.4574
 6732SOL    HW131832   3.112   3.790   4.976 -0.6168 -0.6023 -0.9618
 6732SOL    HW231833   3.008   3.713   5.052  0.0030  0.3678  0.1842
 6733SOL     OW31834   0.557   1.702   6.298  0.0063  0.0960  0.5766
 6733SOL    HW131835   0.525   1.731   6.383 -3.0779  0.9348 -0.8674
 6733SOL    HW231836   0.599   1.773   6.250 -1.7842  2.8475  3.0373
 6734SOL     OW31837   1.484   0.798   3.277 -0.2132 -0.2082 -0.5787
 6734SOL    HW131838   1.442   0.759   3.200 -1.6312  1.1660 -0.5084
 6734SOL    HW231839   1.449   0.747   3.350 -0.5344 -0.1589 -0.6959
 6735SOL     OW31840   3.872   1.740   3.344  0.3635 -0.6518 -0.0028
 6735SOL    HW131841   3.897   1.752   3.252 -1.8598  0.2592 -0.4713
 6735SOL    HW231842   3.781   1.767   3.339  0.5424 -0.3083 -1.4664
 6736SOL     OW31843   3.433   3.871   3.307  0.3161 -0.1542  0.2418
 6736SOL    HW131844   3.375   3.907   3.374  0.5596  1.9583 -0.6555
 6736SOL    HW231845   3.514   3.899   3.350 -0.1815  3.0049 -0.8246
 6737SOL     OW31846   0.388   0.749   7.104 -0.1169 -0.3584 -0.1487
 6737SOL    HW131847   0.316   0.695   7.137  0.3942 -0.3834  0.9272
 6737SOL    HW231848   0.332   0.826   7.094 -2.2699 -1.8116  0.5049
 6738SOL     OW31849   4.640   1.927   8.047  0.5786 -0.1017 -0.3938
 6738SOL    HW131850   4.696   1.861   8.089  1.9094  0.9356 -0.5494
 6738SOL    HW231851   4.697   2.004   8.041  0.0573  0.3966  1.0809
 6739SOL     OW31852   0.324   3.646   5.801  0.2758 -0.0443 -0.3642
 6739SOL    HW131853   0.243   3.627   5.850  0.1211  0.0064 -0.6000
 6739SOL    HW231854   0.302   3.574   5.742 -1.4895 -0.6026  0.9545
 6740SOL     OW31855   2.042   2.986   6.293 -0.2930 -0.3909 -0.8470
 6740SOL    HW131856   2.023   3.056   6.355  0.0369 -0.6523 -0.4494
 6740SOL    HW231857   2.040   2.907   6.347  0.9254  0.2182  0.0812
 6741SOL     OW31858   2.800   2.572   5.469 -0.3947 -0.2294  0.1402
 6741SOL    HW131859   2.725   2.627   5.492  0.3484 -0.7339  3.8348
 6741SOL    HW231860   2.775   2.497   5.524  1.9414 -1.2158 -0.1206
 6742SOL     OW31861   3.152   4.472   5.889  0.1634 -0.0877  0.4407
 6742SOL    HW131862   3.175   4.565   5.892 -0.1951  0.0236 -0.2244
 6742SOL    HW231863   3.135   4.462   5.983  0.3168  0.8639  0.5730
 6743SOL     OW31864   3.060   4.080  13.620  0.0718 -0.3374  0.3608
 6743SOL    HW131865   3.052   4.107  13.528 -1.2667 -0.6667  0.3898
 6743SOL    HW231866   3.008   4.000  13.611 -0.2927 -0.1821  1.0570
 6744SOL     OW31867   3.581   3.299   5.224  0.2645  0.1997 -0.1420
 6744SOL    HW131868   3.659   3.317   5.277 -0.8110  0.1259  1.4645
 6744SOL    HW231869   3.527   3.256   5.290 -0.3992  0.4600 -0.5199
 6745SOL     OW31870   0.659   0.141   9.158 -0.5989  0.3918  0.0892
 6745SOL    HW131871   0.658   0.048   9.179  0.3548  0.2774 -0.3758
 6745SOL    HW231872   0.711   0.135   9.078 -0.0533 -2.9997  0.7010
 6746SOL     OW31873   1.985   1.479   6.662  0.0545 -0.6130 -0.0163
 6746SOL    HW131874   1.905   1.505   6.708  0.4303 -2.0147  1.3945
 6746SOL    HW231875   1.979   1.386   6.644 -1.8298 -0.4449 -0.2982
 6747SOL     OW31876   0.537   0.573   6.943 -0.1074  0.1687 -0.1020
 6747SOL    HW131877   0.478   0.641   6.976 -0.1226  1.2653 -2.3992
 6747SOL    HW231878   0.625   0.608   6.956 -0.3430  0.3169  1.1363
 6748SOL     OW31879   0.979   1.774  17.614 -0.3412 -0.0312 -0.0818
 6748SOL    HW131880   1.004   1.858  17.575  2.3892  0.7814  3.3831
 6748SOL    HW231881   0.977   1.806  17.704  0.6251  0.3053 -0.1728
 6749SOL     OW31882   1.394   1.453  16.354  0.0333  0.4517 -0.4276
 6749SOL    HW131883   1.347   1.477  16.434 -0.3889 -2.0694  0.0768
 6749SOL    HW231884   1.434   1.533  16.321  3.0316 -1.1940 -0.7446
 6750SOL     OW31885   3.237   2.745  17.619  0.0194  0.0253  0.4136
 6750SOL    HW131886   3.205   2.655  17.627  0.2842 -0.1128 -0.0453
 6750SOL    HW231887   3.281   2.732  17.535 -1.1086  0.1399 -0.1968
 6751SOL     OW31888   4.585   0.023   7.340  0.3857  0.6276  0.2194
 6751SOL    HW131889   4.573   4.711   7.257  0.1689 -0.8054  1.0718
 6751SOL    HW231890   4.614   4.685   7.394  2.0121 -0.8699 -2.6974
 6752SOL     OW31891   3.813   2.160   5.667  0.1201  0.2695 -0.1992
 6752SOL    HW131892   3.898   2.123   5.641 -0.2304 -0.9297  0.3442
 6752SOL    HW231893   3.837   2.204   5.748 -0.1646  0.3538 -0.1645
 6753SOL     OW31894   4.171   2.956   8.251 -0.0671  0.0366 -0.5869
 6753SOL    HW131895   4.182   3.023   8.319 -0.4677 -1.1673  0.6768
 6753SOL    HW231896   4.258   2.937   8.215  0.1726  0.8166 -0.4281
 6754SOL     OW31897   4.086   1.078   0.334 -0.2936  0.1954 -0.5786
 6754SOL    HW131898   4.039   1.040   0.260  0.3638 -1.3618 -0.1902
 6754SOL    HW231899   4.016   1.053   0.395  0.1688  0.5981  0.1189
 6755SOL     OW31900   1.100   0.786  10.261 -0.0481 -0.3798  0.4124
 6755SOL    HW131901   1.162   0.716  10.242 -2.3749 -2.6013  0.9793
 6755SOL    HW231902   1.067   0.807  10.174 -1.7188 -1.5517  0.7587
 6756SOL     OW31903   4.289   3.262   3.196 -0.5538  0.3134  0.4785
 6756SOL    HW131904   4.265   3.226   3.281  0.6032 -1.1040  0.2084
 6756SOL    HW231905   4.262   3.354   3.196  1.2733  0.8566 -0.7771
 6757SOL     OW31906   3.357   1.283   3.324 -0.2584  0.0252  0.1161
 6757SOL    HW131907   3.408   1.353   3.366  1.0571 -1.1106  0.4213
 6757SOL    HW231908   3.411   1.259   3.249  1.0362  1.0072  0.7332
 6758SOL     OW31909   0.453   2.402   5.740 -0.0783  0.3373 -0.3731
 6758SOL    HW131910   0.450   2.496   5.757  0.2950  0.0912  1.0343
 6758SOL    HW231911   0.546   2.377   5.744  0.0661  1.0473  0.7150
 6759SOL     OW31912   0.668   3.348  17.564 -0.3042  0.4932 -0.2668
 6759SOL    HW131913   0.639   3.426  17.517 -2.7310 -1.2543 -1.6134
 6759SOL    HW231914   0.595   3.289  17.583  0.2960 -0.4303 -0.8422
 6760SOL     OW31915   2.251   2.129   7.231 -0.3139 -0.0149 -0.5944
 6760SOL    HW131916   2.240   2.105   7.139  1.7487 -3.3233  0.0348
 6760SOL    HW231917   2.193   2.072   7.282  0.2900 -0.5569 -0.5036
 6761SOL     OW31918   3.594   4.093   5.915  0.4956 -0.1874  0.0405
 6761SOL    HW131919   3.522   4.056   5.967  1.3728 -1.8733  0.0609
 6761SOL    HW231920   3.658   4.085   5.986  1.5120 -2.0795 -1.1018
 6762SOL     OW31921   2.090   3.782  15.826 -0.1370  0.0723 -0.4558
 6762SOL    HW131922   2.006   3.823  15.806 -1.0068 -1.2087  0.6152
 6762SOL    HW231923   2.107   3.832  15.906  3.0842  0.8114 -1.5861
 6763SOL     OW31924   1.419   3.778   3.428  0.1683  0.0964  0.2072
 6763SOL    HW131925   1.458   3.771   3.341  0.0370 -0.4183  0.1937
 6763SOL    HW231926   1.491   3.828   3.465 -0.7909  1.2120  0.5930
 6764SOL     OW31927   1.727   0.856   3.889  0.2045 -0.1491 -0.1980
 6764SOL    HW131928   1.730   0.768   3.924  2.2846 -0.2442 -0.6016
 6764SOL    HW231929   1.754   0.842   3.798  0.9124 -0.6103  0.0835
 6765SOL     OW31930   1.453   0.472  17.402 -1.0656  0.0852  0.2509
 6765SOL    HW131931   1.407   0.422  17.469  1.9971 -2.1801  0.6824
 6765SOL    HW231932   1.394   0.473  17.327 -0.3430  1.9287 -0.2916
 6766SOL     OW31933   1.297   2.231   3.842  0.1871  0.3358 -0.0489
 6766SOL    HW131934   1.277   2.140   3.862 -1.4942  0.3898 -1.4865
 6766SOL    HW231935   1.391   2.225   3.824 -0.1861 -1.0751 -1.5419
 6767SOL     OW31936   1.672   0.514   5.078 -0.1773  0.1749  0.3999
 6767SOL    HW131937   1.668   0.545   5.169 -0.6481  0.6061  0.2335
 6767SOL    HW231938   1.714   0.590   5.040 -0.3084  0.9646  1.8207
 6768SOL     OW31939   3.621   1.214   7.207 -0.6996 -0.5671  0.7149
 6768SOL    HW131940   3.620   1.272   7.132  0.0918 -2.6887 -0.9383
 6768SOL    HW231941   3.530   1.187   7.205 -0.4934 -1.3488  1.5332
 6769SOL     OW31942   2.789   2.527  11.347 -0.2008  0.6047 -0.2825
 6769SOL    HW131943   2.764   2.490  11.263  0.9970 -1.6814  0.3839
 6769SOL    HW231944   2.743   2.611  11.343  0.2574  0.8865  0.4789
 6770SOL     OW31945   3.752   0.419  11.948 -0.3750 -0.0092 -0.1700
 6770SOL    HW131946   3.796   0.383  11.871  2.2290  1.2209  0.7296
 6770SOL    HW231947   3.713   0.495  11.905 -0.4527  1.1750  2.0193
 6771SOL     OW31948   2.038   0.250   8.962  0.0632 -0.3572  0.3426
 6771SOL    HW131949   2.113   0.309   8.956  0.3497 -0.5550  1.9488
 6771SOL    HW231950   1.965   0.311   8.968  0.7391  0.4941 -0.1211
 6772SOL     OW31951   4.455   0.289   7.390  0.4988 -0.4576 -0.0268
 6772SOL    HW131952   4.494   0.209   7.354  0.4569 -0.3590 -0.2893
 6772SOL    HW231953   4.488   0.294   7.480  0.1849 -0.2364  0.0757
 6773SOL     OW31954   0.080   4.268   1.749  0.4450 -0.3099  0.1346
 6773SOL    HW131955   0.085   4.180   1.711  2.5061 -0.0266 -0.2321
 6773SOL    HW231956   0.033   4.250   1.830 -1.8400 -1.5775 -1.4656
 6774SOL     OW31957   0.092   2.230  17.572  0.0500 -0.4394 -0.4974
 6774SOL    HW131958   0.113   2.202  17.483 -1.7092  0.2815 -1.1367
 6774SOL    HW231959   0.001   2.199  17.574 -1.3753  3.8108  0.9932
 6775SOL     OW31960   3.492   2.540   3.047 -0.1849 -0.7811  0.1521
 6775SOL    HW131961   3.405   2.514   3.078 -0.7958 -0.1332 -1.0146
 6775SOL    HW231962   3.479   2.635   3.047  1.9798 -0.4917  0.6363
 6776SOL     OW31963   4.702   1.336   3.536  0.0898  0.7061 -0.1864
 6776SOL    HW131964   4.644   1.384   3.477  0.9611  1.8941 -0.0637
 6776SOL    HW231965   4.711   1.393   3.612  1.4557 -0.8331  0.8078
 6777SOL     OW31966   0.785   1.726  11.292 -0.7750 -0.4678  0.3949
 6777SOL    HW131967   0.789   1.756  11.383  1.6712 -1.0092  0.4483
 6777SOL    HW231968   0.859   1.667  11.280  0.5216  0.9599  1.4596
 6778SOL     OW31969   0.032   4.054   1.591 -0.3694  0.6424 -0.2183
 6778SOL    HW131970   4.724   3.969   1.601  1.4074 -0.0178  1.8076
 6778SOL    HW231971   0.077   4.038   1.507  0.5571 -1.9077  0.7457
 6779SOL     OW31972   1.507   3.228   5.735  0.0134 -0.4857  0.1990
 6779SOL    HW131973   1.483   3.145   5.774 -0.7159 -0.8493 -1.0344
 6779SOL    HW231974   1.582   3.203   5.680  1.5878  0.7021  1.8087
 6780SOL     OW31975   2.184   2.302   4.215  0.0727 -0.4124 -0.4551
 6780SOL    HW131976   2.273   2.269   4.208 -0.1448 -0.9821 -0.5413
 6780SOL    HW231977   2.184   2.332   4.306 -1.9051  1.5210 -1.1060
 6781SOL     OW31978   2.274   4.658  11.060  0.1423  0.7998 -0.2533
 6781SOL    HW131979   2.289   4.566  11.077  0.5677  0.9285  0.0594
 6781SOL    HW231980   2.208   4.689  11.123 -0.6358 -1.8087  0.1917
 6782SOL     OW31981   2.255   1.312   1.081 -0.3577  0.7417 -0.6149
 6782SOL    HW131982   2.212   1.338   0.999  0.2833 -0.6163 -1.3966
 6782SOL    HW231983   2.181   1.328   1.140 -0.2055  1.7593 -0.6965
 6783SOL     OW31984   4.206   4.070   4.229  0.1464  0.3495  0.0254
 6783SOL    HW131985   4.248   4.143   4.273 -0.2974 -0.0825  1.1992
 6783SOL    HW231986   4.252   4.000   4.276  0.0065  1.8349  2.3868
 6784SOL     OW31987   0.507   1.795  17.192  0.2383 -0.5852 -0.6990
 6784SOL    HW131988   0.445   1.866  17.175  1.7920  0.8483 -0.4303
 6784SOL    HW231989   0.574   1.840  17.244 -0.6789  0.5040 -0.4590
 6785SOL     OW31990   0.461   2.683  16.815 -0.2285 -0.7696  0.1216
 6785SOL    HW131991   0.407   2.715  16.887  2.2070 -0.2589  1.7221
 6785SOL    HW231992   0.395   2.628  16.774 -0.5203 -0.7240  0.5348
 6786SOL     OW31993   2.473   1.239   3.924 -0.6679  0.2248 -0.0568
 6786SOL    HW131994   2.563   1.263   3.900  0.0986 -0.8360  1.7738
 6786SOL    HW231995   2.423   1.284   3.856 -0.6811  0.3390  0.0287
 6787SOL     OW31996   4.065   3.545  10.278  0.3411  0.3446  0.5307
 6787SOL    HW131997   4.031   3.629  10.310  1.0890  0.7382  0.2906
 6787SOL    HW231998   4.138   3.521  10.335  0.5431 -1.7201 -0.6034
 6788SOL     OW31999   3.418   3.818   7.211 -0.5056 -0.0465  0.0665
 6788SOL    HW132000   3.402   3.909   7.186 -1.7281 -0.6044 -1.1807
 6788SOL    HW232001   3.500   3.816   7.161  0.3048  1.5684  1.3534
 6789SOL     OW32002   0.591   3.064   4.654  0.0262  0.5472 -0.0647
 6789SOL    HW132003   0.610   2.977   4.621 -2.9374  0.5369 -1.7578
 6789SOL    HW232004   0.682   3.092   4.665  1.4129 -4.0015 -0.3133
 6790SOL     OW32005   0.125   3.939   2.514 -0.4857 -0.1396 -0.3697
 6790SOL    HW132006   0.171   4.022   2.500 -0.3342 -0.3736 -1.2398
 6790SOL    HW232007   0.201   3.882   2.514 -0.4230 -0.0552  0.1091
 6791SOL     OW32008   3.223   1.781   2.981  0.0262  0.1487  0.2382
 6791SOL    HW132009   3.161   1.787   3.054 -1.9651 -0.1827 -1.4199
 6791SOL    HW232010   3.303   1.804   3.027  0.7351 -0.5425 -0.6537
 6792SOL     OW32011   3.703   0.317   3.979  0.3818 -0.5377  0.2413
 6792SOL    HW132012   3.783   0.364   3.956 -1.9209  2.0504 -2.3715
 6792SOL    HW232013   3.708   0.254   3.908  0.2024 -2.7407  2.1694
 6793SOL     OW32014   3.447   3.316   4.563 -0.4284  0.2397  0.0258
 6793SOL    HW132015   3.498   3.258   4.505  0.2799  1.3782 -0.4767
 6793SOL    HW232016   3.453   3.270   4.646 -0.6445  2.6879  1.3733
 6794SOL     OW32017   3.490   1.971   3.553 -0.4988  0.2350 -0.1462
 6794SOL    HW132018   3.581   1.980   3.581 -1.1363  1.9452  1.4226
 6794SOL    HW232019   3.493   2.027   3.475 -2.1116  1.1764  0.4619
 6795SOL     OW32020   4.027   1.639   9.119  1.4212  0.1435  0.4549
 6795SOL    HW132021   4.077   1.720   9.130  1.7883 -0.1527  0.9679
 6795SOL    HW232022   4.034   1.620   9.026 -1.7777  2.1078 -0.1686
 6796SOL     OW32023   3.450   1.279   5.728 -0.6699 -0.0103  0.8088
 6796SOL    HW132024   3.423   1.291   5.819 -1.5500  0.9237  0.4133
 6796SOL    HW232025   3.452   1.183   5.728 -0.4529  0.0001 -2.3682
 6797SOL     OW32026   3.104   0.399   4.515  0.0896 -0.3030  0.1842
 6797SOL    HW132027   3.152   0.348   4.450  0.7176  1.0824 -0.4292
 6797SOL    HW232028   3.181   0.438   4.556 -0.3232 -0.2914  0.9559
 6798SOL     OW32029   1.968   4.041   8.147 -0.2373 -0.1185 -0.9921
 6798SOL    HW132030   1.944   3.951   8.166 -1.8599  0.1778 -1.6769
 6798SOL    HW232031   2.002   4.032   8.058 -0.3668  0.3439 -1.0907
 6799SOL     OW32032   1.475   1.438  10.347 -0.2246  0.1399  0.5109
 6799SOL    HW132033   1.510   1.462  10.261 -1.7029  1.4367  0.2671
 6799SOL    HW232034   1.557   1.421  10.393 -0.8931 -1.0988  1.2741
 6800SOL     OW32035   2.876   1.534   8.539 -0.2925 -0.2050  0.0795
 6800SOL    HW132036   2.868   1.486   8.621  1.6052  0.3403  0.5759
 6800SOL    HW232037   2.797   1.511   8.491  1.7037  2.4682 -4.5395
 6801SOL     OW32038   3.917   3.968   1.965  0.6891  0.1770 -0.1750
 6801SOL    HW132039   3.997   3.928   1.932  0.9384  0.0958  0.5266
 6801SOL    HW232040   3.920   3.954   2.059 -0.8519 -1.0165 -0.2920
 6802SOL     OW32041   3.842   0.105   5.218 -0.0065  0.1731 -0.2063
 6802SOL    HW132042   3.888   0.135   5.139  0.1898 -0.2906 -0.2659
 6802SOL    HW232043   3.781   0.039   5.187  0.0416  1.1051 -2.2521
 6803SOL     OW32044   4.239   2.030  13.379 -0.2977 -0.3107 -0.2942
 6803SOL    HW132045   4.265   1.939  13.363  0.0616 -0.3054  0.2578
 6803SOL    HW232046   4.145   2.026  13.362 -0.9446 -0.4392  3.2184
 6804SOL     OW32047   0.139   3.178   5.525  0.4785 -0.2697  0.0013
 6804SOL    HW132048   0.154   3.088   5.498  2.3421 -0.2920  1.0834
 6804SOL    HW232049   0.045   3.163   5.525  0.0741  2.2010  0.4259
 6805SOL     OW32050   3.833   1.355  10.109  0.1099 -0.4653 -0.0718
 6805SOL    HW132051   3.924   1.351  10.138  0.6421  2.7790 -1.3895
 6805SOL    HW232052   3.808   1.267  10.137 -0.0121  0.1329  1.7072
 6806SOL     OW32053   3.149   0.349  13.002  0.9304 -0.4744  0.4285
 6806SOL    HW132054   3.057   0.364  12.982  0.6783 -0.5835  1.4780
 6806SOL    HW232055   3.187   0.365  12.916 -0.0514 -0.2187  0.0455
 6807SOL     OW32056   0.883   4.134   2.854  0.2544 -0.7715 -0.2294
 6807SOL    HW132057   0.880   4.151   2.760  0.3356  3.5962  0.5728
 6807SOL    HW232058   0.867   4.040   2.853 -0.1931 -0.7061  0.3203
 6808SOL     OW32059   3.207   1.891   6.704 -0.2690  0.0524  0.2923
 6808SOL    HW132060   3.188   1.803   6.672  2.3953  0.2801 -1.9207
 6808SOL    HW232061   3.163   1.882   6.789 -1.4478  0.1496 -0.3184
 6809SOL     OW32062   1.381   0.757   5.157 -0.1794 -0.0467  0.2166
 6809SOL    HW132063   1.409   0.778   5.246 -1.1289 -0.5057  0.6120
 6809SOL    HW232064   1.396   0.845   5.122 -0.8182 -0.2502 -0.5643
 6810SOL     OW32065   4.374   3.523  10.140 -0.6204 -0.1461 -0.0814
 6810SOL    HW132066   4.363   3.602  10.193  0.7571  0.6851 -1.0312
 6810SOL    HW232067   4.403   3.568  10.061 -1.9941  0.7883 -0.0476
 6811SOL     OW32068   3.370   3.443  12.904 -0.2851 -0.2552  0.0049
 6811SOL    HW132069   3.387   3.506  12.834 -0.0782 -0.9817 -0.5909
 6811SOL    HW232070   3.388   3.499  12.980 -1.0360  0.9532 -0.7017
 6812SOL     OW32071   1.667   1.072  13.385  0.8705 -0.7950 -0.2666
 6812SOL    HW132072   1.578   1.103  13.366  2.8693  3.5509 -2.4205
 6812SOL    HW232073   1.703   1.147  13.432  1.7047 -0.8638 -0.8152
 6813SOL     OW32074   3.256   1.058   6.783 -0.2353  0.1683  0.2370
 6813SOL    HW132075   3.327   1.090   6.838  0.5703  1.6708 -1.6607
 6813SOL    HW232076   3.174   1.101   6.806 -0.0356  1.2018 -0.9523
 6814SOL     OW32077   2.001   0.323   6.044  0.3410  0.3500 -0.2509
 6814SOL    HW132078   1.995   0.261   5.971 -1.5129 -1.5397  1.5040
 6814SOL    HW232079   2.009   0.271   6.124  1.4165  2.3310  0.9224
 6815SOL     OW32080   4.398   4.100   3.140  0.0558 -0.2179 -0.1512
 6815SOL    HW132081   4.362   4.139   3.061  0.3836  3.8352  1.7019
 6815SOL    HW232082   4.445   4.024   3.106 -2.2773 -0.8853 -1.8417
 6816SOL     OW32083   4.517   2.723   1.427  0.3732  0.5981 -0.2061
 6816SOL    HW132084   4.530   2.687   1.340 -0.6362  0.4195 -0.2858
 6816SOL    HW232085   4.524   2.641   1.475  1.0053  1.0839  0.5424
 6817SOL     OW32086   2.299   3.027   1.648 -0.9825 -0.0036 -0.4726
 6817SOL    HW132087   2.320   2.961   1.582  0.7211  1.1187 -1.0400
 6817SOL    HW232088   2.278   3.106   1.598  0.1374  0.1871 -0.6506
 6818SOL     OW32089   1.841   3.431  13.466  0.0610 -0.5897 -0.3576
 6818SOL    HW132090   1.769   3.380  13.503 -0.5507  1.3495  1.0694
 6818SOL    HW232091   1.873   3.478  13.543  0.2474 -1.8583  0.3445
 6819SOL     OW32092   2.017   1.162   7.779  0.5219  0.0315 -0.6837
 6819SOL    HW132093   1.956   1.172   7.706 -3.1821  1.1394  2.5225
 6819SOL    HW232094   1.967   1.190   7.856  0.9258 -0.2027 -0.3387
 6820SOL     OW32095   3.652   1.646   6.134  0.5591 -0.1210  0.0221
 6820SOL    HW132096   3.583   1.693   6.087  2.6347  0.4062 -2.4758
 6820SOL    HW232097   3.700   1.717   6.176 -0.8151  2.4088 -2.6605
 6821SOL     OW32098   1.880   0.301   5.149  0.6692  0.5897 -0.1175
 6821SOL    HW132099   1.835   0.221   5.177 -0.6502  0.5717 -2.3045
 6821SOL    HW232100   1.812   0.368   5.149 -0.4545 -0.5384 -3.3179
 6822SOL     OW32101   3.985   1.919  14.503  0.4195 -0.4049 -0.5301
 6822SOL    HW132102   3.922   1.918  14.432 -0.7809 -1.5563  0.5384
 6822SOL    HW232103   3.941   1.977  14.565  0.0527 -0.1544 -1.0364
 6823SOL     OW32104   4.105   1.389   8.662 -0.3496  0.0655 -0.4137
 6823SOL    HW132105   4.162   1.397   8.586 -0.7748 -2.3369 -0.9671
 6823SOL    HW232106   4.125   1.299   8.686 -1.4535 -0.0039  0.2693
 6824SOL     OW32107   1.226   0.770   8.375  0.1286 -0.1362 -0.5718
 6824SOL    HW132108   1.314   0.793   8.344  0.3938  0.4347  0.6025
 6824SOL    HW232109   1.207   0.687   8.331 -1.1120  0.1287 -0.5368
 6825SOL     OW32110   0.657   4.666  13.894  0.3670 -0.0200 -0.0498
 6825SOL    HW132111   0.641   4.669  13.799  0.7361 -0.1140 -0.1163
 6825SOL    HW232112   0.612   0.005  13.933 -1.2737 -2.0204  1.8101
 6826SOL     OW32113   2.281   0.479   4.309 -0.0699 -0.0387 -0.3428
 6826SOL    HW132114   2.294   0.418   4.236  1.8060  0.9637 -0.8354
 6826SOL    HW232115   2.222   0.435   4.370 -0.1184  0.9040  0.2893
 6827SOL     OW32116   4.385   3.176   2.902 -0.0312 -0.7474  0.0549
 6827SOL    HW132117   4.371   3.241   2.971 -0.3318 -1.1147  0.3403
 6827SOL    HW232118   4.383   3.091   2.946 -2.3647 -0.3633  0.6982
 6828SOL     OW32119   1.846   2.044   6.876  0.0786  0.1649  0.2238
 6828SOL    HW132120   1.920   2.040   6.815  0.4797 -0.9264  0.7825
 6828SOL    HW232121   1.871   1.996   6.955  2.2361  0.2630 -0.4142
 6829SOL     OW32122   3.184   1.485   1.658  0.0536  0.0568  1.0214
 6829SOL    HW132123   3.138   1.546   1.601 -0.3420 -0.1695  1.1027
 6829SOL    HW232124   3.148   1.408   1.614  1.5604 -0.4452  0.6617
 6830SOL     OW32125   3.232   4.656  14.863  0.7149  0.0272  0.6768
 6830SOL    HW132126   3.209   4.643  14.955  0.6313  0.4458  0.7145
 6830SOL    HW232127   3.169   4.604  14.814 -0.1436 -0.0091  1.8311
 6831SOL     OW32128   2.604   0.917   8.100  0.1666 -0.1878  0.0542
 6831SOL    HW132129   2.692   0.881   8.110 -0.9678 -3.7020 -2.5327
 6831SOL    HW232130   2.603   0.932   8.005 -0.9273 -1.9462 -0.2167
 6832SOL     OW32131   1.352   2.090   6.155 -0.2844  1.0272  0.2006
 6832SOL    HW132132   1.271   2.133   6.182 -0.8912 -0.7319  1.1549
 6832SOL    HW232133   1.315   2.019   6.103  3.1791  0.6480 -1.7476
 6833SOL     OW32134   1.004   1.308  13.179  0.2876 -0.1705  0.3306
 6833SOL    HW132135   1.060   1.383  13.156  1.0351 -1.4315 -1.9493
 6833SOL    HW232136   1.063   1.265  13.241  0.7910 -3.0848 -2.1841
 6834SOL     OW32137   3.549   2.207   1.664 -0.1501  0.2588 -0.1114
 6834SOL    HW132138   3.638   2.199   1.699 -0.0064 -2.3439 -1.0585
 6834SOL    HW232139   3.494   2.238   1.736 -4.1054 -0.7585 -2.6706
 6835SOL     OW32140   4.491   0.141   7.685  0.2002 -0.6541 -0.4712
 6835SOL    HW132141   4.557   0.100   7.630 -0.0590 -1.6294 -0.0533
 6835SOL    HW232142   4.436   0.069   7.716  1.1628 -0.4331  1.7402
 6836SOL     OW32143   0.729   4.552   0.232  0.5386 -0.0540 -0.5326
 6836SOL    HW132144   0.741   4.478   0.173 -0.5743 -0.9486  0.3730
 6836SOL    HW232145   0.684   4.498   0.296 -1.7358 -0.1369 -2.2017
 6837SOL     OW32146   2.741   3.483  12.942 -0.7496 -0.0901 -1.0704
 6837SOL    HW132147   2.742   3.489  13.037  3.6494  0.3539 -1.1270
 6837SOL    HW232148   2.792   3.405  12.921  0.7272  0.3479  0.9357
 6838SOL     OW32149   4.217   1.166   8.745 -0.0084  0.3062  0.2395
 6838SOL    HW132150   4.277   1.110   8.696  1.0053  0.6696  1.0909
 6838SOL    HW232151   4.274   1.189   8.818  2.6345 -0.1874 -1.6651
 6839SOL     OW32152   3.812   0.058   8.184 -0.5069  0.0453  0.0340
 6839SOL    HW132153   3.830   0.124   8.118  0.3812  0.0188  0.2523
 6839SOL    HW232154   3.811   0.110   8.264 -2.1463 -0.0614  0.0998
 6840SOL     OW32155   1.166   0.206  13.013 -0.2906  0.5162 -0.2958
 6840SOL    HW132156   1.094   0.218  13.074  0.6568  0.0925  0.9013
 6840SOL    HW232157   1.223   0.257  13.071  0.7796 -0.4724 -0.4624
 6841SOL     OW32158   4.304   2.525   4.601  0.8791  0.4175 -0.4210
 6841SOL    HW132159   4.228   2.499   4.654  0.6332  0.1843 -0.8930
 6841SOL    HW232160   4.287   2.491   4.514 -0.5669  0.4709 -0.1585
 6842SOL     OW32161   0.679   2.908   8.495 -0.0057  0.0833  1.0807
 6842SOL    HW132162   0.649   2.998   8.482 -0.4954 -0.1468  0.6301
 6842SOL    HW232163   0.599   2.864   8.523  0.5528 -3.4480 -2.9378
 6843SOL     OW32164   0.831   4.100  11.917  0.7904 -0.1198 -0.0256
 6843SOL    HW132165   0.878   4.023  11.950  3.4763  0.6738 -1.9253
 6843SOL    HW232166   0.902   4.163  11.904 -2.2590  2.8592 -2.1000
 6844SOL     OW32167   1.988   3.112   0.000 -0.5524 -0.3800 -0.6107
 6844SOL    HW132168   2.031   3.181  17.691  3.1229 -2.1676  0.0907
 6844SOL    HW232169   1.907   3.090  17.695 -0.7786  0.7045 -0.7089
 6845SOL     OW32170   2.912   1.273   6.651  0.0052 -0.3873 -0.2230
 6845SOL    HW132171   2.857   1.201   6.683 -1.2577  0.9076  0.5382
 6845SOL    HW232172   2.995   1.270   6.698 -1.0774 -1.7054  1.6218
 6846SOL     OW32173   0.610   2.721   5.082  0.0970 -1.0781 -0.3897
 6846SOL    HW132174   0.618   2.802   5.032  1.9063 -0.4448  0.9070
 6846SOL    HW232175   0.599   2.661   5.008 -0.7729 -0.6788 -0.5778
 6847SOL     OW32176   1.148   2.096   5.724 -0.1546  0.2893 -0.3015
 6847SOL    HW132177   1.236   2.133   5.713  0.6681 -1.5470 -0.0286
 6847SOL    HW232178   1.168   2.049   5.805 -0.3437  0.1009 -0.3625
 6848SOL     OW32179   2.643   4.582   6.190  0.2628  0.7153  0.7203
 6848SOL    HW132180   2.613   4.579   6.281 -3.0904 -1.9304 -0.4693
 6848SOL    HW232181   2.669   4.492   6.169 -1.4788  0.5419 -0.6336
 6849SOL     OW32182   3.750   3.459  17.234 -0.4530 -0.6623 -0.0895
 6849SOL    HW132183   3.697   3.538  17.222  0.1648 -0.4865 -1.7217
 6849SOL    HW232184   3.821   3.487  17.292 -0.8192 -0.8817  0.4692
 6850SOL     OW32185   3.541   0.996   6.883 -0.0919  0.3781  0.2147
 6850SOL    HW132186   3.604   0.977   6.953  0.4870 -0.6634 -0.5890
 6850SOL    HW232187   3.573   1.083   6.860  1.8639 -0.3028  0.3532
 6851SOL     OW32188   3.427   0.413   6.946 -0.1968  0.3262  0.6343
 6851SOL    HW132189   3.465   0.501   6.944 -3.0184  1.5564  1.4021
 6851SOL    HW232190   3.337   0.440   6.929 -0.4861 -0.1133  1.4561
 6852SOL     OW32191   1.900   3.651  12.117  0.4495  0.3356  0.7638
 6852SOL    HW132192   1.930   3.716  12.179 -0.4558  0.4331  1.1113
 6852SOL    HW232193   1.806   3.671  12.118  0.1215 -0.9963 -1.9080
 6853SOL     OW32194   2.926   2.541   7.173  0.4617  0.1060  0.3081
 6853SOL    HW132195   2.875   2.524   7.094 -0.1852  0.3609  0.6649
 6853SOL    HW232196   3.003   2.497   7.138  0.9822  0.5837  0.8557
 6854SOL     OW32197   0.799   4.094   5.790  0.2731 -0.3563  0.2406
 6854SOL    HW132198   0.755   4.169   5.831  1.8795 -0.4506  2.1697
 6854SOL    HW232199   0.834   4.053   5.870  0.5490  0.4864  0.5558
 6855SOL     OW32200   4.023   4.094   3.089  0.7073 -0.0060 -0.7601
 6855SOL    HW132201   4.056   4.072   3.177 -1.1933 -0.7389 -0.2492
 6855SOL    HW232202   4.059   4.181   3.068 -1.7571  1.5729  1.5013
 6856SOL     OW32203   2.434   2.455   8.743  0.5432  0.1990  0.1250
 6856SOL    HW132204   2.407   2.385   8.684 -0.7912  1.4797 -0.7915
 6856SOL    HW232205   2.504   2.418   8.797 -1.3719 -3.0591  0.3645
 6857SOL     OW32206   0.382   4.303   8.223  0.0326  0.0528  0.2185
 6857SOL    HW132207   0.319   4.236   8.196 -0.0550  0.0044  0.5501
 6857SOL    HW232208   0.437   4.265   8.291 -0.9980 -0.9017  0.5293
 6858SOL     OW32209   0.297   1.171   1.306 -0.6662  0.1455  0.5632
 6858SOL    HW132210   0.335   1.114   1.372  0.1641  0.8836  0.7277
 6858SOL    HW232211   0.362   1.148   1.240 -0.3583  0.9627  0.5819
 6859SOL     OW32212   3.859   2.793   4.294  0.5036  0.2930 -0.2499
 6859SOL    HW132213   3.800   2.739   4.347  2.0748 -0.0821  1.1043
 6859SOL    HW232214   3.933   2.734   4.279 -0.1612 -0.5530 -0.2214
 6860SOL     OW32215   4.067   4.087  14.104 -0.0271 -0.5867  0.5284
 6860SOL    HW132216   4.098   4.150  14.039 -0.3376 -1.3225 -0.3338
 6860SOL    HW232217   3.994   4.052  14.053 -0.8309 -1.3340  2.1499
 6861SOL     OW32218   1.147   0.498  14.668  0.9082 -0.0017 -0.2094
 6861SOL    HW132219   1.060   0.479  14.632  2.0399 -1.0344 -2.4019
 6861SOL    HW232220   1.128   0.592  14.677  0.5398 -0.0655 -0.3052
 6862SOL     OW32221   4.543   1.344   8.630 -0.4667  0.0106 -0.6975
 6862SOL    HW132222   4.527   1.253   8.658 -0.1195  0.5061  1.0896
 6862SOL    HW232223   4.464   1.353   8.576 -2.5944  1.3305  2.6142
 6863SOL     OW32224   3.789   2.975   0.132 -0.1041  0.0095  0.5043
 6863SOL    HW132225   3.829   3.004   0.049  0.1128 -1.3908  0.1188
 6863SOL    HW232226   3.831   2.890   0.147  0.5614 -0.0619 -1.7310
 6864SOL     OW32227   1.203   4.322   3.853 -0.6244  0.0211  0.0248
 6864SOL    HW132228   1.271   4.280   3.905  0.0518  1.0214 -0.0707
 6864SOL    HW232229   1.140   4.250   3.850 -1.5160  0.8037 -0.0539
 6865SOL     OW32230   3.336   0.410   4.898  0.0150  0.8826  0.1541
 6865SOL    HW132231   3.294   0.324   4.899 -0.5443  1.1610  0.8978
 6865SOL    HW232232   3.359   0.415   4.990  1.2818  0.0975 -0.1255
 6866SOL     OW32233   3.342   3.466   6.895 -0.3377  0.1451  0.0156
 6866SOL    HW132234   3.335   3.460   6.799  0.7576  1.1607 -0.1233
 6866SOL    HW232235   3.288   3.539   6.924 -0.6978 -1.2211  2.7879
 6867SOL     OW32236   4.099   2.906   4.072 -0.4597  0.4552  0.0523
 6867SOL    HW132237   4.059   2.983   4.112  1.4547  0.3655  2.1513
 6867SOL    HW232238   4.183   2.947   4.048  0.6293 -3.1782 -2.3432
 6868SOL     OW32239   0.623   4.494   9.939 -0.2173  0.2033 -0.4252
 6868SOL    HW132240   0.575   4.429   9.887  0.4262  0.4315 -1.3123
 6868SOL    HW232241   0.605   4.565   9.877  0.2761 -0.5441 -1.4392
 6869SOL     OW32242   1.989   4.559   2.960  0.3016  0.1849  0.1774
 6869SOL    HW132243   1.938   4.546   2.880 -1.4164 -0.5298  1.3917
 6869SOL    HW232244   1.960   4.491   3.021  1.6199 -0.9123 -0.3984
 6870SOL     OW32245   3.670   0.637   4.676  0.0078 -0.0013  0.0695
 6870SOL    HW132246   3.623   0.688   4.609 -3.5228 -0.7138  2.0135
 6870SOL    HW232247   3.631   0.680   4.752 -0.3664 -0.7010  0.2690
 6871SOL     OW32248   0.506   2.660   8.549 -0.4546 -0.2046 -0.1073
 6871SOL    HW132249   0.578   2.675   8.611 -1.2212 -0.2969  0.8031
 6871SOL    HW232250   0.456   2.596   8.599  1.8489 -0.1791  2.2294
 6872SOL     OW32251   2.869   1.314   9.562  0.6822 -0.3577  0.1249
 6872SOL    HW132252   2.931   1.287   9.631 -1.2811  0.6196  2.2393
 6872SOL    HW232253   2.928   1.358   9.501 -0.9013 -1.0824 -1.9221
 6873SOL     OW32254   0.130   2.079   7.339 -0.2900 -0.2191 -0.1627
 6873SOL    HW132255   0.082   2.136   7.399  0.2774 -0.6586  0.7104
 6873SOL    HW232256   0.168   2.142   7.277  0.0264 -0.6525 -0.4054
 6874SOL     OW32257   4.329   0.550  17.489 -0.3410  0.0371 -0.1315
 6874SOL    HW132258   4.311   0.492  17.563  2.1439 -0.2384  0.2508
 6874SOL    HW232259   4.393   0.603  17.536  0.8826 -0.5851 -1.1081
 6875SOL     OW32260   2.299   3.417  15.551 -0.2812 -0.0241  0.0141
 6875SOL    HW132261   2.281   3.368  15.631 -0.2225  0.9277  0.6198
 6875SOL    HW232262   2.244   3.495  15.557 -0.9575 -0.3413 -2.0774
 6876SOL     OW32263   4.046   1.013   4.086  0.6916 -0.4829 -0.6405
 6876SOL    HW132264   4.137   1.011   4.115  1.3501  1.0188 -2.6124
 6876SOL    HW232265   4.049   1.106   4.064 -3.4252  0.7928  4.0238
 6877SOL     OW32266   2.954   4.593   7.673  0.6156  0.1492 -0.3507
 6877SOL    HW132267   3.012   4.585   7.749 -0.1595 -0.6753  0.1416
 6877SOL    HW232268   3.010   4.660   7.632  1.5034 -0.4788 -0.1795
 6878SOL     OW32269   3.936   0.814   1.607 -0.2016 -0.1686  0.1819
 6878SOL    HW132270   3.991   0.753   1.657  0.3594  1.0417  1.0290
 6878SOL    HW232271   4.002   0.861   1.556 -2.2002  2.7004  0.2832
 6879SOL     OW32272   0.589   4.299   3.331  0.3920  0.3232 -0.1744
 6879SOL    HW132273   0.606   4.290   3.237  0.5284  0.6162 -0.1802
 6879SOL    HW232274   0.502   4.331   3.310 -0.5454 -0.7468  2.0464
 6880SOL     OW32275   2.273   0.864   9.566 -0.3116  0.0542  0.3248
 6880SOL    HW132276   2.302   0.810   9.492  0.1191  1.0873 -0.2649
 6880SOL    HW232277   2.213   0.920   9.516 -2.1399 -3.0962 -0.9794
 6881SOL     OW32278   4.618   4.365   7.024  0.5514  0.7443 -0.5743
 6881SOL    HW132279   4.698   4.365   6.971  1.3304  0.8403  0.6023
 6881SOL    HW232280   4.567   4.290   6.991 -1.1800  1.9112 -0.5043
 6882SOL     OW32281   2.825   3.906   8.322 -0.6885  0.3325 -0.2010
 6882SOL    HW132282   2.815   3.825   8.272  3.8283  1.3834 -2.7933
 6882SOL    HW232283   2.793   3.976   8.264 -1.6366  1.5539  1.8076
 6883SOL     OW32284   0.989   3.656   5.924 -0.1287 -0.2759  0.1795
 6883SOL    HW132285   1.028   3.688   6.005 -1.3551  1.5191  0.0555
 6883SOL    HW232286   1.070   3.637   5.877 -0.4873 -0.9916 -0.1537
 6884SOL     OW32287   1.910   1.214   4.836  0.3110  0.9956  0.2113
 6884SOL    HW132288   1.821   1.245   4.848  0.7687  2.2044  0.4828
 6884SOL    HW232289   1.912   1.122   4.865  0.4443  0.9641  0.1021
 6885SOL     OW32290   2.079   1.808   5.722 -0.2988  0.1143  0.2904
 6885SOL    HW132291   2.077   1.765   5.636  1.1582  0.5930  0.0180
 6885SOL    HW232292   2.167   1.791   5.756 -0.6926 -1.2179  0.6719
 6886SOL     OW32293   2.054   4.258   5.100 -0.3503  0.3469 -0.5002
 6886SOL    HW132294   2.140   4.239   5.064 -1.5433 -3.2637 -1.4830
 6886SOL    HW232295   1.998   4.257   5.022  0.8522 -0.6870 -1.3473
 6887SOL     OW32296   2.479   2.040   2.484  0.6683 -0.3654  0.0533
 6887SOL    HW132297   2.552   2.036   2.546  0.0367  1.8190  0.9470
 6887SOL    HW232298   2.502   2.124   2.443  0.5601  0.5280  1.8197
 6888SOL     OW32299   3.737   3.239   3.082  0.1102 -0.1110 -0.9311
 6888SOL    HW132300   3.791   3.216   3.007  2.8682  0.6549  0.7946
 6888SOL    HW232301   3.790   3.198   3.151 -0.4901  0.6877  0.0067
 6889SOL     OW32302   2.226   4.238   1.196 -0.2374 -0.0931 -0.1988
 6889SOL    HW132303   2.307   4.193   1.218 -1.4284 -2.0396  0.1477
 6889SOL    HW232304   2.256   4.328   1.209 -0.9484 -0.4661  4.2114
 6890SOL     OW32305   2.764   3.656   0.524 -0.2757 -0.1288  0.0942
 6890SOL    HW132306   2.820   3.731   0.505 -0.4479 -0.3047 -1.1619
 6890SOL    HW232307   2.744   3.669   0.616  0.1281  1.3386 -0.0311
 6891SOL     OW32308   3.609   3.256   2.195 -1.1390 -0.4612  0.5940
 6891SOL    HW132309   3.657   3.202   2.133 -1.0518  0.7022 -0.3686
 6891SOL    HW232310   3.568   3.317   2.133  1.1072  0.4015 -0.0193
 6892SOL     OW32311   1.535   0.427  11.198  0.0180 -0.1051 -0.2155
 6892SOL    HW132312   1.471   0.431  11.269 -0.6435  1.4819 -0.8978
 6892SOL    HW232313   1.494   0.481  11.130 -1.8027  1.6304  2.2516
 6893SOL     OW32314   3.705   1.895   1.089  0.5866 -0.5428  0.2863
 6893SOL    HW132315   3.612   1.874   1.095 -0.0696  2.3773  0.6664
 6893SOL    HW232316   3.688   1.989   1.084  0.5801 -0.4429  2.1164
 6894SOL     OW32317   0.588   2.219   5.159 -0.5477 -0.3445 -0.2087
 6894SOL    HW132318   0.543   2.304   5.162 -0.2492 -0.2794  1.8103
 6894SOL    HW232319   0.651   2.233   5.229 -1.7918  1.1075  0.6479
 6895SOL     OW32320   4.172   0.839   6.104  0.0150 -0.2961 -0.4567
 6895SOL    HW132321   4.209   0.814   6.020 -1.2243 -0.0328 -1.0828
 6895SOL    HW232322   4.102   0.892   6.067  1.7472  2.8358  0.7752
 6896SOL     OW32323   0.982   3.384   1.096 -0.3532  0.8801  0.1367
 6896SOL    HW132324   1.066   3.416   1.064 -0.3402  0.0175 -0.7061
 6896SOL    HW232325   0.915   3.416   1.036 -2.4202 -0.3378  1.7320
 6897SOL     OW32326   3.597   3.543  11.153  0.2967  0.3679  0.1499
 6897SOL    HW132327   3.558   3.493  11.224  1.3041  0.0817  0.5017
 6897SOL    HW232328   3.548   3.622  11.176  0.8352  0.0756  2.3310
 6898SOL     OW32329   2.956   0.044   4.663 -0.6510 -0.6313 -0.5451
 6898SOL    HW132330   2.977   0.025   4.572  0.4911 -0.2589 -0.3620
 6898SOL    HW232331   2.904   4.707   4.697 -0.1581 -0.4660  0.5599
 6899SOL     OW32332   3.044   2.769   5.881  0.4635  0.1151  0.4764
 6899SOL    HW132333   3.058   2.822   5.803 -1.2495  2.3686  1.7073
 6899SOL    HW232334   3.040   2.836   5.950 -0.2168 -0.4161  0.9508
 6900SOL     OW32335   0.979   1.569   7.640 -1.3158  0.0978 -0.2004
 6900SOL    HW132336   0.996   1.661   7.620  1.8593  0.0038  2.1495
 6900SOL    HW232337   1.052   1.525   7.595 -0.7301  0.8503  0.0268
 6901SOL     OW32338   0.972   2.741  15.127 -0.1932  0.8234  0.4051
 6901SOL    HW132339   0.985   2.778  15.039 -1.4980  1.4231  0.4524
 6901SOL    HW232340   1.064   2.719  15.142 -0.0925  1.5669  0.8619
 6902SOL     OW32341   0.458   1.751   9.057  0.0279 -0.4053  0.2124
 6902SOL    HW132342   0.549   1.729   9.039 -0.0059  0.6888 -1.2714
 6902SOL    HW232343   0.460   1.839   9.095  0.6013 -1.5570  2.8552
 6903SOL     OW32344   3.970   1.367   7.582 -0.0715 -0.3914 -0.0825
 6903SOL    HW132345   4.050   1.364   7.530 -1.4661 -0.3176 -2.2213
 6903SOL    HW232346   3.930   1.451   7.558  2.4687  0.7732 -0.2280
 6904SOL     OW32347   3.934   1.822   1.289 -0.8664  0.2685 -0.3358
 6904SOL    HW132348   3.929   1.729   1.308 -0.6133  0.2507 -0.3599
 6904SOL    HW232349   3.852   1.840   1.242 -2.0414 -0.3581  1.4932
 6905SOL     OW32350   1.077   2.350   2.538 -0.3339  0.1851 -0.3063
 6905SOL    HW132351   1.164   2.319   2.515 -0.4376  0.5285 -1.1506
 6905SOL    HW232352   1.040   2.353   2.450  1.1339 -1.2567 -0.9676
 6906SOL     OW32353   2.392   0.322  13.055  0.5642 -0.2884 -0.2588
 6906SOL    HW132354   2.401   0.414  13.034 -0.5145 -0.3199 -0.8239
 6906SOL    HW232355   2.435   0.285  12.978 -1.4497 -0.9684 -1.0461
 6907SOL     OW32356   1.788   0.394  15.834 -0.7550 -0.1452  0.1285
 6907SOL    HW132357   1.759   0.433  15.752  0.0878 -2.7286 -1.3887
 6907SOL    HW232358   1.716   0.408  15.896 -0.5757 -2.1687  0.7906
 6908SOL     OW32359   2.365   1.159  13.852 -0.2057 -0.5346  0.3548
 6908SOL    HW132360   2.276   1.193  13.843  0.4608  1.1443  0.0681
 6908SOL    HW232361   2.378   1.181  13.945 -0.5768 -0.4893  0.3942
 6909SOL     OW32362   0.656   0.826   2.305  0.4852 -0.1230  0.3941
 6909SOL    HW132363   0.664   0.838   2.210 -2.4271  1.3748  0.3678
 6909SOL    HW232364   0.742   0.792   2.332 -0.3331 -1.0243  1.8300
 6910SOL     OW32365   3.171   4.003  15.003  0.2536  0.3326  0.2254
 6910SOL    HW132366   3.155   4.079  15.058  0.4221  1.9946 -2.0009
 6910SOL    HW232367   3.248   4.033  14.954  1.5554 -1.0247  1.4035
 6911SOL     OW32368   3.347   2.857  10.833  0.0957 -0.4080 -0.3828
 6911SOL    HW132369   3.414   2.838  10.767  1.1224 -4.0318  1.7107
 6911SOL    HW232370   3.337   2.951  10.822 -3.4157 -1.1250 -3.3512
 6912SOL     OW32371   1.659   3.553  13.011  0.1655  0.4070  0.0161
 6912SOL    HW132372   1.730   3.515  13.062 -0.6901 -1.0635  0.1161
 6912SOL    HW232373   1.662   3.642  13.047  1.0093  0.9473 -1.3805
 6913SOL     OW32374   2.827   4.309   9.857  0.1608  0.0885  0.1052
 6913SOL    HW132375   2.877   4.228   9.845  2.8561  1.3456  3.1416
 6913SOL    HW232376   2.778   4.315   9.774 -0.8050  1.2129  0.7562
 6914SOL     OW32377   0.631   1.888   4.716  0.3571  0.3302  0.3830
 6914SOL    HW132378   0.583   1.924   4.642 -0.0164 -1.9653 -0.4668
 6914SOL    HW232379   0.717   1.931   4.711  0.7580 -0.5317 -0.0966
 6915SOL     OW32380   1.570   0.241  17.257  0.5243 -0.5487  0.8676
 6915SOL    HW132381   1.570   0.320  17.311  0.7559  0.1098 -0.1049
 6915SOL    HW232382   1.574   0.270  17.166  1.4831 -0.3369  0.9820
 6916SOL     OW32383   2.564   0.000   3.767 -0.4742 -0.2013 -0.5579
 6916SOL    HW132384   2.486   4.730   3.711 -2.7795 -0.9881  2.7540
 6916SOL    HW232385   2.600   4.655   3.730 -0.0902  1.3783 -3.6872
 6917SOL     OW32386   2.428   4.475   8.104  0.6626  0.0836  0.5297
 6917SOL    HW132387   2.436   4.432   8.019  2.7164  1.8787 -0.1939
 6917SOL    HW232388   2.378   4.415   8.158  2.0844  1.2545  3.1548
 6918SOL     OW32389   0.974   1.114   3.406  0.2744 -0.2631  0.6844
 6918SOL    HW132390   1.054   1.085   3.449  0.7228  1.0895  0.7602
 6918SOL    HW232391   0.944   1.024   3.394 -0.0401  0.1952 -1.9665
 6919SOL     OW32392   2.511   3.777   6.051 -0.3861 -0.2843 -0.1146
 6919SOL    HW132393   2.561   3.695   6.046  0.0016 -0.1010  0.7434
 6919SOL    HW232394   2.423   3.746   6.032 -0.1667 -1.0643  0.1614
 6920SOL     OW32395   2.960   4.264   0.037  0.2035  0.2055 -0.0166
 6920SOL    HW132396   2.887   4.324   0.022 -0.6278 -0.2196  2.4136
 6920SOL    HW232397   2.936   4.238   0.126 -0.3649 -1.1947 -0.5823
 6921SOL     OW32398   3.914   3.038  13.750 -0.1807 -0.0611  0.0188
 6921SOL    HW132399   3.962   3.111  13.790  0.4364  0.3711 -1.5227
 6921SOL    HW232400   3.875   2.993  13.825  1.1329  1.3365  1.5430
 6922SOL     OW32401   1.793   3.018   0.624 -0.4195  0.0176 -0.2532
 6922SOL    HW132402   1.699   3.026   0.644 -0.4614  0.3992 -0.5922
 6922SOL    HW232403   1.806   2.927   0.648  1.9151  0.8315  1.5666
 6923SOL     OW32404   2.828   0.625   1.108  0.0658  0.1711  0.3161
 6923SOL    HW132405   2.868   0.681   1.174 -0.6492  1.5434 -0.4066
 6923SOL    HW232406   2.850   0.534   1.127 -1.4842 -0.2994 -0.0768
 6924SOL     OW32407   2.316   0.789   8.069 -0.2891 -0.4787  0.3007
 6924SOL    HW132408   2.395   0.837   8.041 -0.3072  0.3087  1.6137
 6924SOL    HW232409   2.244   0.848   8.047  0.8354 -0.2198 -2.8119
 6925SOL     OW32410   4.510   2.430   2.209 -0.4393  0.4488 -0.1454
 6925SOL    HW132411   4.516   2.510   2.260  2.8528  2.2728 -3.4339
 6925SOL    HW232412   4.419   2.435   2.179 -0.1867  0.9023 -0.8364
 6926SOL     OW32413   1.660   3.442   6.613  0.4589 -0.3755 -0.0076
 6926SOL    HW132414   1.703   3.430   6.527 -1.8915 -2.2455 -0.9284
 6926SOL    HW232415   1.714   3.500   6.665  2.5445 -2.8069  0.5440
 6927SOL     OW32416   3.064   2.955   8.978  0.2231 -0.4397 -0.0399
 6927SOL    HW132417   2.969   2.965   8.967  0.5126  1.5619 -0.6158
 6927SOL    HW232418   3.099   3.037   8.943  0.7368 -0.9056 -0.6065
 6928SOL     OW32419   4.458   0.546   3.536 -0.4860 -0.0172 -0.2777
 6928SOL    HW132420   4.397   0.473   3.542  0.1645 -0.4645  0.9628
 6928SOL    HW232421   4.541   0.511   3.567 -0.4620  1.4634  1.3242
 6929SOL     OW32422   2.729   1.732   5.419  0.2487 -0.2835 -0.4867
 6929SOL    HW132423   2.646   1.737   5.467  0.1707 -0.3801 -0.6138
 6929SOL    HW232424   2.705   1.689   5.337 -0.3437  2.6058 -1.8224
 6930SOL     OW32425   0.896   4.526   2.717  0.1754 -0.2326  0.0179
 6930SOL    HW132426   0.949   4.601   2.744 -0.6667  0.1335  0.6215
 6930SOL    HW232427   0.860   4.565   2.638  0.9483 -0.9891 -0.7140
 6931SOL     OW32428   1.318   2.853   5.673  0.0380 -0.0582 -0.2566
 6931SOL    HW132429   1.388   2.884   5.730  0.5899  0.7578 -1.3825
 6931SOL    HW232430   1.374   2.836   5.597  0.3721  0.8974 -0.2292
 6932SOL     OW32431   0.114   2.713   4.492  0.0680 -0.1412 -0.0566
 6932SOL    HW132432   0.036   2.659   4.503  0.6356 -0.8992  0.1993
 6932SOL    HW232433   0.084   2.796   4.531 -2.8375 -1.1994 -0.0370
 6933SOL     OW32434   3.631   0.702   7.852  0.4104  0.5959 -0.0791
 6933SOL    HW132435   3.596   0.772   7.797 -2.2719  0.0377  0.8820
 6933SOL    HW232436   3.707   0.675   7.801  0.4200  1.0391 -0.3029
 6934SOL     OW32437   2.176   3.070   7.226  0.0532  0.4335  0.5056
 6934SOL    HW132438   2.270   3.068   7.242 -0.2764  1.3775  2.5517
 6934SOL    HW232439   2.151   3.139   7.288  1.1188  0.7815  0.5535
 6935SOL     OW32440   4.731   4.341   8.026 -0.1153  0.8838  0.9640
 6935SOL    HW132441   4.718   4.325   8.119  2.4111 -1.6035  0.8934
 6935SOL    HW232442   0.090   4.345   8.007 -0.6471 -0.3584 -1.9891
 6936SOL     OW32443   4.554   4.222  13.604 -0.4886  0.1294 -0.4680
 6936SOL    HW132444   4.607   4.300  13.618  0.6118 -0.9145  1.2113
 6936SOL    HW232445   4.605   4.184  13.533 -0.9725 -2.1066  0.3875
 6937SOL     OW32446   4.625   1.529  15.595  0.4145 -0.1024  0.0231
 6937SOL    HW132447   4.640   1.624  15.590  0.1613 -0.1068 -0.7595
 6937SOL    HW232448   4.697   1.493  15.648  0.7009 -1.1023 -1.0532
 6938SOL     OW32449   1.558   1.682  10.582 -0.4310 -0.0160  0.4568
 6938SOL    HW132450   1.499   1.722  10.517 -2.0536 -0.7859  1.4790
 6938SOL    HW232451   1.512   1.681  10.665  1.8277 -3.6243  1.6323
 6939SOL     OW32452   1.666   0.348   1.234 -0.1130 -0.1301 -0.0547
 6939SOL    HW132453   1.580   0.317   1.207 -1.1870  1.6680  1.2593
 6939SOL    HW232454   1.686   0.291   1.308 -0.4209  1.4206  1.2188
 6940SOL     OW32455   1.110   2.553   2.732 -0.0672 -0.0775  0.0067
 6940SOL    HW132456   1.063   2.624   2.687 -1.1253 -0.6135  0.2874
 6940SOL    HW232457   1.114   2.481   2.669 -0.6699 -0.2302  0.1512
 6941SOL     OW32458   0.885   0.765  15.310 -0.4265 -0.2678  0.5402
 6941SOL    HW132459   0.950   0.827  15.277 -3.2997  1.9862 -0.8354
 6941SOL    HW232460   0.805   0.807  15.279 -0.1625 -0.0793  0.1089
 6942SOL     OW32461   3.108   2.421   8.834  0.1573  0.4568 -0.3743
 6942SOL    HW132462   3.059   2.439   8.914  0.5877  1.4439 -0.3340
 6942SOL    HW232463   3.037   2.424   8.770 -0.3421 -0.1701  0.1582
 6943SOL     OW32464   1.025   4.025  15.023  0.2724  0.1253 -0.5486
 6943SOL    HW132465   0.992   4.103  15.067  2.0276  0.2773  0.5221
 6943SOL    HW232466   1.014   4.057  14.933 -1.8488 -1.5545 -0.9098
 6944SOL     OW32467   1.095   2.603   1.680  0.1804 -0.0178  1.0577
 6944SOL    HW132468   1.173   2.657   1.666  1.1749 -1.3253  1.4584
 6944SOL    HW232469   1.131   2.516   1.702  0.0738  0.0880  1.6622
 6945SOL     OW32470   3.067   1.661   3.533 -0.1273 -0.0139  0.5252
 6945SOL    HW132471   3.028   1.738   3.491  1.6290  0.1199 -0.8667
 6945SOL    HW232472   3.140   1.638   3.476 -0.9485  0.5867 -0.7720
 6946SOL     OW32473   2.650   2.193   4.869  0.7568  0.0108 -0.6529
 6946SOL    HW132474   2.682   2.252   4.938 -1.8995 -0.2197  0.7655
 6946SOL    HW232475   2.561   2.226   4.862  0.8508  0.6791  1.1225
 6947SOL     OW32476   1.987   2.908   2.162 -0.1941 -0.0747 -0.4955
 6947SOL    HW132477   1.912   2.963   2.189 -0.8348 -0.2449 -1.9190
 6947SOL    HW232478   1.939   2.859   2.095 -0.7343  0.6987 -0.6916
 6948SOL     OW32479   3.314   3.921   8.392 -0.0149 -0.3907  0.8729
 6948SOL    HW132480   3.289   3.935   8.300  0.2669 -2.4831  0.4533
 6948SOL    HW232481   3.334   4.006   8.431  0.2532  0.7476 -1.7424
 6949SOL     OW32482   4.625   3.543  15.936 -0.6831 -0.2666 -0.3260
 6949SOL    HW132483   4.693   3.529  15.870  0.5938  3.1248  0.2656
 6949SOL    HW232484   4.549   3.496  15.902  0.5167 -1.1380 -1.8032
 6950SOL     OW32485   2.847   2.001   8.026 -0.6507 -0.2382  0.5676
 6950SOL    HW132486   2.813   2.001   7.937 -0.1537 -1.0370  0.3803
 6950SOL    HW232487   2.770   1.960   8.066 -0.8189  0.3750  0.8852
 6951SOL     OW32488   4.669   1.233   2.065  0.5757 -0.5567 -0.1944
 6951SOL    HW132489   4.725   1.298   2.106  0.7438  1.4209 -3.4801
 6951SOL    HW232490   4.581   1.255   2.097  1.3784 -0.3159  1.8249
 6952SOL     OW32491   0.711   3.666  17.578 -0.0529  0.5385 -0.8080
 6952SOL    HW132492   0.753   3.749  17.552  0.0029  0.5891 -0.5527
 6952SOL    HW232493   0.680   3.632  17.494 -3.1265  0.8102  0.2054
 6953SOL     OW32494   2.705   0.055   3.988 -0.0619  0.0638  0.6341
 6953SOL    HW132495   2.792   0.029   4.018  0.0982 -2.0351 -1.5743
 6953SOL    HW232496   2.714   0.041   3.893 -1.7734  0.6004  0.4021
 6954SOL     OW32497   0.933   3.376   1.375  0.5827 -0.3490 -0.1615
 6954SOL    HW132498   0.844   3.412   1.382  0.7388 -0.4263  2.2808
 6954SOL    HW232499   0.940   3.368   1.280 -1.0836 -1.0282 -0.2329
 6955SOL     OW32500   2.110   1.794  12.013  0.0787 -0.4060 -0.1028
 6955SOL    HW132501   2.182   1.775  11.952  1.1196 -0.6543  1.2071
 6955SOL    HW232502   2.057   1.852  11.958 -2.0664 -0.4918  1.8812
 6956SOL     OW32503   1.016   2.442  15.641  0.0106  0.6567  0.6735
 6956SOL    HW132504   1.060   2.372  15.592 -1.3811  0.2361  0.0225
 6956SOL    HW232505   1.015   2.414  15.732  2.1431  0.2554  0.5792
 6957SOL     OW32506   2.523   2.515  12.017 -0.2036  0.1689  0.7293
 6957SOL    HW132507   2.548   2.581  11.953 -1.5685 -0.2458 -0.2342
 6957SOL    HW232508   2.568   2.544  12.097  1.1140  0.6120 -0.1818
 6958SOL     OW32509   4.477   1.441   5.098 -0.1067 -0.0932  0.6842
 6958SOL    HW132510   4.545   1.427   5.032  0.8886  1.7156  1.3496
 6958SOL    HW232511   4.528   1.477   5.170  0.5576 -0.6370  0.4808
 6959SOL     OW32512   3.349   2.510   6.760  0.0037 -0.5415 -0.6384
 6959SOL    HW132513   3.312   2.441   6.816 -0.1045 -2.7061 -3.3578
 6959SOL    HW232514   3.438   2.491   6.787  0.1657  1.7419  0.4137
 6960SOL     OW32515   4.114   4.174   6.284 -0.1545 -0.0824 -0.1640
 6960SOL    HW132516   4.093   4.149   6.194 -1.0471 -1.4088  0.4148
 6960SOL    HW232517   4.037   4.153   6.337  0.1418  0.4886  0.5047
 6961SOL     OW32518   2.331   3.117   9.171  0.3165  0.4805 -0.0333
 6961SOL    HW132519   2.422   3.089   9.164  0.0866 -0.7447  1.7967
 6961SOL    HW232520   2.339   3.212   9.162  1.0328  0.3626 -0.5976
 6962SOL     OW32521   4.051   0.800   6.333  0.2237 -0.2597  0.2817
 6962SOL    HW132522   4.096   0.728   6.376  0.2908 -1.0032 -1.0330
 6962SOL    HW232523   4.097   0.800   6.249 -3.0664  1.1740 -1.5637
 6963SOL     OW32524   1.882   2.436   5.608 -0.2247  0.1383 -0.5724
 6963SOL    HW132525   1.944   2.508   5.597  1.0415 -0.5726  2.0525
 6963SOL    HW232526   1.930   2.364   5.649  0.9983  1.5013  0.3879
 6964SOL     OW32527   4.327   0.493  12.988 -0.8605  0.1936  0.2145
 6964SOL    HW132528   4.269   0.424  12.956  0.2951 -0.4199 -0.5943
 6964SOL    HW232529   4.340   0.449  13.072  0.9426  1.8105  0.7846
 6965SOL     OW32530   3.234   4.378  10.570  0.2239  0.1822  0.1578
 6965SOL    HW132531   3.257   4.433  10.645 -0.5944 -1.3598  1.5395
 6965SOL    HW232532   3.262   4.293  10.606  1.5814  0.4429 -0.2695
 6966SOL     OW32533   2.513   4.256   6.735  0.5228 -0.5252  0.6846
 6966SOL    HW132534   2.425   4.291   6.750 -0.3445 -1.8316 -1.3005
 6966SOL    HW232535   2.572   4.329   6.756  0.7562  0.0493 -1.8886
 6967SOL     OW32536   4.343   3.095   8.432  0.3592 -0.2459 -0.3465
 6967SOL    HW132537   4.420   3.110   8.486  0.8981 -0.1520 -1.1465
 6967SOL    HW232538   4.375   3.025   8.375 -2.4356 -1.5320 -0.3740
 6968SOL     OW32539   4.565   0.651   0.866  0.2576 -0.0686  0.6811
 6968SOL    HW132540   4.522   0.649   0.780 -2.0126 -0.9664  1.8305
 6968SOL    HW232541   4.560   0.746   0.877  1.8830  0.2884 -1.5144
 6969SOL     OW32542   3.095   1.207  16.712  0.3174 -0.0572  0.2419
 6969SOL    HW132543   3.023   1.197  16.775 -0.0567 -1.3031 -0.3903
 6969SOL    HW232544   3.084   1.135  16.651 -1.7243  0.5057 -0.0382
 6970SOL     OW32545   2.250   3.258   1.553 -0.3781  0.1205 -0.1421
 6970SOL    HW132546   2.279   3.279   1.464 -0.7832 -0.7652 -0.4786
 6970SOL    HW232547   2.158   3.283   1.553 -0.5211 -0.3947 -0.8006
 6971SOL     OW32548   2.175   1.984  17.643  0.5678  0.1851  0.3702
 6971SOL    HW132549   2.105   1.933  17.602 -0.0590  1.3434  0.0070
 6971SOL    HW232550   2.223   2.003  17.562 -0.2298 -0.0906 -0.1610
 6972SOL     OW32551   1.438   1.978   3.652  0.3408  0.3903  0.5960
 6972SOL    HW132552   1.409   2.023   3.573 -0.3494 -1.2771 -0.0922
 6972SOL    HW232553   1.377   1.907   3.670  0.7858 -0.2687 -0.5006
 6973SOL     OW32554   2.360   2.252   5.710  0.3278  0.7589  0.3650
 6973SOL    HW132555   2.445   2.210   5.721 -0.6000 -1.3644 -0.5681
 6973SOL    HW232556   2.312   2.184   5.661  2.7963 -0.4127 -0.4040
 6974SOL     OW32557   4.084   2.947   3.419  0.6195  0.5564  0.1279
 6974SOL    HW132558   4.083   2.925   3.326 -0.1609  0.5675  0.1290
 6974SOL    HW232559   4.000   2.909   3.448 -0.1973  2.6912  0.5328
 6975SOL     OW32560   4.088   2.094  15.310 -0.3188  0.1977  0.3061
 6975SOL    HW132561   4.032   2.052  15.244  1.9428  0.8002 -1.9911
 6975SOL    HW232562   4.043   2.178  15.314  1.6103  1.2765 -0.9909
 6976SOL     OW32563   3.376   0.473   8.003 -0.0399  0.1043  0.0360
 6976SOL    HW132564   3.465   0.467   7.966  0.3013  0.3796  0.8099
 6976SOL    HW232565   3.400   0.444   8.091  0.7200  0.0623 -0.1817
 6977SOL     OW32566   0.800   4.729   5.479 -0.4021  0.5189  0.1070
 6977SOL    HW132567   0.795   0.023   5.388  0.0103  2.5282  0.7520
 6977SOL    HW232568   0.847   0.066   5.520  1.2994  0.2501 -1.3313
 6978SOL     OW32569   1.278   3.921   4.794  0.3078  0.5005 -0.4388
 6978SOL    HW132570   1.290   4.006   4.752  1.8400  1.3136  1.5928
 6978SOL    HW232571   1.367   3.912   4.829 -0.0072 -1.8490 -0.2239
 6979SOL     OW32572   3.148   1.745   6.314 -0.1414  0.3952  0.0948
 6979SOL    HW132573   3.150   1.816   6.250 -1.1121 -0.4279 -0.8469
 6979SOL    HW232574   3.101   1.682   6.260  0.4223 -2.8376  3.4501
 6980SOL     OW32575   4.617   1.835   1.236  0.3331 -0.6525 -0.2655
 6980SOL    HW132576   4.556   1.794   1.298 -0.6138  1.9653  0.5189
 6980SOL    HW232577   4.563   1.902   1.195  0.7476  0.0485  0.3369
 6981SOL     OW32578   2.463   0.302   4.490  0.7983  0.6109  0.1131
 6981SOL    HW132579   2.414   0.375   4.454  0.7519 -0.0764 -1.2372
 6981SOL    HW232580   2.491   0.269   4.405  0.5057  0.4014  0.0977
 6982SOL     OW32581   0.137   2.450   8.282 -0.1425 -0.0919 -0.2648
 6982SOL    HW132582   0.171   2.451   8.371  3.6180  0.9326 -1.7412
 6982SOL    HW232583   0.201   2.389   8.246  2.4332  2.5897 -0.2440
 6983SOL     OW32584   0.545   2.843  16.584 -0.4354 -0.2387 -0.1566
 6983SOL    HW132585   0.604   2.843  16.660 -1.9447  1.8146  1.0134
 6983SOL    HW232586   0.476   2.780  16.605 -0.1005 -0.3315  0.6891
 6984SOL     OW32587   0.949   3.092  16.564  0.1170 -0.2237  0.6487
 6984SOL    HW132588   0.866   3.081  16.517 -0.0920 -0.4813  1.0819
 6984SOL    HW232589   1.014   3.072  16.497 -0.2859  0.8797 -0.0737
 6985SOL     OW32590   4.455   0.931  14.710  0.3243  0.1806  0.2358
 6985SOL    HW132591   4.487   0.915  14.621  3.1542  2.5397  0.8379
 6985SOL    HW232592   4.531   0.893  14.754  1.5329  0.0848 -1.9426
 6986SOL     OW32593   4.324   0.616   8.821 -0.4385 -0.1906 -0.5933
 6986SOL    HW132594   4.273   0.597   8.900 -1.0952  1.1783 -0.6801
 6986SOL    HW232595   4.258   0.584   8.759 -3.6393  2.6912  1.3207
 6987SOL     OW32596   1.339   4.271   7.681  0.8738  0.2146  0.0591
 6987SOL    HW132597   1.344   4.362   7.708 -1.5542  0.4796 -0.3783
 6987SOL    HW232598   1.431   4.247   7.674  1.8378  3.2494  2.4800
 6988SOL     OW32599   4.399   0.023   8.967 -0.6288  0.3402 -0.7072
 6988SOL    HW132600   4.384   0.094   9.029 -0.7706  0.4537 -0.8724
 6988SOL    HW232601   4.315   4.713   8.973 -0.8310  0.9373  1.1882
 6989SOL     OW32602   3.523   2.126   5.107  0.2211  0.0046 -0.5222
 6989SOL    HW132603   3.451   2.073   5.073 -0.2417  0.0550  0.3872
 6989SOL    HW232604   3.588   2.063   5.138  2.1140  2.9594  1.5955
 6990SOL     OW32605   2.594   2.642   9.200 -0.0404  0.8992  0.7544
 6990SOL    HW132606   2.633   2.684   9.124  0.2095 -1.2934 -0.3159
 6990SOL    HW232607   2.506   2.618   9.169  0.3581 -1.3560  1.3080
 6991SOL     OW32608   0.033   0.810   9.203 -1.0749 -0.2107 -0.1696
 6991SOL    HW132609   4.676   0.811   9.181 -1.0117  1.4678 -0.3137
 6991SOL    HW232610   0.044   0.904   9.215 -2.0761 -0.3921  2.1225
 6992SOL     OW32611   2.577   0.357   2.298 -0.4255  0.0561  0.6051
 6992SOL    HW132612   2.526   0.409   2.360 -1.2156  0.9765 -0.8046
 6992SOL    HW232613   2.518   0.334   2.225 -0.2968  0.7430  0.2865
 6993SOL     OW32614   1.019   2.201   4.561  0.6736  0.3513 -0.2101
 6993SOL    HW132615   0.962   2.179   4.488  0.1072  0.8880  0.0674
 6993SOL    HW232616   1.107   2.167   4.547  1.1846  1.9669 -0.8523
 6994SOL     OW32617   1.823   2.699   8.999  0.0944  0.1082 -0.5010
 6994SOL    HW132618   1.893   2.743   8.950 -1.9425  1.6642 -1.9838
 6994SOL    HW232619   1.873   2.643   9.058  0.9759 -0.9097 -2.2088
 6995SOL     OW32620   3.044   1.793   1.139  0.1125 -0.2999 -0.4753
 6995SOL    HW132621   3.023   1.875   1.095  1.5271  1.1814  1.6047
 6995SOL    HW232622   3.116   1.816   1.198  0.1852 -0.3184 -0.5553
 6996SOL     OW32623   3.394   4.492   8.398 -0.8144  0.2470  0.6254
 6996SOL    HW132624   3.355   4.570   8.438 -2.2664  0.1932 -0.6787
 6996SOL    HW232625   3.481   4.519   8.367  0.2389 -2.5523  1.1181
 6997SOL     OW32626   3.960   3.874   5.206  0.0558  0.3403 -0.4947
 6997SOL    HW132627   3.983   3.874   5.299  0.7507 -0.3171 -0.6705
 6997SOL    HW232628   3.928   3.964   5.203 -0.9556  0.0571  2.2514
 6998SOL     OW32629   1.809   3.865   1.895 -0.1586 -0.2633 -0.2874
 6998SOL    HW132630   1.723   3.903   1.912  0.4968  0.7054  0.8505
 6998SOL    HW232631   1.864   3.915   1.955 -0.6088 -0.2379  0.1056
 6999SOL     OW32632   2.627   2.356   7.686 -0.5810 -0.2278  0.4958
 6999SOL    HW132633   2.541   2.376   7.650 -0.0382 -0.3390 -0.8483
 6999SOL    HW232634   2.666   2.294   7.625  0.0902 -0.5408  1.2381
 7000SOL     OW32635   3.048   1.521  10.494 -0.4758 -0.2501 -0.0603
 7000SOL    HW132636   3.032   1.478  10.410  1.6503  2.6260 -1.9411
 7000SOL    HW232637   2.973   1.491  10.544 -0.2252  0.1474  0.5514
 7001SOL     OW32638   0.168   3.010  16.763  0.2686 -0.3283  0.3359
 7001SOL    HW132639   0.101   3.067  16.801 -1.1290 -0.1000 -2.4642
 7001SOL    HW232640   0.133   2.991  16.676  1.7797  2.2260 -0.8371
 7002SOL     OW32641   2.599   4.536   2.318  0.1490 -0.0148 -0.1165
 7002SOL    HW132642   2.657   4.525   2.243  0.4980 -1.1504  0.3319
 7002SOL    HW232643   2.649   4.598   2.371  0.1144  0.6461 -0.8458
 7003SOL     OW32644   2.786   1.566   0.429  0.6305 -0.4372  0.7217
 7003SOL    HW132645   2.860   1.621   0.403  0.1734 -1.2394 -2.1910
 7003SOL    HW232646   2.733   1.580   0.351  0.4110  0.5124  1.0335
 7004SOL     OW32647   4.180   0.284  12.917 -0.4980  0.1492  0.6420
 7004SOL    HW132648   4.121   0.303  12.843 -0.9338  1.1315  1.2357
 7004SOL    HW232649   4.120   0.223  12.958 -0.7909  0.2071  0.3052
 7005SOL     OW32650   0.203   3.867  10.157  0.6552  0.7351 -0.9373
 7005SOL    HW132651   0.111   3.864  10.181  0.7437 -2.9765 -0.9838
 7005SOL    HW232652   0.214   3.950  10.111 -0.6839  0.7024 -1.3165
 7006SOL     OW32653   2.374   4.519   8.448 -0.1667  0.0626  0.1363
 7006SOL    HW132654   2.444   4.540   8.386 -0.5613  2.0843  0.3847
 7006SOL    HW232655   2.414   4.545   8.531  0.2497 -2.0538  0.6034
 7007SOL     OW32656   4.191   4.521  15.011 -0.0719  0.3654  0.2027
 7007SOL    HW132657   4.270   4.535  15.064 -0.6043 -0.5105  1.2252
 7007SOL    HW232658   4.134   4.592  15.041 -1.2860  0.0407 -1.3430
 7008SOL     OW32659   2.698   3.977   2.764  0.2012 -0.6276  0.1160
 7008SOL    HW132660   2.688   3.993   2.857 -0.0741 -1.7085  0.2787
 7008SOL    HW232661   2.693   3.881   2.758  0.9973 -0.7188  1.0507
 7009SOL     OW32662   2.440   2.534   4.934 -0.1017 -0.2872  0.0746
 7009SOL    HW132663   2.391   2.609   4.968  2.4919  0.8828  1.2484
 7009SOL    HW232664   2.467   2.574   4.851  0.4824 -0.4533  0.1853
 7010SOL     OW32665   1.013   1.502  16.437  0.2002  0.0187 -0.4747
 7010SOL    HW132666   1.102   1.505  16.472  0.5738 -1.3484 -1.2970
 7010SOL    HW232667   0.969   1.438  16.493  1.3116 -0.2674  0.0608
 7011SOL     OW32668   0.582   2.766   4.253  0.4990 -0.4495 -0.3260
 7011SOL    HW132669   0.555   2.828   4.185 -1.4509 -0.0286  0.8552
 7011SOL    HW232670   0.498   2.729   4.280  0.5111 -0.3005 -0.0886
 7012SOL     OW32671   2.936   0.526   4.807  0.0364  0.1840 -0.4391
 7012SOL    HW132672   2.875   0.583   4.854  0.4178 -0.1875  0.4999
 7012SOL    HW232673   3.018   0.570   4.829  0.2837  0.3815 -1.7259
 7013SOL     OW32674   2.864   1.500   2.331 -0.2222 -0.1016 -0.3379
 7013SOL    HW132675   2.842   1.516   2.239  0.2756 -0.5841 -0.5335
 7013SOL    HW232676   2.899   1.587   2.353  1.6867 -1.5496  2.2891
 7014SOL     OW32677   1.720   2.288   9.584  0.2827 -0.1325  0.8841
 7014SOL    HW132678   1.672   2.254   9.660  2.0554 -0.8720  1.6765
 7014SOL    HW232679   1.765   2.362   9.624  1.9833 -0.3520 -0.6617
 7015SOL     OW32680   0.612   1.939   5.647  0.1653 -0.9552  0.0525
 7015SOL    HW132681   0.525   1.939   5.688  0.1130  0.8671 -0.0654
 7015SOL    HW232682   0.596   2.016   5.592 -0.7837 -1.3067 -0.1723
 7016SOL     OW32683   2.027   2.908   2.656 -0.0519 -0.4952 -0.1797
 7016SOL    HW132684   2.057   2.869   2.574  2.2427  2.8325 -0.9318
 7016SOL    HW232685   2.050   2.998   2.635  1.8857 -1.7180 -3.2757
 7017SOL     OW32686   2.736   1.598   4.716  0.0209  0.7577  0.6310
 7017SOL    HW132687   2.704   1.630   4.632  0.1743  0.7949  0.5857
 7017SOL    HW232688   2.737   1.504   4.697 -0.8938  1.3099 -2.1624
 7018SOL     OW32689   1.366   1.412   2.398  0.1855  0.3165 -0.0023
 7018SOL    HW132690   1.344   1.501   2.427 -0.6514 -0.1023  0.6355
 7018SOL    HW232691   1.429   1.445   2.334 -0.7964  1.2992 -0.4760
 7019SOL     OW32692   3.996   3.186  11.244 -0.0419 -0.5228  0.4802
 7019SOL    HW132693   4.077   3.217  11.203 -2.0140 -0.0496 -3.0408
 7019SOL    HW232694   4.046   3.142  11.312  0.5624 -1.1576 -0.3829
 7020SOL     OW32695   4.427   2.991   8.172 -0.2974 -0.2602 -0.8110
 7020SOL    HW132696   4.503   2.952   8.130  1.4276  1.6375  0.5626
 7020SOL    HW232697   4.430   3.084   8.150 -2.9402  0.2424  0.9032
 7021SOL     OW32698   3.270   1.244   4.162 -0.5916 -0.6246 -0.6056
 7021SOL    HW132699   3.268   1.172   4.099 -0.7112 -1.2841  0.1705
 7021SOL    HW232700   3.214   1.307   4.117  0.8392  2.0183  1.2948
 7022SOL     OW32701   2.369   3.839   7.491 -0.4071  0.3107 -0.1244
 7022SOL    HW132702   2.414   3.758   7.467  2.1765  1.1989  1.8348
 7022SOL    HW232703   2.437   3.885   7.540 -1.1989  0.4410  0.8564
 7023SOL     OW32704   3.292   3.913   5.831  1.1204  0.0706 -0.2226
 7023SOL    HW132705   3.253   3.979   5.774 -0.5271  0.6826  1.6004
 7023SOL    HW232706   3.311   3.960   5.912 -0.1452 -1.9066  1.2261
 7024SOL     OW32707   2.106   3.178   5.114 -0.5533 -0.0246  0.1512
 7024SOL    HW132708   2.108   3.239   5.041 -0.6170  1.4471  1.3854
 7024SOL    HW232709   2.130   3.234   5.188  1.3429 -2.0035  1.0254
 7025SOL     OW32710   4.184   1.561   0.776 -0.5885  0.1220 -0.1344
 7025SOL    HW132711   4.115   1.575   0.841 -0.5535 -2.0481  0.3743
 7025SOL    HW232712   4.244   1.511   0.832  1.4154 -1.6719 -3.9555
 7026SOL     OW32713   2.401   4.387  15.746  0.1052 -0.3794  0.4972
 7026SOL    HW132714   2.342   4.365  15.818 -0.3392  0.7210  0.4599
 7026SOL    HW232715   2.374   4.476  15.724  0.0285 -0.9172 -1.5486
 7027SOL     OW32716   2.641   3.794   9.457  0.1643  0.3779  0.1739
 7027SOL    HW132717   2.664   3.878   9.496  1.0346  0.5104 -0.6321
 7027SOL    HW232718   2.578   3.765   9.524 -0.1697  0.2253 -0.2063
 7028SOL     OW32719   0.726   0.806   1.216  0.1337  0.2263 -0.5498
 7028SOL    HW132720   0.641   0.764   1.228  1.5695 -2.9642 -1.4906
 7028SOL    HW232721   0.734   0.861   1.293 -1.1389  0.7687 -0.8128
 7029SOL     OW32722   1.311   0.146  15.557 -0.3525 -0.3993  0.1348
 7029SOL    HW132723   1.239   0.146  15.621 -0.1227  1.0653  0.3961
 7029SOL    HW232724   1.374   0.209  15.591 -0.5204 -0.4326  0.5108
 7030SOL     OW32725   3.980   0.118  13.005  0.1127 -0.0224 -0.1505
 7030SOL    HW132726   3.936   0.070  13.075 -0.5229  0.1195 -0.4562
 7030SOL    HW232727   3.918   0.190  12.995 -0.8458 -0.8471 -0.1032
 7031SOL     OW32728   0.742   2.879   6.443  0.1832  0.2335 -0.4029
 7031SOL    HW132729   0.674   2.920   6.496  1.7692 -2.4300  3.6622
 7031SOL    HW232730   0.820   2.922   6.476 -1.9198  3.6575  0.1250
 7032SOL     OW32731   3.031   2.800   9.575  0.6883 -0.3403  0.0827
 7032SOL    HW132732   2.952   2.802   9.521 -0.7585 -5.6483  1.9245
 7032SOL    HW232733   3.087   2.863   9.530 -0.2029  0.0967 -0.4110
 7033SOL     OW32734   2.905   0.660   9.464  0.1886 -0.2749  0.5466
 7033SOL    HW132735   2.863   0.630   9.545 -0.6682  0.0188  0.2160
 7033SOL    HW232736   2.862   0.745   9.451 -0.3202 -0.2696  2.1788
 7034SOL     OW32737   1.657   2.678  12.650  0.2780 -0.2124  0.8074
 7034SOL    HW132738   1.710   2.704  12.574 -2.8329 -1.0694 -1.6941
 7034SOL    HW232739   1.615   2.598  12.619  2.0925 -1.0541  0.5642
 7035SOL     OW32740   3.117   1.606   4.676  0.8840 -0.6352 -0.4929
 7035SOL    HW132741   3.192   1.554   4.705 -0.7641 -2.3360  0.7659
 7035SOL    HW232742   3.065   1.627   4.754  0.1218 -1.7329 -0.6983
 7036SOL     OW32743   0.853   3.232   2.008  0.0632  0.0688 -0.0418
 7036SOL    HW132744   0.874   3.151   1.962 -1.8405 -0.1994 -0.4066
 7036SOL    HW232745   0.759   3.240   1.991 -0.0138 -0.9079 -0.0929
 7037SOL     OW32746   3.375   2.503   8.085 -0.4927 -0.2462 -0.8276
 7037SOL    HW132747   3.433   2.483   8.158 -1.1062  1.0425  0.0123
 7037SOL    HW232748   3.385   2.430   8.024  0.9208 -0.8988  0.1910
 7038SOL     OW32749   1.857   2.262   9.965  0.0246 -0.0275 -0.1979
 7038SOL    HW132750   1.834   2.324  10.034 -0.3964  1.1834 -1.4160
 7038SOL    HW232751   1.935   2.310   9.938 -1.2585  1.4973 -1.2670
 7039SOL     OW32752   3.916   3.027   2.029 -0.5030  0.7924 -0.4018
 7039SOL    HW132753   3.905   2.939   2.066 -2.4132  0.4327 -1.8351
 7039SOL    HW232754   3.920   3.085   2.105  1.0384 -1.4062  1.2211
 7040SOL     OW32755   0.044   1.056   6.557 -0.1856 -0.1664  0.3675
 7040SOL    HW132756   0.018   1.035   6.646 -1.0382  1.2348  0.4455
 7040SOL    HW232757   0.133   1.088   6.572 -0.5116 -0.9398  3.9213
 7041SOL     OW32758   4.489   0.543  17.133 -0.0613 -0.0202 -0.5557
 7041SOL    HW132759   4.521   0.632  17.122 -1.2724  0.2562 -1.7973
 7041SOL    HW232760   4.565   0.495  17.168 -0.7023 -0.4443  0.2530
 7042SOL     OW32761   1.112   1.848   9.169  0.0476 -0.1902  0.1245
 7042SOL    HW132762   1.064   1.778   9.214  0.7612 -0.2190  0.8278
 7042SOL    HW232763   1.181   1.794   9.131  0.2987 -1.3597  2.2386
 7043SOL     OW32764   3.126   4.465  14.375 -0.0697  0.1829 -0.6548
 7043SOL    HW132765   3.156   4.506  14.294 -1.7263  1.5259 -0.5923
 7043SOL    HW232766   3.182   4.387  14.369  0.7741  0.7104  0.4905
 7044SOL     OW32767   0.176   2.053   8.320  0.0222 -0.2470  0.0432
 7044SOL    HW132768   0.209   1.963   8.318  1.7914  0.3973  0.1893
 7044SOL    HW232769   0.252   2.099   8.355  0.2957 -1.3630  0.9386
 7045SOL     OW32770   2.399   1.090  16.071 -0.3881 -0.6637 -0.0337
 7045SOL    HW132771   2.310   1.126  16.067  1.5110  3.8247 -1.8009
 7045SOL    HW232772   2.372   1.010  16.025  0.6932 -1.0024 -0.0660
 7046SOL     OW32773   3.396   4.484   4.024 -0.2162  0.4538 -0.5181
 7046SOL    HW132774   3.450   4.540   4.080 -2.0172  2.0864 -0.4365
 7046SOL    HW232775   3.452   4.475   3.947 -1.5807 -0.3656 -1.3985
 7047SOL     OW32776   1.492   4.366  15.596 -0.4083  0.2695  0.0693
 7047SOL    HW132777   1.489   4.430  15.667 -1.9129 -0.3349  0.5591
 7047SOL    HW232778   1.435   4.414  15.535 -1.4712 -1.0370  0.0353
 7048SOL     OW32779   2.389   1.900  12.458 -0.1810  0.0528 -0.8756
 7048SOL    HW132780   2.411   1.902  12.365  1.2402 -0.5800 -0.5586
 7048SOL    HW232781   2.294   1.897  12.459 -0.1017 -1.8701  1.1779
 7049SOL     OW32782   2.702   3.608   2.109 -0.0097 -0.5202 -0.0085
 7049SOL    HW132783   2.631   3.666   2.138  1.8796  2.5074 -1.3613
 7049SOL    HW232784   2.672   3.521   2.135 -0.4594 -0.1486  0.7113
 7050SOL     OW32785   1.781   3.817   6.327  0.1939 -0.3171  0.3773
 7050SOL    HW132786   1.731   3.893   6.354 -1.0416 -0.4503 -1.5632
 7050SOL    HW232787   1.729   3.769   6.262 -0.5897  0.3618  0.5073
 7051SOL     OW32788   2.825   0.034   9.795  0.8512  0.1931 -0.1824
 7051SOL    HW132789   2.883   0.004   9.725 -2.0515 -1.2826 -1.9342
 7051SOL    HW232790   2.832   4.696   9.856  2.1494 -0.0011 -0.5717
 7052SOL     OW32791   3.909   3.092   9.466  0.0004 -0.3452 -0.2083
 7052SOL    HW132792   3.932   3.163   9.527  0.2468 -1.0287  0.4854
 7052SOL    HW232793   3.929   3.022   9.527 -1.7752 -2.4889 -2.1028
 7053SOL     OW32794   0.478   0.474  10.583  0.5119 -0.4499 -0.3695
 7053SOL    HW132795   0.456   0.566  10.573  1.8275  0.1100  1.9097
 7053SOL    HW232796   0.555   0.462  10.527  0.1213 -1.6385 -0.6557
 7054SOL     OW32797   0.684   1.086  13.296  0.0714  0.2783 -1.1083
 7054SOL    HW132798   0.617   1.134  13.345  1.7582  1.1918  0.2827
 7054SOL    HW232799   0.743   1.061  13.368 -0.5109  0.4783 -0.5616
 7055SOL     OW32800   3.554   3.472   0.353 -0.3964 -0.0313  0.4430
 7055SOL    HW132801   3.562   3.418   0.432  0.3081  1.2758  1.2621
 7055SOL    HW232802   3.571   3.405   0.286  0.5036  0.4075  0.2376
 7056SOL     OW32803   2.042   1.575  12.439  0.5171  0.3877 -0.7854
 7056SOL    HW132804   1.977   1.567  12.508 -0.2123  0.2500 -1.4904
 7056SOL    HW232805   2.116   1.621  12.481 -0.6400  1.6627 -0.1405
 7057SOL     OW32806   3.899   2.495   1.663 -0.8637 -0.0186  0.1374
 7057SOL    HW132807   3.815   2.533   1.690 -0.1252  2.2702 -0.7695
 7057SOL    HW232808   3.962   2.556   1.701 -1.9456  0.9105  0.4642
 7058SOL     OW32809   1.131   3.922   4.453 -0.0848  0.0532  0.3225
 7058SOL    HW132810   1.065   3.948   4.517  0.7984  0.2066  1.1800
 7058SOL    HW232811   1.139   3.831   4.481  1.1523  0.6281  1.8349
 7059SOL     OW32812   0.596   3.929   8.577  0.2698  0.1574 -0.0073
 7059SOL    HW132813   0.531   3.865   8.606 -0.1529  0.5349 -0.1295
 7059SOL    HW232814   0.649   3.939   8.656 -1.5046  0.1811  1.1829
 7060SOL     OW32815   0.248   0.415  10.443 -0.2402  0.0715 -0.0619
 7060SOL    HW132816   0.305   0.390  10.370  2.5477 -0.7151  2.3596
 7060SOL    HW232817   0.316   0.430  10.508  1.1180  2.1616 -1.9668
 7061SOL     OW32818   2.014   1.513   4.592 -0.1656  0.5005 -0.1428
 7061SOL    HW132819   2.087   1.534   4.534 -1.1448 -0.1316 -1.5830
 7061SOL    HW232820   2.063   1.493   4.672 -4.4072 -3.9088  1.3331
 7062SOL     OW32821   4.010   0.035   7.684 -0.5344  0.3762  0.1092
 7062SOL    HW132822   4.045   4.725   7.761  0.9490 -0.8695 -1.3114
 7062SOL    HW232823   4.077   0.017   7.618  0.7671 -1.0308  1.8197
 7063SOL     OW32824   1.152   4.182   4.326  0.3284  0.0484  0.1514
 7063SOL    HW132825   1.135   4.098   4.368  1.7709  0.8816  2.4123
 7063SOL    HW232826   1.097   4.243   4.375  1.0605  0.5246  0.3770
 7064SOL     OW32827   0.472   1.797   7.169 -0.5876  0.6970  0.2095
 7064SOL    HW132828   0.461   1.771   7.261 -2.3066  1.7082  0.2893
 7064SOL    HW232829   0.389   1.769   7.130 -0.8611  1.4196  0.2691
 7065SOL     OW32830   4.365   2.386   3.732  0.1898 -0.1454 -0.1355
 7065SOL    HW132831   4.322   2.370   3.648  0.2854 -2.1621  0.2079
 7065SOL    HW232832   4.295   2.364   3.793 -0.4678 -0.6484 -1.0668
 7066SOL     OW32833   2.109   4.390   6.484 -0.7149 -0.1115 -0.0010
 7066SOL    HW132834   2.119   4.295   6.486  1.9424  0.1835  0.6706
 7066SOL    HW232835   2.094   4.388   6.390  1.0815 -0.4050 -0.2887
 7067SOL     OW32836   0.864   4.483   3.736 -0.1117  0.3709  0.4752
 7067SOL    HW132837   0.803   4.538   3.687 -1.3108 -0.9349  0.4814
 7067SOL    HW232838   0.887   4.410   3.679 -0.8079 -0.2047  0.9203
 7068SOL     OW32839   1.210   0.965   7.619 -0.3560  0.3547  1.1898
 7068SOL    HW132840   1.214   0.909   7.542  1.5286 -0.0864  1.6140
 7068SOL    HW232841   1.185   1.052   7.589  0.9131 -0.0709 -1.1131
 7069SOL     OW32842   2.676   4.581   4.597  0.5247 -0.2208 -0.2374
 7069SOL    HW132843   2.639   4.651   4.652  0.5771 -0.8664  0.6173
 7069SOL    HW232844   2.664   4.626   4.514  1.5491 -1.5523 -1.0974
 7070SOL     OW32845   4.057   1.421  12.304 -0.0384  0.3574  0.5777
 7070SOL    HW132846   4.031   1.507  12.270  0.5494  0.9423  1.5832
 7070SOL    HW232847   4.138   1.411  12.253  0.4234  2.1554  0.9466
 7071SOL     OW32848   4.572   4.659   5.757  0.3327 -0.1404  0.2652
 7071SOL    HW132849   4.625   4.579   5.753 -1.6479 -1.4545  0.2873
 7071SOL    HW232850   4.578   4.695   5.668 -0.0499 -0.4439  0.1156
 7072SOL     OW32851   1.804   2.149   8.749  0.1734 -0.0944 -0.3896
 7072SOL    HW132852   1.860   2.106   8.813  2.0637  1.9778 -0.6577
 7072SOL    HW232853   1.753   2.217   8.795  1.2359  0.7978 -0.5450
 7073SOL     OW32854   3.265   2.779   1.119 -0.0851  0.2384 -0.0164
 7073SOL    HW132855   3.183   2.746   1.157 -0.9346  0.5718 -1.5408
 7073SOL    HW232856   3.219   2.831   1.054 -0.3473  1.7759  1.4067
 7074SOL     OW32857   4.191   1.842   0.776 -0.4045 -0.5492 -0.1256
 7074SOL    HW132858   4.214   1.750   0.780  1.9888  0.0595  0.2009
 7074SOL    HW232859   4.212   1.871   0.865 -1.1760 -0.2184 -0.0422
 7075SOL     OW32860   0.585   4.394  10.541 -0.6852  0.4988 -0.3708
 7075SOL    HW132861   0.526   4.336  10.589  0.7876  0.4556  1.4187
 7075SOL    HW232862   0.593   4.466  10.604  0.4139  1.0158 -1.1114
 7076SOL     OW32863   1.267   2.694   9.660  0.3852 -0.0397 -0.5183
 7076SOL    HW132864   1.358   2.716   9.680  1.0682 -2.8934 -0.5211
 7076SOL    HW232865   1.266   2.641   9.580 -0.6938  1.2093 -1.3338
 7077SOL     OW32866   1.826   3.214  12.013  0.2161  0.4447  0.2299
 7077SOL    HW132867   1.833   3.254  11.927 -0.3956 -1.6934 -0.8168
 7077SOL    HW232868   1.884   3.275  12.058  0.4538  1.2295 -1.1535
 7078SOL     OW32869   4.400   4.479   2.012  0.2167  0.1375 -0.3045
 7078SOL    HW132870   4.354   4.559   2.037  1.7833  1.5198 -1.8768
 7078SOL    HW232871   4.367   4.447   1.927 -2.2896  2.7710 -0.3136
 7079SOL     OW32872   4.449   4.051   2.556 -0.2075  0.0199  0.1286
 7079SOL    HW132873   4.452   4.037   2.461 -1.6328 -1.7480  0.3388
 7079SOL    HW232874   4.457   3.962   2.592  0.5496 -0.4623 -1.2380
 7080SOL     OW32875   4.139   4.281   1.050 -0.1415  0.0461  0.5497
 7080SOL    HW132876   4.096   4.343   0.991  1.7727  0.8012 -0.0583
 7080SOL    HW232877   4.073   4.260   1.116  0.1911 -0.7990  0.6094
 7081SOL     OW32878   1.779   3.261   8.698 -0.2158  0.3895 -0.0292
 7081SOL    HW132879   1.715   3.257   8.627  1.4771 -0.8386 -1.4872
 7081SOL    HW232880   1.766   3.170   8.726  0.6559 -0.3492 -2.0572
 7082SOL     OW32881   2.065   3.643  11.897 -0.5836 -0.4522  0.2308
 7082SOL    HW132882   1.998   3.635  11.965 -2.6505  1.9160 -1.5338
 7082SOL    HW232883   2.143   3.619  11.947 -0.2068 -2.5628 -1.3648
 7083SOL     OW32884   1.355   1.522   8.342 -0.3747  0.3852 -0.0608
 7083SOL    HW132885   1.394   1.596   8.296 -1.1424  2.8179  3.1522
 7083SOL    HW232886   1.409   1.445   8.325 -2.0630 -1.4162  2.6644
 7084SOL     OW32887   3.529   3.846   2.336 -0.4092 -0.4525  0.0196
 7084SOL    HW132888   3.586   3.824   2.262 -0.8153 -3.0714  0.4928
 7084SOL    HW232889   3.482   3.763   2.341 -0.4981 -0.3524  0.9192
 7085SOL     OW32890   1.820   0.414   9.718 -0.1038  0.0417 -0.4076
 7085SOL    HW132891   1.898   0.360   9.732 -0.2189  0.2360  1.0165
 7085SOL    HW232892   1.815   0.411   9.622 -0.3796  0.0686 -0.3932
 7086SOL     OW32893   2.541   4.546   0.909 -0.8725 -0.0394 -0.1011
 7086SOL    HW132894   2.547   4.551   1.004 -0.8904  2.1879 -0.2111
 7086SOL    HW232895   2.448   4.531   0.891 -0.1895  0.1916 -3.7818
 7087SOL     OW32896   4.263   0.370  14.643  0.2129 -0.3762  0.6076
 7087SOL    HW132897   4.276   0.281  14.610  0.8123  0.0201 -0.2320
 7087SOL    HW232898   4.179   0.362  14.688 -0.6839  1.1517 -0.8082
 7088SOL     OW32899   3.681   2.467   7.183  0.7369 -0.0880 -0.5352
 7088SOL    HW132900   3.613   2.429   7.239  0.7481  0.9032  0.1510
 7088SOL    HW232901   3.752   2.403   7.187  1.6390  0.9442  0.1051
 7089SOL     OW32902   0.724   3.219   3.096 -0.1712  0.2686  0.0078
 7089SOL    HW132903   0.741   3.312   3.080  1.7947  0.0029  0.4976
 7089SOL    HW232904   0.798   3.187   3.148 -1.2729 -1.0231  0.7698
 7090SOL     OW32905   1.835   3.782   6.583 -0.5622 -0.2433  0.1351
 7090SOL    HW132906   1.927   3.760   6.568 -1.4936 -3.7404 -0.6025
 7090SOL    HW232907   1.814   3.796   6.491  0.9497 -0.7698 -0.2996
 7091SOL     OW32908   0.448   2.174   1.002 -0.3085 -0.3061 -1.0898
 7091SOL    HW132909   0.506   2.251   1.003 -1.6164  0.6783 -0.4828
 7091SOL    HW232910   0.408   2.178   0.915  0.3015  0.6390 -1.3285
 7092SOL     OW32911   2.549   1.319   5.011 -0.2643 -0.3242  0.2337
 7092SOL    HW132912   2.533   1.310   5.105 -1.1182 -0.3574  0.0866
 7092SOL    HW232913   2.623   1.379   5.011  0.5191 -1.3146  0.9804
 7093SOL     OW32914   3.584   0.630   7.274 -0.3160 -0.3616  0.1496
 7093SOL    HW132915   3.505   0.592   7.235 -0.4931 -1.6612  1.7682
 7093SOL    HW232916   3.648   0.641   7.204 -1.7499 -1.8359 -1.3976
 7094SOL     OW32917   1.625   2.907   0.387  0.0184  0.1246 -0.3146
 7094SOL    HW132918   1.638   2.968   0.459 -0.0205 -0.4362  0.1678
 7094SOL    HW232919   1.678   2.946   0.318  0.3987  0.7760  0.3607
 7095SOL     OW32920   0.441   1.720   3.479 -0.0647  0.5392 -1.0717
 7095SOL    HW132921   0.506   1.689   3.543  1.7656 -0.3936 -3.3683
 7095SOL    HW232922   0.420   1.638   3.434  1.9413  0.3210 -1.6353
 7096SOL     OW32923   2.376   4.149   3.049 -0.4988 -0.0861  0.4003
 7096SOL    HW132924   2.376   4.242   3.026 -1.6345 -0.3286 -0.5708
 7096SOL    HW232925   2.313   4.153   3.121 -0.2502 -2.2249  0.7083
 7097SOL     OW32926   3.461   2.623   6.161 -0.4021  0.3528  0.5779
 7097SOL    HW132927   3.488   2.715   6.151 -1.0903  0.4981  0.0953
 7097SOL    HW232928   3.376   2.612   6.120 -0.0103  0.9093 -0.3752
 7098SOL     OW32929   2.338   0.704   5.784 -0.0845 -0.7583  0.1836
 7098SOL    HW132930   2.406   0.735   5.844  0.5783  0.7160 -1.3253
 7098SOL    HW232931   2.300   0.627   5.824  0.8624  0.0533  2.6121
 7099SOL     OW32932   1.389   4.452   3.717 -0.0353 -0.1034  0.0826
 7099SOL    HW132933   1.450   4.486   3.784 -1.0366  2.3510 -0.2488
 7099SOL    HW232934   1.321   4.416   3.774  0.9196  0.7800  1.7984
 7100SOL     OW32935   4.440   2.510   6.296 -0.0132 -0.4122  0.0734
 7100SOL    HW132936   4.530   2.485   6.273  0.5916  1.0070  0.9532
 7100SOL    HW232937   4.388   2.488   6.218  2.2770  0.0691 -1.6019
 7101SOL     OW32938   3.609   2.290  14.095 -0.0851 -0.4047  0.1890
 7101SOL    HW132939   3.596   2.310  14.002  1.8962  2.0611  0.4431
 7101SOL    HW232940   3.538   2.347  14.125 -1.1668 -1.4358 -0.3894
 7102SOL     OW32941   3.798   2.101   2.839 -0.0107  0.2243  0.6644
 7102SOL    HW132942   3.846   2.035   2.889  1.8225  2.0611  1.3698
 7102SOL    HW232943   3.786   2.169   2.906 -2.1355 -0.4914  0.9984
 7103SOL     OW32944   0.985   2.394   8.509 -0.2274  0.5653 -0.6565
 7103SOL    HW132945   0.966   2.446   8.587 -0.5529 -0.4151 -0.0903
 7103SOL    HW232946   1.058   2.336   8.532 -0.4775  0.6280  0.3069
 7104SOL     OW32947   3.308   2.253  12.191  0.2953  0.2390  0.1976
 7104SOL    HW132948   3.341   2.172  12.153  0.0812  0.8973 -1.4252
 7104SOL    HW232949   3.364   2.253  12.269 -2.0210 -0.0034  1.8675
 7105SOL     OW32950   1.452   4.549   9.316  0.8653  0.1892 -0.1225
 7105SOL    HW132951   1.474   4.469   9.362 -0.8711  0.3116  0.9300
 7105SOL    HW232952   1.527   4.601   9.345  0.6923  0.9041 -0.9293
 7106SOL     OW32953   3.684   4.137   3.024  0.0421 -0.3373  0.1879
 7106SOL    HW132954   3.747   4.148   3.095 -1.1794 -2.6685  1.6251
 7106SOL    HW232955   3.608   4.128   3.081  1.7544 -0.8674  2.3699
 7107SOL     OW32956   3.754   3.757  17.205  0.2041 -0.0582  0.1297
 7107SOL    HW132957   3.838   3.796  17.231  0.7696 -0.5990 -0.8576
 7107SOL    HW232958   3.693   3.782  17.274  2.9561  3.7369  1.1713
 7108SOL     OW32959   3.503   0.147  10.782  0.7944  0.5266 -0.1172
 7108SOL    HW132960   3.537   0.077  10.838 -1.9977 -0.9234 -0.2119
 7108SOL    HW232961   3.414   0.158  10.816  0.9337  0.2615  0.3411
 7109SOL     OW32962   2.951   1.565   3.942 -0.2206 -0.0840  0.1015
 7109SOL    HW132963   2.960   1.618   4.021  1.1886 -0.0389 -0.0907
 7109SOL    HW232964   2.860   1.578   3.917 -0.6590 -0.5412  1.4481
 7110SOL     OW32965   4.391   2.773   6.356 -0.3052  0.1447 -0.1023
 7110SOL    HW132966   4.476   2.764   6.312  0.7926  0.1011  2.0678
 7110SOL    HW232967   4.349   2.688   6.344 -0.7369  0.1451  1.5015
 7111SOL     OW32968   1.570   0.497   3.800  0.0143 -0.3845 -0.4068
 7111SOL    HW132969   1.568   0.514   3.706 -3.0132  1.6007  0.0355
 7111SOL    HW232970   1.490   0.539   3.830 -0.1850 -0.5800 -0.6624
 7112SOL     OW32971   0.457   1.630   8.685  0.4346 -0.5108 -0.4361
 7112SOL    HW132972   0.492   1.615   8.597  0.9169  0.9860 -0.5026
 7112SOL    HW232973   0.474   1.723   8.703  1.4056 -0.6976 -0.3979
 7113SOL     OW32974   4.275   3.622   2.028  0.1759 -0.5786 -0.3251
 7113SOL    HW132975   4.206   3.618   2.094  0.4293  2.1969  0.0864
 7113SOL    HW232976   4.331   3.693   2.059 -0.2516 -0.3911  0.0049
 7114SOL     OW32977   3.981   0.258   6.219  0.8165  0.3283 -0.2576
 7114SOL    HW132978   3.913   0.191   6.230 -1.0701  1.9593 -1.9550
 7114SOL    HW232979   3.969   0.305   6.301 -1.2926  1.1640 -1.0463
 7115SOL     OW32980   0.191   2.839   2.941 -1.2804  0.0893  0.2327
 7115SOL    HW132981   0.232   2.912   2.987 -0.6094 -1.6017  2.3720
 7115SOL    HW232982   0.099   2.849   2.965 -0.8849  2.1081  0.8842
 7116SOL     OW32983   3.945   0.644   5.522  0.2001 -0.1631 -0.2942
 7116SOL    HW132984   3.974   0.592   5.447  0.2598 -0.8993  0.2432
 7116SOL    HW232985   3.971   0.578   5.586  0.3194 -0.8577 -1.0548
 7117SOL     OW32986   0.658   2.820  14.995 -0.7556 -0.2602 -0.6526
 7117SOL    HW132987   0.656   2.914  15.013 -0.5059 -0.5739  1.0289
 7117SOL    HW232988   0.734   2.817  14.936 -0.5061  0.8658 -0.3853
 7118SOL     OW32989   2.906   4.566   9.956  0.1805 -0.1609 -0.2890
 7118SOL    HW132990   2.946   4.512  10.025  0.8707 -0.5090 -0.9578
 7118SOL    HW232991   2.886   4.492   9.898 -1.1189  1.3826 -1.7851
 7119SOL     OW32992   0.342   2.657   6.741  0.2062 -0.2436  0.1994
 7119SOL    HW132993   0.419   2.664   6.685 -0.7149 -3.4165 -1.4364
 7119SOL    HW232994   0.278   2.716   6.702 -0.5992 -1.4624 -0.3312
 7120SOL     OW32995   1.206   4.328  15.720  0.4810  0.0830  0.1890
 7120SOL    HW132996   1.215   4.323  15.625  0.0633 -1.3702  0.2212
 7120SOL    HW232997   1.169   4.416  15.722  1.1520  0.4117 -1.9755
 7121SOL     OW32998   4.257   1.420   9.539 -0.4138 -0.2395  0.0679
 7121SOL    HW132999   4.336   1.423   9.486 -1.0578  1.0726 -0.8227
 7121SOL    HW233000   4.191   1.450   9.476 -0.7727 -0.9806  0.0909
 7122SOL     OW33001   3.974   0.954   3.597 -0.3701 -0.2563 -0.3930
 7122SOL    HW133002   3.933   0.919   3.677 -0.0471 -0.9534 -0.5273
 7122SOL    HW233003   4.058   0.982   3.634 -0.9481  0.0263  0.7229
 7123SOL     OW33004   1.997   3.350  10.386  0.3826  0.1236 -0.3182
 7123SOL    HW133005   2.060   3.289  10.348 -0.1323  0.6641 -2.0595
 7123SOL    HW233006   1.936   3.347  10.312 -1.8416  1.8264  1.4670
 7124SOL     OW33007   4.118   3.238   3.919  0.0593  0.5151  1.0133
 7124SOL    HW133008   4.032   3.273   3.942 -0.1080 -0.0084  1.1852
 7124SOL    HW233009   4.171   3.263   3.995  1.7478 -3.2349  1.0781
 7125SOL     OW33010   3.293   2.227   6.176 -0.1594  0.7946  0.0028
 7125SOL    HW133011   3.227   2.158   6.180  2.0327 -1.2711  0.3957
 7125SOL    HW233012   3.224   2.292   6.187 -1.7657 -0.7504 -0.9992
 7126SOL     OW33013   3.918   1.096   6.906  0.1381  0.3789 -0.2458
 7126SOL    HW133014   3.846   1.151   6.874 -0.1247  0.9331  1.2948
 7126SOL    HW233015   3.875   1.039   6.969  1.3885  0.9597  1.1285
 7127SOL     OW33016   2.835   3.543   8.434 -0.2771  0.0473 -0.7781
 7127SOL    HW133017   2.889   3.605   8.484  0.5750 -2.2010  1.0851
 7127SOL    HW233018   2.899   3.477   8.406  1.0695  0.9623  0.1011
 7128SOL     OW33019   0.530   4.113  16.349 -0.1471 -0.3476 -0.3230
 7128SOL    HW133020   0.502   4.022  16.348 -1.3416  0.0306 -2.2117
 7128SOL    HW233021   0.522   4.125  16.254  1.5960  0.9566 -0.2998
 7129SOL     OW33022   0.678   4.438   4.816  0.6790 -0.0331 -0.0777
 7129SOL    HW133023   0.674   4.394   4.901  0.4634 -1.7719 -0.9992
 7129SOL    HW233024   0.710   4.526   4.836 -1.1883  0.4315  0.9144
 7130SOL     OW33025   3.876   1.597  16.972  0.1875 -0.0884  0.0544
 7130SOL    HW133026   3.921   1.585  17.056  2.1769  1.4862 -0.7951
 7130SOL    HW233027   3.785   1.576  16.990 -0.6608 -0.6301 -4.7633
 7131SOL     OW33028   1.041   4.440   5.548  0.1799 -0.3209 -0.4045
 7131SOL    HW133029   1.015   4.461   5.638 -3.5111 -2.5007 -0.9868
 7131SOL    HW233030   0.986   4.362   5.538 -2.4244  1.6969 -1.8471
 7132SOL     OW33031   4.726   1.693  14.604  0.2104  0.3258 -0.0273
 7132SOL    HW133032   0.039   1.748  14.543  0.3061  0.1347 -0.1235
 7132SOL    HW233033   4.639   1.734  14.605 -0.3616 -0.9197  1.2507
 7133SOL     OW33034   0.278   3.643   4.662 -0.0394  0.0617  0.4306
 7133SOL    HW133035   0.270   3.621   4.754  0.9007  0.2014  0.5438
 7133SOL    HW233036   0.325   3.563   4.638 -1.5015 -0.7134  0.1509
 7134SOL     OW33037   3.066   0.530   8.065  0.0123 -0.0750 -0.1569
 7134SOL    HW133038   3.096   0.510   8.154 -0.7692 -1.2156 -0.1522
 7134SOL    HW233039   3.140   0.516   8.006  1.9374  1.0053  1.9949
 7135SOL     OW33040   1.301   0.695  15.034  0.3534 -0.2425  0.7096
 7135SOL    HW133041   1.366   0.716  15.102 -1.2092  3.4754  1.0817
 7135SOL    HW233042   1.256   0.779  15.023 -1.1225 -0.7758  2.6579
 7136SOL     OW33043   0.114   0.697   7.564  0.1805  0.6470  0.8799
 7136SOL    HW133044   0.087   0.620   7.513 -0.7039  1.3576  0.2601
 7136SOL    HW233045   0.057   0.686   7.640  0.2014 -1.7991  0.5508
 7137SOL     OW33046   2.772   0.291   6.716 -0.0365  0.2774  0.0973
 7137SOL    HW133047   2.689   0.259   6.750  0.1819  0.2291  0.5982
 7137SOL    HW233048   2.826   0.212   6.721 -2.2995 -1.3824 -1.6098
 7138SOL     OW33049   0.299   0.257   2.847  0.3147 -0.4926 -0.0380
 7138SOL    HW133050   0.389   0.227   2.845  2.0251  4.5524  1.7203
 7138SOL    HW233051   0.314   0.349   2.826 -1.0350 -0.6087 -1.5576
 7139SOL     OW33052   2.927   3.886   5.272 -0.0434 -0.5297  0.1558
 7139SOL    HW133053   2.968   3.858   5.190 -1.7719 -1.9630 -0.2147
 7139SOL    HW233054   2.837   3.863   5.251  0.0438 -0.2508 -0.4987
 7140SOL     OW33055   1.539   2.116   3.217 -0.2578 -0.2364 -0.5502
 7140SOL    HW133056   1.500   2.150   3.137  3.2692  0.7266 -1.8845
 7140SOL    HW233057   1.458   2.083   3.256 -0.9013  0.5327 -1.2154
 7141SOL     OW33058   2.662   2.212  11.396 -0.2439 -0.0856 -0.4963
 7141SOL    HW133059   2.754   2.189  11.393  0.0807  1.1393  0.0657
 7141SOL    HW233060   2.643   2.254  11.313  0.4074 -3.0059 -2.1207
 7142SOL     OW33061   2.579   0.080   9.970  0.1529 -0.1053 -0.0905
 7142SOL    HW133062   2.662   0.070   9.923  0.2980  3.0020 -0.5341
 7142SOL    HW233063   2.551   4.725   9.980  0.2703  0.0951  1.9512
 7143SOL     OW33064   0.348   3.510   9.887 -0.5878 -0.6280 -0.0466
 7143SOL    HW133065   0.311   3.509   9.975  1.5983  1.5092  0.8847
 7143SOL    HW233066   0.383   3.421   9.884 -1.5804 -0.9572 -2.1823
 7144SOL     OW33067   0.945   2.674   1.896  0.6722  0.0969 -0.2485
 7144SOL    HW133068   0.904   2.587   1.901 -0.0552  0.4383 -0.3787
 7144SOL    HW233069   1.001   2.663   1.819  1.1956  0.9315  0.0082
 7145SOL     OW33070   3.800   4.014   1.496  0.0765 -0.2134 -0.7592
 7145SOL    HW133071   3.845   4.098   1.507  0.0692  0.0274 -2.7109
 7145SOL    HW233072   3.856   3.958   1.549 -0.5082 -2.2469 -2.3079
 7146SOL     OW33073   0.333   2.709  12.564  0.2145 -0.1822 -0.2616
 7146SOL    HW133074   0.303   2.741  12.649  0.7732  0.1349 -0.1835
 7146SOL    HW233075   0.398   2.648  12.599  0.5627  1.9664  2.8338
 7147SOL     OW33076   2.430   0.103   0.510  0.1547 -0.5478  0.4229
 7147SOL    HW133077   2.449   0.078   0.600 -1.3116 -1.5276  0.4471
 7147SOL    HW233078   2.519   0.111   0.474  0.1163  1.6146  0.8066
 7148SOL     OW33079   2.680   0.110   6.185 -0.5798  0.2047 -0.1180
 7148SOL    HW133080   2.628   0.138   6.261  1.0824 -1.8098  1.7292
 7148SOL    HW233081   2.665   0.017   6.169 -0.3531  0.2295 -0.4778
 7149SOL     OW33082   3.921   1.264   6.355  0.1789 -0.1156  0.1540
 7149SOL    HW133083   3.967   1.238   6.435 -0.9179 -0.0873  0.7889
 7149SOL    HW233084   3.990   1.258   6.289  0.8093  0.0603  0.7960
 7150SOL     OW33085   2.971   0.398   6.597  0.2083 -0.4961 -0.4686
 7150SOL    HW133086   3.032   0.324   6.599  1.0201  0.1920  0.1860
 7150SOL    HW233087   2.898   0.374   6.654  0.2363  0.8014  0.1227
 7151SOL     OW33088   2.279   4.188   7.668  0.1214  0.0559  0.3272
 7151SOL    HW133089   2.244   4.107   7.631  0.7721  1.1801 -2.8104
 7151SOL    HW233090   2.284   4.241   7.588 -2.7599  1.1338  0.8728
 7152SOL     OW33091   2.995   1.061  12.733  0.0055 -0.0989 -0.2231
 7152SOL    HW133092   2.992   1.109  12.650 -2.7217  0.3929  0.1405
 7152SOL    HW233093   3.016   1.123  12.802 -2.2464 -1.3061  1.5761
 7153SOL     OW33094   3.383   0.160   2.531 -0.0669  0.0671 -0.0422
 7153SOL    HW133095   3.468   0.148   2.573  1.2385  1.3588 -2.3019
 7153SOL    HW233096   3.322   0.170   2.604  0.1403 -2.6703  0.5198
 7154SOL     OW33097   4.000   2.595  12.959 -0.6395  0.0859 -0.3562
 7154SOL    HW133098   3.940   2.583  13.033  0.2453 -1.1283  0.1779
 7154SOL    HW233099   4.071   2.635  13.009 -0.3720 -1.2406  0.3310
 7155SOL     OW33100   0.192   1.408   6.776  0.0409  0.5372 -0.2060
 7155SOL    HW133101   0.144   1.450   6.705  0.1799  1.4690  0.2590
 7155SOL    HW233102   0.146   1.437   6.855 -0.6670 -0.2522 -0.3213
 7156SOL     OW33103   2.227   4.432   0.202  0.1526 -0.9844  0.1415
 7156SOL    HW133104   2.239   4.488   0.279 -0.4780 -2.3223  1.2077
 7156SOL    HW233105   2.280   4.484   0.142  1.3167 -0.4706  1.6390
 7157SOL     OW33106   2.331   0.619  16.219  0.3849  0.7034 -0.1091
 7157SOL    HW133107   2.282   0.692  16.182 -1.2704 -1.9283 -3.0211
 7157SOL    HW233108   2.367   0.592  16.135 -0.3556  0.9028 -0.4949
 7158SOL     OW33109   0.143   1.963   2.054 -0.1972 -0.0254 -0.4012
 7158SOL    HW133110   0.199   2.019   2.107  0.7714 -1.5146  0.1424
 7158SOL    HW233111   0.061   2.012   2.047  0.2720  0.6196 -1.3825
 7159SOL     OW33112   0.500   0.632   1.933  0.0350 -0.3557  0.1388
 7159SOL    HW133113   0.434   0.670   1.875  0.2974  1.3796  0.9719
 7159SOL    HW233114   0.564   0.595   1.872  0.4728 -2.2861  1.8110
 7160SOL     OW33115   4.656   1.452   6.497 -0.1154 -1.0054 -0.2774
 7160SOL    HW133116   4.604   1.521   6.536  1.9726 -0.5769  1.7835
 7160SOL    HW233117   4.595   1.422   6.430 -0.4211  1.5593 -1.1338
 7161SOL     OW33118   3.163   4.209  15.193  0.0107  0.2225  0.4618
 7161SOL    HW133119   3.092   4.260  15.233  0.1586  1.5133 -0.8911
 7161SOL    HW233120   3.246   4.257  15.199 -0.8407  1.6807  0.7459
 7162SOL     OW33121   4.621   3.417  12.379 -0.2036 -0.2599  0.3790
 7162SOL    HW133122   4.587   3.439  12.292  1.3669  4.1380  0.8628
 7162SOL    HW233123   4.715   3.429  12.371 -0.3310  0.8373  0.4628
 7163SOL     OW33124   2.591   3.190   6.179 -0.2233 -0.0628  0.3442
 7163SOL    HW133125   2.496   3.185   6.178 -0.2168 -0.0765 -0.4892
 7163SOL    HW233126   2.603   3.219   6.269  0.5596  1.7319 -0.3233
 7164SOL     OW33127   2.400   0.450   8.729  0.0122 -0.5076  0.4048
 7164SOL    HW133128   2.441   0.513   8.788 -1.5119  0.8400  0.0255
 7164SOL    HW233129   2.309   0.477   8.716  0.6247  0.8899 -0.9479
 7165SOL     OW33130   4.552   1.380   0.264  0.1404 -0.2771  0.1288
 7165SOL    HW133131   4.552   1.336   0.179  3.3615  0.4497 -0.2200
 7165SOL    HW233132   4.639   1.364   0.300  0.1918 -1.3648 -0.4799
 7166SOL     OW33133   0.604   4.399   0.446  0.3756  0.2863 -0.0563
 7166SOL    HW133134   0.635   4.459   0.513  0.5495 -0.3498  0.4368
 7166SOL    HW233135   0.661   4.323   0.455  0.5153  0.4887  0.7964
 7167SOL     OW33136   2.560   4.647   8.277 -0.3973 -0.2670 -0.3069
 7167SOL    HW133137   2.565   4.730   8.230 -2.0993 -0.0863 -0.1513
 7167SOL    HW233138   2.523   4.593   8.207  0.4765 -0.8838 -0.2957
 7168SOL     OW33139   0.348   1.699   7.409 -0.0820 -0.1115 -0.5154
 7168SOL    HW133140   0.426   1.667   7.454  0.1742  0.3437 -0.6354
 7168SOL    HW233141   0.325   1.777   7.458 -1.0190  0.1591 -1.3810
 7169SOL     OW33142   0.737   4.608   2.491  0.0775  0.0659 -0.3373
 7169SOL    HW133143   0.779   4.608   2.405 -0.7238 -2.1804 -0.7197
 7169SOL    HW233144   0.685   4.528   2.491 -0.1903  0.2505  1.1725
 7170SOL     OW33145   4.174   2.915   2.469 -0.0330  0.4080  0.4222
 7170SOL    HW133146   4.089   2.910   2.424 -1.4334  1.5811  2.9096
 7170SOL    HW233147   4.222   2.984   2.423  1.2435 -0.6536  0.1816
 7171SOL     OW33148   0.318   4.321  15.430 -0.5188 -0.5266 -0.6396
 7171SOL    HW133149   0.278   4.385  15.373 -0.9804 -1.2113 -1.0807
 7171SOL    HW233150   0.383   4.278  15.374  0.9786  0.6537  0.1756
 7172SOL     OW33151   4.596   0.269   7.916 -1.0090 -0.3323 -1.0068
 7172SOL    HW133152   4.529   0.268   7.984 -0.3099  1.3226 -0.2942
 7172SOL    HW233153   4.563   0.206   7.852 -2.8688 -1.1355  0.7721
 7173SOL     OW33154   0.453   3.690   8.571 -0.3142  0.8430  0.7503
 7173SOL    HW133155   0.397   3.613   8.582 -0.9184  1.1852  0.1076
 7173SOL    HW233156   0.538   3.677   8.614  0.0725 -2.3962 -1.0206
 7174SOL     OW33157   4.498   1.970   7.821  0.3199  0.6593 -0.8461
 7174SOL    HW133158   4.531   1.951   7.909  0.1797 -0.3242 -0.9995
 7174SOL    HW233159   4.462   1.886   7.791 -1.2758  1.1416 -0.2632
 7175SOL     OW33160   0.779   1.215  13.068 -0.2566 -0.7189 -0.3021
 7175SOL    HW133161   0.853   1.265  13.103  1.2064 -2.5007 -0.8287
 7175SOL    HW233162   0.742   1.182  13.150  1.5442  2.5556  1.8009
 7176SOL     OW33163   2.369   0.604   3.091  0.2951  0.6424 -0.0972
 7176SOL    HW133164   2.365   0.558   3.007 -2.1715  1.2714 -0.3111
 7176SOL    HW233165   2.289   0.566   3.127  0.9911 -0.8263 -0.0808
 7177SOL     OW33166   1.354   2.366   5.987  0.6982 -0.1170  0.1041
 7177SOL    HW133167   1.280   2.395   6.041  3.1594  1.6973  2.4635
 7177SOL    HW233168   1.345   2.271   5.997 -1.1381  0.1645  1.2332
 7178SOL     OW33169   1.396   2.449   6.470 -0.3582  0.1910 -1.2098
 7178SOL    HW133170   1.348   2.532   6.461 -1.8417 -0.7394 -2.0289
 7178SOL    HW233171   1.337   2.400   6.527  1.5141 -2.0809 -1.2457
 7179SOL     OW33172   3.785   0.801  14.040  0.6501  0.0070  0.2106
 7179SOL    HW133173   3.765   0.892  14.018  0.5540 -1.1704 -4.5759
 7179SOL    HW233174   3.755   0.789  14.130 -0.5286 -0.0641 -0.1816
 7180SOL     OW33175   0.245   3.585  10.147  0.0373 -0.7484 -0.8051
 7180SOL    HW133176   0.168   3.599  10.202 -0.4192  0.0132 -1.6354
 7180SOL    HW233177   0.239   3.666  10.096  3.6372 -0.2044 -0.3492
 7181SOL     OW33178   0.473   3.385   7.602  0.4161  0.7702  1.0786
 7181SOL    HW133179   0.527   3.337   7.540 -1.7242 -1.2742  0.8191
 7181SOL    HW233180   0.518   3.382   7.687  0.2734  1.2542  1.1753
 7182SOL     OW33181   3.086   4.101   5.127  0.4391 -0.0244  0.1777
 7182SOL    HW133182   3.033   4.021   5.125  2.7830 -1.5694  0.3826
 7182SOL    HW233183   3.042   4.163   5.069  0.6410 -0.1683 -0.1280
 7183SOL     OW33184   3.884   2.290   7.241  0.4832  0.4975 -0.7999
 7183SOL    HW133185   3.917   2.216   7.293 -0.0398  0.5079 -0.4556
 7183SOL    HW233186   3.926   2.361   7.289  1.2712 -1.4222  1.3964
 7184SOL     OW33187   0.055   4.488  10.019 -0.2821  0.3696  0.2314
 7184SOL    HW133188   0.145   4.517  10.000 -0.7976  1.2391 -0.9207
 7184SOL    HW233189   0.033   4.559  10.078  2.0272  1.1041  0.2202
 7185SOL     OW33190   1.476   3.070   7.818 -0.4519 -0.2207  0.0767
 7185SOL    HW133191   1.431   3.027   7.745  0.1556 -0.0526 -0.4004
 7185SOL    HW233192   1.413   3.077   7.889  0.8090  0.2677  1.1439
 7186SOL     OW33193   2.590   0.121   8.104  0.1971 -0.1125 -0.5046
 7186SOL    HW133194   2.549   0.207   8.112  0.2661 -0.0980 -0.2965
 7186SOL    HW233195   2.552   0.101   8.019  1.1749 -0.3717 -0.8817
 7187SOL     OW33196   0.736   1.631   4.389 -0.2112 -0.0215  0.2117
 7187SOL    HW133197   0.734   1.721   4.356  0.9599 -0.1764 -0.2840
 7187SOL    HW233198   0.807   1.599   4.333 -1.0893  1.6422 -1.8548
 7188SOL     OW33199   3.410   4.275  10.790  0.0814 -0.2890  0.7272
 7188SOL    HW133200   3.391   4.235  10.875 -0.2780 -1.8354 -0.0794
 7188SOL    HW233201   3.383   4.367  10.801 -0.8083 -0.7295  2.2714
 7189SOL     OW33202   1.539   3.103   2.023 -0.2569 -0.6487  0.3080
 7189SOL    HW133203   1.622   3.129   2.063 -0.3435 -0.8073  0.5845
 7189SOL    HW233204   1.491   3.185   2.035  3.0917  1.5575 -1.1607
 7190SOL     OW33205   2.079   4.195  12.932  0.2347  0.4741 -0.0004
 7190SOL    HW133206   2.034   4.275  12.907 -1.5104 -1.5635 -3.2961
 7190SOL    HW233207   2.126   4.221  13.011  0.0215 -0.0850  0.3122
 7191SOL     OW33208   4.081   4.720   2.823 -0.3721  0.1276  0.0151
 7191SOL    HW133209   4.062   4.635   2.864  0.7180  0.2506  0.7871
 7191SOL    HW233210   3.995   0.026   2.816 -0.9026 -1.0896 -0.6082
 7192SOL     OW33211   3.739   1.682   2.721 -0.3942 -0.4588 -0.1285
 7192SOL    HW133212   3.831   1.658   2.718 -0.6310 -1.5160  1.0650
 7192SOL    HW233213   3.730   1.683   2.626 -1.8002 -0.3339  0.0027
 7193SOL     OW33214   1.178   3.765   5.390  0.4907  0.2535 -0.5077
 7193SOL    HW133215   1.268   3.759   5.421  0.9721 -1.1812 -2.1908
 7193SOL    HW233216   1.186   3.727   5.302  2.2686 -0.2724 -0.1151
 7194SOL     OW33217   2.084   2.727   0.602  0.0369 -0.1506 -0.6163
 7194SOL    HW133218   2.117   2.793   0.662 -0.1154 -0.2964 -0.3731
 7194SOL    HW233219   2.078   2.761   0.512  4.3097  0.7980 -0.5342
 7195SOL     OW33220   2.400   2.106  11.899  0.2181 -0.4640  0.2049
 7195SOL    HW133221   2.389   2.087  11.806  1.4343 -0.1355 -0.0039
 7195SOL    HW233222   2.472   2.170  11.896  0.2725 -0.4978  0.7073
 7196SOL     OW33223   4.153   4.405   1.545  0.5799 -0.4263 -0.4139
 7196SOL    HW133224   4.192   4.376   1.463  0.2113  0.4022 -0.8871
 7196SOL    HW233225   4.142   4.497   1.521 -1.3396 -1.1466 -2.2853
 7197SOL     OW33226   3.083   3.000  13.721 -0.0674 -0.3442 -0.3085
 7197SOL    HW133227   3.159   3.055  13.701 -2.6641  3.0080 -0.7923
 7197SOL    HW233228   3.009   3.058  13.706  1.4958  1.4427 -1.1591
 7198SOL     OW33229   4.106   3.739   1.841 -0.0849 -0.1510 -0.3322
 7198SOL    HW133230   4.188   3.748   1.793 -0.3652  3.7880 -0.0704
 7198SOL    HW233231   4.130   3.694   1.922 -0.8025 -2.0081 -1.1475
 7199SOL     OW33232   2.338   3.370   6.783  0.2474  0.0984 -0.5073
 7199SOL    HW133233   2.414   3.334   6.830 -0.2062  0.1623  0.2790
 7199SOL    HW233234   2.285   3.293   6.760 -0.9280  0.6334  0.3992
 7200SOL     OW33235   4.543   2.505   5.596 -0.9883  0.3329 -0.0422
 7200SOL    HW133236   4.619   2.449   5.580 -1.9110 -1.3712  1.6188
 7200SOL    HW233237   4.581   2.592   5.607 -2.0254  0.9239 -1.2244
 7201SOL     OW33238   1.690   0.764   7.733 -0.0131 -0.3345 -0.3100
 7201SOL    HW133239   1.786   0.760   7.732 -0.0317 -0.7555 -1.2310
 7201SOL    HW233240   1.673   0.851   7.697  1.2160 -0.4391 -1.1367
 7202SOL     OW33241   3.951   1.229   3.306 -0.7501 -0.0728 -0.0611
 7202SOL    HW133242   4.033   1.198   3.343 -0.6366 -0.9404 -1.0398
 7202SOL    HW233243   3.919   1.151   3.260 -0.3987  1.2216 -2.5302
 7203SOL     OW33244   1.404   0.938   2.494  0.3978  0.5941  0.1130
 7203SOL    HW133245   1.473   0.993   2.531  1.8981  0.3163 -2.2619
 7203SOL    HW233246   1.419   0.860   2.548  0.3554  1.3888  1.2482
 7204SOL     OW33247   3.920   1.954   4.943  0.6052  0.0238  0.6288
 7204SOL    HW133248   3.939   1.891   5.013  0.2343 -0.7846 -0.0014
 7204SOL    HW233249   3.848   1.921   4.889  2.6554 -0.4959 -1.7374
 7205SOL     OW33250   3.326   1.501   6.593  0.0671 -0.3723  0.0995
 7205SOL    HW133251   3.368   1.449   6.525  0.0286  0.0906 -0.2825
 7205SOL    HW233252   3.355   1.449   6.667  0.0725  1.5609  1.4665
 7206SOL     OW33253   3.248   0.944   5.620  0.4651  0.1980  0.1716
 7206SOL    HW133254   3.268   0.901   5.704  0.1458 -0.0683  0.1065
 7206SOL    HW233255   3.186   1.011   5.649 -0.8538 -0.3027 -1.5527
 7207SOL     OW33256   1.855   1.312   4.493  0.4710 -0.5410 -0.6296
 7207SOL    HW133257   1.906   1.237   4.523  2.1971  0.4821 -1.0113
 7207SOL    HW233258   1.905   1.390   4.519  0.1209 -1.7410  3.6068
 7208SOL     OW33259   3.156   2.294   1.533  0.4687  0.0365  0.6054
 7208SOL    HW133260   3.243   2.320   1.502  0.2099  0.3163  0.1106
 7208SOL    HW233261   3.132   2.363   1.595  1.8269  0.1375  1.0128
 7209SOL     OW33262   2.412   0.804   7.475 -0.0477 -0.8256  0.1282
 7209SOL    HW133263   2.419   0.771   7.564 -0.2523 -2.3001 -0.3901
 7209SOL    HW233264   2.420   0.899   7.482 -2.8153 -0.7148  1.9321
 7210SOL     OW33265   4.092   4.408  11.822  0.0495 -0.4946  0.1758
 7210SOL    HW133266   4.065   4.345  11.889 -0.9028  0.1106  0.3627
 7210SOL    HW233267   4.082   4.482  11.882  0.4507 -0.8246  0.6486
 7211SOL     OW33268   4.028   2.501   7.899  0.4686 -0.0869 -0.0030
 7211SOL    HW133269   4.025   2.586   7.854 -1.1030  1.3507  2.7992
 7211SOL    HW233270   4.014   2.452   7.818 -1.9832  0.2091  0.2386
 7212SOL     OW33271   4.317   0.353   3.213  0.9961  0.3891 -0.3357
 7212SOL    HW133272   4.342   0.445   3.210  2.7957 -0.1100 -0.4044
 7212SOL    HW233273   4.224   0.361   3.238  0.8330  1.4525 -1.2957
 7213SOL     OW33274   3.703   1.700  17.643  0.3596  0.2079  0.2079
 7213SOL    HW133275   3.763   1.633  17.675 -0.8400 -0.3533  1.2773
 7213SOL    HW233276   3.617   1.661  17.657  0.5089  0.0604  0.7076
 7214SOL     OW33277   3.418   2.803   2.871  0.2146 -0.5029  0.2520
 7214SOL    HW133278   3.477   2.850   2.931  0.9147  0.8846 -1.5186
 7214SOL    HW233279   3.456   2.847   2.795  1.7474 -1.1764  0.6364
 7215SOL     OW33280   3.349   2.399   5.241  0.4815  0.2219 -0.1636
 7215SOL    HW133281   3.327   2.339   5.313 -0.2751 -0.6189 -1.0955
 7215SOL    HW233282   3.285   2.378   5.172  1.1135 -1.5747 -0.2002
 7216SOL     OW33283   4.364   2.043   1.694 -0.0202 -0.2711  0.3737
 7216SOL    HW133284   4.296   1.989   1.654 -1.1053  0.7210  0.8796
 7216SOL    HW233285   4.435   2.040   1.630 -1.5749 -1.2939 -1.3198
 7217SOL     OW33286   2.672   0.788   1.310 -0.4058  0.2979  0.4756
 7217SOL    HW133287   2.656   0.826   1.223  1.8328 -0.8688 -0.4363
 7217SOL    HW233288   2.691   0.872   1.352 -0.0849  1.3460 -1.7675
 7218SOL     OW33289   0.804   3.638   8.353  0.0771 -0.0961  0.3869
 7218SOL    HW133290   0.843   3.586   8.283 -1.0704 -0.0249 -0.3100
 7218SOL    HW233291   0.857   3.718   8.353 -0.1085  0.0266  0.3317
 7219SOL     OW33292   2.651   0.078   8.736 -0.5412 -0.2176  0.7449
 7219SOL    HW133293   2.695   0.163   8.729  0.2087 -0.8428 -2.1515
 7219SOL    HW233294   2.570   0.094   8.688 -0.1286  1.9013  0.7420
 7220SOL     OW33295   4.586   4.333   2.583  0.0222 -0.5250 -0.0761
 7220SOL    HW133296   4.516   4.381   2.539  1.2852  0.8451 -0.5993
 7220SOL    HW233297   4.553   4.244   2.588 -0.7671 -0.3381 -2.0090
 7221SOL     OW33298   3.510   2.164   7.752  0.5026 -0.5163 -0.6169
 7221SOL    HW133299   3.547   2.244   7.714 -2.5341  1.1225 -0.2002
 7221SOL    HW233300   3.540   2.093   7.696 -3.1206 -1.0106 -1.9697
 7222SOL     OW33301   3.845   0.399   5.032  0.0844 -0.4575 -0.4371
 7222SOL    HW133302   3.794   0.422   5.110  0.2268 -1.3904 -0.0698
 7222SOL    HW233303   3.902   0.476   5.030 -0.0102 -0.2827  2.9033
 7223SOL     OW33304   4.554   4.153   7.857  0.0001 -0.2512  0.5986
 7223SOL    HW133305   4.464   4.128   7.874 -0.1756 -0.2380 -0.3285
 7223SOL    HW233306   4.599   4.160   7.942  0.5357  1.5414  0.1659
 7224SOL     OW33307   4.234   0.372  17.297 -0.1520 -0.4092 -0.1871
 7224SOL    HW133308   4.285   0.291  17.296  1.4925  0.6389 -0.5998
 7224SOL    HW233309   4.293   0.426  17.350  2.1012 -2.6575 -0.3883
 7225SOL     OW33310   2.980   3.884   8.018 -0.4493 -0.3898  0.0221
 7225SOL    HW133311   2.895   3.840   8.022 -0.7162  0.2424  1.2981
 7225SOL    HW233312   2.986   3.907   7.925  1.3869  0.1145  0.2604
 7226SOL     OW33313   2.825   2.653   8.988 -0.0158 -0.1322  0.1930
 7226SOL    HW133314   2.882   2.671   8.914 -0.4432  4.5186  1.0296
 7226SOL    HW233315   2.880   2.590   9.036 -0.1541 -1.6252 -1.6078
 7227SOL     OW33316   0.408   3.036   0.408 -0.4122  0.0826  0.4619
 7227SOL    HW133317   0.408   2.943   0.428 -2.1562 -0.0045  0.1015
 7227SOL    HW233318   0.395   3.074   0.495 -2.0281 -0.6252  0.5347
 7228SOL     OW33319   3.151   1.622   5.426 -0.6029 -0.3107 -0.3101
 7228SOL    HW133320   3.182   1.543   5.472 -0.8329 -0.6375 -0.7225
 7228SOL    HW233321   3.190   1.693   5.478 -1.9381  0.0956  0.1329
 7229SOL     OW33322   0.857   1.518  14.277 -0.8532 -0.3392  0.1126
 7229SOL    HW133323   0.864   1.449  14.344  1.9852 -0.5617 -0.4251
 7229SOL    HW233324   0.801   1.579  14.325 -1.3499 -0.7972  0.1085
 7230SOL     OW33325   1.927   4.693   3.662 -0.1054  0.4050 -0.0591
 7230SOL    HW133326   1.871   0.034   3.677  1.0149  1.1782  0.2041
 7230SOL    HW233327   1.890   4.633   3.726 -3.3120  1.9735 -0.4617
 7231SOL     OW33328   2.680   2.316   4.059 -0.0570 -0.9498 -0.2067
 7231SOL    HW133329   2.763   2.272   4.039 -0.7235 -1.9012 -0.9083
 7231SOL    HW233330   2.663   2.339   3.968  2.6597 -1.7551 -0.9140
 7232SOL     OW33331   4.619   2.253   8.166  0.1149 -0.3186 -0.7646
 7232SOL    HW133332   4.699   2.201   8.152  0.8541  0.5349  0.2614
 7232SOL    HW233333   4.623   2.267   8.261  0.3440 -2.6213 -0.4310
 7233SOL     OW33334   0.992   3.771  11.016  0.4846 -0.0602 -0.0549
 7233SOL    HW133335   1.009   3.754  11.108  0.2468  1.4597  0.2705
 7233SOL    HW233336   0.937   3.850  11.014 -0.6916 -0.9135 -0.9921
 7234SOL     OW33337   2.004   1.467   9.166  0.0905  0.3988  0.0975
 7234SOL    HW133338   2.017   1.402   9.097  0.7938  1.6307 -0.9264
 7234SOL    HW233339   2.046   1.423   9.240  0.6715 -0.3625 -0.6839
 7235SOL     OW33340   3.470   0.852   7.409 -0.0838 -0.0664  0.5397
 7235SOL    HW133341   3.430   0.804   7.481  0.9129 -1.4969  0.1383
 7235SOL    HW233342   3.499   0.787   7.345  0.8349  0.8022  0.0662
 7236SOL     OW33343   0.074   2.066   1.157  0.0983  0.4912 -0.2821
 7236SOL    HW133344   0.105   2.037   1.071  1.3397  1.0796 -0.0368
 7236SOL    HW233345   0.068   1.982   1.203 -1.0911 -1.3411 -3.8281
 7237SOL     OW33346   2.846   2.461  13.123 -0.7232 -0.2076 -0.4146
 7237SOL    HW133347   2.847   2.366  13.113  1.9641 -0.0711 -1.4847
 7237SOL    HW233348   2.821   2.469  13.215  1.6723 -0.3541  0.2694
 7238SOL     OW33349   4.291   1.521   7.311  0.0862 -0.1972  0.0242
 7238SOL    HW133350   4.342   1.442   7.293  1.2152  0.6695 -0.5584
 7238SOL    HW233351   4.260   1.505   7.401 -0.3051 -1.0886 -0.2700
 7239SOL     OW33352   2.261   2.841  11.844 -0.1295 -0.0043 -0.0426
 7239SOL    HW133353   2.330   2.895  11.807  1.0040 -0.0579  2.0239
 7239SOL    HW233354   2.228   2.795  11.766 -0.0624 -0.4043  0.1673
 7240SOL     OW33355   4.306   1.960   8.904 -0.0500  0.1280 -0.0148
 7240SOL    HW133356   4.308   1.945   8.809 -1.5074 -2.7907  0.4054
 7240SOL    HW233357   4.362   2.037   8.898  1.4327 -0.7544  2.4746
 7241SOL     OW33358   2.078   2.068  15.682  0.2820  0.1635 -0.2893
 7241SOL    HW133359   2.020   2.042  15.753 -0.8040 -2.5814 -2.1615
 7241SOL    HW233360   2.131   1.991  15.662  2.0576  1.6061 -1.1158
 7242SOL     OW33361   3.770   4.100   1.768 -0.1441  0.0073  0.3383
 7242SOL    HW133362   3.813   4.046   1.834 -0.3985 -0.6263 -0.0107
 7242SOL    HW233363   3.763   4.043   1.692  0.3587 -1.6008  1.4983
 7243SOL     OW33364   4.245   4.198   1.366  0.2872 -0.1954 -0.3987
 7243SOL    HW133365   4.268   4.160   1.450  0.5534  2.5150  0.7612
 7243SOL    HW233366   4.192   4.124   1.336  0.0922 -0.3523  0.3279
 7244SOL     OW33367   1.740   3.921   6.032 -0.3694  0.1898 -0.0481
 7244SOL    HW133368   1.711   4.012   6.036  0.3784  0.5154 -2.1347
 7244SOL    HW233369   1.778   3.920   5.945 -1.9315 -0.1756 -0.7244
 7245SOL     OW33370   0.774   1.150  10.105 -0.2780 -0.0800 -0.0144
 7245SOL    HW133371   0.852   1.106  10.139  0.0413  0.5203  0.0317
 7245SOL    HW233372   0.733   1.181  10.186  0.3029  1.0302 -0.1432
 7246SOL     OW33373   0.801   1.096   8.630 -0.0215  0.2870  0.1257
 7246SOL    HW133374   0.772   1.116   8.719  1.1319 -0.1483  0.5990
 7246SOL    HW233375   0.876   1.154   8.620  0.8070 -0.5318  1.5170
 7247SOL     OW33376   2.988   3.319   4.616  0.2234 -0.1696 -0.1480
 7247SOL    HW133377   3.066   3.355   4.573 -0.2554  0.9196 -0.1207
 7247SOL    HW233378   2.979   3.242   4.561 -0.3520 -0.1601 -0.0662
 7248SOL     OW33379   0.411   2.225   9.765 -0.3889 -0.1023  0.1640
 7248SOL    HW133380   0.481   2.195   9.823 -0.4085 -1.1306 -0.3337
 7248SOL    HW233381   0.353   2.149   9.757 -0.4655 -0.1116  0.8319
 7249SOL     OW33382   2.517   3.266   6.962  0.2675  0.2282  0.0516
 7249SOL    HW133383   2.481   3.256   7.050  2.2632  2.1444  1.0730
 7249SOL    HW233384   2.611   3.280   6.976  0.3234  0.5300 -0.6320
 7250SOL     OW33385   3.906   0.499   4.658 -0.4687 -0.1827 -0.4111
 7250SOL    HW133386   3.838   0.564   4.676  1.0046  1.1191  0.4567
 7250SOL    HW233387   3.906   0.488   4.563 -0.7994 -0.6553 -0.3562
 7251SOL     OW33388   0.809   4.678   4.927 -0.3565  0.2754 -0.6941
 7251SOL    HW133389   0.857   0.010   4.878 -2.0133  1.2555 -0.9523
 7251SOL    HW233390   0.745   0.004   4.962 -1.1572  0.1913 -2.0163
 7252SOL     OW33391   2.942   1.456  12.841  0.0322 -0.0107 -0.0442
 7252SOL    HW133392   2.889   1.385  12.804  0.3430  0.2726 -1.0425
 7252SOL    HW233393   2.986   1.469  12.757  0.4175 -1.5939 -0.0956
 7253SOL     OW33394   0.282   4.153   2.462 -0.1862 -0.3181  0.0882
 7253SOL    HW133395   0.247   4.208   2.532 -1.7629 -0.9837 -0.1762
 7253SOL    HW233396   0.374   4.149   2.486 -0.2584  0.8721  0.5524
 7254SOL     OW33397   4.626   2.069  11.437 -0.1329 -0.4628 -0.3850
 7254SOL    HW133398   4.629   1.976  11.461 -0.4226 -0.7410 -1.4700
 7254SOL    HW233399   4.671   2.113  11.510  0.2461 -0.9522 -0.3154
 7255SOL     OW33400   3.201   1.348   6.248 -0.2335 -0.2869  0.1078
 7255SOL    HW133401   3.124   1.344   6.304 -0.1931 -0.6018  0.1391
 7255SOL    HW233402   3.180   1.431   6.205 -0.5895 -0.3894  0.0876
 7256SOL     OW33403   3.625   2.673   5.228  0.2847  0.4144 -0.3334
 7256SOL    HW133404   3.690   2.625   5.280 -0.9358 -0.9846 -0.0917
 7256SOL    HW233405   3.672   2.751   5.197 -0.0938  0.8175  0.1048
 7257SOL     OW33406   3.318   0.104   8.851 -0.1139 -0.5581  0.1633
 7257SOL    HW133407   3.223   0.113   8.843 -0.0522  0.9486  0.9704
 7257SOL    HW233408   3.320   0.087   8.945  0.3275  2.8228  0.7952
 7258SOL     OW33409   2.214   1.199  12.520 -0.4035 -0.5846  0.2074
 7258SOL    HW133410   2.159   1.249  12.581  0.9748  1.9414 -0.6380
 7258SOL    HW233411   2.203   1.111  12.554  0.3082  0.6101  3.5061
 7259SOL     OW33412   2.263   3.812   4.077 -0.6153  0.1261 -0.4975
 7259SOL    HW133413   2.345   3.849   4.108  0.4965 -0.9528 -2.1395
 7259SOL    HW233414   2.280   3.718   4.075  0.2695  0.2685  0.6470
 7260SOL     OW33415   4.118   4.438   5.495  0.6116  0.7205 -0.2157
 7260SOL    HW133416   4.080   4.375   5.433  2.9990 -0.2303 -0.7026
 7260SOL    HW233417   4.152   4.385   5.567 -3.6729  1.1455  2.1026
 7261SOL     OW33418   3.662   2.457   5.542 -0.1688 -0.3354 -0.2711
 7261SOL    HW133419   3.575   2.473   5.506  0.2109  0.3337 -0.8822
 7261SOL    HW233420   3.684   2.368   5.515  1.8035  0.1527 -0.2596
 7262SOL     OW33421   2.732   3.073   5.117  0.0599 -0.2405 -1.0758
 7262SOL    HW133422   2.813   3.028   5.093  0.3286 -0.1114 -0.3923
 7262SOL    HW233423   2.737   3.157   5.072 -0.5941  0.9774  1.1323
 7263SOL     OW33424   1.190   1.298  11.078  0.1377  0.3106  0.4102
 7263SOL    HW133425   1.169   1.226  11.018 -2.2226  2.3197 -1.2095
 7263SOL    HW233426   1.130   1.361  11.038  0.6014  1.1156  0.9873
 7264SOL     OW33427   1.946   4.520   9.190  0.8668  0.4121  0.5420
 7264SOL    HW133428   1.939   4.598   9.244 -0.8040  1.5879 -1.3333
 7264SOL    HW233429   1.952   4.449   9.254 -1.2076 -1.2342 -1.0576
 7265SOL     OW33430   2.419   4.049   5.296 -0.2520 -0.3039  0.0929
 7265SOL    HW133431   2.489   4.101   5.336  1.6222 -3.0213  0.4106
 7265SOL    HW233432   2.343   4.079   5.345 -0.7127 -0.9566 -0.2342
 7266SOL     OW33433   1.711   3.490   3.710  0.3217 -0.7085 -0.9664
 7266SOL    HW133434   1.640   3.497   3.647  0.1769 -2.3398 -0.9850
 7266SOL    HW233435   1.712   3.397   3.732 -1.2138 -0.9270 -1.8224
 7267SOL     OW33436   1.958   4.512   1.520 -0.1480  0.4726 -0.3487
 7267SOL    HW133437   2.003   4.428   1.514 -0.6220  0.0656  1.7522
 7267SOL    HW233438   1.977   4.555   1.437 -2.5685  2.5653  0.1614
 7268SOL     OW33439   2.407   3.834  13.684  0.5851 -0.2864  0.0723
 7268SOL    HW133440   2.500   3.820  13.703  0.8597  0.7533 -0.4844
 7268SOL    HW233441   2.394   3.796  13.597 -1.1494  1.7388 -0.5422
 7269SOL     OW33442   2.007   3.603   0.029 -0.1168 -0.1561 -0.3119
 7269SOL    HW133443   2.023   3.676  17.709  1.6461 -0.8748 -0.6971
 7269SOL    HW233444   2.088   3.554   0.018  0.4660  0.8072 -0.2756
 7270SOL     OW33445   3.409   1.018   3.506 -0.1971 -0.0012 -0.3564
 7270SOL    HW133446   3.497   1.053   3.520 -0.9744  2.0721 -0.7479
 7270SOL    HW233447   3.367   1.100   3.481  3.6368  2.4793  1.4681
 7271SOL     OW33448   3.189   3.121  10.759 -0.1130  0.2808 -0.2622
 7271SOL    HW133449   3.206   3.173  10.838 -0.8626  1.6873 -1.0380
 7271SOL    HW233450   3.269   3.140  10.710  0.6215  0.1182  0.8618
 7272SOL     OW33451   4.088   3.612   7.729 -0.3897  0.2646  0.3567
 7272SOL    HW133452   4.104   3.663   7.650  0.6407  0.4394  0.6782
 7272SOL    HW233453   4.015   3.558   7.699  1.2884 -1.9109  0.2184
 7273SOL     OW33454   3.839   0.542   3.099  0.3145  0.0616 -0.4328
 7273SOL    HW133455   3.764   0.482   3.098  0.6286 -0.3353 -0.2909
 7273SOL    HW233456   3.819   0.603   3.028  0.1377 -0.9631 -1.2752
 7274SOL     OW33457   2.037   0.908   2.681 -0.1220  0.3595 -0.1597
 7274SOL    HW133458   2.086   0.861   2.614 -2.0149  0.0041 -1.3158
 7274SOL    HW233459   2.086   0.883   2.759 -1.1645  1.0581  0.7284
 7275SOL     OW33460   2.108   1.902  12.267 -0.1589  0.4719  0.0249
 7275SOL    HW133461   2.124   1.858  12.184  0.1451  0.3545  0.1451
 7275SOL    HW233462   2.144   1.990  12.263  1.0034  0.0159  0.3665
 7276SOL     OW33463   1.123   3.711   5.123 -0.7069  0.3937  0.3289
 7276SOL    HW133464   1.055   3.651   5.092 -1.0673  1.5253 -1.0827
 7276SOL    HW233465   1.118   3.793   5.074 -1.7517 -0.5359 -1.1188
 7277SOL     OW33466   4.685   3.607  14.173 -0.2207 -0.0038 -0.3395
 7277SOL    HW133467   4.702   3.632  14.264 -3.3128 -1.0720  0.5007
 7277SOL    HW233468   0.040   3.593  14.145  0.4636  1.2800  1.2288
 7278SOL     OW33469   4.314   2.746   4.255 -0.5283  0.2218  0.6920
 7278SOL    HW133470   4.320   2.734   4.160  1.3075 -1.9809  1.0608
 7278SOL    HW233471   4.297   2.656   4.283  1.4592 -0.1215  0.8154
 7279SOL     OW33472   2.349   1.166   6.026  0.1976  0.2633 -0.6119
 7279SOL    HW133473   2.258   1.175   6.056  1.0646  3.0696  1.2162
 7279SOL    HW233474   2.399   1.178   6.107  2.8808 -2.9892 -1.8035
 7280SOL     OW33475   4.399   3.331   2.546  0.4432  0.4171 -0.1848
 7280SOL    HW133476   4.402   3.362   2.456 -2.9691  0.2207 -0.3849
 7280SOL    HW233477   4.303   3.333   2.554  0.6421  0.6406  2.3541
 7281SOL     OW33478   0.776   3.256   5.041  0.0043  0.5968 -0.0476
 7281SOL    HW133479   0.859   3.302   5.034  0.7256 -0.9308 -1.3904
 7281SOL    HW233480   0.741   3.308   5.113 -0.5412  1.5219 -0.9726
 7282SOL     OW33481   3.957   0.926   4.725 -0.1137  0.0692  0.1841
 7282SOL    HW133482   3.973   0.940   4.632 -1.0972  0.0797  0.0144
 7282SOL    HW233483   3.973   1.013   4.762  2.0264  0.6905 -2.1747
 7283SOL     OW33484   0.430   1.130   5.192  0.6792  0.0573  0.5586
 7283SOL    HW133485   0.345   1.088   5.180  0.0009  1.6327 -0.0844
 7283SOL    HW233486   0.479   1.062   5.147  2.3643  2.1319 -0.7532
 7284SOL     OW33487   2.482   3.292   2.729 -0.0323  0.7446 -0.0873
 7284SOL    HW133488   2.498   3.371   2.779 -1.6654  0.9922  0.0534
 7284SOL    HW233489   2.389   3.282   2.752  0.0264  1.4416  0.4548
 7285SOL     OW33490   3.737   1.006   5.877 -0.5573 -0.4676  0.4773
 7285SOL    HW133491   3.675   0.951   5.829 -0.4185 -0.1070 -0.1259
 7285SOL    HW233492   3.798   1.024   5.805  1.2283  0.0130  2.1292
 7286SOL     OW33493   3.403   2.057  16.762  0.1744  0.3035 -0.6443
 7286SOL    HW133494   3.445   2.076  16.846  0.3225 -1.9611 -0.2130
 7286SOL    HW233495   3.414   2.136  16.708  0.6530  0.7679  0.1261
 7287SOL     OW33496   1.454   3.997   5.114  0.3828  0.3878  0.3895
 7287SOL    HW133497   1.526   3.963   5.061 -1.5962 -1.6401 -1.0005
 7287SOL    HW233498   1.455   4.089   5.087 -1.0872  0.3332  0.1674
 7288SOL     OW33499   0.124   1.326   5.250  0.2344 -0.5355 -0.1297
 7288SOL    HW133500   0.134   1.321   5.155 -1.9543  1.9903 -0.4654
 7288SOL    HW233501   0.174   1.404   5.274  0.6553  0.0813 -3.0491
 7289SOL     OW33502   2.794   3.127   2.681 -0.2519 -0.4285  0.4727
 7289SOL    HW133503   2.709   3.103   2.719 -0.9039  0.9217 -0.1323
 7289SOL    HW233504   2.830   3.190   2.742 -0.4244  3.9408 -3.9853
 7290SOL     OW33505   1.321   4.587  16.081  0.3118 -0.8018  0.4363
 7290SOL    HW133506   1.366   4.645  16.020  2.3894 -1.3197  1.4809
 7290SOL    HW233507   1.391   4.560  16.141  0.9756 -0.9143 -0.3797
 7291SOL     OW33508   4.167   1.891   1.043  0.3411  0.2502  0.4380
 7291SOL    HW133509   4.221   1.850   1.111  0.1705  1.3469  1.2331
 7291SOL    HW233510   4.108   1.937   1.103  1.3796  0.3734  1.3623
 7292SOL     OW33511   0.570   4.695   9.773  0.1514 -0.3013 -0.3012
 7292SOL    HW133512   0.636   0.029   9.769  0.5149 -0.8051 -3.0365
 7292SOL    HW233513   0.525   4.718   9.692  0.0810  0.5303 -0.0235
 7293SOL     OW33514   2.066   0.335   4.402 -0.6103 -0.0293  0.0986
 7293SOL    HW133515   2.055   0.248   4.365  1.7637  0.4208 -1.6696
 7293SOL    HW233516   1.988   0.334   4.458 -0.8324  0.1806 -0.2048
 7294SOL     OW33517   2.586   2.355   3.801  0.6164  0.1910 -0.2737
 7294SOL    HW133518   2.508   2.302   3.783 -1.7726  3.1995  1.2700
 7294SOL    HW233519   2.549   2.435   3.839  2.5630  0.3275  1.3271
 7295SOL     OW33520   3.070   2.414   6.215 -0.3273  0.1576 -0.2960
 7295SOL    HW133521   3.087   2.401   6.308  1.2395  0.2683 -0.5689
 7295SOL    HW233522   2.984   2.456   6.221 -1.1341 -1.0634 -3.3674
 7296SOL     OW33523   0.709   1.889   7.025 -0.2272 -0.0853 -0.0677
 7296SOL    HW133524   0.645   1.871   7.093  0.6811  0.6538  0.9854
 7296SOL    HW233525   0.670   1.838   6.953 -1.6476  2.7296 -1.2892
 7297SOL     OW33526   0.922   3.719  15.996 -0.2356 -0.1462 -0.5651
 7297SOL    HW133527   0.976   3.740  15.921  1.0697 -1.1406  0.0947
 7297SOL    HW233528   0.847   3.778  15.985 -1.3369 -0.7037  3.6152
 7298SOL     OW33529   2.369   3.971  12.301  0.0428 -0.4524  0.2185
 7298SOL    HW133530   2.455   3.969  12.342  1.0985 -3.9527 -2.1432
 7298SOL    HW233531   2.346   4.059  12.331  0.7796 -0.4326  0.7201
 7299SOL     OW33532   2.365   3.965   3.422  0.2900 -0.5720  0.6135
 7299SOL    HW133533   2.436   4.011   3.468  2.0421 -2.3160 -0.3815
 7299SOL    HW233534   2.325   3.922   3.498  0.6717 -0.6367  0.7808
 7300SOL     OW33535   0.724   2.479   5.787  0.5262  0.3940 -0.5019
 7300SOL    HW133536   0.767   2.559   5.756  1.8316  0.1726  0.7935
 7300SOL    HW233537   0.762   2.418   5.724 -0.6842 -0.6075 -0.2591
 7301SOL     OW33538   4.670   0.148   9.498 -0.0954 -0.3338 -0.0478
 7301SOL    HW133539   4.721   0.185   9.571 -0.7011  2.1258 -0.8581
 7301SOL    HW233540   4.692   0.204   9.423 -2.7823  0.3858 -0.3165
 7302SOL     OW33541   1.318   0.923   4.777  0.1182  0.1012  0.7910
 7302SOL    HW133542   1.299   0.967   4.860 -1.0472  3.5469 -1.3005
 7302SOL    HW233543   1.370   0.847   4.803 -0.1166 -0.3188  0.0362
 7303SOL     OW33544   0.784   4.205   8.839 -0.6516 -0.1987 -0.3553
 7303SOL    HW133545   0.757   4.113   8.833  0.0821 -0.1557 -4.1102
 7303SOL    HW233546   0.871   4.209   8.801 -1.1001  0.9009 -1.2653
 7304SOL     OW33547   4.665   4.322   8.297  0.1626  0.1745 -0.0466
 7304SOL    HW133548   4.577   4.358   8.306 -0.5960 -1.8283  0.4572
 7304SOL    HW233549   4.717   4.402   8.303  2.2843 -1.2153 -0.0592
 7305SOL     OW33550   0.826   2.470   7.682  0.1556  0.5168 -0.7307
 7305SOL    HW133551   0.732   2.485   7.679  0.1175  0.5433  1.1210
 7305SOL    HW233552   0.837   2.523   7.602  0.7114 -1.2597 -1.8296
 7306SOL     OW33553   3.601   3.494  11.475  0.3324 -0.0044 -0.1473
 7306SOL    HW133554   3.567   3.568  11.525  1.8296  0.0904  0.7370
 7306SOL    HW233555   3.523   3.440  11.464 -1.3299  2.0490  1.3251
 7307SOL     OW33556   0.762   3.825   0.880 -0.2241  0.0637 -0.2093
 7307SOL    HW133557   0.704   3.758   0.844 -0.8833 -0.7749  2.4015
 7307SOL    HW233558   0.748   3.906   0.832 -2.4422 -0.8267 -1.0223
 7308SOL     OW33559   0.887   0.593   8.671  0.5995 -0.0144 -0.1369
 7308SOL    HW133560   0.911   0.685   8.661 -2.1824  0.6936 -0.2646
 7308SOL    HW233561   0.875   0.564   8.581 -1.9438  1.0598 -0.1614
 7309SOL     OW33562   3.188   0.026   5.851  0.0004 -0.5385 -0.3006
 7309SOL    HW133563   3.282   0.034   5.833  0.4218 -1.2171  1.5834
 7309SOL    HW233564   3.155   0.072   5.774 -0.1784  1.4037  0.9048
 7310SOL     OW33565   3.653   4.196   4.066  0.8855  0.2892 -0.4708
 7310SOL    HW133566   3.740   4.216   4.033  1.5445  0.1674  1.1853
 7310SOL    HW233567   3.669   4.181   4.160 -0.6899  0.5240 -0.1610
 7311SOL     OW33568   4.561   1.766   3.094  0.3015 -0.2172  0.1035
 7311SOL    HW133569   4.535   1.674   3.105 -2.4679  0.1954 -2.9225
 7311SOL    HW233570   4.503   1.790   3.022 -0.2015 -0.3275  0.4713
 7312SOL     OW33571   1.869   0.438   8.631  0.5130 -0.4840  0.1157
 7312SOL    HW133572   1.826   0.456   8.548  1.5470 -0.4714 -0.4109
 7312SOL    HW233573   1.795   0.449   8.691  0.1801  2.1932 -0.8146
 7313SOL     OW33574   1.788   2.235   6.057  0.0693  0.0249  0.1114
 7313SOL    HW133575   1.772   2.222   5.963 -1.9789  1.1202  0.3045
 7313SOL    HW233576   1.724   2.176   6.096  1.9368 -3.4582 -2.0743
 7314SOL     OW33577   4.256   1.415   8.262 -0.2190  0.0662 -0.5346
 7314SOL    HW133578   4.292   1.372   8.185 -2.7337 -1.2906 -0.9703
 7314SOL    HW233579   4.182   1.357   8.284  0.2699 -0.7024 -0.9011
 7315SOL     OW33580   1.715   4.567  10.013 -0.3389  0.4086  0.1403
 7315SOL    HW133581   1.785   4.526   9.962 -1.5140 -1.9071  0.3637
 7315SOL    HW233582   1.642   4.546   9.954  0.8765  2.0056 -1.9257
 7316SOL     OW33583   0.671   1.483   6.165  0.4356  0.7451 -0.0933
 7316SOL    HW133584   0.579   1.472   6.141  0.9615  0.7097 -2.0572
 7316SOL    HW233585   0.653   1.555   6.226  0.1088  3.9176 -3.9887
 7317SOL     OW33586   0.856   2.795   4.851 -0.7711 -0.2385  0.3639
 7317SOL    HW133587   0.947   2.805   4.825 -1.4000 -1.3805 -2.2732
 7317SOL    HW233588   0.855   2.705   4.884 -1.4714 -0.9753 -1.6837
 7318SOL     OW33589   0.240   3.429   0.551  0.0745 -0.5010  0.0861
 7318SOL    HW133590   0.204   3.517   0.542 -0.3785 -0.4980  1.7867
 7318SOL    HW233591   0.264   3.404   0.641  0.9213 -2.0686 -0.5708
 7319SOL     OW33592   4.536   4.525   1.329  0.2392  1.1067 -0.3822
 7319SOL    HW133593   4.490   4.572   1.259 -0.5968  1.1716  0.2023
 7319SOL    HW233594   4.553   4.443   1.283  0.8419  1.6039 -1.0487
 7320SOL     OW33595   3.976   1.755   2.053  0.2484 -0.0166  0.2083
 7320SOL    HW133596   3.983   1.724   2.143  1.5460 -0.2610  0.0256
 7320SOL    HW233597   4.048   1.704   2.016  0.0606 -1.0276  1.2556
 7321SOL     OW33598   1.564   2.826  12.163  0.0648  0.3134  0.6215
 7321SOL    HW133599   1.477   2.866  12.171  0.9842  2.3868  0.0920
 7321SOL    HW233600   1.616   2.899  12.131  0.0267  0.4842  0.9467
 7322SOL     OW33601   0.032   2.502   2.144 -0.2455  0.0356 -0.0070
 7322SOL    HW133602   4.694   2.465   2.193  0.2294 -1.7680 -0.6621
 7322SOL    HW233603   0.049   2.427   2.086  1.0538 -1.0105  1.7442
 7323SOL     OW33604   3.228   0.303   7.482 -0.1354  0.6122  0.6886
 7323SOL    HW133605   3.302   0.347   7.524 -0.3284  2.8078 -1.2711
 7323SOL    HW233606   3.214   0.374   7.420  2.5312  0.5868  0.0528
 7324SOL     OW33607   3.228   0.772   8.662 -0.5676  0.3452  0.7717
 7324SOL    HW133608   3.279   0.837   8.711 -0.2235  0.1334  0.6998
 7324SOL    HW233609   3.151   0.765   8.718 -1.3842 -0.7201 -0.4872
 7325SOL     OW33610   2.378   2.202   4.891  0.1030  0.4781 -0.3698
 7325SOL    HW133611   2.355   2.112   4.868 -1.9108  0.4075  1.8906
 7325SOL    HW233612   2.299   2.249   4.862  1.0788  2.2413 -0.1719
 7326SOL     OW33613   0.685   0.829  13.235 -0.2279 -0.1598  0.0546
 7326SOL    HW133614   0.621   0.805  13.302  0.6061 -3.2419 -0.2435
 7326SOL    HW233615   0.688   0.924  13.248  2.8143 -0.3486  0.8319
 7327SOL     OW33616   0.485   1.648  15.202 -0.3004  0.3597  0.3909
 7327SOL    HW133617   0.447   1.664  15.116  0.1551 -2.0714 -0.2873
 7327SOL    HW233618   0.438   1.709  15.259 -2.3923 -0.2637 -0.6516
 7328SOL     OW33619   0.119   3.569  12.337  0.0928 -0.0923  0.0024
 7328SOL    HW133620   0.200   3.613  12.311  0.5699 -0.9664  0.0121
 7328SOL    HW233621   0.116   3.600  12.428 -0.2311  0.0660 -0.0597
 7329SOL     OW33622   4.579   4.359   4.527  0.1373 -0.0703  0.0040
 7329SOL    HW133623   4.491   4.352   4.564  0.0463  0.0683 -0.1823
 7329SOL    HW233624   4.558   4.391   4.439 -1.1953 -0.5917  0.1209
 7330SOL     OW33625   4.426   4.315   1.186  0.2557 -0.4255 -0.1664
 7330SOL    HW133626   4.372   4.301   1.108 -1.7642 -0.3942  1.2267
 7330SOL    HW233627   4.373   4.281   1.258  0.1885  0.0936  0.0271
 7331SOL     OW33628   3.116   3.954   4.347  0.5358  0.8171 -0.5927
 7331SOL    HW133629   3.106   3.860   4.360  2.9744  0.1299 -3.7716
 7331SOL    HW233630   3.202   3.969   4.387 -0.0286  2.1123  0.1679
 7332SOL     OW33631   0.012   3.230   5.840 -0.6081 -0.2984 -0.1195
 7332SOL    HW133632   0.085   3.175   5.811  1.2537  1.1807  1.7108
 7332SOL    HW233633   0.001   3.292   5.768  1.0927 -0.6144 -0.6565
 7333SOL     OW33634   1.677   1.880   4.718  0.0805  0.5025  0.1501
 7333SOL    HW133635   1.628   1.943   4.770 -1.0272 -0.1780 -0.0541
 7333SOL    HW233636   1.651   1.800   4.764  0.5699  0.8566  1.0340
 7334SOL     OW33637   1.991   4.667  15.008 -0.0899 -0.6402  0.5589
 7334SOL    HW133638   1.909   4.664  14.959  0.0019  3.1819  0.1674
 7334SOL    HW233639   2.013   4.575  14.990  2.1870  0.3523 -1.7020
 7335SOL     OW33640   3.964   3.162  10.093 -0.3262 -0.4314 -0.0494
 7335SOL    HW133641   4.037   3.197  10.042  0.4416  1.1554  2.1472
 7335SOL    HW233642   3.903   3.235  10.102  1.9654  1.6747 -1.5840
 7336SOL     OW33643   0.528   3.120   0.177  0.4319 -0.1333 -0.1102
 7336SOL    HW133644   0.478   3.077   0.246  0.2248  0.7991  0.3241
 7336SOL    HW233645   0.604   3.061   0.173 -0.1256 -0.8379 -0.2981
 7337SOL     OW33646   2.308   1.260   7.260  0.0701  0.6113  0.1929
 7337SOL    HW133647   2.355   1.288   7.338 -0.9391 -0.9523  1.3537
 7337SOL    HW233648   2.233   1.212   7.295  0.4092 -0.4007 -0.4568
 7338SOL     OW33649   0.432   3.805   2.096  0.0952  0.4840 -0.5252
 7338SOL    HW133650   0.498   3.794   2.028 -1.2898 -0.2584 -1.7413
 7338SOL    HW233651   0.456   3.893   2.128  0.4202 -0.4606  1.8606
 7339SOL     OW33652   0.368   1.969   5.760 -0.3607 -0.3954 -0.3197
 7339SOL    HW133653   0.279   1.992   5.788  0.0857  0.4343  0.4065
 7339SOL    HW233654   0.370   1.887   5.811 -1.4668 -0.0237  0.3174
 7340SOL     OW33655   3.149   0.650  10.172 -0.0870 -0.3216 -0.1172
 7340SOL    HW133656   3.190   0.641  10.087  0.2991  2.1656 -0.1875
 7340SOL    HW233657   3.091   0.575  10.164 -0.1944 -0.1488 -0.9275
 7341SOL     OW33658   2.112   0.519  10.877 -0.1761 -0.4400  0.0953
 7341SOL    HW133659   2.201   0.500  10.907  1.0153  3.7543 -0.8224
 7341SOL    HW233660   2.083   0.568  10.953 -0.9996 -1.3612  0.3696
 7342SOL     OW33661   4.213   4.254   3.283  0.0630 -0.2361 -0.2703
 7342SOL    HW133662   4.254   4.338   3.258  1.1631 -0.2776  1.3596
 7342SOL    HW233663   4.279   4.193   3.250 -0.0686 -0.7380  0.4152
 7343SOL     OW33664   1.183   3.918  13.631 -0.6449  0.2395  0.5600
 7343SOL    HW133665   1.247   3.851  13.606 -0.9114  0.5759 -1.0293
 7343SOL    HW233666   1.233   3.999  13.617  0.6938 -1.0180 -1.9019
 7344SOL     OW33667   0.177   3.006  14.207 -0.5006 -0.0565  0.1795
 7344SOL    HW133668   0.273   3.005  14.204 -0.4933  2.2904 -0.0262
 7344SOL    HW233669   0.166   2.997  14.112 -1.6198  0.4152  0.2714
 7345SOL     OW33670   0.581   3.297   2.077 -0.6139  0.2184 -0.0152
 7345SOL    HW133671   0.519   3.227   2.056  0.7911 -1.4750  1.4643
 7345SOL    HW233672   0.550   3.373   2.028  0.4971 -0.1389 -1.2795
 7346SOL     OW33673   4.081   1.062   7.532  0.2160  0.1193  0.2395
 7346SOL    HW133674   4.031   1.144   7.539  1.8838  1.2882 -1.3523
 7346SOL    HW233675   4.082   1.035   7.624  1.3991 -0.5434  0.0285
 7347SOL     OW33676   4.702   2.707   7.118  0.3102  0.3783 -0.6867
 7347SOL    HW133677   4.696   2.678   7.026 -1.2061 -1.7084  0.0577
 7347SOL    HW233678   4.657   2.632   7.156 -1.8923  1.2823 -1.4941
 7348SOL     OW33679   0.458   2.320  14.368  0.0911 -0.1961  0.0842
 7348SOL    HW133680   0.448   2.235  14.410 -0.2279  0.3854  1.1845
 7348SOL    HW233681   0.550   2.336  14.389  0.2340 -1.0596  0.1128
 7349SOL     OW33682   4.615   3.776  14.792  0.0083  0.2018  0.3179
 7349SOL    HW133683   4.550   3.835  14.755  0.2869 -0.4335 -1.1720
 7349SOL    HW233684   4.566   3.702  14.829 -0.9619 -0.3103 -2.0312
 7350SOL     OW33685   2.143   3.518  10.872  0.1021 -0.2814  0.2550
 7350SOL    HW133686   2.071   3.509  10.809 -0.1570  2.4698  0.1705
 7350SOL    HW233687   2.201   3.562  10.811  0.3097 -1.9267 -0.7415
 7351SOL     OW33688   3.440   4.654   6.547  0.3961 -0.5879 -0.3870
 7351SOL    HW133689   3.469   0.000   6.506 -1.9633 -0.0484 -1.0111
 7351SOL    HW233690   3.348   4.670   6.567  1.3056  0.2441  3.0586
 7352SOL     OW33691   0.988   1.213   5.777  0.3847 -0.0898  0.1748
 7352SOL    HW133692   0.975   1.173   5.691  0.6650  0.5220 -0.1505
 7352SOL    HW233693   1.022   1.135   5.822 -0.4074  0.4616  1.7382
 7353SOL     OW33694   3.651   0.835   3.950 -0.0376  0.1107  0.0935
 7353SOL    HW133695   3.611   0.751   3.972  1.6629 -0.9570 -0.8989
 7353SOL    HW233696   3.581   0.900   3.954  0.9929  1.1041  2.0340
 7354SOL     OW33697   4.383   4.552   2.958 -0.5721  0.4303  0.0637
 7354SOL    HW133698   4.458   4.532   2.901  0.7356 -2.1290  2.6868
 7354SOL    HW233699   4.369   4.639   2.920  1.6454 -0.1681 -2.1673
 7355SOL     OW33700   0.805   2.163  15.742 -1.0216  0.3288  0.9704
 7355SOL    HW133701   0.780   2.140  15.652 -2.4144  0.8981  1.2196
 7355SOL    HW233702   0.755   2.242  15.761  1.1947  1.8509  0.3893
 7356SOL     OW33703   4.700   0.913   5.348  0.2096  0.2297  0.5752
 7356SOL    HW133704   0.053   0.884   5.366 -0.1647 -0.5660  1.1205
 7356SOL    HW233705   4.652   0.878   5.423 -1.1114 -0.9011 -0.7971
 7357SOL     OW33706   3.769   0.268   8.445 -0.1000 -0.1306 -0.6583
 7357SOL    HW133707   3.800   0.219   8.520 -1.3084  0.0447 -0.0517
 7357SOL    HW233708   3.843   0.329   8.438  0.5340 -0.9862 -1.4483
 7358SOL     OW33709   3.379   0.793   0.408  0.3632 -0.0703 -0.2458
 7358SOL    HW133710   3.317   0.832   0.471  1.2569  0.4716  0.2984
 7358SOL    HW233711   3.372   0.840   0.325  2.9473  1.1637  0.2195
 7359SOL     OW33712   1.065   1.215   4.894  0.1004  0.4999 -0.5217
 7359SOL    HW133713   1.043   1.302   4.860 -0.0997  0.2453 -1.0387
 7359SOL    HW233714   0.995   1.161   4.856  0.2701 -0.2617  0.2466
 7360SOL     OW33715   2.762   2.938   4.316  0.0640 -0.4367  0.1359
 7360SOL    HW133716   2.814   2.967   4.241  1.7030 -0.6204  1.2035
 7360SOL    HW233717   2.729   2.855   4.280 -2.3023  0.0017  1.3268
 7361SOL     OW33718   1.196   1.928   4.367 -0.6979 -0.0095 -0.5499
 7361SOL    HW133719   1.279   1.913   4.413 -0.6913 -1.5641 -1.0717
 7361SOL    HW233720   1.206   2.015   4.329 -1.8246  0.4392  0.1929
 7362SOL     OW33721   1.896   0.905   4.508  0.0777  0.0497  0.4757
 7362SOL    HW133722   1.953   0.829   4.495  0.1768  0.6986 -2.8054
 7362SOL    HW233723   1.956   0.979   4.518  0.2371 -0.1348  0.8977
 7363SOL     OW33724   2.488   2.054  12.150  0.2066  0.1054  0.1948
 7363SOL    HW133725   2.529   1.968  12.146 -0.5610 -0.2200 -0.8104
 7363SOL    HW233726   2.462   2.062  12.058  0.8603 -1.5491 -0.1358
 7364SOL     OW33727   1.892   0.606   4.222  0.3313 -0.1953  0.4535
 7364SOL    HW133728   1.959   0.669   4.198 -0.0242 -0.6358 -1.7471
 7364SOL    HW233729   1.847   0.600   4.137 -0.3594  1.8165  0.6859
 7365SOL     OW33730   1.606   3.549  11.212 -0.3732 -0.1178 -0.3979
 7365SOL    HW133731   1.678   3.500  11.170  0.4813  0.3293  0.5534
 7365SOL    HW233732   1.582   3.609  11.141 -0.9642 -2.7630 -2.4501
 7366SOL     OW33733   0.417   4.210   1.291  0.1437 -0.0070  0.1212
 7366SOL    HW133734   0.400   4.252   1.207  0.5116 -1.3878 -0.6324
 7366SOL    HW233735   0.347   4.145   1.299 -1.1787  1.4929  0.7588
 7367SOL     OW33736   2.575   3.757   6.445  0.5007 -0.0605  0.3545
 7367SOL    HW133737   2.546   3.674   6.482 -0.9765  0.9000  1.3755
 7367SOL    HW233738   2.671   3.755   6.441  0.4080 -0.7017 -1.3966
 7368SOL     OW33739   3.780   3.653   5.216 -0.0771 -0.1103 -0.9688
 7368SOL    HW133740   3.748   3.663   5.126 -0.0757  2.1927 -0.6996
 7368SOL    HW233741   3.853   3.714   5.212 -0.8449  0.8296 -0.5399
 7369SOL     OW33742   2.367   0.238   8.909  0.2620 -0.3520 -0.4031
 7369SOL    HW133743   2.366   0.307   8.843 -0.0826  0.3007  0.2778
 7369SOL    HW233744   2.363   0.152   8.868  0.3622 -1.1472  1.2733
 7370SOL     OW33745   1.253   2.361   9.575  0.3421 -1.0021  0.2781
 7370SOL    HW133746   1.335   2.403   9.547  0.8040  0.6620  4.0105
 7370SOL    HW233747   1.289   2.347   9.663 -1.4847 -1.2364  0.9930
 7371SOL     OW33748   0.247   0.476   7.130  0.1571 -0.1845 -0.0566
 7371SOL    HW133749   0.214   0.469   7.219  0.4754 -0.5455  0.0346
 7371SOL    HW233750   0.279   0.386   7.119 -1.3205 -1.0951  3.1228
 7372SOL     OW33751   4.196   3.462   1.364 -0.1810 -0.1277  0.3061
 7372SOL    HW133752   4.276   3.434   1.321 -0.9228  0.7436 -1.6332
 7372SOL    HW233753   4.169   3.529   1.301 -0.0791 -1.5272 -1.2176
 7373SOL     OW33754   1.799   3.335  10.212  0.1661  0.1359  0.1861
 7373SOL    HW133755   1.772   3.269  10.276 -0.9580  0.1560 -0.2706
 7373SOL    HW233756   1.744   3.297  10.143 -0.0283  1.0945 -0.1782
 7374SOL     OW33757   0.442   1.090   4.258  0.1033 -0.3440  0.2926
 7374SOL    HW133758   0.405   1.178   4.259 -0.2540 -0.4969  0.4164
 7374SOL    HW233759   0.403   1.060   4.340 -1.4032  1.2669  0.1668
 7375SOL     OW33760   4.517   4.120   4.065 -0.5170 -0.2720 -0.2293
 7375SOL    HW133761   4.525   4.046   4.006  1.7877  1.3312 -1.9433
 7375SOL    HW233762   4.501   4.071   4.146 -0.5722  0.9066  0.4729
 7376SOL     OW33763   0.872   2.944   5.155 -0.6842 -0.0255  0.9296
 7376SOL    HW133764   0.965   2.930   5.174 -0.6599 -0.9746  0.0858
 7376SOL    HW233765   0.865   3.037   5.131  2.8049  0.5647  2.2577
 7377SOL     OW33766   0.614   1.899  17.439 -0.3407  0.1739  0.2191
 7377SOL    HW133767   0.607   1.812  17.478  0.2402  0.5374  1.1256
 7377SOL    HW233768   0.681   1.948  17.487  0.4669 -0.2893 -0.4275
 7378SOL     OW33769   4.734   0.761   5.748  0.3309 -0.3758  0.6324
 7378SOL    HW133770   0.046   0.695   5.799 -1.1190 -1.7072  0.2751
 7378SOL    HW233771   0.054   0.834   5.776 -1.0895  1.0984 -0.4295
 7379SOL     OW33772   1.583   1.239   6.638 -0.0958  0.3965 -0.0778
 7379SOL    HW133773   1.617   1.197   6.559  2.5880 -0.6117  1.6611
 7379SOL    HW233774   1.488   1.252   6.626 -0.1419  0.6997  0.6576
 7380SOL     OW33775   2.054   4.557  13.126 -0.1920  0.2204 -0.2389
 7380SOL    HW133776   2.055   4.617  13.051 -1.3968 -0.6123 -0.9283
 7380SOL    HW233777   2.093   4.618  13.188 -1.1776  0.2914  0.3010
 7381SOL     OW33778   2.590   2.167   2.235 -0.3445  0.0074 -0.4276
 7381SOL    HW133779   2.516   2.206   2.187  0.1274  1.5258  0.0816
 7381SOL    HW233780   2.587   2.072   2.227  1.3631 -0.0504 -0.2314
 7382SOL     OW33781   0.315   3.143   7.667  0.2389  0.6124  0.6137
 7382SOL    HW133782   0.229   3.181   7.647  0.9357  2.1051  0.5084
 7382SOL    HW233783   0.371   3.219   7.683 -0.6434  1.1925  0.9595
 7383SOL     OW33784   3.685   0.411  10.885  0.1449  0.3275 -0.4789
 7383SOL    HW133785   3.744   0.357  10.833  1.5521 -0.1620  1.6240
 7383SOL    HW233786   3.641   0.465  10.819  0.2019  2.0363  0.8763
 7384SOL     OW33787   1.634   1.215   6.900  0.3172 -0.3424 -0.5544
 7384SOL    HW133788   1.614   1.217   6.807 -3.1570 -0.4325  0.2113
 7384SOL    HW233789   1.723   1.178   6.898  0.3249 -0.2920 -1.1392
 7385SOL     OW33790   1.980   0.750   8.789 -0.5946  0.1666 -0.0920
 7385SOL    HW133791   2.044   0.816   8.817 -0.1804 -0.4509  0.4184
 7385SOL    HW233792   1.944   0.705   8.865  0.8676 -0.6908  0.0916
 7386SOL     OW33793   1.705   2.490   7.991 -0.6801  0.4705 -0.4066
 7386SOL    HW133794   1.738   2.492   8.081  1.0721  3.1554 -1.1109
 7386SOL    HW233795   1.628   2.435   8.004 -0.2342 -0.3293 -1.1501
 7387SOL     OW33796   1.584   0.221   3.143 -0.2205 -0.4964  0.4523
 7387SOL    HW133797   1.546   0.250   3.226  1.6794 -0.4240  1.3007
 7387SOL    HW233798   1.510   0.209   3.084  0.0798 -1.6856  0.3369
 7388SOL     OW33799   4.513   1.384  13.772  0.2986 -0.0358  0.2230
 7388SOL    HW133800   4.606   1.398  13.754  0.4204  1.0520  1.6941
 7388SOL    HW233801   4.469   1.440  13.707 -0.0578 -0.9769 -0.3509
 7389SOL     OW33802   2.289   1.533  12.151  0.1592 -0.1715 -0.4112
 7389SOL    HW133803   2.293   1.461  12.213  2.1900  0.4214  0.1427
 7389SOL    HW233804   2.248   1.489  12.076  0.9431 -1.0659 -0.3103
 7390SOL     OW33805   1.541   3.009   1.442 -0.2399 -0.0437 -0.7849
 7390SOL    HW133806   1.517   3.052   1.524  2.8693 -1.5449  0.8988
 7390SOL    HW233807   1.615   2.954   1.466 -1.3055 -0.2377  2.0786
 7391SOL     OW33808   2.178   2.332   8.620  0.5173 -0.4176  0.0322
 7391SOL    HW133809   2.088   2.329   8.587  0.8922  0.3625 -1.0419
 7391SOL    HW233810   2.236   2.313   8.546  0.8979 -1.0835  0.5014
 7392SOL     OW33811   3.604   4.689  10.222  0.0657  0.6821 -0.0953
 7392SOL    HW133812   3.671   4.621  10.227 -0.3060  0.2820 -0.4919
 7392SOL    HW233813   3.564   4.687  10.309  0.0234 -1.9224 -0.1694
 7393SOL     OW33814   2.688   0.834   4.502 -0.0894 -0.8525 -0.0148
 7393SOL    HW133815   2.655   0.752   4.466  1.9516 -1.1721 -1.1577
 7393SOL    HW233816   2.623   0.850   4.570  0.4373  0.9486  0.0491
 7394SOL     OW33817   1.300   0.963  15.824 -0.2163  0.0179  0.3948
 7394SOL    HW133818   1.348   1.022  15.766  2.6474 -1.4152  1.3331
 7394SOL    HW233819   1.262   1.026  15.886 -1.0372  0.2708 -0.3574
 7395SOL     OW33820   2.749   4.284  11.375 -0.2846  0.7863 -0.2376
 7395SOL    HW133821   2.740   4.367  11.330 -1.7990  0.6444 -0.1948
 7395SOL    HW233822   2.773   4.224  11.304 -1.5474  1.6111 -1.3507
 7396SOL     OW33823   0.560   4.381   7.159 -0.1946  0.4671  0.2715
 7396SOL    HW133824   0.528   4.338   7.079  0.9705  1.6931 -0.8356
 7396SOL    HW233825   0.492   4.448   7.164 -0.9344 -0.1725 -1.1107
 7397SOL     OW33826   0.189   2.473   9.424  0.3356 -0.1622  0.4607
 7397SOL    HW133827   0.202   2.500   9.515  0.9956  0.4129  0.1931
 7397SOL    HW233828   0.232   2.387   9.428 -2.0772 -1.4165 -0.3473
 7398SOL     OW33829   4.646   3.767   4.057  0.1944  0.4028  0.0036
 7398SOL    HW133830   4.597   3.830   4.005  0.6233  1.7123  1.1928
 7398SOL    HW233831   4.571   3.738   4.108  0.7962 -0.3623  0.4639
 7399SOL     OW33832   0.374   2.998   4.487  0.1831 -0.4028  0.5354
 7399SOL    HW133833   0.438   3.016   4.555 -0.2220  0.0720  0.7900
 7399SOL    HW233834   0.408   2.917   4.450  1.6855 -0.4012  1.9350
 7400SOL     OW33835   4.611   0.258   8.296 -0.0997  0.4393  0.6140
 7400SOL    HW133836   4.561   0.206   8.359  0.8655 -0.2401  0.8137
 7400SOL    HW233837   4.542   0.306   8.252 -1.6369 -4.3276 -2.1277
 7401SOL     OW33838   2.840   1.728   8.736 -0.0844  0.4674 -0.2704
 7401SOL    HW133839   2.808   1.816   8.717  1.7654  0.8846 -1.5496
 7401SOL    HW233840   2.867   1.685   8.654 -0.4917  1.1256 -0.7438
 7402SOL     OW33841   4.591   3.594   4.536 -0.7342  0.4785  0.0380
 7402SOL    HW133842   4.672   3.644   4.526  0.3780 -1.1126  1.0513
 7402SOL    HW233843   4.534   3.645   4.595  0.4783  1.1288  0.6421
 7403SOL     OW33844   3.535   1.739  15.786  0.7303 -0.6042  0.5337
 7403SOL    HW133845   3.629   1.758  15.791  0.5503  0.7544 -1.0792
 7403SOL    HW233846   3.537   1.681  15.710 -1.8244  1.2304 -0.9173
 7404SOL     OW33847   0.110   2.818   7.660  0.4237  0.2093 -0.0515
 7404SOL    HW133848   0.048   2.885   7.688  0.3328  0.1375 -0.0823
 7404SOL    HW233849   0.076   2.784   7.577  0.6386  2.2449 -0.9758
 7405SOL     OW33850   4.578   4.579   7.965  0.0030 -0.6171 -0.1346
 7405SOL    HW133851   4.630   4.501   7.984  1.5004  0.3167 -0.4761
 7405SOL    HW233852   4.654   4.625   7.931  1.2501 -0.7903  2.4365
 7406SOL     OW33853   4.128   2.509  16.884  0.0553 -0.3967 -0.0014
 7406SOL    HW133854   4.092   2.424  16.857  0.8106 -0.6176 -0.2977
 7406SOL    HW233855   4.109   2.505  16.978  1.0746 -0.4290  0.2069
 7407SOL     OW33856   2.606   2.335   8.915 -0.3378 -0.3035  0.1092
 7407SOL    HW133857   2.674   2.299   8.971  0.3954 -0.3391 -0.8120
 7407SOL    HW233858   2.585   2.255   8.868  0.7428 -0.5217  0.0107
 7408SOL     OW33859   4.712   3.867   9.325 -0.4582  0.4849 -0.1657
 7408SOL    HW133860   4.622   3.870   9.358 -0.8378 -1.4129 -1.0757
 7408SOL    HW233861   0.024   3.800   9.374 -1.1137 -0.3322 -0.6556
 7409SOL     OW33862   0.557   4.540   8.583  0.1869  0.7372  0.0656
 7409SOL    HW133863   0.514   4.624   8.599  0.3594  0.9702 -0.6909
 7409SOL    HW233864   0.577   4.516   8.674  0.2937 -2.9221 -0.9376
 7410SOL     OW33865   1.193   0.375   1.856  0.1737 -0.6373 -0.5602
 7410SOL    HW133866   1.115   0.429   1.842 -0.0522 -1.2694 -1.8433
 7410SOL    HW233867   1.180   0.350   1.947 -1.2949 -0.6635 -0.7668
 7411SOL     OW33868   2.448   3.243  16.738 -0.7675  0.2991  0.1190
 7411SOL    HW133869   2.414   3.308  16.676 -0.7391 -1.1660 -1.4141
 7411SOL    HW233870   2.543   3.252  16.736 -0.7959  0.1043 -2.8228
 7412SOL     OW33871   4.172   1.867   1.551  0.3387 -0.3001 -0.6537
 7412SOL    HW133872   4.080   1.894   1.548  0.9703  1.9041 -0.6166
 7412SOL    HW233873   4.161   1.774   1.567 -0.8801 -0.1319 -0.5034
 7413SOL     OW33874   4.484   3.768   4.720  0.2760 -0.1425 -0.4724
 7413SOL    HW133875   4.514   3.771   4.811  1.7048 -0.9352 -0.9075
 7413SOL    HW233876   4.477   3.860   4.695 -1.6628 -0.1293  0.1451
 7414SOL     OW33877   4.248   0.744   5.088 -0.0289  0.1166 -0.0937
 7414SOL    HW133878   4.153   0.731   5.082  0.6681 -4.1728 -2.6705
 7414SOL    HW233879   4.245   0.836   5.114  0.9811 -0.0827  0.7340
 7415SOL     OW33880   1.746   0.868   2.605  0.2655  0.3456  0.1547
 7415SOL    HW133881   1.816   0.931   2.617  0.1055  0.7473 -0.9779
 7415SOL    HW233882   1.786   0.799   2.552  1.0442 -0.7657  2.2231
 7416SOL     OW33883   0.176   1.231   4.668  0.0579  0.4180  0.0709
 7416SOL    HW133884   0.106   1.297   4.661 -0.3672  0.1049  1.3643
 7416SOL    HW233885   0.241   1.291   4.705  1.5174 -0.2893 -1.3505
 7417SOL     OW33886   3.471   4.483   0.291 -0.1112 -0.5958  0.0367
 7417SOL    HW133887   3.478   4.491   0.386 -1.3813  1.3235 -0.0259
 7417SOL    HW233888   3.497   4.572   0.268 -3.2408  0.0958 -0.8115
 7418SOL     OW33889   3.094   3.613  16.226  0.6211 -0.2024 -0.1122
 7418SOL    HW133890   3.047   3.558  16.287  0.5129  0.4267  0.3672
 7418SOL    HW233891   3.064   3.701  16.246 -3.0546 -1.2808 -0.8848
 7419SOL     OW33892   2.129   2.160   2.367  0.0502 -0.1420  0.9493
 7419SOL    HW133893   2.161   2.070   2.360  1.7589  0.4883  0.5954
 7419SOL    HW233894   2.045   2.154   2.322  1.4336 -0.6103 -1.5902
 7420SOL     OW33895   0.631   1.628   9.507 -0.2183 -0.0333  0.3504
 7420SOL    HW133896   0.541   1.642   9.478 -0.2389  0.1819  0.5182
 7420SOL    HW233897   0.628   1.552   9.564  0.8814 -0.9555 -0.8271
 7421SOL     OW33898   2.118   0.870   7.070  0.5385  0.0383 -0.1097
 7421SOL    HW133899   2.098   0.794   7.016  2.2165  0.6045 -1.5685
 7421SOL    HW233900   2.030   0.906   7.073  0.8156  0.6280  0.8611
 7422SOL     OW33901   3.957   0.907   2.096  0.6991  0.9171  0.2388
 7422SOL    HW133902   3.991   0.817   2.098  1.2603  1.1806  2.5704
 7422SOL    HW233903   4.034   0.962   2.106  1.0412  0.3871  0.5463
 7423SOL     OW33904   0.525   4.475   5.696  0.4313  0.1424  0.8165
 7423SOL    HW133905   0.470   4.397   5.700  0.8570 -0.3256 -2.0323
 7423SOL    HW233906   0.458   4.537   5.666  0.0359 -0.4955  0.3825
 7424SOL     OW33907   3.590   3.141   5.810 -0.0570  0.1954  0.2704
 7424SOL    HW133908   3.502   3.145   5.847 -1.2636 -0.8504 -2.4652
 7424SOL    HW233909   3.599   3.057   5.765 -0.6798 -0.5826  1.5814
 7425SOL     OW33910   3.827   3.624   7.342  0.2981  1.0828  0.1760
 7425SOL    HW133911   3.846   3.585   7.427 -1.3285 -0.1769 -0.0315
 7425SOL    HW233912   3.905   3.676   7.327  1.4026 -1.1007 -1.6244
 7426SOL     OW33913   0.314   0.078   6.401 -0.0148 -0.0762 -0.3369
 7426SOL    HW133914   0.392   0.097   6.348  0.2046  1.1127  0.4206
 7426SOL    HW233915   0.247   0.132   6.360 -0.1585  0.8982  1.2201
 7427SOL     OW33916   2.983   1.815  13.131  0.1281  0.1763 -0.4029
 7427SOL    HW133917   2.958   1.842  13.219  1.0401 -0.2914 -0.0073
 7427SOL    HW233918   3.022   1.890  13.085  1.2557 -0.0105  0.2515
 7428SOL     OW33919   2.140   0.127   8.143  0.0164 -0.6202 -0.1207
 7428SOL    HW133920   2.163   0.089   8.058 -2.0300 -1.2986 -0.3919
 7428SOL    HW233921   2.165   0.062   8.208  1.2028  0.1492  0.1776
 7429SOL     OW33922   1.077   0.529   6.099 -0.4181  0.1719  0.0702
 7429SOL    HW133923   1.026   0.451   6.078 -0.1255  0.1644 -0.5945
 7429SOL    HW233924   1.155   0.493   6.056 -0.2344 -0.6112  1.0707
 7430SOL     OW33925   3.326   1.359   7.312 -0.0406 -0.0827  0.5283
 7430SOL    HW133926   3.234   1.384   7.322 -0.3844 -0.9934 -0.4051
 7430SOL    HW233927   3.354   1.379   7.401  0.6349 -0.5359  0.4199
 7431SOL     OW33928   2.616   0.003  14.194  0.3473  0.0956 -0.4801
 7431SOL    HW133929   2.660   0.071  14.246 -0.1899 -0.2026  0.3636
 7431SOL    HW233930   2.643   4.656  14.234  1.3247  0.7769  0.2814
 7432SOL     OW33931   4.549   2.122  17.575 -0.4286 -0.1690 -0.2843
 7432SOL    HW133932   4.556   2.062  17.649 -2.1987 -0.8703 -0.6953
 7432SOL    HW233933   4.455   2.119  17.560 -0.5773  1.8031  0.2336
 7433SOL     OW33934   2.538   0.768   5.063  0.0613 -0.6911  0.5096
 7433SOL    HW133935   2.567   0.726   4.982  0.7785  1.4693 -0.3704
 7433SOL    HW233936   2.621   0.808   5.089 -0.8853  1.8457 -0.4117
 7434SOL     OW33937   1.781   2.031   5.681  0.7170  0.3622  0.2620
 7434SOL    HW133938   1.693   2.062   5.657  0.6286 -1.0135 -1.2421
 7434SOL    HW233939   1.768   1.960   5.744  0.7338 -1.4525 -1.7763
 7435SOL     OW33940   0.287   2.213   9.452 -0.5144  0.0797  0.3447
 7435SOL    HW133941   0.331   2.153   9.513  3.1303  4.3571  1.9100
 7435SOL    HW233942   0.229   2.150   9.409  2.1839 -1.0417 -1.6302
 7436SOL     OW33943   0.131   4.098   9.287  0.0490 -0.6803  0.3658
 7436SOL    HW133944   0.087   4.013   9.281 -0.4834 -0.4398  0.8336
 7436SOL    HW233945   0.105   4.125   9.375 -0.3461  1.1493 -0.3187
 7437SOL     OW33946   1.020   1.976   7.319  0.6592 -0.4829  0.1071
 7437SOL    HW133947   0.951   2.042   7.310 -1.5720 -2.9883 -0.9077
 7437SOL    HW233948   1.080   1.984   7.244 -1.8593  0.4014 -1.8131
 7438SOL     OW33949   2.197   0.294   1.494  0.1977 -0.1019 -0.4694
 7438SOL    HW133950   2.245   0.229   1.442 -0.6958 -1.1035 -0.0402
 7438SOL    HW233951   2.248   0.295   1.575 -1.1840 -1.4958  0.4095
 7439SOL     OW33952   0.099   1.247   5.982  0.1519 -0.3143 -0.0149
 7439SOL    HW133953   0.057   1.326   6.016  1.5135  0.5476 -0.3700
 7439SOL    HW233954   0.063   1.246   5.893  1.3198 -0.4747 -0.4761
 7440SOL     OW33955   1.444   2.217   9.256 -0.4477 -0.3410  0.0075
 7440SOL    HW133956   1.469   2.154   9.188  1.0418 -0.6443  0.8380
 7440SOL    HW233957   1.518   2.277   9.263  0.7363 -1.6746 -0.8102
 7441SOL     OW33958   0.996   4.004   3.546 -0.5287  0.2735 -0.2488
 7441SOL    HW133959   1.039   3.938   3.493 -0.8306 -1.7607  2.0283
 7441SOL    HW233960   0.925   3.949   3.580  0.7052 -0.5974  0.9657
 7442SOL     OW33961   1.022   4.254  12.059  0.5460  0.0826  0.4608
 7442SOL    HW133962   1.099   4.243  12.114 -0.9947  0.7961  2.7389
 7442SOL    HW233963   1.021   4.349  12.060  2.1455  0.1041  0.5882
 7443SOL     OW33964   0.150   1.839  14.440 -0.2534 -0.3798  0.7313
 7443SOL    HW133965   0.149   1.805  14.351  1.2099 -3.3918  1.8715
 7443SOL    HW233966   0.147   1.932  14.419  1.0686 -0.4237  0.3437
 7444SOL     OW33967   1.574   0.023   9.780  0.3714 -0.0341  0.2728
 7444SOL    HW133968   1.521   4.683   9.808  2.4432 -1.4351  0.4403
 7444SOL    HW233969   1.536   0.096   9.829 -1.3300 -1.9993  1.8861
 7445SOL     OW33970   1.428   2.920   1.828 -0.3450  0.0347 -0.4529
 7445SOL    HW133971   1.366   2.967   1.772 -2.4521  1.0280  2.7160
 7445SOL    HW233972   1.449   2.979   1.900  0.6174 -1.4605  0.4910
 7446SOL     OW33973   1.806   2.313   6.969 -0.0116  0.4392 -0.4816
 7446SOL    HW133974   1.733   2.358   6.927  1.3122  1.0589 -2.1260
 7446SOL    HW233975   1.792   2.221   6.947  2.4702  0.1930 -1.0442
 7447SOL     OW33976   4.619   2.296   2.840 -0.4031 -0.2693 -0.2542
 7447SOL    HW133977   4.553   2.255   2.896 -1.5616  1.1136 -0.6284
 7447SOL    HW233978   4.700   2.244   2.850  0.3998  1.2842  1.3543
 7448SOL     OW33979   2.961   2.920   3.890 -0.4723 -0.4919  0.3361
 7448SOL    HW133980   2.971   3.015   3.887 -0.1232 -0.6205 -2.2156
 7448SOL    HW233981   3.047   2.880   3.893 -0.4020 -0.3850 -0.4326
 7449SOL     OW33982   4.571   3.262   3.711  0.2011 -0.1477 -0.4374
 7449SOL    HW133983   4.558   3.259   3.616 -1.7064  0.5663 -0.1881
 7449SOL    HW233984   4.496   3.302   3.754  0.5361 -1.0568  0.9859
 7450SOL     OW33985   2.176   2.265  15.816  0.5825  0.8449 -0.2816
 7450SOL    HW133986   2.264   2.241  15.787 -0.2475 -1.0881 -1.2215
 7450SOL    HW233987   2.119   2.218  15.755 -1.1075  4.1368 -1.2421
 7451SOL     OW33988   1.315   0.705   5.720  0.0657  0.0731  0.4222
 7451SOL    HW133989   1.368   0.627   5.704 -1.2020 -0.5106 -0.8808
 7451SOL    HW233990   1.379   0.776   5.714 -0.1661  0.0546 -2.1934
 7452SOL     OW33991   2.537   3.410   4.705 -0.5931 -0.3623  0.1414
 7452SOL    HW133992   2.519   3.504   4.699 -0.2075 -0.2469  0.8951
 7452SOL    HW233993   2.533   3.391   4.798  0.1456  0.3918  0.3198
 7453SOL     OW33994   0.498   0.780  14.178  0.1211 -0.6980  0.4180
 7453SOL    HW133995   0.453   0.859  14.147  2.8787 -0.4424 -2.9420
 7453SOL    HW233996   0.565   0.815  14.237 -1.2845  2.1968  0.2597
 7454SOL     OW33997   4.415   2.386   7.202  0.0129 -0.0320 -0.4965
 7454SOL    HW133998   4.366   2.373   7.120 -1.5701 -0.5307  0.5369
 7454SOL    HW233999   4.503   2.409   7.171 -0.2715  1.4006 -0.2315
 7455SOL     OW34000   2.274   2.703   9.258 -0.4949  0.0149  0.4150
 7455SOL    HW134001   2.292   2.780   9.312  1.3922 -0.6611  0.7487
 7455SOL    HW234002   2.229   2.751   9.189  2.1441 -0.1115 -1.4149
 7456SOL     OW34003   4.004   1.605   2.717 -0.7395  0.0833  0.4698
 7456SOL    HW134004   4.073   1.591   2.652  0.3837  2.1094  1.2007
 7456SOL    HW234005   4.050   1.608   2.801 -0.7847  1.0941  0.4612
 7457SOL     OW34006   2.302   4.416   4.784  0.8666  0.2804 -0.1983
 7457SOL    HW134007   2.311   4.414   4.879  0.5402  1.1688 -0.1519
 7457SOL    HW234008   2.386   4.381   4.752  0.4054  0.0951 -1.2098
 7458SOL     OW34009   1.303   0.109   2.432 -0.8769 -0.3386  0.4869
 7458SOL    HW134010   1.325   0.088   2.523 -1.3457 -1.5059  0.3299
 7458SOL    HW234011   1.211   0.083   2.430 -0.9243 -0.1573  0.2635
 7459SOL     OW34012   2.149   4.690   9.854 -0.0448  0.1191 -0.0459
 7459SOL    HW134013   2.190   4.699   9.940  0.1190 -2.2315  0.1124
 7459SOL    HW234014   2.225   4.659   9.805  0.2266  0.0362  0.4358
 7460SOL     OW34015   1.188   4.037   6.043  0.5819  0.7441  0.2254
 7460SOL    HW134016   1.262   3.989   6.080 -1.7442 -0.3156  3.4806
 7460SOL    HW234017   1.209   4.032   5.949 -0.2259 -2.4174  0.1901
 7461SOL     OW34018   2.005   2.790  12.533 -0.1557 -0.5851 -0.3241
 7461SOL    HW134019   1.948   2.776  12.458 -1.1556 -0.2799  0.3688
 7461SOL    HW234020   1.944   2.841  12.587  0.2665 -1.3618  0.8772
 7462SOL     OW34021   0.031   3.007   6.567 -0.3081 -0.4270 -0.1452
 7462SOL    HW134022   4.704   3.036   6.501 -1.3237  0.4818  1.2167
 7462SOL    HW234023   0.054   3.094   6.601 -1.1465 -0.0341 -0.5962
 7463SOL     OW34024   1.501   2.559   5.090  0.0547  0.0336 -0.0703
 7463SOL    HW134025   1.515   2.636   5.145 -0.3810  1.0305 -1.3241
 7463SOL    HW234026   1.583   2.520   5.062  0.4207  0.8278 -0.1036
 7464SOL     OW34027   0.364   1.287   7.047 -0.2712  0.6670  0.7312
 7464SOL    HW134028   0.327   1.339   7.118 -2.6660 -0.5414  0.3833
 7464SOL    HW234029   0.290   1.227   7.036 -0.2257  1.0411 -1.4876
 7465SOL     OW34030   3.541   2.787   3.871  0.3095  0.5628  0.1138
 7465SOL    HW134031   3.576   2.836   3.946  0.4797  1.8161 -0.7790
 7465SOL    HW234032   3.472   2.852   3.854 -1.0347 -0.5917  1.1024
 7466SOL     OW34033   2.152   1.699   5.469  0.1449 -0.2164  0.1388
 7466SOL    HW134034   2.074   1.646   5.458 -0.8041  0.7925  2.0301
 7466SOL    HW234035   2.216   1.629   5.482 -1.6758 -1.7210  0.7879
 7467SOL     OW34036   4.655   2.649   9.086  0.2317  0.7756 -0.0806
 7467SOL    HW134037   4.679   2.741   9.093  1.1520  0.7337 -3.0052
 7467SOL    HW234038   4.562   2.656   9.065 -0.1303 -2.2231  0.4757
 7468SOL     OW34039   2.990   4.508   8.264  1.1770  0.2510  0.4565
 7468SOL    HW134040   3.038   4.429   8.240 -0.6912 -0.3733 -1.2174
 7468SOL    HW234041   2.911   4.488   8.214  1.5047 -0.0486  0.0648
 7469SOL     OW34042   4.359   0.811   3.457 -0.1995  0.2636  0.5464
 7469SOL    HW134043   4.429   0.747   3.469 -1.6799 -1.2104  1.3127
 7469SOL    HW234044   4.280   0.758   3.454 -0.2934  0.5784 -2.6914
 7470SOL     OW34045   2.952   2.011  16.183 -0.2320 -0.0748  0.2349
 7470SOL    HW134046   3.033   2.050  16.150 -0.0467 -1.5136 -1.0089
 7470SOL    HW234047   2.889   2.065  16.136 -0.7371  0.5864  1.6548
 7471SOL     OW34048   3.563   1.532   3.739 -0.8109  0.3271 -0.2745
 7471SOL    HW134049   3.565   1.475   3.662 -1.7384  0.8482 -0.6889
 7471SOL    HW234050   3.516   1.607   3.703 -0.5945  0.9817  0.8115
 7472SOL     OW34051   0.497   3.161   3.204  0.0439  0.2590  0.1781
 7472SOL    HW134052   0.497   3.234   3.267  1.5501  0.4063  0.0006
 7472SOL    HW234053   0.568   3.195   3.150  0.4460 -0.3201  0.3382
 7473SOL     OW34054   1.787   4.709   0.805  0.3809 -0.2895 -0.4345
 7473SOL    HW134055   1.849   0.015   0.745  0.1699  2.2888  1.1216
 7473SOL    HW234056   1.791   4.618   0.778  0.9575 -0.6285  0.7579
 7474SOL     OW34057   1.802   2.983  12.167  0.3263 -0.5138  0.1805
 7474SOL    HW134058   1.811   3.046  12.096  1.2038 -0.2629  0.5201
 7474SOL    HW234059   1.846   3.030  12.238 -0.4117  1.1499 -0.4628
 7475SOL     OW34060   1.359   3.772   8.565  0.5181  0.0126 -0.6439
 7475SOL    HW134061   1.349   3.848   8.623 -1.0484 -1.5626  1.1572
 7475SOL    HW234062   1.443   3.740   8.598 -1.1985 -3.9917 -0.1551
 7476SOL     OW34063   3.622   4.480   9.566 -0.4990  0.4276 -0.2166
 7476SOL    HW134064   3.565   4.523   9.629  1.2032  2.2011  0.1176
 7476SOL    HW234065   3.677   4.553   9.539 -0.5903  0.3602 -0.5794
 7477SOL     OW34066   0.873   0.672   4.694 -0.0903 -0.3071  0.4055
 7477SOL    HW134067   0.951   0.725   4.709 -2.7767  3.0888  2.2698
 7477SOL    HW234068   0.807   0.738   4.676  0.6205  0.9473  2.3969
 7478SOL     OW34069   1.748   4.640  15.634  0.1723 -0.2916  0.0611
 7478SOL    HW134070   1.659   4.608  15.617 -0.0176  0.7578 -0.9125
 7478SOL    HW234071   1.738   4.713  15.695 -1.3339 -1.5112  1.2805
 7479SOL     OW34072   0.857   0.880   6.845 -0.0520 -0.4899  0.1522
 7479SOL    HW134073   0.762   0.892   6.850  0.0912  0.5013  0.5374
 7479SOL    HW234074   0.854   0.826   6.766  1.4506  1.0624 -0.9554
 7480SOL     OW34075   4.326   4.194   0.531 -0.2559  0.0260 -0.0269
 7480SOL    HW134076   4.244   4.191   0.580  0.0812  2.2201  0.6688
 7480SOL    HW234077   4.376   4.257   0.583  0.6612 -1.4054  0.8252
 7481SOL     OW34078   4.306   2.199  11.381 -0.7462  0.4136 -0.1217
 7481SOL    HW134079   4.238   2.260  11.350 -0.4897  1.3138  1.1003
 7481SOL    HW234080   4.302   2.142  11.304 -0.5539  0.7539 -0.3836
 7482SOL     OW34081   2.859   4.595   4.827 -0.2816 -0.0360 -0.5832
 7482SOL    HW134082   2.846   4.526   4.761 -1.1293 -0.4874  0.0555
 7482SOL    HW234083   2.802   4.558   4.895  0.8708  0.9957  0.9343
 7483SOL     OW34084   1.830   1.208   3.015  0.5016 -0.4326  0.9901
 7483SOL    HW134085   1.876   1.202   2.931 -1.7784  1.1860 -0.3920
 7483SOL    HW234086   1.820   1.117   3.043 -0.0974 -0.5216  0.4929
 7484SOL     OW34087   4.451   1.476   3.118 -0.2674 -0.9027  0.4223
 7484SOL    HW134088   4.491   1.428   3.046 -2.2828 -0.0209 -1.2726
 7484SOL    HW234089   4.359   1.450   3.111 -0.9124  1.5959 -0.4663
 7485SOL     OW34090   0.770   1.863   8.118 -0.2211  0.6034  0.0768
 7485SOL    HW134091   0.821   1.903   8.048 -1.8446  0.1989 -1.3356
 7485SOL    HW234092   0.805   1.904   8.197  2.8993 -0.4318 -0.7726
 7486SOL     OW34093   3.402   1.890   2.729  0.3225 -0.4980  0.3895
 7486SOL    HW134094   3.329   1.870   2.670  1.8320 -0.2143 -1.5930
 7486SOL    HW234095   3.360   1.953   2.787 -1.7492 -0.7298 -0.8480
 7487SOL     OW34096   2.522   0.681   9.544 -0.4012  0.3847  1.0126
 7487SOL    HW134097   2.593   0.619   9.560  0.4554  0.5528 -2.2412
 7487SOL    HW234098   2.454   0.650   9.605 -0.4236 -3.2653 -0.8398
 7488SOL     OW34099   0.613   0.494   4.327  0.1405 -0.0579 -0.7841
 7488SOL    HW134100   0.695   0.486   4.377  1.1801 -0.9970 -2.6702
 7488SOL    HW234101   0.601   0.589   4.324 -2.7782 -0.4528 -1.4106
 7489SOL     OW34102   4.363   3.409   7.500 -0.1168  0.2545 -0.2854
 7489SOL    HW134103   4.283   3.400   7.551 -1.8731 -1.1289 -3.2598
 7489SOL    HW234104   4.430   3.439   7.561 -1.2928 -0.4472  1.3467
 7490SOL     OW34105   4.666   3.805   7.448 -0.1080  0.5639 -1.3685
 7490SOL    HW134106   4.588   3.763   7.413  0.5511 -0.9161 -1.0356
 7490SOL    HW234107   4.700   3.861   7.377  5.2068 -1.4474 -0.3860
 7491SOL     OW34108   3.185   3.410  13.238  0.1024 -0.2406  0.8158
 7491SOL    HW134109   3.188   3.410  13.334 -1.2965  0.8786  0.8676
 7491SOL    HW234110   3.248   3.476  13.208  0.8677 -1.6233 -0.5940
 7492SOL     OW34111   2.825   2.148   8.961  0.3004 -0.6155  0.2317
 7492SOL    HW134112   2.908   2.160   9.007  0.9842 -1.7841 -0.6930
 7492SOL    HW234113   2.767   2.124   9.033  0.6969  0.8853  1.0476
 7493SOL     OW34114   1.896   1.903   2.216  0.3122  0.2023  0.7419
 7493SOL    HW134115   1.804   1.884   2.231  0.0797  0.2593 -0.6771
 7493SOL    HW234116   1.898   1.997   2.196  0.8433 -0.0806 -0.5505
 7494SOL     OW34117   3.849   4.002   7.544 -0.3143  0.0634  0.1233
 7494SOL    HW134118   3.912   4.016   7.473 -2.6438 -0.1999 -1.9966
 7494SOL    HW234119   3.896   4.041   7.618 -2.9640 -0.3054  1.9823
 7495SOL     OW34120   0.786   1.995  11.459 -0.1126  0.0475 -0.0761
 7495SOL    HW134121   0.796   2.084  11.423 -2.4294  1.1696  2.0577
 7495SOL    HW234122   0.865   1.990  11.513 -0.3323  0.9855  0.3337
 7496SOL     OW34123   1.180   3.933   1.383  0.0831 -0.0614 -0.7540
 7496SOL    HW134124   1.224   3.898   1.306 -1.0702 -0.7724 -1.0798
 7496SOL    HW234125   1.123   4.004   1.353 -0.7207  0.0265  0.9823
 7497SOL     OW34126   3.656   4.441  12.435 -0.4034  0.1889  0.1814
 7497SOL    HW134127   3.706   4.361  12.453 -0.1152  0.4779  0.6559
 7497SOL    HW234128   3.597   4.434  12.509 -0.2060 -0.5145  0.2739
 7498SOL     OW34129   2.823   4.374   5.522  0.5191  0.4474 -0.0166
 7498SOL    HW134130   2.885   4.370   5.595  1.4673  2.1913 -0.7258
 7498SOL    HW234131   2.845   4.288   5.486 -1.1334  0.2342 -0.4962
 7499SOL     OW34132   1.802   2.965   0.207  0.2773 -0.1121 -0.5390
 7499SOL    HW134133   1.891   2.933   0.218  0.0028 -0.6374  0.1562
 7499SOL    HW234134   1.798   2.976   0.112 -3.3526 -1.5492 -0.5549
 7500SOL     OW34135   2.469   2.250   8.003 -0.1997  0.4614 -0.0340
 7500SOL    HW134136   2.482   2.246   7.908 -3.2421 -0.6489 -0.4038
 7500SOL    HW234137   2.379   2.220   7.997  0.2424 -0.7488 -0.6965
 7501SOL     OW34138   0.046   4.221   3.970 -0.9083  0.6643  0.9084
 7501SOL    HW134139   4.695   4.179   3.972  0.1994 -1.7034 -1.1790
 7501SOL    HW234140   0.100   4.177   4.035 -2.3626 -1.5165  0.6550
 7502SOL     OW34141   2.448   4.361  12.832  0.0397  0.1418 -0.0823
 7502SOL    HW134142   2.509   4.418  12.784 -0.8769  0.4229 -0.8947
 7502SOL    HW234143   2.482   4.274  12.812  0.2475  0.0788  0.5182
 7503SOL     OW34144   3.264   4.675   8.606 -0.0025  0.0742 -0.0650
 7503SOL    HW134145   3.173   4.658   8.585  0.4009 -0.5424 -1.3500
 7503SOL    HW234146   3.254   0.027   8.643  0.6628  0.4253 -0.7083
 7504SOL     OW34147   1.919   3.303   7.850  0.0825  0.1389 -0.7507
 7504SOL    HW134148   1.948   3.213   7.833  1.6169  0.8799 -2.0587
 7504SOL    HW234149   1.833   3.294   7.892  0.3312  0.4299 -0.1782
 7505SOL     OW34150   1.573   0.072   5.818 -0.5212  0.3039  0.3390
 7505SOL    HW134151   1.593   0.003   5.755 -0.9356  0.0776  0.4570
 7505SOL    HW234152   1.495   0.106   5.774 -0.3474  0.0570 -0.1552
 7506SOL     OW34153   3.741   0.120  16.576 -0.0147 -0.1058  0.0126
 7506SOL    HW134154   3.812   0.066  16.612  1.1671  0.4566 -1.4965
 7506SOL    HW234155   3.693   0.045  16.540  0.1930 -0.5846  0.7097
 7507SOL     OW34156   1.454   4.633   3.534  0.5204  0.3825 -0.2714
 7507SOL    HW134157   1.430   4.562   3.594 -2.4701  2.2583  0.7484
 7507SOL    HW234158   1.378   4.692   3.530  1.6371  1.7254 -1.6211
 7508SOL     OW34159   0.655   1.986   3.355 -0.1095 -0.0266  0.3700
 7508SOL    HW134160   0.577   1.934   3.369  0.2246 -0.9703 -1.2494
 7508SOL    HW234161   0.692   1.993   3.443  0.9127  0.1928 -0.0713
 7509SOL     OW34162   4.675   3.219  15.099  0.2654  0.3683 -0.2242
 7509SOL    HW134163   0.028   3.210  15.136  1.5261  2.9279 -2.5183
 7509SOL    HW234164   4.614   3.186  15.164  0.0994  1.6645  0.2857
 7510SOL     OW34165   1.031   4.209   6.703 -0.3509 -0.0083  0.1169
 7510SOL    HW134166   1.036   4.304   6.706 -1.4111  0.0558  0.0514
 7510SOL    HW234167   1.043   4.186   6.795 -2.0718  2.9201  1.0639
 7511SOL     OW34168   1.249   4.647   8.772  0.0042 -0.2631 -0.3178
 7511SOL    HW134169   1.215   4.732   8.798  3.0605  0.6537  0.6159
 7511SOL    HW234170   1.318   4.629   8.836  1.3928  1.1004 -1.4475
 7512SOL     OW34171   2.898   3.123  11.087 -0.4091 -0.1164  0.1916
 7512SOL    HW134172   2.806   3.100  11.104 -0.3625 -1.3254 -1.1371
 7512SOL    HW234173   2.956   3.059  11.129  0.7775  0.6386 -0.3052
 7513SOL     OW34174   1.847   3.104   2.772  0.2245 -0.4056 -0.0495
 7513SOL    HW134175   1.909   3.033   2.757  0.4532 -0.5115  1.4416
 7513SOL    HW234176   1.837   3.113   2.867  0.9807  0.2696 -0.0316
 7514SOL     OW34177   1.345   2.122   3.439 -0.6162 -0.0670 -0.2542
 7514SOL    HW134178   1.344   2.217   3.421 -0.6973  0.0118  0.1746
 7514SOL    HW234179   1.255   2.097   3.420 -1.3625  1.0816  1.8067
 7515SOL     OW34180   3.002   1.418  12.254  0.4899 -0.5155  0.5565
 7515SOL    HW134181   2.964   1.417  12.342 -0.5836 -0.9066  0.0918
 7515SOL    HW234182   2.983   1.326  12.236 -2.2038  0.3550 -1.1129
 7516SOL     OW34183   4.608   2.169   6.156 -0.1586 -0.0063 -0.4463
 7516SOL    HW134184   4.569   2.112   6.222 -0.2662  0.0631 -0.4513
 7516SOL    HW234185   4.605   2.259   6.187  2.2206  0.5681 -1.8442
 7517SOL     OW34186   2.071   3.685   7.672  0.0256  0.8526 -0.0289
 7517SOL    HW134187   1.977   3.674   7.660  0.0142  1.5903 -0.6099
 7517SOL    HW234188   2.101   3.648   7.589 -0.0104  1.3648 -0.2700
 7518SOL     OW34189   3.107   2.323   7.672 -0.4940 -0.8747 -0.3588
 7518SOL    HW134190   3.116   2.341   7.579  2.3512  0.4750  0.1842
 7518SOL    HW234191   3.057   2.395   7.710  1.8414  0.7004 -0.3035
 7519SOL     OW34192   2.693   0.028  10.792  0.1151  0.0949 -0.0766
 7519SOL    HW134193   2.774   0.059  10.834 -0.9693  1.4137  1.0691
 7519SOL    HW234194   2.630   0.050  10.861  0.5502 -1.6306  0.8861
 7520SOL     OW34195   1.716   1.591   1.764 -0.3094 -0.1758 -0.4025
 7520SOL    HW134196   1.732   1.656   1.832  0.9635  0.1333 -1.0101
 7520SOL    HW234197   1.803   1.600   1.727 -1.4729 -2.6860 -3.7920
 7521SOL     OW34198   0.019   1.790   2.212 -0.0082  0.4155 -0.3477
 7521SOL    HW134199   0.091   1.847   2.185 -0.8285  1.1802 -0.9331
 7521SOL    HW234200   4.692   1.807   2.142  0.3546 -2.0423 -1.2836
 7522SOL     OW34201   3.472   2.263  16.997  0.2065 -0.0708  0.4219
 7522SOL    HW134202   3.499   2.238  17.085  0.3726 -0.5232  0.2395
 7522SOL    HW234203   3.523   2.339  16.967  0.2084 -0.8031 -1.4374
 7523SOL     OW34204   1.594   1.987   9.418  0.6023  0.7410  0.0735
 7523SOL    HW134205   1.573   1.930   9.344  4.0848 -0.7385  0.2548
 7523SOL    HW234206   1.509   2.027   9.439 -0.0064  0.6592 -2.2225
 7524SOL     OW34207   1.073   1.219   8.573 -0.1208  0.0062  0.3865
 7524SOL    HW134208   1.146   1.177   8.618 -0.1876  1.5174  1.9297
 7524SOL    HW234209   1.094   1.212   8.480 -0.2337 -0.0029  0.3621
 7525SOL     OW34210   0.681   0.387   9.611 -0.6637  0.7062  0.1287
 7525SOL    HW134211   0.751   0.336   9.653 -0.8772  0.4138  0.1274
 7525SOL    HW234212   0.702   0.354   9.523  0.3230  1.0986  0.2133
 7526SOL     OW34213   4.224   0.329   5.163  0.5725  0.1453  0.0114
 7526SOL    HW134214   4.225   0.306   5.070 -0.2221 -1.7595  0.4795
 7526SOL    HW234215   4.255   0.251   5.208  1.4721 -0.2296 -1.2796
 7527SOL     OW34216   1.881   0.263   6.859  0.5366  0.2746  0.6007
 7527SOL    HW134217   1.816   0.203   6.894 -1.0830  0.9610 -1.2233
 7527SOL    HW234218   1.960   0.211   6.868  0.9020  1.1232  2.3641
 7528SOL     OW34219   2.038   1.470   6.329  0.5694  0.4578 -0.1007
 7528SOL    HW134220   2.098   1.473   6.403  1.6630 -1.2998 -0.9351
 7528SOL    HW234221   2.048   1.560   6.298 -1.3296  1.1333  1.2201
 7529SOL     OW34222   0.526   1.837   7.984  0.0378  0.1144  0.6779
 7529SOL    HW134223   0.516   1.918   7.934  2.2742 -1.1386 -1.7911
 7529SOL    HW234224   0.600   1.854   8.042  0.9069  0.7558 -0.6288
 7530SOL     OW34225   0.353   2.434  17.464  0.6314  0.4123  0.2123
 7530SOL    HW134226   0.340   2.340  17.474 -0.3598  0.6335  1.0604
 7530SOL    HW234227   0.319   2.476  17.543 -0.5436  1.6067 -0.9353
 7531SOL     OW34228   3.432   4.195   3.938 -0.0728  0.0558  0.4131
 7531SOL    HW134229   3.396   4.264   3.993 -1.1696 -0.3044  0.1431
 7531SOL    HW234230   3.522   4.197   3.971  0.3501 -0.8453 -0.6414
 7532SOL     OW34231   1.485   0.533   4.561  0.2387  0.3736  0.0445
 7532SOL    HW134232   1.562   0.570   4.519  0.0958  0.6065 -0.0117
 7532SOL    HW234233   1.456   0.478   4.487 -1.5406  0.1610  0.8926
 7533SOL     OW34234   1.521   0.630   7.215 -0.0320  0.0871  0.4317
 7533SOL    HW134235   1.469   0.568   7.267 -1.7456  0.0723 -1.2794
 7533SOL    HW234236   1.559   0.575   7.147  0.6842 -0.7423  1.4947
 7534SOL     OW34237   4.452   3.076   0.028  0.0454  0.4805 -0.6012
 7534SOL    HW134238   4.420   3.047   0.113  0.6440 -0.2774 -0.6353
 7534SOL    HW234239   4.399   3.031  17.703  2.5130  0.0394 -2.3183
 7535SOL     OW34240   3.570   4.350   5.678 -0.0691  0.1284 -0.5225
 7535SOL    HW134241   3.538   4.279   5.623  0.0799 -0.0376 -0.3923
 7535SOL    HW234242   3.546   4.433   5.635 -2.5592  0.6437  1.8584
 7536SOL     OW34243   3.660   3.960   3.430  0.2685  0.4976 -0.3908
 7536SOL    HW134244   3.664   4.052   3.403 -0.6029  0.5878 -0.1933
 7536SOL    HW234245   3.750   3.943   3.457 -0.0043  2.6909  1.8494
 7537SOL     OW34246   3.585   2.758   7.472  0.2147  0.4585  0.1378
 7537SOL    HW134247   3.530   2.837   7.473  0.5445  0.6343  2.9204
 7537SOL    HW234248   3.652   2.782   7.408 -1.0020  2.6521 -0.3157
 7538SOL     OW34249   1.351   1.181   6.955  0.3567  0.0315  0.6644
 7538SOL    HW134250   1.331   1.274   6.948  0.2513 -0.2721 -3.1650
 7538SOL    HW234251   1.439   1.177   6.918 -0.4815 -1.3237 -1.2001
 7539SOL     OW34252   4.058   1.502   3.366  0.4110  0.8276  0.0893
 7539SOL    HW134253   4.035   1.551   3.287  1.7754  0.7306 -0.3797
 7539SOL    HW234254   4.011   1.422   3.345 -2.1728  2.1847  0.7188
 7540SOL     OW34255   3.127   0.514   7.334  0.1864  0.3739 -0.4490
 7540SOL    HW134256   3.083   0.597   7.349 -0.5080 -0.1146  0.2175
 7540SOL    HW234257   3.170   0.532   7.250  0.4928  1.5156 -0.0394
 7541SOL     OW34258   1.959   3.774   4.690 -0.2870  0.2764 -0.6682
 7541SOL    HW134259   1.900   3.700   4.677  1.1397 -0.8828 -0.4816
 7541SOL    HW234260   1.957   3.812   4.602  0.4809  0.3254 -0.6637
 7542SOL     OW34261   1.110   3.492   1.535  0.8599  0.3221  0.1054
 7542SOL    HW134262   1.095   3.587   1.527 -3.3899 -0.2841  0.5048
 7542SOL    HW234263   1.040   3.457   1.479  1.3741 -0.3871 -0.0811
 7543SOL     OW34264   1.849   2.401   4.534 -0.2047  0.3543  0.5581
 7543SOL    HW134265   1.918   2.379   4.472 -0.4536  2.1888 -0.3730
 7543SOL    HW234266   1.770   2.377   4.485  1.2933 -3.0026 -0.1774
 7544SOL     OW34267   3.237   1.052   2.374 -0.2150  0.0825 -0.0037
 7544SOL    HW134268   3.281   0.975   2.409  0.5046  0.1528 -0.7485
 7544SOL    HW234269   3.300   1.098   2.319  1.0851  0.6630  1.9812
 7545SOL     OW34270   0.051   0.490  16.706  0.9520  0.6668  0.0012
 7545SOL    HW134271   4.709   0.537  16.675  0.0635 -1.2921 -0.7278
 7545SOL    HW234272   0.007   0.456  16.783 -1.9313  0.4862 -1.7487
 7546SOL     OW34273   3.528   2.893   3.514  0.2651  0.7226  0.6059
 7546SOL    HW134274   3.511   2.854   3.428 -1.3077  1.3689  0.6231
 7546SOL    HW234275   3.445   2.876   3.559 -0.3521  0.3274 -0.6857
 7547SOL     OW34276   4.381   1.278   8.018  0.4397 -0.0805 -0.0151
 7547SOL    HW134277   4.373   1.186   7.993  0.3215  0.0678 -0.5280
 7547SOL    HW234278   4.471   1.274   8.050 -0.5605 -3.4292  2.4261
 7548SOL     OW34279   2.355   0.012   7.607 -0.1693  0.0379 -0.0056
 7548SOL    HW134280   2.373   4.720   7.697 -0.0303  0.1256 -0.0053
 7548SOL    HW234281   2.420   4.694   7.561 -0.7376  0.3068 -1.1180
 7549SOL     OW34282   3.183   0.066   2.326  0.1273 -0.1414 -0.7121
 7549SOL    HW134283   3.263   0.093   2.371 -0.1509 -0.1361 -0.2233
 7549SOL    HW234284   3.115   0.110   2.377 -0.3088 -0.9359 -0.6115
 7550SOL     OW34285   1.997   4.226   2.961  0.4129 -0.3982  0.1832
 7550SOL    HW134286   2.057   4.240   2.888 -0.4831  0.6538 -0.3526
 7550SOL    HW234287   2.044   4.276   3.028 -0.0513 -2.3321  1.9432
 7551SOL     OW34288   0.336   4.612   4.221 -0.4437  0.0061 -0.2951
 7551SOL    HW134289   0.353   4.662   4.301 -1.4420  0.3795 -0.3201
 7551SOL    HW234290   0.362   4.675   4.153 -1.3601  3.1438  2.2865
 7552SOL     OW34291   0.209   0.893   3.040  0.1063 -0.4287 -0.0950
 7552SOL    HW134292   0.240   0.974   3.080 -1.4762 -0.6066  1.5604
 7552SOL    HW234293   0.254   0.835   3.102 -0.6467  0.5036  1.3318
 7553SOL     OW34294   0.335   2.370   3.088 -0.3183  0.1964  0.0691
 7553SOL    HW134295   0.268   2.386   3.153  2.2691  0.3924  2.7003
 7553SOL    HW234296   0.402   2.431   3.118  1.4353 -2.0680  0.8105
 7554SOL     OW34297   4.310   1.384  12.220 -0.0650  0.0158 -0.0310
 7554SOL    HW134298   4.324   1.311  12.160 -0.5499  0.9936 -1.3408
 7554SOL    HW234299   4.400   1.403  12.244  0.2031  0.4929 -1.4030
 7555SOL     OW34300   3.180   1.912  16.816  0.3331  0.1322  0.1277
 7555SOL    HW134301   3.188   1.935  16.909 -0.0967 -1.9953  0.6899
 7555SOL    HW234302   3.266   1.946  16.789 -0.0887  0.6536 -0.5490
 7556SOL     OW34303   2.000   4.684   5.991 -0.3815  0.2859 -0.0573
 7556SOL    HW134304   1.913   4.648   5.976 -0.0872  0.0790 -1.3011
 7556SOL    HW234305   2.008   0.031   5.942 -1.2990 -0.2530 -1.0997
 7557SOL     OW34306   4.293   0.617   2.144  0.9838 -0.0005 -0.2085
 7557SOL    HW134307   4.349   0.693   2.154 -0.4336  0.9230  0.6972
 7557SOL    HW234308   4.355   0.548   2.166  1.2696 -0.1521 -1.4584
 7558SOL     OW34309   2.653   3.905   3.562  0.0044 -0.2054 -0.4749
 7558SOL    HW134310   2.723   3.871   3.507  0.0688 -1.4149  0.3706
 7558SOL    HW234311   2.659   3.849   3.639 -3.9799 -0.7289 -0.5227
 7559SOL     OW34312   3.716   3.614   6.459  0.3150 -0.7718 -0.0315
 7559SOL    HW134313   3.802   3.614   6.499 -1.0335 -0.6438  2.8417
 7559SOL    HW234314   3.730   3.540   6.400 -1.2537  0.1770 -1.6021
 7560SOL     OW34315   1.291   4.371   4.935 -0.3567 -0.3012 -0.0516
 7560SOL    HW134316   1.200   4.353   4.960 -0.2211  1.3539  1.6066
 7560SOL    HW234317   1.289   4.462   4.908  0.5440 -0.8054 -1.8118
 7561SOL     OW34318   4.330   2.307   1.717 -0.1925 -0.2828  0.0442
 7561SOL    HW134319   4.387   2.328   1.791  0.6698  0.9533 -0.9808
 7561SOL    HW234320   4.358   2.217   1.704  0.3396 -0.0787 -0.2374
 7562SOL     OW34321   1.844   3.872  15.772  0.0877 -0.1192  0.5010
 7562SOL    HW134322   1.891   3.948  15.738 -0.6594 -0.2261 -0.7739
 7562SOL    HW234323   1.761   3.916  15.793  0.1585 -0.0173  0.5664
 7563SOL     OW34324   2.072   2.420   1.114 -0.0686 -0.8392  0.3733
 7563SOL    HW134325   2.123   2.462   1.044 -0.4775  0.2442  0.7276
 7563SOL    HW234326   2.081   2.480   1.188 -0.3061  0.0529 -0.3130
 7564SOL     OW34327   4.119   4.190   4.569 -0.1740 -0.0067  0.0350
 7564SOL    HW134328   4.023   4.194   4.564 -0.2120  1.0483  1.5773
 7564SOL    HW234329   4.129   4.211   4.662  3.2640 -0.3333 -0.2621
 7565SOL     OW34330   1.134   3.633   0.627 -0.3191 -0.3879 -0.6232
 7565SOL    HW134331   1.088   3.679   0.697  0.3277  0.8788 -1.0186
 7565SOL    HW234332   1.200   3.591   0.683  0.9726  0.9915 -1.0875
 7566SOL     OW34333   0.572   0.550   1.362 -0.2008  0.2433  0.4870
 7566SOL    HW134334   0.519   0.472   1.347 -0.6478  0.6215  0.0871
 7566SOL    HW234335   0.521   0.620   1.320 -0.7539 -0.6369 -0.3206
 7567SOL     OW34336   1.239   2.190   4.276 -0.2146 -0.4269 -0.4017
 7567SOL    HW134337   1.206   2.278   4.294 -2.8591 -2.0190  2.5767
 7567SOL    HW234338   1.193   2.178   4.193 -3.4252 -1.2851  1.5190
 7568SOL     OW34339   2.545   3.646  14.648 -0.1360 -0.1137 -0.3660
 7568SOL    HW134340   2.635   3.642  14.680 -1.3673 -0.5652  2.9699
 7568SOL    HW234341   2.565   3.699  14.571  0.8470  0.2111  0.1168
 7569SOL     OW34342   3.481   3.003   2.023 -0.9275  1.0066 -0.4553
 7569SOL    HW134343   3.515   2.992   1.934 -0.1079  4.6825 -0.5855
 7569SOL    HW234344   3.388   2.987   2.006 -0.8448 -0.9474  0.8913
 7570SOL     OW34345   0.259   1.004   5.652 -0.1951  0.8616  0.3139
 7570SOL    HW134346   0.331   1.057   5.685  0.9918 -1.2244  1.0545
 7570SOL    HW234347   0.237   1.031   5.563 -0.8877 -0.7030  0.0062
 7571SOL     OW34348   0.139   2.945   3.550  0.8003  0.0795 -0.4492
 7571SOL    HW134349   0.061   2.891   3.540  1.9241 -1.4979 -0.7008
 7571SOL    HW234350   0.162   2.956   3.458  0.2866  1.8463 -0.3712
 7572SOL     OW34351   2.233   2.457  11.574 -0.0071  0.4198  0.2320
 7572SOL    HW134352   2.174   2.389  11.541  1.6825  0.0608 -2.0725
 7572SOL    HW234353   2.244   2.436  11.666  0.0164 -1.7363 -0.2585
 7573SOL     OW34354   4.380   1.941   5.175  0.2556 -0.2141  0.8352
 7573SOL    HW134355   4.441   1.868   5.192 -1.0836 -1.3239  0.8319
 7573SOL    HW234356   4.299   1.898   5.150 -0.8244  1.1978  1.9288
 7574SOL     OW34357   1.956   3.319   9.218 -0.0628  0.2551  0.1298
 7574SOL    HW134358   1.991   3.317   9.129 -0.0738  0.4221  0.1227
 7574SOL    HW234359   2.011   3.386   9.259 -2.2317  0.9785  1.8541
 7575SOL     OW34360   2.457   1.453   0.408  0.2371 -0.2060  0.4741
 7575SOL    HW134361   2.489   1.378   0.358  0.1448 -0.7727  1.2725
 7575SOL    HW234362   2.476   1.526   0.348 -0.1336 -0.7166 -0.2732
 7576SOL     OW34363   4.490   0.707   2.323 -0.1684  0.5583  0.0817
 7576SOL    HW134364   4.469   0.703   2.416 -0.7697 -1.7201 -0.1542
 7576SOL    HW234365   4.577   0.746   2.328 -0.1596  0.4349  0.9311
 7577SOL     OW34366   1.525   0.203   8.498  0.1116  0.1162 -0.4821
 7577SOL    HW134367   1.531   0.123   8.446  3.7309  1.1726 -1.6784
 7577SOL    HW234368   1.433   0.227   8.485 -1.3506 -3.8590  2.4447
 7578SOL     OW34369   4.102   0.316   4.398 -0.7293 -0.3033 -0.5986
 7578SOL    HW134370   4.094   0.292   4.306 -0.7037 -2.2728 -0.0933
 7578SOL    HW234371   4.193   0.290   4.410  0.0473  1.7582 -2.1147
 7579SOL     OW34372   3.786   1.081  14.270 -0.1700  0.6936  0.1505
 7579SOL    HW134373   3.710   1.031  14.298 -0.7452  1.5347  0.0935
 7579SOL    HW234374   3.845   1.067  14.344 -0.0538 -1.2445 -0.3017
 7580SOL     OW34375   0.419   3.086  16.609 -0.1345  0.2664  0.1606
 7580SOL    HW134376   0.381   3.043  16.685 -0.0769  1.3269  0.7933
 7580SOL    HW234377   0.466   3.016  16.564 -0.7196  1.0121 -1.5955
 7581SOL     OW34378   2.530   1.722  12.594  0.2774  0.3395  0.5458
 7581SOL    HW134379   2.493   1.795  12.544  1.5320  0.9520  0.4913
 7581SOL    HW234380   2.602   1.774  12.631  0.6131  1.5890 -1.8482
 7582SOL     OW34381   1.375   1.593   3.745 -0.2749  0.2206 -0.1980
 7582SOL    HW134382   1.394   1.505   3.710  2.3131  0.7597 -0.1712
 7582SOL    HW234383   1.465   1.607   3.775 -0.1702 -0.7157 -0.0581
 7583SOL     OW34384   0.448   3.744   7.839 -0.1786 -0.1950 -0.0821
 7583SOL    HW134385   0.457   3.705   7.926 -1.4345  1.3145  0.7255
 7583SOL    HW234386   0.525   3.712   7.791 -2.1047 -1.5346 -2.2478
 7584SOL     OW34387   1.526   3.731   7.496  0.4071  0.2741 -0.6458
 7584SOL    HW134388   1.496   3.813   7.534 -1.5760 -0.9166  0.3516
 7584SOL    HW234389   1.498   3.741   7.405 -1.1926 -0.8853 -0.2725
 7585SOL     OW34390   3.024   3.216   1.177  0.1745  0.1754 -0.5325
 7585SOL    HW134391   3.090   3.249   1.237 -1.4659  0.8311  0.8823
 7585SOL    HW234392   3.087   3.183   1.113  0.0136 -2.0739  0.4735
 7586SOL     OW34393   3.454   4.588   5.519  0.6871  0.6220  0.3215
 7586SOL    HW134394   3.423   4.530   5.448 -0.1527  1.0823  0.3027
 7586SOL    HW234395   3.374   4.640   5.517 -0.2975 -0.8510  1.4522
 7587SOL     OW34396   0.739   1.722   1.879  0.7085  0.0887 -0.4392
 7587SOL    HW134397   0.687   1.646   1.853  0.6634 -1.1528  3.1738
 7587SOL    HW234398   0.713   1.739   1.970 -1.5484 -2.5195 -0.5938
 7588SOL     OW34399   4.257   1.573  10.908 -0.0941  0.2906  0.0106
 7588SOL    HW134400   4.173   1.539  10.938  0.7327 -0.9392  0.8917
 7588SOL    HW234401   4.280   1.517  10.834 -1.8196 -1.0779  0.5256
 7589SOL     OW34402   4.000   2.538   8.513 -0.0168  0.2796  0.0937
 7589SOL    HW134403   3.951   2.617   8.489  1.8283  0.0121 -4.6758
 7589SOL    HW234404   3.972   2.522   8.603  1.9882 -2.8705  0.1707
 7590SOL     OW34405   2.945   2.370  11.508 -0.1744 -0.4134  0.1183
 7590SOL    HW134406   2.904   2.429  11.445 -0.6513 -0.3016  0.5320
 7590SOL    HW234407   2.914   2.406  11.591  1.4818 -0.1544  0.6110
 7591SOL     OW34408   0.830   2.369  13.740 -0.4037  0.4540 -0.4094
 7591SOL    HW134409   0.839   2.300  13.674  1.3510  1.1914 -0.9346
 7591SOL    HW234410   0.880   2.341  13.817 -3.5902 -1.8319  0.8182
 7592SOL     OW34411   3.153   2.981   8.431 -0.0324 -0.7659  0.4173
 7592SOL    HW134412   3.079   2.992   8.491  0.7752 -0.5387  1.3785
 7592SOL    HW234413   3.223   2.983   8.496 -1.7260  0.0993  2.2185
 7593SOL     OW34414   0.021   1.818   4.931  0.3001 -0.3625 -0.1655
 7593SOL    HW134415   0.065   1.758   4.870  1.5371  1.7822 -1.3552
 7593SOL    HW234416   0.089   1.883   4.950  0.1092 -0.5726  1.2746
 7594SOL     OW34417   1.227   3.401   5.565  0.0505 -0.4342 -0.0346
 7594SOL    HW134418   1.222   3.318   5.614  0.6101  0.3525  1.3570
 7594SOL    HW234419   1.313   3.435   5.591  0.4100 -2.1725  1.0978
 7595SOL     OW34420   1.567   1.312  16.809  0.1511  0.0736  0.6452
 7595SOL    HW134421   1.626   1.259  16.862 -1.0653 -0.8150  1.0847
 7595SOL    HW234422   1.487   1.265  16.830  0.6961 -0.6711  1.0220
 7596SOL     OW34423   2.695   1.789  16.030 -0.0625 -0.1895  0.1692
 7596SOL    HW134424   2.692   1.858  15.964  1.1014  0.1808  0.4920
 7596SOL    HW234425   2.785   1.799  16.063  0.6353  1.2516 -2.1601
 7597SOL     OW34426   3.816   3.745   5.955 -0.2048 -0.1120 -0.5515
 7597SOL    HW134427   3.858   3.785   6.031  0.3296 -2.6768  0.5155
 7597SOL    HW234428   3.806   3.822   5.899  2.2479 -0.5706 -1.5819
 7598SOL     OW34429   2.579   4.055   2.142 -0.1105  0.2894 -0.3285
 7598SOL    HW134430   2.484   4.053   2.141 -0.1125  0.2541  0.1180
 7598SOL    HW234431   2.592   4.066   2.236 -3.3137 -3.1694  0.5149
 7599SOL     OW34432   4.623   1.189   5.373  0.4128  0.3670 -0.2456
 7599SOL    HW134433   4.700   1.225   5.330 -0.7520  2.5078 -0.5186
 7599SOL    HW234434   4.619   1.112   5.316 -1.3490  1.3473 -1.4420
 7600SOL     OW34435   3.717   1.296   5.267  0.1126 -0.3357  0.5199
 7600SOL    HW134436   3.680   1.253   5.189 -0.4149  0.9229  0.0821
 7600SOL    HW234437   3.652   1.262   5.329  0.1036 -0.0524  0.6652
 7601SOL     OW34438   1.274   3.284  15.017 -0.1565 -0.0812 -0.6225
 7601SOL    HW134439   1.223   3.204  15.020  0.3122 -0.3570  0.0255
 7601SOL    HW234440   1.209   3.354  15.008  0.1336  0.4802  1.5762
 7602SOL     OW34441   1.739   3.126  10.355  0.0834 -0.5572 -0.0569
 7602SOL    HW134442   1.651   3.096  10.380 -0.0153  0.2555  0.5932
 7602SOL    HW234443   1.799   3.069  10.403  0.0440  0.8246  1.6589
 7603SOL     OW34444   3.587   1.493   3.462 -0.7003  0.1278  0.9470
 7603SOL    HW134445   3.579   1.563   3.397  0.5046 -1.5270 -1.0017
 7603SOL    HW234446   3.633   1.426   3.412  1.7361  3.3293 -1.0846
 7604SOL     OW34447   3.817   4.386   4.882  0.6945 -0.6128  0.5673
 7604SOL    HW134448   3.839   4.344   4.965 -0.9835 -1.8370  0.3936
 7604SOL    HW234449   3.898   4.432   4.859  0.3275 -0.6346 -0.7410
 7605SOL     OW34450   4.232   1.515  11.973  0.3736 -0.0797 -0.5168
 7605SOL    HW134451   4.277   1.460  12.038 -1.6595 -1.1593 -0.0135
 7605SOL    HW234452   4.235   1.451  11.902 -0.3733  0.4429 -1.0144
 7606SOL     OW34453   1.949   3.889   5.096  0.2635 -0.7892 -0.5495
 7606SOL    HW134454   1.975   3.938   5.018 -0.7721  0.7256  0.0583
 7606SOL    HW234455   1.938   3.805   5.051 -0.1373 -0.6589 -0.6950
 7607SOL     OW34456   3.243   1.011   4.009 -0.2829  0.0149 -0.2847
 7607SOL    HW134457   3.191   1.059   3.945 -0.6245  1.8715  1.3478
 7607SOL    HW234458   3.241   0.923   3.972 -0.1256  0.5895 -1.6290
 7608SOL     OW34459   0.731   3.089   5.447  0.2186 -0.5504 -0.3236
 7608SOL    HW134460   0.827   3.094   5.456  0.4256 -0.5381 -2.5624
 7608SOL    HW234461   0.711   3.180   5.471  0.9614 -0.4602 -0.0246
 7609SOL     OW34462   4.005   1.664   5.992  0.2666  0.5807 -0.0620
 7609SOL    HW134463   3.911   1.686   5.996  0.0840 -0.1670 -0.3040
 7609SOL    HW234464   4.030   1.634   6.079  1.5816  0.2047 -0.5728
 7610SOL     OW34465   0.284   1.453  17.055 -0.6743 -0.6067  0.5990
 7610SOL    HW134466   0.364   1.507  17.060 -0.4287 -0.9309  0.0847
 7610SOL    HW234467   0.328   1.371  17.035  0.5628  0.6234 -1.7032
 7611SOL     OW34468   3.936   2.411  12.789  0.0007  0.0780  0.4011
 7611SOL    HW134469   3.973   2.482  12.841  1.4206 -1.4477  1.4720
 7611SOL    HW234470   3.995   2.417  12.714  0.8041  1.1590  1.1221
 7612SOL     OW34471   2.113   1.039   6.497  0.2032  0.2523  0.8273
 7612SOL    HW134472   2.140   0.949   6.517  1.1372  0.1513 -0.9284
 7612SOL    HW234473   2.095   1.040   6.403  2.0045 -0.7522  0.4744
 7613SOL     OW34474   1.321   0.395  17.661 -0.0857  0.4999 -0.4108
 7613SOL    HW134475   1.330   0.316  17.607 -2.4978 -0.4894  0.5938
 7613SOL    HW234476   1.409   0.422  17.684 -0.3684  1.1832 -0.1237
 7614SOL     OW34477   1.283   2.858   7.624 -0.1709  0.3569 -0.4934
 7614SOL    HW134478   1.214   2.798   7.651  0.1989  0.1351 -0.0539
 7614SOL    HW234479   1.322   2.803   7.556 -3.0149  0.2866 -2.0637
 7615SOL     OW34480   0.276   2.472   4.184  0.1389  0.1086 -0.1280
 7615SOL    HW134481   0.365   2.436   4.176 -0.0577 -0.8000  1.5001
 7615SOL    HW234482   0.235   2.427   4.110 -0.5847  0.3837  0.1152
 7616SOL     OW34483   1.909   1.615  12.691 -0.5949  0.0486 -0.2957
 7616SOL    HW134484   1.949   1.703  12.689  1.3435 -0.8156  0.3440
 7616SOL    HW234485   1.926   1.591  12.782  0.0566 -2.0196 -0.9678
 7617SOL     OW34486   0.326   1.938   7.547  0.0547 -0.6138  0.0604
 7617SOL    HW134487   0.248   1.978   7.510 -0.0557 -2.7516 -1.9572
 7617SOL    HW234488   0.369   2.017   7.581 -2.1713 -0.1993  1.9222
 7618SOL     OW34489   1.370   0.680   3.519 -0.6421  0.4429  0.4102
 7618SOL    HW134490   1.353   0.729   3.599 -1.1283  1.7957 -0.5150
 7618SOL    HW234491   1.283   0.668   3.480 -0.6971  0.6904  0.4560
 7619SOL     OW34492   3.374   0.632  15.315 -0.1074  0.1164  0.7145
 7619SOL    HW134493   3.340   0.542  15.321  1.2009 -0.4634 -0.6075
 7619SOL    HW234494   3.345   0.655  15.227  1.3187  2.0132  0.7517
 7620SOL     OW34495   4.566   2.776   5.735 -0.7246 -0.1660  0.0400
 7620SOL    HW134496   4.654   2.786   5.772 -0.5705  2.7235 -1.0626
 7620SOL    HW234497   4.530   2.715   5.799  2.0863 -1.7799  0.0590
 7621SOL     OW34498   2.506   2.431  12.506  0.1957 -0.2334 -0.6275
 7621SOL    HW134499   2.480   2.364  12.570 -0.4740  2.2104  1.6579
 7621SOL    HW234500   2.452   2.411  12.430 -1.1793 -2.3719  0.9294
 7622SOL     OW34501   0.493   2.250   0.213  0.0915 -0.1494 -0.5051
 7622SOL    HW134502   0.459   2.232   0.125 -2.2368 -0.0410  0.3820
 7622SOL    HW234503   0.587   2.243   0.198  0.0979 -1.2004 -0.0028
 7623SOL     OW34504   4.688   4.529   7.505 -0.0050  0.1299 -0.1221
 7623SOL    HW134505   4.662   4.475   7.431 -0.2956 -0.2363  0.2482
 7623SOL    HW234506   4.647   4.476   7.573 -0.4011  2.6210  1.5854
 7624SOL     OW34507   3.953   3.870  17.337  0.3866  0.5904 -0.3866
 7624SOL    HW134508   3.979   3.920  17.415  2.5743 -0.3403 -0.5258
 7624SOL    HW234509   4.030   3.815  17.331  0.8871  1.2868 -0.3742
 7625SOL     OW34510   0.011   4.246   2.019  0.0384  0.2607  0.7061
 7625SOL    HW134511   0.058   4.186   2.078  0.9339 -0.4625 -0.7322
 7625SOL    HW234512   4.669   4.246   2.074 -1.3539  0.2860 -1.2631
 7626SOL     OW34513   2.932   1.333   6.369 -0.0809  0.1259  0.3636
 7626SOL    HW134514   2.956   1.331   6.461  1.4364  1.6757  0.0141
 7626SOL    HW234515   2.850   1.283   6.373 -0.4636  0.8263  1.2806
 7627SOL     OW34516   4.273   1.237   3.417 -0.3958  0.0366  0.0817
 7627SOL    HW134517   4.283   1.308   3.481 -0.2415  0.4643 -0.4183
 7627SOL    HW234518   4.258   1.159   3.470 -1.0709  1.5494  2.1702
 7628SOL     OW34519   3.527   2.865   7.891  0.2265 -0.1446  0.2320
 7628SOL    HW134520   3.482   2.883   7.808 -3.0564 -0.4511  1.9495
 7628SOL    HW234521   3.462   2.816   7.941  0.5607 -0.9125 -0.0879
 7629SOL     OW34522   4.339   3.143  12.751  0.2106 -0.3353 -0.1414
 7629SOL    HW134523   4.390   3.067  12.777 -1.8618 -0.8212  2.5053
 7629SOL    HW234524   4.397   3.177  12.683 -1.1741 -0.6565 -1.4551
 7630SOL     OW34525   0.942   2.374   5.115 -0.4177  0.4321 -0.0391
 7630SOL    HW134526   0.907   2.461   5.097 -0.3299  0.1416 -1.5545
 7630SOL    HW234527   1.034   2.394   5.099 -0.3812 -0.9833 -1.6301
 7631SOL     OW34528   1.927   3.842   1.652 -0.0891  1.0335  0.0219
 7631SOL    HW134529   1.877   3.844   1.734 -2.3760 -0.9401 -1.3129
 7631SOL    HW234530   1.926   3.932   1.620 -0.1682  1.6129  1.6611
 7632SOL     OW34531   2.307   2.125   2.813  0.3738 -0.9413  0.6513
 7632SOL    HW134532   2.227   2.158   2.773  0.4851 -1.3495  0.0862
 7632SOL    HW234533   2.369   2.182   2.767  0.5532 -1.0733  0.7258
 7633SOL     OW34534   3.101   0.343   5.705  0.0930  0.0242  0.1812
 7633SOL    HW134535   3.070   0.305   5.788 -0.7579 -0.7312 -0.4910
 7633SOL    HW234536   3.016   0.355   5.664 -0.6795 -0.8367  1.5340
 7634SOL     OW34537   0.705   4.096   6.637 -0.2790 -0.3160 -0.1875
 7634SOL    HW134538   0.763   4.043   6.583 -0.9199 -2.9283  1.7136
 7634SOL    HW234539   0.736   4.061   6.721 -0.4785  0.6145  0.2784
 7635SOL     OW34540   1.248   4.584   7.711  0.2076  0.0558  0.1378
 7635SOL    HW134541   1.319   4.647   7.702  1.1631 -1.2060 -1.0643
 7635SOL    HW234542   1.171   4.640   7.700  0.4938  0.5724  0.7619
 7636SOL     OW34543   3.732   2.328   2.271 -0.0926 -0.3209 -0.9517
 7636SOL    HW134544   3.802   2.282   2.317  0.4164  0.5183 -0.8805
 7636SOL    HW234545   3.658   2.317   2.330  1.9088 -0.5392  1.4788
 7637SOL     OW34546   3.529   4.432   9.318 -0.0536 -0.1363  0.2364
 7637SOL    HW134547   3.583   4.436   9.239 -1.3464 -1.6465 -0.7212
 7637SOL    HW234548   3.588   4.420   9.392  1.5393  1.8868 -0.6950
 7638SOL     OW34549   1.581   0.209   6.873 -0.2187 -0.2154  0.1572
 7638SOL    HW134550   1.554   0.208   6.781  2.1281 -2.9452 -0.5244
 7638SOL    HW234551   1.535   0.135   6.913 -0.6261  0.4200  0.8755
 7639SOL     OW34552   1.450   3.800   7.238  0.4780 -0.2106 -0.4802
 7639SOL    HW134553   1.428   3.730   7.177  0.2358 -0.2859 -0.3092
 7639SOL    HW234554   1.495   3.855   7.174 -1.3101  0.8461 -0.8306
 7640SOL     OW34555   1.681   4.122   4.024  0.0966  0.1869 -0.3516
 7640SOL    HW134556   1.711   4.080   4.105 -1.2974 -1.5023 -0.7091
 7640SOL    HW234557   1.716   4.068   3.953 -0.6343  2.7145 -2.6112
 7641SOL     OW34558   4.203   2.995   5.055  0.1172 -0.3291 -0.1829
 7641SOL    HW134559   4.191   2.948   4.972  4.7520  0.1855 -1.1125
 7641SOL    HW234560   4.119   2.985   5.099 -0.5165 -0.3009 -1.3709
 7642SOL     OW34561   1.663   2.809   1.245  0.3501  0.2502  0.1309
 7642SOL    HW134562   1.700   2.845   1.165  0.3201  1.6663  0.7689
 7642SOL    HW234563   1.661   2.717   1.216 -0.5211  0.0632  0.7909
 7643SOL     OW34564   4.131   2.729   0.465  0.9314 -0.1456 -0.3711
 7643SOL    HW134565   4.161   2.813   0.501  3.0447  0.1177 -2.7149
 7643SOL    HW234566   4.144   2.667   0.536 -2.2283  0.5988  0.8643
 7644SOL     OW34567   3.016   3.110   3.240  0.1852  0.4339 -0.0130
 7644SOL    HW134568   3.098   3.153   3.266  0.6370  0.4701 -1.4999
 7644SOL    HW234569   3.048   3.053   3.170  1.3120  0.2862  0.6108
 7645SOL     OW34570   2.935   0.259   4.833 -0.4965  0.0318  0.4603
 7645SOL    HW134571   2.938   0.347   4.796 -0.2843  0.2337  0.9655
 7645SOL    HW234572   2.935   0.202   4.756  0.9135  1.2567 -0.4397
 7646SOL     OW34573   2.777   4.110   3.099 -0.0392  0.0027 -0.4814
 7646SOL    HW134574   2.740   4.192   3.131 -2.3961 -2.1694  2.4331
 7646SOL    HW234575   2.700   4.060   3.073  0.6282 -1.1000 -0.3353
 7647SOL     OW34576   3.413   0.116   8.178  0.0968 -0.3248  0.2574
 7647SOL    HW134577   3.336   0.067   8.208 -0.7823 -0.2699 -1.9591
 7647SOL    HW234578   3.447   0.149   8.262 -0.2559  0.1589  0.2098
 7648SOL     OW34579   1.912   3.646   8.464 -0.6678  0.3441  0.0891
 7648SOL    HW134580   1.991   3.691   8.496 -0.8521  0.0595  0.9481
 7648SOL    HW234581   1.941   3.555   8.455  0.6005  0.6812  0.7013
 7649SOL     OW34582   4.522   2.000   4.917 -0.5501 -0.5815 -0.1081
 7649SOL    HW134583   4.608   1.959   4.926 -0.5798 -0.2633  1.7003
 7649SOL    HW234584   4.478   1.968   4.996 -0.8730  0.5510  0.1657
 7650SOL     OW34585   1.974   2.748  14.926  0.5045 -0.1956  0.1211
 7650SOL    HW134586   2.044   2.798  14.968  0.5791  0.1685 -0.4418
 7650SOL    HW234587   1.952   2.679  14.988  3.1657 -0.5015  0.7401
 7651SOL     OW34588   2.866   1.567  13.971 -0.1944 -0.0919 -0.4881
 7651SOL    HW134589   2.890   1.644  14.021  1.7481 -0.0772 -1.4512
 7651SOL    HW234590   2.816   1.609  13.901  0.4976 -0.5793 -1.2723
 7652SOL     OW34591   3.179   2.596   4.661 -0.5662  0.2194 -0.3257
 7652SOL    HW134592   3.128   2.559   4.732 -1.5093 -1.5553 -1.9220
 7652SOL    HW234593   3.199   2.685   4.690  1.9881  0.3885 -2.5642
 7653SOL     OW34594   1.322   3.701  12.145  0.1946  0.7047  0.0581
 7653SOL    HW134595   1.363   3.749  12.073  0.7938 -0.6200 -0.4865
 7653SOL    HW234596   1.280   3.629  12.097 -0.3753  2.3457 -1.9062
 7654SOL     OW34597   0.985   2.634   7.900 -0.3603 -0.3525 -0.0811
 7654SOL    HW134598   0.924   2.608   7.969 -1.1420 -2.2880 -1.4644
 7654SOL    HW234599   1.061   2.580   7.920  0.2875  0.1298 -1.2490
 7655SOL     OW34600   4.060   1.985   4.037 -0.2754 -0.0577 -0.6104
 7655SOL    HW134601   4.094   1.909   4.083  0.7555  1.3446  0.9488
 7655SOL    HW234602   4.044   1.951   3.949 -0.4110 -1.3871 -0.0759
 7656SOL     OW34603   3.854   1.008   9.181 -0.8179  0.2395 -0.3430
 7656SOL    HW134604   3.828   0.916   9.186  0.4623 -0.1224 -0.3464
 7656SOL    HW234605   3.766   1.040   9.200 -0.1290  2.4420 -0.8724
 7657SOL     OW34606   0.160   0.140  13.582  0.2226 -0.3836  0.5484
 7657SOL    HW134607   0.161   0.235  13.569  0.1626 -0.3230  0.9954
 7657SOL    HW234608   0.070   0.128  13.553  0.5189  0.4981 -0.7411
 7658SOL     OW34609   0.526   2.476  13.532 -0.1164  0.5377 -0.5913
 7658SOL    HW134610   0.437   2.501  13.505  1.0348  1.7998 -3.1814
 7658SOL    HW234611   0.525   2.381  13.527 -1.6102  0.5780 -1.0649
 7659SOL     OW34612   1.907   2.810   5.640 -0.0210  0.1605  0.0298
 7659SOL    HW134613   1.989   2.771   5.610 -1.4624 -2.3087 -0.7450
 7659SOL    HW234614   1.892   2.762   5.722  3.3409 -1.4756 -0.3429
 7660SOL     OW34615   1.799   2.815   3.529  0.1317 -0.0568 -0.6079
 7660SOL    HW134616   1.842   2.765   3.599  0.2702  1.1122  0.1514
 7660SOL    HW234617   1.821   2.759   3.455  1.7872 -0.2392  0.0216
 7661SOL     OW34618   1.263   2.152   7.815 -0.2684 -0.0552 -0.5413
 7661SOL    HW134619   1.199   2.113   7.756 -0.4056  0.3379 -0.6495
 7661SOL    HW234620   1.255   2.246   7.801  1.4368 -0.0731 -1.6954
 7662SOL     OW34621   1.334   4.268   9.434  0.2939 -0.5000  0.3844
 7662SOL    HW134622   1.295   4.322   9.503  0.2049  0.0997 -0.1335
 7662SOL    HW234623   1.390   4.218   9.493  2.3147  0.6493 -0.5513
 7663SOL     OW34624   3.770   3.603   2.135 -0.3749 -0.1824  0.6258
 7663SOL    HW134625   3.770   3.551   2.215  1.1496 -2.0568 -0.5974
 7663SOL    HW234626   3.728   3.550   2.068 -0.9427 -1.4091  1.9577
 7664SOL     OW34627   0.236   0.094   8.805  0.2893 -0.1119  0.1455
 7664SOL    HW134628   0.160   0.146   8.831  1.0137  1.0699 -0.1077
 7664SOL    HW234629   0.286   0.161   8.758 -0.0519 -0.2057 -0.3516
 7665SOL     OW34630   0.439   2.480   0.371  0.1316 -0.7250 -0.0708
 7665SOL    HW134631   0.520   2.442   0.404  0.5136  0.3575  0.2501
 7665SOL    HW234632   0.431   2.431   0.289 -0.3275 -0.3935 -0.2236
 7666SOL     OW34633   4.320   0.309   7.067 -0.7366  0.5863 -0.2908
 7666SOL    HW134634   4.236   0.290   7.108 -0.0688  0.2302  0.9105
 7666SOL    HW234635   4.369   0.227   7.063  0.5459  1.3159  0.5826
 7667SOL     OW34636   2.494   1.547   6.705  0.4638 -0.3256 -0.2060
 7667SOL    HW134637   2.565   1.487   6.725 -0.7846 -1.0790  2.0124
 7667SOL    HW234638   2.548   1.617   6.668  1.9809 -1.0940  0.6039
 7668SOL     OW34639   3.152   1.915  16.515 -0.9946  0.3077  0.3157
 7668SOL    HW134640   3.068   1.957  16.531 -0.3794  2.8894 -3.2213
 7668SOL    HW234641   3.170   1.904  16.609  1.7988 -1.7771 -0.4342
 7669SOL     OW34642   2.297   4.612   1.539  0.2875 -0.1980  0.2824
 7669SOL    HW134643   2.374   4.655   1.576  0.4569 -1.9449  1.9908
 7669SOL    HW234644   2.228   4.668   1.574 -1.6783 -0.3230 -3.3344
 7670SOL     OW34645   4.305   2.859  17.530 -0.3556  0.3665 -0.2483
 7670SOL    HW134646   4.286   2.772  17.496 -2.1155  0.5379  0.2996
 7670SOL    HW234647   4.363   2.885  17.459  0.4283 -0.3292  0.1411
 7671SOL     OW34648   3.196   4.411   9.115 -1.0284 -0.2383  0.4183
 7671SOL    HW134649   3.101   4.407   9.111 -1.0001 -0.7827  0.2824
 7671SOL    HW234650   3.211   4.407   9.020  0.4683  2.0444  0.5769
 7672SOL     OW34651   4.060   2.645   4.190  0.3655 -0.1857 -0.2938
 7672SOL    HW134652   4.025   2.584   4.125  0.9699 -0.2226 -0.5777
 7672SOL    HW234653   4.080   2.726   4.143  1.1599  0.9238  1.9941
 7673SOL     OW34654   4.587   4.305   1.552 -0.5823  0.5014  0.4324
 7673SOL    HW134655   4.655   4.254   1.594 -0.8618 -0.7712 -0.6862
 7673SOL    HW234656   4.585   4.252   1.472  3.2010 -0.5685  1.0652
 7674SOL     OW34657   1.462   2.043   9.034 -0.0564  0.0764  0.1062
 7674SOL    HW134658   1.521   2.057   8.960 -1.1885  0.4739 -0.7193
 7674SOL    HW234659   1.377   2.057   8.992 -0.4309 -3.6917 -0.3712
 7675SOL     OW34660   3.793   2.130   2.072  0.2429 -0.2486  0.3231
 7675SOL    HW134661   3.885   2.117   2.095  0.1329 -0.8228  0.4213
 7675SOL    HW234662   3.757   2.193   2.134 -1.2387  1.2899 -2.1023
 7676SOL     OW34663   0.096   2.671   8.059  0.5765  1.1705 -0.0287
 7676SOL    HW134664   0.160   2.634   7.998  2.2282  1.5642  1.4409
 7676SOL    HW234665   0.142   2.647   8.140  1.4053  2.6791 -0.0505
 7677SOL     OW34666   3.765   1.762   6.808 -0.1338 -0.3006 -0.0152
 7677SOL    HW134667   3.762   1.824   6.882 -1.7896  0.0690 -0.3863
 7677SOL    HW234668   3.841   1.714   6.841 -0.7230 -1.9677 -1.1269
 7678SOL     OW34669   2.488   1.774  11.338 -0.6267  0.0633  0.3154
 7678SOL    HW134670   2.574   1.815  11.325 -1.0332  1.5025  2.1130
 7678SOL    HW234671   2.501   1.708  11.270  1.0220  0.7192 -0.0108
 7679SOL     OW34672   4.392   1.402  10.748 -0.1804  0.0671  0.1648
 7679SOL    HW134673   4.444   1.357  10.816  1.4650  1.6605 -0.0621
 7679SOL    HW234674   4.424   1.358  10.669  2.5677  0.3582  1.1028
 7680SOL     OW34675   1.871   3.499   7.510  0.3839  0.3138 -0.3871
 7680SOL    HW134676   1.809   3.499   7.437 -1.3319 -0.1545  1.0728
 7680SOL    HW234677   1.847   3.576   7.561 -2.0738  0.4680 -1.7444
 7681SOL     OW34678   2.945   3.231   8.958  0.1758  0.1375  0.2458
 7681SOL    HW134679   2.853   3.253   8.947  0.4271  0.9680 -0.1642
 7681SOL    HW234680   2.984   3.318   8.956 -0.1978  0.3389  1.7093
 7682SOL     OW34681   0.110   3.368   7.407 -0.0195  0.4555 -0.3724
 7682SOL    HW134682   0.039   3.384   7.345  0.1759  3.0235  0.0632
 7682SOL    HW234683   0.071   3.397   7.490 -0.6795  0.7730 -0.7872
 7683SOL     OW34684   2.463   1.979   5.437  0.4356 -0.1900  0.5138
 7683SOL    HW134685   2.419   1.990   5.353 -0.8288 -1.6325  0.9803
 7683SOL    HW234686   2.460   1.884   5.447  0.2221 -0.3919 -1.4741
 7684SOL     OW34687   1.743   2.443  10.145 -0.5695 -0.6341  0.0291
 7684SOL    HW134688   1.758   2.517  10.204  1.0305 -0.7671 -0.2322
 7684SOL    HW234689   1.709   2.484  10.066  0.1646 -1.0802 -0.5242
 7685SOL     OW34690   1.202   2.183   8.906  0.0019  0.1774 -0.2596
 7685SOL    HW134691   1.173   2.092   8.911  0.2437  0.1729  1.3842
 7685SOL    HW234692   1.120   2.230   8.923 -0.6092 -0.3201 -1.8998
 7686SOL     OW34693   4.095   3.679   5.084 -0.0976 -0.3417 -0.6500
 7686SOL    HW134694   4.065   3.753   5.137  0.6307 -2.6267  2.9291
 7686SOL    HW234695   4.080   3.719   4.998 -0.0178  0.6959 -0.1785
 7687SOL     OW34696   3.552   3.839   7.998 -0.0083 -0.0147  0.8156
 7687SOL    HW134697   3.466   3.863   7.961 -0.0058 -1.7031 -0.2770
 7687SOL    HW234698   3.606   3.813   7.924 -0.2976 -1.3092  1.0654
 7688SOL     OW34699   3.427   0.519   8.293  0.2106  0.0666  0.6178
 7688SOL    HW134700   3.438   0.614   8.288 -2.0266  0.2551 -0.8197
 7688SOL    HW234701   3.335   0.507   8.315  0.4537 -1.0461  1.0667
 7689SOL     OW34702   2.070   3.701  13.381 -0.2240 -0.3172  0.3617
 7689SOL    HW134703   2.040   3.769  13.442  1.9152 -1.2530  2.4759
 7689SOL    HW234704   2.163   3.706  13.402 -0.1758  1.3694 -0.2578
 7690SOL     OW34705   3.556   1.200  11.830 -0.2654  0.2901  0.0234
 7690SOL    HW134706   3.470   1.180  11.866 -0.0088  0.4964  0.7712
 7690SOL    HW234707   3.532   1.195  11.738  1.7911 -0.1847 -0.4857
 7691SOL     OW34708   1.234   4.635   8.371  0.1682  0.0982 -0.0044
 7691SOL    HW134709   1.173   4.568   8.402 -0.1206  1.0091  1.3751
 7691SOL    HW234710   1.310   4.580   8.353 -0.4667 -0.7478 -0.1165
 7692SOL     OW34711   0.091   3.760   0.795  0.2877  0.7698 -0.1411
 7692SOL    HW134712   0.179   3.774   0.759  0.9888  1.7645  1.9669
 7692SOL    HW234713   0.029   3.800   0.733  1.4570  0.0275 -1.8111
 7693SOL     OW34714   3.339   3.200   2.279  0.3896 -0.4961 -0.3571
 7693SOL    HW134715   3.340   3.104   2.272  0.9552 -0.2256 -3.8103
 7693SOL    HW234716   3.427   3.220   2.246  0.0359  0.4879 -0.7050
 7694SOL     OW34717   0.766   1.663  13.695 -0.3254  0.4968  0.0748
 7694SOL    HW134718   0.846   1.714  13.704 -0.0443 -0.2585  1.7091
 7694SOL    HW234719   0.801   1.583  13.732  1.5872  1.3674  0.1341
 7695SOL     OW34720   3.962   2.521  14.624  0.5246 -0.2955 -0.0146
 7695SOL    HW134721   3.987   2.492  14.712 -0.2218  0.9309  0.6088
 7695SOL    HW234722   3.937   2.611  14.649 -0.0420 -0.8413  1.3961
 7696SOL     OW34723   1.259   1.343  11.339 -0.5522 -0.0173 -0.0461
 7696SOL    HW134724   1.252   1.439  11.337 -0.0497  0.0328  0.5926
 7696SOL    HW234725   1.221   1.320  11.255 -0.4096  2.2197 -0.7394
 7697SOL     OW34726   3.555   4.015  17.464 -0.5008 -0.1249  0.0044
 7697SOL    HW134727   3.610   4.066  17.405 -2.1589  1.5805 -0.0603
 7697SOL    HW234728   3.589   4.055  17.544 -1.0435 -2.4147  1.3852
 7698SOL     OW34729   1.637   4.122   7.715 -0.2343  0.1943 -0.6131
 7698SOL    HW134730   1.671   4.181   7.783  0.9597  0.4916 -1.4698
 7698SOL    HW234731   1.687   4.047   7.747 -2.1226 -0.6220  0.4085
 7699SOL     OW34732   4.177   1.255  10.478 -0.1770 -0.0232 -0.0773
 7699SOL    HW134733   4.267   1.270  10.505 -0.3404  1.4302 -0.3132
 7699SOL    HW234734   4.173   1.167  10.515  1.4451 -1.2700 -2.9058
 7700SOL     OW34735   3.356   0.594   9.549 -0.3158  0.0281  0.0569
 7700SOL    HW134736   3.270   0.600   9.589 -0.3973 -1.6438  0.1032
 7700SOL    HW234737   3.403   0.671   9.581  1.7266 -1.3657  0.3907
 7701SOL     OW34738   1.645   3.753  11.540  0.0206  0.0838 -0.1756
 7701SOL    HW134739   1.644   3.784  11.450  0.4175 -0.6478 -0.4322
 7701SOL    HW234740   1.557   3.720  11.557 -0.0305  0.0917 -0.4370
 7702SOL     OW34741   4.606   4.061  12.861 -0.2730  0.2519  0.3660
 7702SOL    HW134742   4.666   3.988  12.876 -2.2311 -1.1015  1.6161
 7702SOL    HW234743   4.549   4.030  12.791  0.0652  0.0465  0.1809
 7703SOL     OW34744   1.488   0.242   9.575  0.3429 -0.1408 -0.4780
 7703SOL    HW134745   1.528   0.183   9.512  0.0774  0.3885 -1.1410
 7703SOL    HW234746   1.427   0.299   9.528  0.8286 -0.4033 -1.4333
 7704SOL     OW34747   3.563   2.008   9.598  0.4050  0.1892 -0.0957
 7704SOL    HW134748   3.543   1.998   9.505 -0.3655  1.9028 -0.1121
 7704SOL    HW234749   3.561   1.918   9.631 -1.3083  0.0140 -0.6795
 7705SOL     OW34750   2.390   3.136  14.109 -0.3898  0.7904 -0.4184
 7705SOL    HW134751   2.381   3.155  14.202 -1.3460  0.1208 -0.3831
 7705SOL    HW234752   2.482   3.110  14.109 -0.6494 -0.1163  1.5604
 7706SOL     OW34753   1.241   4.059   3.623 -0.0769 -0.1429 -0.4438
 7706SOL    HW134754   1.257   3.984   3.680 -1.9937  0.9829  1.5651
 7706SOL    HW234755   1.147   4.047   3.607 -0.3066  2.7350 -1.3534
 7707SOL     OW34756   2.036   0.252  10.951  0.8921  0.1243 -0.2800
 7707SOL    HW134757   2.030   0.336  10.904 -1.3085 -0.1489 -0.4813
 7707SOL    HW234758   2.043   0.289  11.039  0.7297  0.4656 -0.4067
 7708SOL     OW34759   3.401   3.693   3.717 -0.3933 -0.2939  0.0948
 7708SOL    HW134760   3.308   3.678   3.733 -0.5581  0.8408  0.2358
 7708SOL    HW234761   3.437   3.752   3.783 -2.6603  0.4440  0.6871
 7709SOL     OW34762   1.699   3.986   6.686 -0.4078  0.0413 -0.2171
 7709SOL    HW134763   1.745   3.913   6.645  1.4728 -0.2125  2.3592
 7709SOL    HW234764   1.762   4.000   6.756 -0.3997  2.6217 -0.7723
 7710SOL     OW34765   3.507   1.771   2.366  0.5691  0.0945  0.1235
 7710SOL    HW134766   3.421   1.742   2.396  0.2556 -1.5034 -2.2559
 7710SOL    HW234767   3.487   1.862   2.344  0.0232 -0.2611 -0.8595
 7711SOL     OW34768   4.176   0.104  17.521  0.0582 -0.4413  0.4782
 7711SOL    HW134769   4.162   0.038  17.454  1.8052 -0.1956 -0.1250
 7711SOL    HW234770   4.270   0.111  17.534  0.3047 -3.4228  0.2273
 7712SOL     OW34771   2.963   3.112   4.176  0.0073  0.7841 -0.8173
 7712SOL    HW134772   3.025   3.043   4.155 -0.8876 -0.1701 -0.3051
 7712SOL    HW234773   2.968   3.168   4.098 -2.1438 -0.1298 -1.6253
 7713SOL     OW34774   4.282   0.435   5.726  0.0901  0.4248  0.2128
 7713SOL    HW134775   4.203   0.487   5.717 -0.5191 -0.2585  1.5163
 7713SOL    HW234776   4.252   0.346   5.707  2.3511 -0.5006  0.8819
 7714SOL     OW34777   2.177   0.208  10.441 -0.6126 -0.4639 -0.2394
 7714SOL    HW134778   2.235   0.185  10.368 -2.3926  4.0201 -3.1271
 7714SOL    HW234779   2.106   0.257  10.400 -1.6316 -1.1588  0.6906
 7715SOL     OW34780   2.406   1.086  11.123 -0.0694 -0.3293  0.5131
 7715SOL    HW134781   2.318   1.058  11.151  0.6153 -2.1935  0.7943
 7715SOL    HW234782   2.428   1.016  11.062 -0.4239  0.7919 -0.9015
 7716SOL     OW34783   3.339   3.832  16.875  0.6631  0.0492 -0.1932
 7716SOL    HW134784   3.428   3.801  16.889  1.6242  1.8225 -2.5424
 7716SOL    HW234785   3.357   3.876  16.792  2.8960  0.2513  0.3914
 7717SOL     OW34786   0.562   4.367   7.900 -0.1730 -0.2120 -0.0657
 7717SOL    HW134787   0.651   4.330   7.909 -0.4114 -0.3776  1.4579
 7717SOL    HW234788   0.537   4.342   7.811 -0.9738  0.0907  0.0816
 7718SOL     OW34789   2.333   1.703   3.850 -0.5769 -0.0012 -0.2659
 7718SOL    HW134790   2.255   1.753   3.875 -0.5978 -0.2914  0.2446
 7718SOL    HW234791   2.399   1.767   3.877  0.8067 -0.7759 -1.8466
 7719SOL     OW34792   1.533   4.497   8.295  0.6367 -0.2140  0.9511
 7719SOL    HW134793   1.623   4.463   8.297  0.0173 -1.9204 -0.2518
 7719SOL    HW234794   1.491   4.430   8.348 -0.6372 -0.2901 -0.1563
 7720SOL     OW34795   0.353   0.708   3.549 -0.6151 -0.1251 -0.1932
 7720SOL    HW134796   0.347   0.761   3.629 -1.5353 -1.4447  0.6084
 7720SOL    HW234797   0.382   0.624   3.585  1.4784  0.5462 -0.3565
 7721SOL     OW34798   1.573   1.331   8.298 -0.3623 -0.3401  0.0217
 7721SOL    HW134799   1.571   1.373   8.213 -0.2438  0.1319  0.2516
 7721SOL    HW234800   1.649   1.359   8.349  1.8213 -1.1528 -2.7934
 7722SOL     OW34801   2.540   2.286   3.041 -0.5073 -0.2728 -0.2892
 7722SOL    HW134802   2.570   2.369   3.077 -1.3722 -0.8365  1.7365
 7722SOL    HW234803   2.456   2.311   3.001  0.4508 -0.0197 -2.1526
 7723SOL     OW34804   3.857   1.408   9.407 -0.1227 -0.1040 -0.3523
 7723SOL    HW134805   3.850   1.502   9.422 -0.4492 -0.5075  2.0074
 7723SOL    HW234806   3.944   1.405   9.368  0.1194 -0.0573  0.1923
 7724SOL     OW34807   3.522   0.742   4.171 -0.1488 -0.4950 -0.1329
 7724SOL    HW134808   3.546   0.650   4.161 -0.6588 -0.7274  0.7837
 7724SOL    HW234809   3.446   0.726   4.227  0.0601 -1.5874 -0.1739
 7725SOL     OW34810   1.072   1.435   3.496 -0.0180  0.4415  0.4455
 7725SOL    HW134811   1.093   1.405   3.407 -0.3800  1.1247  0.1332
 7725SOL    HW234812   0.984   1.467   3.478 -0.1983 -0.5679 -0.4937
 7726SOL     OW34813   4.603   1.694  10.143  0.3857  0.1554  0.4313
 7726SOL    HW134814   4.663   1.703  10.217  0.4260 -2.0659  0.6720
 7726SOL    HW234815   4.551   1.774  10.149 -0.7544 -0.4427 -1.3411
 7727SOL     OW34816   0.069   1.584   2.749 -0.3512 -0.1554  0.0217
 7727SOL    HW134817   0.147   1.561   2.798 -0.1013 -0.2903 -0.4450
 7727SOL    HW234818   0.101   1.625   2.669  0.0215 -0.4617  0.0168
 7728SOL     OW34819   3.678   2.165   1.081 -0.2512 -0.6622  0.2166
 7728SOL    HW134820   3.693   2.201   0.994  1.7756  0.5135  1.0544
 7728SOL    HW234821   3.744   2.220   1.124  0.7098 -0.6360 -1.2998
 7729SOL     OW34822   2.034   2.286   3.356  0.0363 -0.0740 -0.1149
 7729SOL    HW134823   2.034   2.370   3.312 -2.7791  1.0330  2.0001
 7729SOL    HW234824   1.946   2.255   3.335 -0.0024 -0.3587  0.4651
 7730SOL     OW34825   0.035   4.558   1.851 -0.6411  0.0717  0.3171
 7730SOL    HW134826   4.727   4.561   1.766 -0.1340  1.7955  0.1151
 7730SOL    HW234827   4.729   4.476   1.877  1.1840 -0.2768  2.1713
 7731SOL     OW34828   2.723   2.124  17.238 -0.1254 -0.0051  0.4462
 7731SOL    HW134829   2.737   2.219  17.243  1.9548 -0.2879 -0.1324
 7731SOL    HW234830   2.643   2.130  17.186  1.1981  0.3203 -1.5666
 7732SOL     OW34831   0.961   1.449   4.804  0.2897 -0.0747  0.0512
 7732SOL    HW134832   0.877   1.453   4.849  0.1013 -0.9984 -0.2143
 7732SOL    HW234833   0.943   1.493   4.721 -0.8773 -0.4403  0.1052
 7733SOL     OW34834   3.318   3.752   1.852  0.4160 -0.2413 -0.1368
 7733SOL    HW134835   3.340   3.696   1.778 -1.8115  0.3034 -1.2273
 7733SOL    HW234836   3.309   3.839   1.814  2.8024 -0.1857 -0.5596
 7734SOL     OW34837   1.166   3.380  12.442  0.1304  0.1731 -0.3398
 7734SOL    HW134838   1.210   3.296  12.430 -0.9546 -0.4745  0.2581
 7734SOL    HW234839   1.233   3.428  12.393  0.0958  0.6690  0.0965
 7735SOL     OW34840   3.260   3.205   9.023  0.4729 -0.0028 -0.6525
 7735SOL    HW134841   3.354   3.225   9.030  0.6890 -1.1649 -0.2237
 7735SOL    HW234842   3.220   3.285   8.987 -0.8950 -0.4317 -0.0664
 7736SOL     OW34843   0.574   1.775  16.449  0.6720  0.3143  0.5111
 7736SOL    HW134844   0.508   1.733  16.394  0.9144 -0.3908  0.7573
 7736SOL    HW234845   0.583   1.862  16.411 -2.3690  0.1692 -0.5425
 7737SOL     OW34846   3.986   0.765   4.151  0.0947  0.2211 -0.2372
 7737SOL    HW134847   3.983   0.860   4.144  1.2090  0.1773 -1.2836
 7737SOL    HW234848   4.074   0.754   4.187 -0.6187 -0.4681  1.3168
 7738SOL     OW34849   1.823   2.609   3.287 -0.3568  0.1120 -0.0370
 7738SOL    HW134850   1.764   2.675   3.251  0.2722  0.6013 -0.1681
 7738SOL    HW234851   1.832   2.553   3.210 -0.5976 -0.2994  0.2347
 7739SOL     OW34852   2.395   3.230  12.304  0.1639  0.3014  0.1455
 7739SOL    HW134853   2.432   3.230  12.392  0.7233 -0.5053 -0.0915
 7739SOL    HW234854   2.312   3.273  12.322 -0.5623 -0.9728 -0.1691
 7740SOL     OW34855   4.356   2.453   0.444  0.0695 -0.4240  0.0844
 7740SOL    HW134856   4.370   2.501   0.526 -4.0422  0.2205  0.4110
 7740SOL    HW234857   4.288   2.510   0.406  0.9068 -0.2047 -1.0757
 7741SOL     OW34858   1.341   0.649   2.064 -0.1325 -1.2501  0.0150
 7741SOL    HW134859   1.262   0.598   2.081  0.2552 -1.7881  0.2150
 7741SOL    HW234860   1.322   0.656   1.971 -1.3632 -1.5156  0.2465
 7742SOL     OW34861   0.596   3.682   5.851  0.1207  0.2804 -0.2589
 7742SOL    HW134862   0.504   3.689   5.825 -0.1828  1.7089  1.1816
 7742SOL    HW234863   0.631   3.612   5.795  0.1406  0.4348 -0.4378
 7743SOL     OW34864   2.858   3.912   6.166  0.5243  0.2789  0.0350
 7743SOL    HW134865   2.901   3.871   6.090  0.7066 -1.2314  0.9499
 7743SOL    HW234866   2.839   3.835   6.220 -1.3298  0.7095 -0.0260
 7744SOL     OW34867   2.156   0.256  10.183  0.1718 -0.0152 -0.2016
 7744SOL    HW134868   2.071   0.223  10.156 -0.3073  1.1493 -0.1533
 7744SOL    HW234869   2.162   0.336  10.130  1.6065  0.2921  0.4373
 7745SOL     OW34870   3.480   3.191  10.686  0.2327 -0.0062  0.2462
 7745SOL    HW134871   3.568   3.225  10.706 -0.5689  2.0689  0.3128
 7745SOL    HW234872   3.492   3.097  10.677 -1.9044 -0.1802 -0.6794
 7746SOL     OW34873   0.763   0.111  14.586 -0.0509  0.0071  0.1781
 7746SOL    HW134874   0.790   0.023  14.560  0.7952  0.2941  0.0734
 7746SOL    HW234875   0.849   0.137  14.620  0.6097 -0.1899 -1.3500
 7747SOL     OW34876   3.631   2.871   6.056  0.0547 -1.1589  0.4307
 7747SOL    HW134877   3.720   2.837   6.057  0.6801  0.5144  1.7101
 7747SOL    HW234878   3.638   2.966   6.045  0.1533 -1.0126  1.7369
 7748SOL     OW34879   1.090   1.929   8.899  0.0434 -0.2831  0.1904
 7748SOL    HW134880   1.172   1.883   8.883  2.0674  3.1666  0.6766
 7748SOL    HW234881   1.071   1.897   8.987  0.2700  0.6152  0.5733
 7749SOL     OW34882   1.225   3.134  13.247  0.0010  0.0844  0.3930
 7749SOL    HW134883   1.215   3.044  13.280 -0.3678 -0.6959 -1.8396
 7749SOL    HW234884   1.320   3.134  13.233 -0.1977  0.1459 -0.9120
 7750SOL     OW34885   0.534   3.955   6.336  0.6888 -0.2128  0.7870
 7750SOL    HW134886   0.556   3.925   6.248 -1.1472  0.2472  0.1819
 7750SOL    HW234887   0.570   4.043   6.325 -1.3809  0.3991 -1.1258
 7751SOL     OW34888   1.521   0.819   2.936  0.0049 -0.5037  0.6500
 7751SOL    HW134889   1.516   0.906   2.977 -0.4916  0.3352 -1.1562
 7751SOL    HW234890   1.615   0.802   2.935 -0.1997 -1.5354 -0.7383
 7752SOL     OW34891   4.514   1.798  11.458 -0.7812 -0.0433  0.4418
 7752SOL    HW134892   4.497   1.752  11.376 -0.5061 -0.5222  0.6561
 7752SOL    HW234893   4.530   1.724  11.517  1.7208 -1.2375 -1.7766
 7753SOL     OW34894   2.957   4.582   8.905  0.0660 -0.4630 -0.0991
 7753SOL    HW134895   2.906   4.527   8.845 -0.6873  0.4958 -0.3370
 7753SOL    HW234896   3.018   4.624   8.844  0.6776 -0.8738  0.2219
 7754SOL     OW34897   3.762   4.046   1.162  0.1093  0.9278  0.0213
 7754SOL    HW134898   3.827   4.109   1.131 -0.0297  1.2596  0.3931
 7754SOL    HW234899   3.808   4.011   1.238 -0.1631 -2.3730 -1.3336
 7755SOL     OW34900   3.567   4.241   3.378 -0.1889 -0.0711 -0.2702
 7755SOL    HW134901   3.610   4.259   3.295 -1.4709  1.8570 -0.5164
 7755SOL    HW234902   3.634   4.267   3.441 -1.4484 -1.7828  1.7718
 7756SOL     OW34903   4.155   3.599   4.246  0.2919 -0.2153 -0.2994
 7756SOL    HW134904   4.147   3.527   4.310  1.2492  0.7903  0.9363
 7756SOL    HW234905   4.082   3.659   4.260  0.5971  0.3561 -1.1626
 7757SOL     OW34906   2.691   1.141   1.855 -0.0789  0.5887  0.3813
 7757SOL    HW134907   2.627   1.126   1.786 -0.0270  2.5990 -0.0923
 7757SOL    HW234908   2.734   1.220   1.825  0.4956 -0.2415 -1.0048
 7758SOL     OW34909   3.191   0.762  14.691 -0.5043 -0.2036 -0.0144
 7758SOL    HW134910   3.274   0.773  14.738 -0.1314  3.9238 -1.6397
 7758SOL    HW234911   3.224   0.760  14.602 -0.0921  0.9505  0.1177
 7759SOL     OW34912   0.761   2.951  17.203  0.3301 -0.2956  0.4839
 7759SOL    HW134913   0.803   3.028  17.163 -1.5429 -0.0691 -1.0743
 7759SOL    HW234914   0.683   2.989  17.243  1.0425  0.0038  1.5787
 7760SOL     OW34915   1.843   2.608  10.817 -1.1992 -0.1431  1.0095
 7760SOL    HW134916   1.750   2.627  10.827 -0.7795  1.9794  0.9018
 7760SOL    HW234917   1.872   2.603  10.908  2.7514  1.2618 -0.1760
 7761SOL     OW34918   1.757   2.767  12.394  0.5565  0.0873  0.0791
 7761SOL    HW134919   1.689   2.826  12.361  0.5852  0.2582  0.3220
 7761SOL    HW234920   1.769   2.712  12.317 -0.3290 -0.2462  0.1771
 7762SOL     OW34921   0.113   3.729   9.924 -0.1235 -0.0534 -0.3853
 7762SOL    HW134922   0.042   3.793   9.916  0.0993  0.2102 -0.2585
 7762SOL    HW234923   0.103   3.681   9.842 -0.1625 -0.1226 -0.3401
 7763SOL     OW34924   2.322   2.928   4.824 -0.0443 -0.6461 -0.2513
 7763SOL    HW134925   2.396   2.950   4.880 -0.3383  0.2150 -0.1975
 7763SOL    HW234926   2.287   3.016   4.806  0.2854 -1.0723 -3.0447
 7764SOL     OW34927   3.313   0.597   2.344  0.0913 -0.5165 -0.0691
 7764SOL    HW134928   3.363   0.515   2.344  1.3815  0.2719  0.9364
 7764SOL    HW234929   3.224   0.564   2.352 -0.0803 -0.2035 -0.6150
 7765SOL     OW34930   3.203   3.730  17.081 -0.1345 -0.6059  0.0452
 7765SOL    HW134931   3.251   3.774  17.012 -2.6675 -3.0476 -3.3059
 7765SOL    HW234932   3.110   3.751  17.072  0.2829  1.3007  0.2244
 7766SOL     OW34933   4.358   0.397  17.708 -0.2200  0.6684  0.0470
 7766SOL    HW134934   4.381   0.449   0.044 -1.9975  0.4314  0.7482
 7766SOL    HW234935   4.366   0.307  17.738 -1.5740 -0.4825 -3.0506
 7767SOL     OW34936   0.492   1.491   6.582  0.0540 -0.3079 -0.1336
 7767SOL    HW134937   0.470   1.433   6.655  1.7913 -0.0943  0.5796
 7767SOL    HW234938   0.484   1.427   6.512  1.9632  0.7586 -1.3049
 7768SOL     OW34939   1.307   1.604   3.486 -0.5434  0.3565  0.5044
 7768SOL    HW134940   1.327   1.648   3.569 -0.6227 -0.8464  1.1670
 7768SOL    HW234941   1.225   1.558   3.505 -1.0914  1.4712  0.7812
 7769SOL     OW34942   2.904   4.039   7.337 -0.4020 -0.1190  0.2665
 7769SOL    HW134943   2.849   4.093   7.393 -1.7101 -0.3121 -0.8432
 7769SOL    HW234944   2.840   4.020   7.268 -0.6750  0.2925  0.4065
 7770SOL     OW34945   2.559   3.044   5.724  0.0799  0.3353 -0.2028
 7770SOL    HW134946   2.509   3.090   5.791 -1.7641  0.0937 -1.4161
 7770SOL    HW234947   2.643   3.090   5.719 -0.8329  2.0488  0.1198
 7771SOL     OW34948   4.682   2.913   8.088 -0.0361  0.0603 -0.6009
 7771SOL    HW134949   4.723   2.987   8.043  1.5460 -0.5024 -0.0572
 7771SOL    HW234950   0.019   2.851   8.086 -1.3635 -1.5021  0.1294
 7772SOL     OW34951   0.003   1.448   4.538 -0.0431 -0.2202 -0.5243
 7772SOL    HW134952   4.693   1.417   4.460  1.3755 -0.1634 -1.3767
 7772SOL    HW234953   4.675   1.433   4.608  1.6542  0.2019  1.0726
 7773SOL     OW34954   0.339   1.436   8.024  0.0333 -0.3594  0.3148
 7773SOL    HW134955   0.330   1.524   8.060 -1.2371 -0.6725  0.7899
 7773SOL    HW234956   0.277   1.378   8.071 -1.0848 -0.0388 -0.7646
 7774SOL     OW34957   2.126   1.773   4.661  0.3131  0.1047 -0.6382
 7774SOL    HW134958   2.176   1.731   4.591  0.8828  2.0389 -1.3912
 7774SOL    HW234959   2.104   1.697   4.715 -0.0335 -1.7208 -3.3513
 7775SOL     OW34960   3.871   3.718   3.439  0.5497  0.0795 -0.3987
 7775SOL    HW134961   3.906   3.807   3.431 -0.0817  0.6270  2.7921
 7775SOL    HW234962   3.944   3.690   3.495  0.1600  2.0485  1.0854
 7776SOL     OW34963   1.266   2.298  11.108 -0.0351  0.2463 -0.0217
 7776SOL    HW134964   1.353   2.265  11.084 -0.2273 -0.9728  0.9780
 7776SOL    HW234965   1.266   2.318  11.202  3.3004 -0.0106  0.0413
 7777SOL     OW34966   3.800   2.276  15.698  0.1877 -0.5950 -0.3563
 7777SOL    HW134967   3.859   2.338  15.656 -0.0332  0.3666  0.7383
 7777SOL    HW234968   3.734   2.334  15.738 -0.0341 -0.3622 -1.0595
 7778SOL     OW34969   0.477   0.256   2.245  0.1248 -0.3238  0.2037
 7778SOL    HW134970   0.487   0.164   2.272 -0.0762 -0.0882  1.0637
 7778SOL    HW234971   0.404   0.288   2.298 -0.3963 -0.9584 -0.1322
 7779SOL     OW34972   3.385   4.387  12.557 -0.5873  0.1410 -0.6069
 7779SOL    HW134973   3.443   4.424  12.623 -0.5527 -0.1068 -0.4984
 7779SOL    HW234974   3.420   4.298  12.562  1.3991  1.0916  1.9615
 7780SOL     OW34975   2.924   4.396   1.860  0.3226 -0.3855  0.2021
 7780SOL    HW134976   3.003   4.438   1.893 -0.7371  1.4599  0.3916
 7780SOL    HW234977   2.937   4.301   1.860 -0.6606 -0.5261  0.2512
 7781SOL     OW34978   0.172   1.394   4.025 -0.1569 -0.2729  0.2107
 7781SOL    HW134979   0.240   1.448   4.065 -0.7174  2.4046 -2.3925
 7781SOL    HW234980   0.116   1.469   4.004  1.2578  0.8340  0.4298
 7782SOL     OW34981   2.938   0.407   2.740 -0.2871 -0.5000 -0.1241
 7782SOL    HW134982   2.978   0.320   2.745 -0.6939 -0.6333  0.9353
 7782SOL    HW234983   2.941   0.443   2.829 -1.8289  1.2692 -0.8044
 7783SOL     OW34984   2.980   2.231   6.005 -0.0726  0.4736 -0.0920
 7783SOL    HW134985   2.990   2.290   6.080  0.3388  2.7463 -1.9320
 7783SOL    HW234986   2.964   2.154   6.058 -0.7685  0.7685  0.1151
 7784SOL     OW34987   2.269   0.116  11.667  0.4224 -0.2047  0.7375
 7784SOL    HW134988   2.181   0.128  11.702  0.4736  2.5509 -0.1106
 7784SOL    HW234989   2.246   0.090  11.578 -0.8795  0.7293  0.8099
 7785SOL     OW34990   1.347   4.185   4.696  0.1071  0.5342 -0.0303
 7785SOL    HW134991   1.442   4.174   4.707  0.1165  1.4733  0.7805
 7785SOL    HW234992   1.322   4.251   4.759  0.5873  0.1869  0.5253
 7786SOL     OW34993   1.564   1.840   9.194  0.0494 -0.4072  0.3392
 7786SOL    HW134994   1.500   1.780   9.157  1.3059 -1.4790 -0.0975
 7786SOL    HW234995   1.540   1.920   9.147  0.9272 -0.1030  0.4123
 7787SOL     OW34996   1.117   1.200   7.514  0.4770 -0.4396 -0.3359
 7787SOL    HW134997   1.156   1.287   7.519 -0.5991  0.0730 -0.7958
 7787SOL    HW234998   1.026   1.228   7.498  0.2553 -0.8558  0.1786
 7788SOL     OW34999   0.997   1.997   5.188  0.0049  0.2603  0.2522
 7788SOL    HW135000   1.059   2.054   5.142 -0.9775 -0.6897 -2.2002
 7788SOL    HW235001   1.041   1.913   5.179  0.5944  0.5260  0.6483
 7789SOL     OW35002   2.920   4.495   7.000  0.0230 -0.3835 -0.8073
 7789SOL    HW135003   2.953   4.480   6.911  0.9183 -1.4030 -0.3039
 7789SOL    HW235004   2.941   4.586   7.021  0.9987 -0.5826 -0.9452
 7790SOL     OW35005   4.521   2.135  16.912  0.0488  0.5542 -0.1723
 7790SOL    HW135006   4.478   2.215  16.941  0.0694  1.0648 -1.5755
 7790SOL    HW235007   4.538   2.151  16.819  0.5930  1.1443  0.0227
 7791SOL     OW35008   2.942   0.387   3.052 -0.5626 -0.3242  0.3052
 7791SOL    HW135009   2.989   0.315   3.094  0.9940  0.8812  0.6218
 7791SOL    HW235010   2.858   0.342   3.047  0.1770 -1.7067  0.4719
 7792SOL     OW35011   0.220   3.241   4.854  0.5522  0.2507  0.7727
 7792SOL    HW135012   0.149   3.206   4.909  0.0038  0.0492 -0.0646
 7792SOL    HW235013   0.293   3.184   4.876  0.1125 -0.1983  1.0732
 7793SOL     OW35014   1.601   3.204   9.061  0.2917 -0.6887 -0.4956
 7793SOL    HW135015   1.670   3.145   9.092  1.2739  0.5683 -0.2930
 7793SOL    HW235016   1.650   3.286   9.062  1.6105 -1.4600 -1.3364
 7794SOL     OW35017   0.302   0.606   2.505 -0.2063 -0.2153  0.3712
 7794SOL    HW135018   0.224   0.609   2.560  0.0588  0.7503  0.7034
 7794SOL    HW235019   0.282   0.542   2.437  3.3641 -2.2929  1.2848
 7795SOL     OW35020   3.312   2.439  14.452  0.1593  0.0899  0.4966
 7795SOL    HW135021   3.262   2.498  14.509 -1.7716  0.8904 -2.0399
 7795SOL    HW235022   3.308   2.362  14.509 -1.7403  0.3591  0.7208
 7796SOL     OW35023   4.403   3.679   3.014 -0.0557  0.8088  0.1889
 7796SOL    HW135024   4.319   3.641   3.041  0.8229  0.1127  1.9862
 7796SOL    HW235025   4.418   3.647   2.925 -1.7730  2.5659 -0.7337
 7797SOL     OW35026   1.388   3.436  12.273  0.4066  0.0120 -0.3505
 7797SOL    HW135027   1.439   3.390  12.206  1.7772 -1.8242  1.9542
 7797SOL    HW235028   1.404   3.525  12.242  0.0785  0.1672 -0.0709
 7798SOL     OW35029   4.053   3.823   0.536  0.3419 -0.1326  0.5600
 7798SOL    HW135030   4.143   3.841   0.508  0.1834  0.3243  0.3391
 7798SOL    HW235031   4.056   3.767   0.613  0.9825  0.5994  1.0625
 7799SOL     OW35032   0.369   1.029  10.082  0.4044  0.3077 -0.0247
 7799SOL    HW135033   0.335   1.091  10.017 -0.9578 -0.2176  0.1906
 7799SOL    HW235034   0.425   0.972  10.029  2.0651  1.6620  0.2833
 7800SOL     OW35035   0.228   2.455   6.348  0.1877 -0.1154  0.4980
 7800SOL    HW135036   0.154   2.474   6.405 -1.3863  1.0807 -1.9360
 7800SOL    HW235037   0.278   2.405   6.413  0.7151  1.6192  1.4073
 7801SOL     OW35038   2.790   3.205   6.025  0.1881 -0.2708 -0.0440
 7801SOL    HW135039   2.816   3.131   6.080  3.7336  1.1276  0.1164
 7801SOL    HW235040   2.707   3.215   6.072 -0.2994  0.9497 -1.1879
 7802SOL     OW35041   4.710   1.269   3.138  0.4494 -0.0780 -0.0470
 7802SOL    HW135042   4.641   1.234   3.195 -0.3465  1.5392 -0.0031
 7802SOL    HW235043   4.655   1.292   3.063 -0.0429  0.5367  0.5022
 7803SOL     OW35044   4.290   3.979   7.737 -0.0724 -0.2481 -0.5891
 7803SOL    HW135045   4.293   3.990   7.642  1.6767  1.3559 -0.3563
 7803SOL    HW235046   4.322   3.889   7.739  2.7056  0.7475  0.1661
 7804SOL     OW35047   3.129   2.364  15.177 -0.2908  0.2935  0.1855
 7804SOL    HW135048   3.164   2.276  15.192  1.3981  0.8319 -0.5820
 7804SOL    HW235049   3.199   2.413  15.136 -0.3596  0.2836  0.0555
 7805SOL     OW35050   1.441   3.805   5.730 -0.0025  0.4512 -0.5401
 7805SOL    HW135051   1.492   3.764   5.660  0.3188  2.2788 -1.3763
 7805SOL    HW235052   1.418   3.892   5.697 -1.1399 -0.0589 -1.0827
 7806SOL     OW35053   0.615   4.075   1.144  0.5419 -0.1484 -0.0995
 7806SOL    HW135054   0.554   4.121   1.202 -0.5294 -0.4982 -0.9650
 7806SOL    HW235055   0.594   3.983   1.158 -1.0855  0.2096 -0.1739
 7807SOL     OW35056   2.167   3.127   2.574 -0.5658 -0.0089  0.0640
 7807SOL    HW135057   2.156   3.213   2.613  3.4317 -0.5569  2.3659
 7807SOL    HW235058   2.259   3.128   2.548 -0.2765 -0.1984  1.0752
 7808SOL     OW35059   1.224   4.322  11.775 -0.4438  0.0658 -0.3209
 7808SOL    HW135060   1.245   4.323  11.868  0.8951 -1.9634 -0.6062
 7808SOL    HW235061   1.256   4.408  11.748  0.8715 -0.1999  0.3932
 7809SOL     OW35062   0.775   2.318   0.216 -0.1760  0.0978  0.0320
 7809SOL    HW135063   0.841   2.248   0.207 -0.2799 -0.0262  0.2368
 7809SOL    HW235064   0.793   2.365   0.297 -0.4457  0.3781 -0.0749
 7810SOL     OW35065   1.773   2.662  13.993  0.0534 -0.4736  0.0780
 7810SOL    HW135066   1.739   2.691  13.908  2.0515 -2.9120 -1.5683
 7810SOL    HW235067   1.851   2.716  14.005 -1.7649  2.1552  0.0834
 7811SOL     OW35068   0.186   2.065  10.106  0.6326 -0.0286 -0.0612
 7811SOL    HW135069   0.097   2.059  10.140  1.4009 -0.1910  1.9347
 7811SOL    HW235070   0.185   1.979  10.066  3.7209 -0.0188 -0.1203
 7812SOL     OW35071   1.629   4.152   6.116  0.2119  0.1248 -0.1798
 7812SOL    HW135072   1.698   4.204   6.159  0.3412 -0.5503  0.4336
 7812SOL    HW235073   1.574   4.216   6.071  1.4593  0.8928 -0.5976
 7813SOL     OW35074   1.166   0.247   6.597  0.0435  0.2254 -0.0477
 7813SOL    HW135075   1.201   0.332   6.625 -2.4248  1.1402  0.1977
 7813SOL    HW235076   1.187   0.192   6.672  0.4154  1.5189  0.7938
 7814SOL     OW35077   4.110   0.064   3.319 -0.2826  0.0521  0.3717
 7814SOL    HW135078   4.196   0.022   3.315 -1.1315 -1.3732 -2.5393
 7814SOL    HW235079   4.141   0.154   3.332  0.3524  0.0180 -0.9225
 7815SOL     OW35080   0.918   0.449  16.066  0.1945 -0.0234 -0.5865
 7815SOL    HW135081   0.870   0.410  16.139 -0.3427  3.9868  1.1798
 7815SOL    HW235082   0.878   0.536  16.059 -0.5858 -0.4327 -1.2719
 7816SOL     OW35083   0.062   1.838  11.067  0.3848 -0.3636 -0.7330
 7816SOL    HW135084   4.719   1.887  11.091  0.0165 -1.1968 -0.2368
 7816SOL    HW235085   0.099   1.879  10.989  0.0728  0.6435 -0.3527
 7817SOL     OW35086   3.934   1.306   5.983  0.5880 -0.2648  0.2682
 7817SOL    HW135087   3.982   1.322   5.902  0.7001 -0.0586  0.3735
 7817SOL    HW235088   3.851   1.348   5.963 -0.9348 -2.1034  2.7807
 7818SOL     OW35089   4.315   2.722   1.785 -0.4831  0.1859  0.3477
 7818SOL    HW135090   4.377   2.653   1.808  0.9738  1.4204  0.1731
 7818SOL    HW235091   4.351   2.801   1.825 -0.4285  0.8073 -0.9385
 7819SOL     OW35092   1.365   2.683   7.449  0.2690 -0.6394  0.2103
 7819SOL    HW135093   1.382   2.590   7.437  0.1190 -0.5193 -0.9908
 7819SOL    HW235094   1.308   2.691   7.373 -0.3766 -0.4166  0.7191
 7820SOL     OW35095   2.423   3.507   2.875 -0.1554  0.2822  0.1110
 7820SOL    HW135096   2.391   3.575   2.816  0.9068  0.9439  0.3068
 7820SOL    HW235097   2.448   3.559   2.951  1.8601 -0.2984 -0.1448
 7821SOL     OW35098   0.346   2.674   4.383 -0.2246 -0.2346 -0.3999
 7821SOL    HW135099   0.330   2.618   4.308 -0.6164 -0.7476  0.0664
 7821SOL    HW235100   0.255   2.694   4.403 -0.1677 -1.9429  1.6945
 7822SOL     OW35101   0.671   2.151   3.964 -0.3455  0.2302  0.0360
 7822SOL    HW135102   0.659   2.067   4.008 -3.3884  1.2385  1.1558
 7822SOL    HW235103   0.582   2.187   3.963 -0.9715 -1.3473 -1.9345
 7823SOL     OW35104   4.690   3.806   1.640  0.2720  0.2009  0.6792
 7823SOL    HW135105   4.646   3.801   1.725  2.0554 -2.0243  1.4677
 7823SOL    HW235106   4.623   3.756   1.593 -0.6533  1.1455  0.9828
 7824SOL     OW35107   2.346   2.054   5.180 -0.7654 -0.3352  0.0845
 7824SOL    HW135108   2.265   2.102   5.195 -0.7308 -0.2607  0.0383
 7824SOL    HW235109   2.388   2.112   5.116 -1.7401  1.9901  1.5298
 7825SOL     OW35110   0.730   0.864  12.716 -0.0416  0.1655 -0.2734
 7825SOL    HW135111   0.711   0.947  12.671  0.5881  0.6164  0.2924
 7825SOL    HW235112   0.738   0.893  12.807 -0.0566  0.1013 -0.2520
 7826SOL     OW35113   3.548   1.547   1.032 -0.2553 -0.2431  0.6182
 7826SOL    HW135114   3.521   1.638   1.021  0.5933 -0.1112 -0.4489
 7826SOL    HW235115   3.468   1.503   1.060 -0.9335  0.4843 -0.2216
 7827SOL     OW35116   3.071   4.130   8.409  0.1183 -0.8482 -0.1033
 7827SOL    HW135117   3.121   4.199   8.365  0.0904 -0.1629  0.9585
 7827SOL    HW235118   3.024   4.105   8.329 -0.7210  0.2241  0.0506
 7828SOL     OW35119   2.252   2.103   3.082  0.5218 -0.6359  0.5097
 7828SOL    HW135120   2.296   2.133   3.003 -1.2436  1.7408  0.4301
 7828SOL    HW235121   2.199   2.035   3.042  2.1086 -2.7162  1.9413
 7829SOL     OW35122   2.710   1.408  10.255  0.3278  0.3789  0.6057
 7829SOL    HW135123   2.631   1.355  10.266  1.5074 -1.8142 -1.6131
 7829SOL    HW235124   2.737   1.379  10.168 -0.9134  0.9807  0.0091
 7830SOL     OW35125   2.698   0.737   7.395  0.0420 -0.3110 -0.2897
 7830SOL    HW135126   2.607   0.751   7.419 -0.3332  0.5145 -2.2373
 7830SOL    HW235127   2.734   0.728   7.483 -1.8218 -1.0185  0.3891
 7831SOL     OW35128   4.584   2.047   1.548 -0.0671  0.1758  0.0563
 7831SOL    HW135129   4.606   2.127   1.500 -2.0705  1.7426  1.7897
 7831SOL    HW235130   4.673   2.013   1.559 -0.4608 -1.1566 -0.8801
 7832SOL     OW35131   1.388   2.057   6.438  0.0967  0.3036  0.4015
 7832SOL    HW135132   1.368   2.151   6.435 -0.0248  0.2065 -1.8872
 7832SOL    HW235133   1.407   2.026   6.349 -1.6183 -1.1629  0.5469
 7833SOL     OW35134   3.822   0.675   7.118 -0.2744  0.0542  0.0937
 7833SOL    HW135135   3.916   0.659   7.131 -0.6087 -0.9661  1.2439
 7833SOL    HW235136   3.802   0.587   7.151  1.4379  0.0968  1.2200
 7834SOL     OW35137   4.706   2.442   6.218 -0.7946 -0.1324  0.0267
 7834SOL    HW135138   0.005   2.477   6.136  2.1337  2.6929  2.4717
 7834SOL    HW235139   0.052   2.421   6.263  0.2891  0.7069 -1.5487
 7835SOL     OW35140   0.903   2.535   1.142 -0.5785 -0.4121  0.5003
 7835SOL    HW135141   0.932   2.452   1.179 -0.3254 -0.3997  0.3268
 7835SOL    HW235142   0.895   2.578   1.228  0.6567  0.3114  0.2487
 7836SOL     OW35143   0.134   3.366   4.221 -0.5694 -0.2619  0.3711
 7836SOL    HW135144   0.169   3.454   4.237  0.0106 -0.4900  0.3525
 7836SOL    HW235145   0.130   3.374   4.126 -0.8654 -3.1391  0.1662
 7837SOL     OW35146   3.960   4.253   5.085 -0.2472  0.1324 -0.4588
 7837SOL    HW135147   3.910   4.218   5.159 -0.3561  1.1102 -0.0692
 7837SOL    HW235148   3.955   4.180   5.024 -2.3201  0.8005 -1.0766
 7838SOL     OW35149   1.594   3.199  15.159  0.2500 -0.3987  0.3044
 7838SOL    HW135150   1.686   3.181  15.177 -0.5445 -2.9906  1.7659
 7838SOL    HW235151   1.570   3.230  15.246 -0.3354  3.4521 -1.2227
 7839SOL     OW35152   1.113   1.272   3.696 -0.4943  0.5407  0.3018
 7839SOL    HW135153   1.105   1.331   3.621 -0.9042 -0.7066 -0.6398
 7839SOL    HW235154   1.141   1.188   3.659 -1.6617 -0.6549  2.1514
 7840SOL     OW35155   0.507   3.365   0.288  0.0824 -0.0057  0.3666
 7840SOL    HW135156   0.519   3.305   0.362 -2.9360 -1.3319 -0.2583
 7840SOL    HW235157   0.497   3.303   0.217 -1.7305 -0.7694  1.2959
 7841SOL     OW35158   2.097   3.983   3.355  0.1266 -0.5770 -0.0558
 7841SOL    HW135159   2.104   3.911   3.417 -2.6601 -1.1166 -0.3596
 7841SOL    HW235160   2.191   3.993   3.339 -0.2930 -1.5982 -3.2143
 7842SOL     OW35161   0.984   4.705   4.598 -0.0109 -0.2581  0.1228
 7842SOL    HW135162   0.972   4.731   4.507  2.4034 -1.6096 -0.5964
 7842SOL    HW235163   1.021   0.042   4.648  0.8622  1.0568 -2.4399
 7843SOL     OW35164   3.330   2.762   8.042  0.7488 -0.0084 -0.1414
 7843SOL    HW135165   3.353   2.670   8.058  1.5152  0.2736  0.3818
 7843SOL    HW235166   3.386   2.798   8.111  1.3784  1.2188 -1.2824
 7844SOL     OW35167   2.095   1.211   6.117 -0.6523 -0.1764  0.3485
 7844SOL    HW135168   2.084   1.255   6.201  0.9188  1.9561 -0.5884
 7844SOL    HW235169   2.084   1.285   6.058 -0.9046 -1.4595 -1.2359
 7845SOL     OW35170   2.818   2.799   2.117  0.6838 -0.3577 -0.0270
 7845SOL    HW135171   2.823   2.757   2.203  0.2448 -0.8330 -0.2319
 7845SOL    HW235172   2.891   2.861   2.118 -0.5362  1.0940 -2.5913
 7846SOL     OW35173   1.700   1.725   8.559 -0.1968  0.1554  0.4662
 7846SOL    HW135174   1.716   1.774   8.639  2.7006 -1.2074  0.7173
 7846SOL    HW235175   1.605   1.729   8.557 -0.2063 -0.8753 -1.2549
 7847SOL     OW35176   2.381   0.970   4.913  0.2786 -0.6750  0.2779
 7847SOL    HW135177   2.297   0.999   4.878  0.4573 -0.6773 -0.1612
 7847SOL    HW235178   2.360   0.880   4.935  0.2056 -1.4097 -2.8276
 7848SOL     OW35179   2.598   1.307   1.563  0.2313  0.3585  0.6547
 7848SOL    HW135180   2.613   1.317   1.469  2.4907  0.0984  0.9735
 7848SOL    HW235181   2.683   1.309   1.608  0.0123 -0.2650  1.0999
 7849SOL     OW35182   1.334   0.169   4.628 -0.2167 -0.3486  0.2104
 7849SOL    HW135183   1.345   0.217   4.546  0.7975 -1.0970 -0.1035
 7849SOL    HW235184   1.325   0.079   4.596  0.6657  0.7143 -3.0138
 7850SOL     OW35185   0.221   3.669   6.405 -0.7989  0.2205 -0.2663
 7850SOL    HW135186   0.206   3.657   6.312 -0.0767 -0.8942 -0.2407
 7850SOL    HW235187   0.249   3.760   6.409  1.7287 -0.5121 -1.3590
 7851SOL     OW35188   1.045   1.949  16.387  0.3405  0.0239  0.4170
 7851SOL    HW135189   0.980   1.974  16.452 -0.0750  0.3949 -0.1401
 7851SOL    HW235190   0.986   1.943  16.311 -1.0267 -1.6360  1.6221
 7852SOL     OW35191   4.326   2.546   7.798  0.2388  0.3685 -0.3577
 7852SOL    HW135192   4.286   2.505   7.874 -0.5105 -0.6465 -1.3112
 7852SOL    HW235193   4.390   2.606   7.837 -0.6476  0.4711  0.9373
 7853SOL     OW35194   1.680   3.513   3.331  0.5695 -0.0849 -0.4924
 7853SOL    HW135195   1.603   3.530   3.386 -0.9098  0.1081 -2.6049
 7853SOL    HW235196   1.743   3.578   3.362  0.5045  0.2045 -0.9638
 7854SOL     OW35197   2.954   1.105   3.553 -0.1910 -0.5639 -0.0090
 7854SOL    HW135198   2.879   1.165   3.559  1.5794  1.8320 -1.7249
 7854SOL    HW235199   3.010   1.149   3.489 -1.0875  0.3784 -0.1535
 7855SOL     OW35200   2.421   0.677   6.365 -0.2427 -0.0589  0.6567
 7855SOL    HW135201   2.342   0.695   6.415 -1.6540 -0.0698 -1.5662
 7855SOL    HW235202   2.378   0.618   6.303  2.1618 -2.0587  0.8704
 7856SOL     OW35203   4.361   0.452   2.686 -0.1048 -0.0899  0.5684
 7856SOL    HW135204   4.449   0.460   2.722  0.6674  1.4463 -1.7105
 7856SOL    HW235205   4.315   0.418   2.763 -0.5593  1.1331  0.8341
 7857SOL     OW35206   3.159   2.431   7.382  0.1081  0.3249  0.0914
 7857SOL    HW135207   3.150   2.449   7.289  1.0440 -2.6288 -0.5759
 7857SOL    HW235208   3.203   2.505   7.423 -0.8189  0.8527  0.1227
 7858SOL     OW35209   2.510   2.532  10.815  0.2328  0.5720 -0.2153
 7858SOL    HW135210   2.441   2.479  10.775  0.3706 -0.8043  1.3875
 7858SOL    HW235211   2.474   2.551  10.901  0.7812  1.3572 -0.1572
 7859SOL     OW35212   1.625   2.522   7.599  0.3504 -0.1043  0.1747
 7859SOL    HW135213   1.679   2.593   7.563  1.3122 -2.0006 -2.1266
 7859SOL    HW235214   1.662   2.446   7.554  0.0665 -0.0208 -0.2022
 7860SOL     OW35215   2.611   0.316   9.027 -0.1651  0.0431  0.2643
 7860SOL    HW135216   2.670   0.288   8.957 -1.7399  0.2329 -1.1493
 7860SOL    HW235217   2.524   0.282   9.005 -0.0058 -0.8249  0.9428
 7861SOL     OW35218   2.309   2.692   3.132 -0.5318  0.2462  0.1273
 7861SOL    HW135219   2.262   2.633   3.191  1.6272 -0.8787  0.6954
 7861SOL    HW235220   2.324   2.766   3.191 -2.5786  1.5045 -0.9280
 7862SOL     OW35221   2.163   3.547   2.283 -0.1955  0.2853 -0.2060
 7862SOL    HW135222   2.212   3.590   2.353 -0.4312 -0.1926  0.2608
 7862SOL    HW235223   2.190   3.455   2.287 -0.6891  0.1583  0.2023
 7863SOL     OW35224   2.481   4.202   9.824  0.0759 -0.2856  0.6892
 7863SOL    HW135225   2.387   4.183   9.819 -0.0658  0.7053 -0.2113
 7863SOL    HW235226   2.513   4.157   9.746  1.2355  1.2077  0.3184
 7864SOL     OW35227   0.685   1.766   3.912 -0.0990 -0.3519  0.1967
 7864SOL    HW135228   0.641   1.821   3.976 -1.0590  0.8191 -1.4721
 7864SOL    HW235229   0.616   1.736   3.854 -0.8422  0.1977  0.8021
 7865SOL     OW35230   1.139   1.563  11.619 -0.0322  0.5680 -0.2331
 7865SOL    HW135231   1.204   1.508  11.663  2.2295  2.5471 -1.0996
 7865SOL    HW235232   1.187   1.608  11.549 -0.0996  0.1937 -0.5204
 7866SOL     OW35233   2.052   0.949   1.139 -0.3700  0.5119  0.1424
 7866SOL    HW135234   2.025   0.891   1.210 -0.1133 -1.5952 -1.4973
 7866SOL    HW235235   2.135   0.981   1.175 -0.9922  1.4715  0.7334
 7867SOL     OW35236   4.019   2.268  10.019 -0.3365 -0.0431 -0.2105
 7867SOL    HW135237   4.039   2.239   9.930 -0.6507  1.3449 -0.7256
 7867SOL    HW235238   4.082   2.213  10.065 -0.0585 -0.1611 -0.7294
 7868SOL     OW35239   4.662   2.268   6.562 -0.5291 -0.0858 -0.7051
 7868SOL    HW135240   4.616   2.203   6.509 -0.8005  0.8150 -1.5703
 7868SOL    HW235241   4.597   2.310   6.618 -0.5146 -1.7042  0.5369
 7869SOL     OW35242   0.264   2.965   1.975  0.0840  0.2662  0.0978
 7869SOL    HW135243   0.236   3.008   2.056 -1.6285  0.4093 -0.5758
 7869SOL    HW235244   0.208   2.887   1.986  2.5005 -1.2436  1.7001
 7870SOL     OW35245   1.410   2.452  10.339 -0.6308 -1.0289  0.3601
 7870SOL    HW135246   1.332   2.442  10.394  0.3310 -0.3979  1.8402
 7870SOL    HW235247   1.373   2.455  10.251 -0.1705 -0.6001  0.1840
 7871SOL     OW35248   1.283   0.094   3.784  0.4476  0.1339 -0.0637
 7871SOL    HW135249   1.369   0.102   3.826 -0.6238 -0.0915  2.1985
 7871SOL    HW235250   1.254   0.005   3.806  0.3497  0.2925  0.4587
 7872SOL     OW35251   4.086   0.166   3.736  0.5273 -0.3592  0.1908
 7872SOL    HW135252   4.132   0.094   3.693 -1.2606 -1.0275 -0.6171
 7872SOL    HW235253   4.112   0.157   3.828 -0.3014 -3.5891  0.1223
 7873SOL     OW35254   2.205   2.870   7.955  0.0027 -0.5142 -0.1562
 7873SOL    HW135255   2.273   2.805   7.940 -0.5365 -1.5033  1.7463
 7873SOL    HW235256   2.155   2.864   7.873  0.9880 -2.3122 -0.6189
 7874SOL     OW35257   3.714   3.677   0.280 -0.6818 -0.1019 -0.6493
 7874SOL    HW135258   3.803   3.661   0.311 -0.7476 -1.8306 -1.3381
 7874SOL    HW235259   3.685   3.589   0.303 -0.4438 -0.4761 -1.7644
 7875SOL     OW35260   3.275   0.676   7.837  0.2204  0.2197 -0.3063
 7875SOL    HW135261   3.322   0.618   7.897 -0.8516  0.5592  0.8595
 7875SOL    HW235262   3.253   0.750   7.893 -3.0870 -1.2890  0.4352
 7876SOL     OW35263   3.304   3.204   3.371  0.0699 -0.0465 -0.3217
 7876SOL    HW135264   3.397   3.222   3.379  0.0481 -0.5047  0.9980
 7876SOL    HW235265   3.262   3.288   3.386  1.2519  0.0855  2.2777
 7877SOL     OW35266   3.028   3.528   9.538  0.7403 -0.4910 -0.0824
 7877SOL    HW135267   3.044   3.440   9.502  1.2555 -0.2791 -0.3614
 7877SOL    HW235268   3.066   3.586   9.472  0.7863 -0.8011 -0.3295
 7878SOL     OW35269   2.408   2.864   4.125  0.3124  0.2747  0.2954
 7878SOL    HW135270   2.367   2.940   4.167 -0.6205 -0.2057  0.2562
 7878SOL    HW235271   2.408   2.796   4.192 -0.0363  1.1125  1.1380
 7879SOL     OW35272   0.394   2.490  17.194  0.0495  0.1137 -0.4732
 7879SOL    HW135273   0.479   2.530  17.175 -0.5285  1.5070 -0.1823
 7879SOL    HW235274   0.407   2.480  17.289  1.3944 -0.3713 -0.7171
 7880SOL     OW35275   3.540   1.278   3.892 -0.0003 -0.0696 -0.5384
 7880SOL    HW135276   3.538   1.374   3.887  2.3977  0.0496  1.1505
 7880SOL    HW235277   3.565   1.263   3.983 -1.5469 -2.2603 -0.4742
 7881SOL     OW35278   4.174   4.239  13.870  0.1420 -0.1558  0.1664
 7881SOL    HW135279   4.258   4.285  13.880  0.3556 -0.4853 -0.0994
 7881SOL    HW235280   4.202   4.150  13.850  0.0349  0.3055 -2.0405
 7882SOL     OW35281   0.502   2.305   8.573 -0.3401  0.6593 -0.3893
 7882SOL    HW135282   0.429   2.359   8.542 -0.1565  1.0561 -0.1332
 7882SOL    HW235283   0.479   2.215   8.551 -1.7423  0.5873  1.3446
 7883SOL     OW35284   3.455   0.520   0.644  0.0642  0.5320 -0.2292
 7883SOL    HW135285   3.430   0.442   0.594 -1.1200  0.9791 -0.3310
 7883SOL    HW235286   3.395   0.588   0.613 -0.8673 -0.0905  0.1855
 7884SOL     OW35287   3.095   2.472   8.134  0.3158  0.0507  0.2668
 7884SOL    HW135288   3.189   2.489   8.138  0.3989 -1.0150  2.6847
 7884SOL    HW235289   3.102   2.407   8.064  2.7802 -0.0128  0.5671
 7885SOL     OW35290   1.793   1.783   0.738 -0.1504 -0.3956  0.3945
 7885SOL    HW135291   1.772   1.850   0.802 -2.0894 -1.1946  0.6060
 7885SOL    HW235292   1.877   1.754   0.774  0.4875  0.6357 -0.2611
 7886SOL     OW35293   0.277   4.513   5.218 -0.2428  0.0673  0.6050
 7886SOL    HW135294   0.251   4.480   5.304  1.7375 -0.3745  1.0411
 7886SOL    HW235295   0.307   4.436   5.169 -1.4453 -0.5488  0.8203
 7887SOL     OW35296   4.256   2.702   3.717  0.3599  0.5044 -0.2050
 7887SOL    HW135297   4.342   2.733   3.691  0.2422 -0.4250 -1.7411
 7887SOL    HW235298   4.231   2.647   3.643  0.1239 -0.4668  0.6055
 7888SOL     OW35299   3.191   2.964   6.740  0.0910 -0.0876  0.1828
 7888SOL    HW135300   3.257   2.898   6.719 -0.6089 -1.2930  1.8193
 7888SOL    HW235301   3.120   2.914   6.779 -1.0978  1.1133 -0.4553
 7889SOL     OW35302   1.202   2.887  12.604 -0.1713  0.3971  0.0520
 7889SOL    HW135303   1.281   2.877  12.658  1.1349 -0.3759 -2.0291
 7889SOL    HW235304   1.152   2.947  12.660  1.1747 -0.0929  1.7705
 7890SOL     OW35305   0.403   1.734   9.422 -0.2524  0.1990  0.0338
 7890SOL    HW135306   0.450   1.817   9.432 -0.2969  0.2478 -0.1719
 7890SOL    HW235307   0.388   1.720   9.516  3.7367 -0.3116  0.5757
 7891SOL     OW35308   2.887   4.111   5.908  0.0172  0.3126  0.0495
 7891SOL    HW135309   2.918   4.022   5.894 -0.3340  0.3669 -1.1426
 7891SOL    HW235310   2.939   4.138   5.983  0.2585  1.8337 -0.6576
 7892SOL     OW35311   0.128   3.181  17.106  0.1902  0.0752  0.3014
 7892SOL    HW135312   0.050   3.125  17.104  1.5230 -1.7559  0.1891
 7892SOL    HW235313   0.193   3.121  17.070  0.1520 -1.4216  2.7377
 7893SOL     OW35314   2.895   2.847   4.806  0.3192  0.1601 -0.1562
 7893SOL    HW135315   2.991   2.847   4.809  0.2145 -0.0763  3.4732
 7893SOL    HW235316   2.878   2.789   4.880  2.4164  1.5304  1.4066
 7894SOL     OW35317   4.238   2.810  14.255 -0.1610  0.3186 -0.1210
 7894SOL    HW135318   4.199   2.822  14.341 -0.4116  3.8849 -0.7534
 7894SOL    HW235319   4.328   2.792  14.284 -0.0105  2.6065  0.7772
 7895SOL     OW35320   4.513   0.645  15.759  0.2530  0.7596  0.0127
 7895SOL    HW135321   4.513   0.628  15.854  3.4380  1.7630  0.2214
 7895SOL    HW235322   4.425   0.682  15.755  0.4668  1.2393 -0.3342
 7896SOL     OW35323   1.042   2.376   0.673  0.0148 -0.2162  0.3445
 7896SOL    HW135324   1.040   2.287   0.708 -1.7649 -0.4716 -0.3889
 7896SOL    HW235325   1.099   2.417   0.738 -1.9073  0.8597  1.3441
 7897SOL     OW35326   2.004   1.713  16.631  0.1680 -0.0665 -0.0874
 7897SOL    HW135327   1.938   1.672  16.576 -0.6258 -1.4409  1.8680
 7897SOL    HW235328   1.936   1.748  16.689 -0.8886 -2.2747 -0.0262
 7898SOL     OW35329   3.182   3.016   5.798  0.6656 -0.4385  0.6493
 7898SOL    HW135330   3.168   3.110   5.803  2.0208 -0.2581  1.0471
 7898SOL    HW235331   3.143   2.985   5.880  1.4953 -1.1820  0.7662
 7899SOL     OW35332   2.261   1.075   0.210 -0.0626  0.6499  0.4579
 7899SOL    HW135333   2.328   1.012   0.235  0.5803  0.2552 -2.2794
 7899SOL    HW235334   2.190   1.045   0.268  0.3826  1.0575  1.2126
 7900SOL     OW35335   1.108   3.331   3.199  0.1168 -0.2330  0.7248
 7900SOL    HW135336   1.019   3.321   3.233 -0.5712 -4.0464 -2.1924
 7900SOL    HW235337   1.136   3.243   3.174 -1.9780 -0.3200 -1.2502
 7901SOL     OW35338   1.795   3.426  17.734  0.1542 -0.0797  0.1272
 7901SOL    HW135339   1.804   3.385   0.079  1.2360 -0.0502  0.0343
 7901SOL    HW235340   1.855   3.499   0.008  0.6221 -0.6904  1.3378
 7902SOL     OW35341   2.556   2.023   4.406  0.3127 -0.8406  1.1113
 7902SOL    HW135342   2.515   1.983   4.483 -0.6767 -0.4672  0.7698
 7902SOL    HW235343   2.617   2.075   4.459 -2.1112  2.5244  0.5984
 7903SOL     OW35344   4.665   0.685   3.071  0.2178 -0.2880  0.2855
 7903SOL    HW135345   4.720   0.719   3.141 -0.2442  1.8175 -0.3836
 7903SOL    HW235346   4.685   0.737   2.993  3.2419 -0.9761  0.6159
 7904SOL     OW35347   2.977   2.823   0.549 -0.2932 -0.4501  0.8131
 7904SOL    HW135348   2.937   2.794   0.632  1.3017 -1.5342  1.2115
 7904SOL    HW235349   2.898   2.851   0.503  0.2509 -2.0703 -1.0951
 7905SOL     OW35350   2.074   1.777   7.998 -0.4695  0.6999 -0.3330
 7905SOL    HW135351   2.068   1.699   8.054 -0.0984  0.8459 -0.0908
 7905SOL    HW235352   2.033   1.746   7.918 -2.9544  1.5609  0.6002
 7906SOL     OW35353   2.076   2.718  13.414  0.3724 -0.3830 -0.0270
 7906SOL    HW135354   2.131   2.674  13.480  2.8357  2.3007 -0.3095
 7906SOL    HW235355   2.135   2.716  13.339  0.2771  0.3787 -0.1134
 7907SOL     OW35356   0.119   2.848   5.547  0.0960 -0.2336  0.1454
 7907SOL    HW135357   0.196   2.848   5.490  1.1623 -0.2040  1.6015
 7907SOL    HW235358   0.162   2.877   5.627  0.9169  2.0459 -1.1197
 7908SOL     OW35359   1.843   3.300  14.423 -0.4277 -0.8605 -0.0037
 7908SOL    HW135360   1.753   3.308  14.452 -0.4450  1.4669 -0.6327
 7908SOL    HW235361   1.889   3.310  14.506 -3.1965  0.7857  1.3239
 7909SOL     OW35362   4.427   4.361  16.385 -0.7150  0.3478  0.1565
 7909SOL    HW135363   4.352   4.329  16.435 -1.3223  1.9611  0.2817
 7909SOL    HW235364   4.474   4.280  16.366  1.0895  1.3655  0.2664
 7910SOL     OW35365   2.620   4.222   7.326  0.0695  0.0301 -0.3550
 7910SOL    HW135366   2.657   4.308   7.306  2.3105 -0.8505  0.0069
 7910SOL    HW235367   2.652   4.173   7.251 -1.6968 -0.4643 -0.7951
 7911SOL     OW35368   4.053   3.489  11.013  0.2576 -0.2943  0.2146
 7911SOL    HW135369   4.001   3.495  11.093 -0.0186  1.9789 -0.1174
 7911SOL    HW235370   3.991   3.518  10.946 -0.0403 -0.5067  0.4008
 7912SOL     OW35371   2.422   2.751  11.300  0.0707  0.2556 -0.3216
 7912SOL    HW135372   2.432   2.679  11.363  1.9982 -0.1523 -1.1054
 7912SOL    HW235373   2.465   2.820  11.351  1.2175  0.0641 -1.0531
 7913SOL     OW35374   3.200   2.332   2.044  0.4627 -0.4707  0.1140
 7913SOL    HW135375   3.140   2.379   2.103  1.0239 -0.7570  0.9117
 7913SOL    HW235376   3.144   2.268   2.000  2.1898 -2.2954  0.5350
 7914SOL     OW35377   1.993   3.084   3.300 -0.3006  0.4676 -0.1559
 7914SOL    HW135378   1.915   3.139   3.289 -1.0951 -0.6435 -0.1111
 7914SOL    HW235379   2.037   3.127   3.374  1.6196 -1.9348  0.0853
 7915SOL     OW35380   2.165   2.306   4.733  0.5446  0.3176 -0.3649
 7915SOL    HW135381   2.152   2.380   4.674  0.2366 -0.7180 -1.5784
 7915SOL    HW235382   2.171   2.231   4.675  1.0555 -0.0921  0.2105
 7916SOL     OW35383   1.052   0.595  15.132 -0.0538  0.5362  0.1380
 7916SOL    HW135384   1.142   0.616  15.105  0.0276 -1.1093 -0.9111
 7916SOL    HW235385   1.038   0.675  15.181  0.6740 -0.8171  2.5539
 7917SOL     OW35386   3.004   0.832   5.499 -0.1320  0.2139  0.0607
 7917SOL    HW135387   3.002   0.875   5.585 -0.2253  1.0917 -0.3828
 7917SOL    HW235388   3.058   0.756   5.524  1.3914  0.7963 -1.4531
 7918SOL     OW35389   3.761   3.759  11.340  0.5385 -0.1483 -0.2402
 7918SOL    HW135390   3.809   3.729  11.263  0.3071 -1.1094 -0.0103
 7918SOL    HW235391   3.826   3.743  11.408  1.3753  0.8631 -0.7966
 7919SOL     OW35392   1.518   2.209  17.536 -0.1181 -0.1267  0.1011
 7919SOL    HW135393   1.532   2.256  17.453  0.4410 -2.2043 -0.9918
 7919SOL    HW235394   1.512   2.286  17.592  2.4916 -2.0970  3.0879
 7920SOL     OW35395   4.638   1.221   8.119 -0.1472 -0.6676 -0.0059
 7920SOL    HW135396   4.667   1.164   8.048 -1.9903  0.2783 -1.5130
 7920SOL    HW235397   4.587   1.158   8.170 -0.3755  0.7699  1.5791
 7921SOL     OW35398   3.134   4.603   9.438 -0.3628  0.4425  0.6451
 7921SOL    HW135399   3.164   4.512   9.434  1.1785  0.9597  0.5108
 7921SOL    HW235400   3.218   4.643   9.420  0.2990 -0.1066  2.5039
 7922SOL     OW35401   3.459   0.037  11.406 -0.0721  0.6028  0.2450
 7922SOL    HW135402   3.366   0.014  11.409 -0.4622  2.2644  1.2277
 7922SOL    HW235403   3.451   0.105  11.338  1.6355  0.3187 -0.2292
 7923SOL     OW35404   2.777   3.891   4.304  0.2238 -0.5206 -0.6011
 7923SOL    HW135405   2.791   3.810   4.353  1.3387 -0.2888 -0.5406
 7923SOL    HW235406   2.786   3.857   4.215 -2.6380 -1.0856 -0.6832
 7924SOL     OW35407   3.515   4.143   1.137  0.9075  0.1136 -0.2753
 7924SOL    HW135408   3.454   4.079   1.103  2.8120 -0.2302 -3.0299
 7924SOL    HW235409   3.603   4.104   1.134  0.7251 -0.3420  0.2747
 7925SOL     OW35410   0.515   2.563  14.612  0.3899  0.1610  0.7175
 7925SOL    HW135411   0.573   2.639  14.600 -1.1341  0.8871 -1.9331
 7925SOL    HW235412   0.556   2.502  14.550 -0.3839 -1.7249  2.0815
 7926SOL     OW35413   4.107   4.564  10.238 -0.3716 -0.1190  0.1609
 7926SOL    HW135414   4.162   4.559  10.317  0.9849 -2.0003 -0.9194
 7926SOL    HW235415   4.124   4.481  10.193 -1.3798  0.0514 -0.5139
 7927SOL     OW35416   0.693   4.713   2.972  0.1004  0.3035 -0.0739
 7927SOL    HW135417   0.781   0.004   2.998 -0.1711  2.2289 -1.1350
 7927SOL    HW235418   0.675   0.035   2.898  2.1674  1.1940  0.1073
 7928SOL     OW35419   1.754   0.972   4.222  0.3129 -0.2383  0.5068
 7928SOL    HW135420   1.778   1.065   4.222 -0.1860 -0.1009 -0.1818
 7928SOL    HW235421   1.828   0.926   4.260  1.3274  0.5299 -0.5513
 7929SOL     OW35422   2.710   2.896   0.788  0.3016 -0.5559 -0.4279
 7929SOL    HW135423   2.689   2.828   0.724 -1.3486  0.7244 -1.2671
 7929SOL    HW235424   2.640   2.962   0.786  1.8087  1.0815  0.6107
 7930SOL     OW35425   0.895   2.096   6.462  0.5261  0.2115 -0.0123
 7930SOL    HW135426   0.808   2.057   6.462  0.6925 -0.1328  2.9125
 7930SOL    HW235427   0.935   2.062   6.542 -0.3780 -0.0973  0.3017
 7931SOL     OW35428   4.223   1.996   6.831 -0.6735 -0.0181  0.4951
 7931SOL    HW135429   4.278   1.966   6.903  3.0276  1.0038 -1.9024
 7931SOL    HW235430   4.152   1.934   6.848 -0.9836  0.7459  1.9531
 7932SOL     OW35431   4.285   0.008  12.983 -0.4429 -0.1681 -0.3919
 7932SOL    HW135432   4.359   4.699  12.941  1.3827  1.2449  1.3179
 7932SOL    HW235433   4.211   0.000  12.923 -1.3500 -0.7557  0.8069
 7933SOL     OW35434   2.530   1.551   5.695  0.1723 -0.2739  0.3244
 7933SOL    HW135435   2.469   1.490   5.737  2.7999 -2.1741  1.4230
 7933SOL    HW235436   2.616   1.555   5.738  0.0610 -0.2377  0.5388
 7934SOL     OW35437   0.023   2.535   1.154  0.4708  0.5855  0.2311
 7934SOL    HW135438   0.014   2.516   1.061  0.9898  0.4389  0.2108
 7934SOL    HW235439   0.115   2.519   1.175  0.4774 -0.1015 -0.3162
 7935SOL     OW35440   2.039   4.140  14.339 -0.2091 -0.0139  0.1736
 7935SOL    HW135441   2.043   4.105  14.250 -0.8962 -1.3553  0.6730
 7935SOL    HW235442   2.104   4.076  14.369 -0.0245 -0.0443 -0.2791
 7936SOL     OW35443   3.162   0.788   6.747  0.0795 -0.1357  0.0564
 7936SOL    HW135444   3.251   0.823   6.746 -0.3568  0.9414 -0.3156
 7936SOL    HW235445   3.107   0.862   6.770 -0.5208  0.2253 -2.5785
 7937SOL     OW35446   1.409   3.177   3.698 -1.0192 -0.6063  0.2408
 7937SOL    HW135447   1.413   3.082   3.691 -0.3437 -0.5852  0.2960
 7937SOL    HW235448   1.317   3.191   3.678 -1.2770 -1.4182  0.8466
 7938SOL     OW35449   1.486   3.231   6.276  0.9944  0.0540 -0.0477
 7938SOL    HW135450   1.455   3.186   6.197  0.8283  1.8785 -1.0123
 7938SOL    HW235451   1.580   3.211   6.272  0.5607 -2.1220  0.4281
 7939SOL     OW35452   2.140   2.170   3.964  0.1639 -0.2901 -0.6623
 7939SOL    HW135453   2.065   2.223   3.939 -0.7869 -1.1471  0.3537
 7939SOL    HW235454   2.149   2.194   4.057  0.5932 -0.8767 -0.5460
 7940SOL     OW35455   4.052   4.634   5.844  0.0731  0.4426 -0.0542
 7940SOL    HW135456   4.138   4.645   5.883  0.7891 -0.3005 -1.4335
 7940SOL    HW235457   4.007   4.716   5.869 -2.7050 -1.1714  0.2448
 7941SOL     OW35458   4.533   1.482   1.758  0.2045  0.3156 -0.0731
 7941SOL    HW135459   4.530   1.572   1.725 -0.1518 -0.4696 -2.2125
 7941SOL    HW235460   4.591   1.504   1.831 -1.1402  3.4738  0.0478
 7942SOL     OW35461   3.841   2.527   9.061 -0.5726 -0.1919 -0.0128
 7942SOL    HW135462   3.858   2.442   9.021 -0.5079  0.9391 -2.4064
 7942SOL    HW235463   3.932   2.537   9.088  0.0941 -0.5445 -2.0769
 7943SOL     OW35464   0.250   2.618  12.316 -0.1219 -0.0961 -0.3329
 7943SOL    HW135465   0.281   2.649  12.401  1.0620  0.6662 -1.0445
 7943SOL    HW235466   0.241   2.697  12.263  0.0231  0.3861  0.3592
 7944SOL     OW35467   2.528   1.560   1.661 -0.4667  0.0966  0.0669
 7944SOL    HW135468   2.578   1.610   1.596 -0.0548  0.7734  0.9030
 7944SOL    HW235469   2.514   1.481   1.609  0.0361  0.1939 -0.2215
 7945SOL     OW35470   4.022   3.239   6.275 -0.2166  0.5046  0.9160
 7945SOL    HW135471   4.089   3.279   6.330  1.2604 -0.2756 -0.3376
 7945SOL    HW235472   3.999   3.309   6.213 -0.4208 -1.5867 -1.3639
 7946SOL     OW35473   0.825   2.636   3.247 -0.8269  0.3112  0.4733
 7946SOL    HW135474   0.795   2.551   3.215  0.1940  0.9793 -2.2083
 7946SOL    HW235475   0.747   2.685   3.221  1.2096  2.3517 -1.8034
 7947SOL     OW35476   2.346   1.098  12.221 -0.1894 -0.0650  1.0924
 7947SOL    HW135477   2.256   1.131  12.224  0.0702  0.6747  0.7202
 7947SOL    HW235478   2.390   1.183  12.216  2.1810 -1.2765  1.0162
 7948SOL     OW35479   0.111   2.116   3.859 -0.5525 -0.2439  0.1020
 7948SOL    HW135480   0.126   2.108   3.765  1.7028  1.1936  0.3456
 7948SOL    HW235481   0.068   2.201   3.859  0.5779  0.3163 -1.3675
 7949SOL     OW35482   3.473   1.219   8.368  0.2058 -0.0722  0.0764
 7949SOL    HW135483   3.403   1.278   8.396 -0.5980 -0.8425 -0.3077
 7949SOL    HW235484   3.418   1.143   8.352 -1.0842  0.0327  4.0120
 7950SOL     OW35485   1.783   2.448   5.131  0.8852 -0.2534 -0.3978
 7950SOL    HW135486   1.879   2.451   5.136  0.6916  3.2279  1.6183
 7950SOL    HW235487   1.779   2.357   5.102  0.1315  0.1939 -1.6659
 7951SOL     OW35488   4.336   1.431   9.084  0.6316 -0.4508  0.1272
 7951SOL    HW135489   4.331   1.343   9.047 -1.0850  0.1360 -1.0268
 7951SOL    HW235490   4.381   1.474   9.011  2.2795 -0.8785  0.8905
 7952SOL     OW35491   3.924   1.089   5.661  0.0205  0.2559  0.2003
 7952SOL    HW135492   3.925   1.142   5.582  2.7797 -0.6637 -0.4132
 7952SOL    HW235493   3.989   1.140   5.710  1.3096  0.2650 -1.4908
 7953SOL     OW35494   1.019   3.489   2.162  0.0304 -0.4673  0.2983
 7953SOL    HW135495   1.030   3.583   2.153 -1.4687 -0.2708  0.5897
 7953SOL    HW235496   0.932   3.482   2.199  0.0271 -0.3101  0.3172
 7954SOL     OW35497   0.013   1.634   9.521  0.0606 -0.1267  0.1824
 7954SOL    HW135498   0.042   1.584   9.444 -1.7956 -2.6394  1.1291
 7954SOL    HW235499   4.660   1.661   9.498  0.3635  1.7595  1.2354
 7955SOL     OW35500   2.544   0.842   9.314  0.0866 -0.0549 -0.3539
 7955SOL    HW135501   2.457   0.824   9.279 -0.5504  1.2428  0.5899
 7955SOL    HW235502   2.530   0.793   9.395 -1.2645 -0.8641 -1.0788
 7956SOL     OW35503   1.157   2.031   7.106  0.1754 -0.2881 -0.2424
 7956SOL    HW135504   1.208   2.000   7.032 -1.1465  1.2847 -1.8072
 7956SOL    HW235505   1.203   2.113   7.120 -0.4540  0.2656 -1.4601
 7957SOL     OW35506   3.733   0.876   7.576 -0.4691 -0.0620 -0.2370
 7957SOL    HW135507   3.671   0.870   7.504  0.6588 -0.7472 -1.1588
 7957SOL    HW235508   3.756   0.969   7.583 -2.2717  0.3954 -0.6260
 7958SOL     OW35509   3.941   0.211   2.909  0.2686  0.3107  0.2053
 7958SOL    HW135510   3.880   0.257   2.967  0.2696 -1.0962  1.3203
 7958SOL    HW235511   3.972   0.138   2.963  0.8346  1.1450  1.0048
 7959SOL     OW35512   1.149   3.820   3.434 -0.3072  0.0207 -0.5901
 7959SOL    HW135513   1.241   3.798   3.449 -0.2271  1.2797  0.7001
 7959SOL    HW235514   1.135   3.766   3.355 -0.5686 -0.0547 -0.4930
 7960SOL     OW35515   4.082   3.719   7.267  0.4840 -0.0517  0.5793
 7960SOL    HW135516   4.170   3.756   7.269  0.4059  0.1052  1.4071
 7960SOL    HW235517   4.109   3.636   7.227  2.3440  0.6196  0.4649
 7961SOL     OW35518   0.565   2.102  17.248  0.4068 -0.0984  0.0586
 7961SOL    HW135519   0.617   2.058  17.315 -1.6765 -3.0522 -0.2292
 7961SOL    HW235520   0.624   2.174  17.225 -0.2267  1.2747  2.6972
 7962SOL     OW35521   0.574   1.470  15.392  0.9054  0.1720 -0.4203
 7962SOL    HW135522   0.534   1.534  15.335  0.0575  0.6985  0.7638
 7962SOL    HW235523   0.648   1.528  15.413 -0.1660  1.1029  0.8164
 7963SOL     OW35524   4.164   3.068   1.548  0.7026 -0.0223  0.4379
 7963SOL    HW135525   4.075   3.063   1.514  0.9318  2.0493 -0.4894
 7963SOL    HW235526   4.198   2.981   1.527  1.4055  0.8687 -2.0640
 7964SOL     OW35527   3.785   1.142   7.562 -0.3194 -0.0148  0.3907
 7964SOL    HW135528   3.849   1.208   7.535  1.6338 -2.5542 -1.1652
 7964SOL    HW235529   3.742   1.175   7.640  0.5256 -0.1780  0.9362
 7965SOL     OW35530   1.393   2.667   2.711  0.3479 -0.1010 -0.1833
 7965SOL    HW135531   1.404   2.742   2.653  1.1420  0.8532  1.1910
 7965SOL    HW235532   1.298   2.658   2.718  0.4923 -0.4026  1.4937
 7966SOL     OW35533   4.000   1.415   1.771  0.0833 -0.2469 -0.1850
 7966SOL    HW135534   3.908   1.442   1.775 -0.1924 -1.1585 -0.3012
 7966SOL    HW235535   4.004   1.345   1.706 -1.5679 -0.3048 -0.2275
 7967SOL     OW35536   3.014   0.029   5.012 -0.1275 -0.3784 -0.1513
 7967SOL    HW135537   3.010   0.099   5.077  0.4139  0.4867 -1.0462
 7967SOL    HW235538   2.930   0.041   4.967  1.0954  2.2160 -1.7009
 7968SOL     OW35539   1.378   4.371   0.833 -0.1565  0.3877  0.5922
 7968SOL    HW135540   1.420   4.426   0.766 -0.5401  0.0235  0.0512
 7968SOL    HW235541   1.399   4.280   0.810  2.3754  1.3297 -0.7747
 7969SOL     OW35542   2.482   1.445   9.050 -0.1910 -0.4404 -0.0660
 7969SOL    HW135543   2.416   1.433   8.982  1.2789 -0.6601 -1.4412
 7969SOL    HW235544   2.530   1.521   9.016  0.1162 -0.2510  0.7905
 7970SOL     OW35545   2.491   3.621  16.342  0.1382  0.5470  0.0541
 7970SOL    HW135546   2.403   3.597  16.370  0.3017  0.0759  0.1576
 7970SOL    HW235547   2.487   3.604  16.248 -0.2922 -1.5413  0.4504
 7971SOL     OW35548   2.920   0.241   8.511  0.6062 -0.3780 -0.1817
 7971SOL    HW135549   2.917   0.335   8.528  2.0794 -0.3816  0.0761
 7971SOL    HW235550   2.984   0.235   8.439 -0.8137 -1.2997 -1.3761
 7972SOL     OW35551   2.037   3.391   6.624 -0.4449 -0.3018  0.1908
 7972SOL    HW135552   2.087   3.311   6.638  1.4706  0.5643 -1.7986
 7972SOL    HW235553   2.047   3.396   6.529  1.5580 -1.1548  0.3585
 7973SOL     OW35554   3.515   2.416  13.230 -0.2089  0.4176  0.2956
 7973SOL    HW135555   3.560   2.396  13.312 -0.0965 -1.0330 -0.1146
 7973SOL    HW235556   3.588   2.386  13.176 -0.8601 -0.2313 -0.2354
 7974SOL     OW35557   2.369   3.427   5.966  0.3496 -0.5602  0.0762
 7974SOL    HW135558   2.443   3.453   5.911 -1.2421 -0.4203 -1.9810
 7974SOL    HW235559   2.329   3.513   5.981 -0.0513 -0.5525 -1.0085
 7975SOL     OW35560   0.007   4.309   3.016  0.1126 -0.0779  0.1914
 7975SOL    HW135561   0.030   4.227   2.971  0.8138  0.0954  0.2352
 7975SOL    HW235562   4.717   4.359   2.939  1.0917  0.2982  0.1154
 7976SOL     OW35563   1.862   0.774   0.684  0.6159  0.6418  0.1147
 7976SOL    HW135564   1.834   0.839   0.748 -0.3998  1.3743 -1.0621
 7976SOL    HW235565   1.920   0.705   0.715 -0.5921 -1.0653 -1.3720
 7977SOL     OW35566   1.975   3.003   3.695  0.0211 -0.2483 -0.2925
 7977SOL    HW135567   1.990   2.912   3.669  0.6569 -0.8192  2.0378
 7977SOL    HW235568   1.890   2.985   3.736  0.5102  0.0059  0.8489
 7978SOL     OW35569   0.078   3.658  13.058  0.4040 -0.3311  0.7800
 7978SOL    HW135570   0.051   3.674  13.149 -0.0395  1.7523  0.2940
 7978SOL    HW235571   0.172   3.674  13.070  0.0642  1.4370  1.1270
 7979SOL     OW35572   0.401   1.179  12.259 -0.3039  0.3090  0.7790
 7979SOL    HW135573   0.390   1.164  12.353 -0.8595 -1.4054  0.4428
 7979SOL    HW235574   0.372   1.269  12.247 -0.8517  0.0712  0.3106
 7980SOL     OW35575   4.495   3.969   4.314  0.3113  0.3254 -0.3779
 7980SOL    HW135576   4.446   3.969   4.397  0.6470  1.1882 -0.1776
 7980SOL    HW235577   4.460   3.887   4.279 -1.4276  1.3030 -0.8991
 7981SOL     OW35578   3.255   1.684   4.145  0.6362 -0.0550 -0.2503
 7981SOL    HW135579   3.261   1.656   4.054  0.3014  0.8764 -0.5662
 7981SOL    HW235580   3.161   1.689   4.162  0.7845 -2.6785  1.2469
 7982SOL     OW35581   1.185   2.982   3.227  0.7161 -1.1107 -0.6766
 7982SOL    HW135582   1.169   2.889   3.245 -3.3447 -0.4783 -1.0564
 7982SOL    HW235583   1.215   3.012   3.313 -1.6947  1.0637 -0.6058
 7983SOL     OW35584   0.295   1.075   1.625 -0.1435 -0.4173  0.0638
 7983SOL    HW135585   0.213   1.026   1.623 -0.4173  0.0334  0.4053
 7983SOL    HW235586   0.256   1.156   1.657 -0.7438 -0.8851  0.5007
 7984SOL     OW35587   2.063   3.862   1.136 -0.5095 -0.1015  0.3221
 7984SOL    HW135588   2.027   3.777   1.113 -0.8932  0.1687 -0.0919
 7984SOL    HW235589   2.029   3.914   1.063 -1.0136 -0.1565  0.5177
 7985SOL     OW35590   1.948   3.343   3.015 -0.6527 -0.3990  0.2236
 7985SOL    HW135591   1.911   3.312   3.097  0.1657  0.1314  0.7995
 7985SOL    HW235592   2.010   3.271   3.008 -1.2742 -0.7565 -1.6787
 7986SOL     OW35593   4.614   1.869   4.535  0.3230  0.1555 -0.0677
 7986SOL    HW135594   4.590   1.820   4.457 -1.3199 -0.8904  1.0764
 7986SOL    HW235595   4.529   1.901   4.566  1.1048  1.6293  0.5299
 7987SOL     OW35596   1.752   1.476   6.405 -0.2135 -0.4006  0.2749
 7987SOL    HW135597   1.775   1.514   6.320 -0.3468  0.8761  0.8200
 7987SOL    HW235598   1.828   1.419   6.411 -0.4632 -0.7485  0.1663
 7988SOL     OW35599   3.323   2.553   8.608 -0.5370 -0.1879 -0.1423
 7988SOL    HW135600   3.238   2.590   8.585 -0.8123  0.2680  1.6454
 7988SOL    HW235601   3.326   2.562   8.703  0.6527 -1.8629 -0.0329
 7989SOL     OW35602   2.926   1.656   6.740  0.1653 -0.0771  0.5141
 7989SOL    HW135603   2.916   1.732   6.682  1.3917 -0.0993  0.2611
 7989SOL    HW235604   3.009   1.630   6.699  0.1123  1.5780 -0.6527
 7990SOL     OW35605   2.434   2.174   4.210 -0.2449 -0.3420 -0.2911
 7990SOL    HW135606   2.491   2.216   4.146 -0.8708  0.6417 -0.2080
 7990SOL    HW235607   2.491   2.111   4.254 -1.3026 -0.4336  0.9734
 7991SOL     OW35608   3.843   0.516  16.877  0.1046 -0.3151 -0.6479
 7991SOL    HW135609   3.784   0.443  16.861  0.6695 -0.8137 -0.4647
 7991SOL    HW235610   3.814   0.581  16.814 -0.8353  0.4909  0.6218
 7992SOL     OW35611   0.418   1.785  14.440 -0.2047 -0.4545  0.0436
 7992SOL    HW135612   0.422   1.866  14.491  3.9916 -0.0784 -0.9065
 7992SOL    HW235613   0.326   1.762  14.426 -0.0884 -2.1708  2.1393
 7993SOL     OW35614   4.516   2.239  14.900  0.1352  0.1218 -1.0904
 7993SOL    HW135615   4.609   2.230  14.919  0.2238  1.5331 -0.8453
 7993SOL    HW235616   4.520   2.258  14.806  1.7727 -2.3058 -1.5125
 7994SOL     OW35617   4.475   1.090   8.261  0.3282  0.3398  0.2037
 7994SOL    HW135618   4.514   1.045   8.336  1.7076  2.7210  0.9259
 7994SOL    HW235619   4.383   1.092   8.285 -0.2819 -0.7293 -2.0650
 7995SOL     OW35620   3.088   1.239   3.358 -0.5230 -0.6253  0.5578
 7995SOL    HW135621   3.182   1.255   3.354 -0.0806 -3.3730 -0.2735
 7995SOL    HW235622   3.063   1.328   3.332  2.5619  0.1701  0.3252
 7996SOL     OW35623   0.773   1.761   5.258  0.2644  0.5802  0.6860
 7996SOL    HW135624   0.810   1.806   5.334 -0.9793  1.3839  0.8039
 7996SOL    HW235625   0.766   1.830   5.192  1.8726 -1.1939 -1.3762
 7997SOL     OW35626   3.205   3.321   5.070  0.3298  0.1214  0.0516
 7997SOL    HW135627   3.161   3.379   5.132 -0.9538 -0.4860 -0.2675
 7997SOL    HW235628   3.184   3.241   5.118  2.5852  0.0637  0.9109
 7998SOL     OW35629   0.349   1.097   7.305 -0.1002  0.1550  0.0156
 7998SOL    HW135630   0.445   1.098   7.302 -0.1253  0.5373 -0.7936
 7998SOL    HW235631   0.334   1.180   7.352 -0.7112 -0.2213  0.4780
 7999SOL     OW35632   1.393   3.104   7.319 -0.4182  0.1314 -0.2597
 7999SOL    HW135633   1.298   3.099   7.306 -0.0956 -1.3441 -2.0410
 7999SOL    HW235634   1.420   3.083   7.230 -0.0613  0.3668 -0.2044
 8000SOL     OW35635   4.447   3.954   9.375 -0.1204 -0.8214  0.4605
 8000SOL    HW135636   4.439   4.003   9.293 -2.1924  0.2763  1.3238
 8000SOL    HW235637   4.480   4.021   9.434 -0.1339  1.3658 -2.0196
 8001SOL     OW35638   0.315   0.987  14.158 -0.1140  0.2032 -0.6176
 8001SOL    HW135639   0.329   1.081  14.148  2.6440 -0.3039 -1.4585
 8001SOL    HW235640   0.230   0.984  14.115  0.5454 -2.4134 -1.7375
 8002SOL     OW35641   1.382   2.722   3.469  0.5241 -0.8828  0.4977
 8002SOL    HW135642   1.311   2.681   3.519  0.1685 -1.2117 -0.2857
 8002SOL    HW235643   1.441   2.742   3.542  0.8599 -0.1413  0.0122
 8003SOL     OW35644   4.113   2.912   6.995  0.2686 -0.3292 -0.3821
 8003SOL    HW135645   4.144   3.003   6.995 -1.9535  0.4129  2.1714
 8003SOL    HW235646   4.181   2.859   6.953 -0.8539 -2.8385  0.9800
 8004SOL     OW35647   4.508   0.316   4.735 -0.2781 -0.1858  0.2905
 8004SOL    HW135648   4.430   0.371   4.731 -0.8635 -1.1026 -0.8717
 8004SOL    HW235649   4.540   0.348   4.819  0.2422  3.0802 -1.1238
 8005SOL     OW35650   2.736   3.402   4.515 -0.1613 -0.8946  0.3832
 8005SOL    HW135651   2.816   3.396   4.566 -0.8653 -1.6746  1.4033
 8005SOL    HW235652   2.673   3.436   4.579 -0.3068 -0.9554  0.2727
 8006SOL     OW35653   1.619   2.039   6.176 -0.4257  0.3143 -0.0841
 8006SOL    HW135654   1.533   2.069   6.146 -0.1735  1.3282  0.2110
 8006SOL    HW235655   1.591   1.953   6.208  0.9491  0.8952  2.6646
 8007SOL     OW35656   0.567   4.584  16.283 -0.3584  0.1798  0.9075
 8007SOL    HW135657   0.492   4.538  16.320 -1.4375  1.8314  0.7293
 8007SOL    HW235658   0.535   4.643  16.215 -1.5936  0.4222  1.7086
 8008SOL     OW35659   3.671   3.346  10.803 -0.1188  0.1397  0.2183
 8008SOL    HW135660   3.746   3.399  10.827  1.2513 -0.7281 -2.1904
 8008SOL    HW235661   3.618   3.324  10.880  1.8117  0.3253  1.5945
 8009SOL     OW35662   2.712   3.644   1.832  0.4458 -0.0261 -0.2231
 8009SOL    HW135663   2.702   3.556   1.794  0.3643 -0.3360  0.5285
 8009SOL    HW235664   2.760   3.619   1.911  0.5524 -0.7184 -0.4991
 8010SOL     OW35665   2.967   1.662   1.516 -0.6924 -0.0985 -0.2545
 8010SOL    HW135666   2.873   1.679   1.510 -0.3755  1.2222 -1.6845
 8010SOL    HW235667   3.000   1.751   1.533 -1.7855  0.2141  0.2490
 8011SOL     OW35668   3.430   4.438  10.351 -0.2663  0.6006  0.2702
 8011SOL    HW135669   3.443   4.380  10.427 -0.1484  0.3161  0.0349
 8011SOL    HW235670   3.440   4.525  10.389 -0.9232  1.4774 -1.5811
 8012SOL     OW35671   0.384   2.100   4.297  0.1571  0.5095 -0.4213
 8012SOL    HW135672   0.412   2.189   4.275 -0.8768  1.3375  1.6854
 8012SOL    HW235673   0.336   2.078   4.217  0.4089 -1.0822 -0.1300
 8013SOL     OW35674   3.018   1.786  16.039  0.1851  0.1256 -0.6141
 8013SOL    HW135675   3.036   1.872  16.078  0.2866 -0.4734  0.6453
 8013SOL    HW235676   3.061   1.805  15.956  0.6823  0.4971 -0.2780
 8014SOL     OW35677   2.902   4.271   4.197  0.0447  0.3408  0.0048
 8014SOL    HW135678   2.865   4.193   4.241 -0.4167  1.4648  1.6198
 8014SOL    HW235679   2.991   4.242   4.176 -0.2814  0.2469 -1.2292
 8015SOL     OW35680   3.133   2.252  16.725 -0.0730 -0.1153 -0.4294
 8015SOL    HW135681   3.103   2.195  16.654  1.8121 -0.9491 -0.5545
 8015SOL    HW235682   3.228   2.246  16.717  0.0122  1.1162 -0.3888
 8016SOL     OW35683   0.760   4.551   3.972  0.2339  0.9089  0.0018
 8016SOL    HW135684   0.741   4.461   3.998 -0.8765  1.3845  0.8549
 8016SOL    HW235685   0.792   4.537   3.884  1.7955 -1.3102  0.9242
 8017SOL     OW35686   0.124   1.821   1.350 -0.6805 -0.3175  0.2112
 8017SOL    HW135687   0.039   1.812   1.309 -0.5924  1.2904 -0.3469
 8017SOL    HW235688   0.181   1.822   1.273 -1.3773  1.0744 -0.2821
 8018SOL     OW35689   3.996   2.837   0.264 -0.0727 -0.8235  1.2892
 8018SOL    HW135690   4.055   2.804   0.197  0.9496  2.0774  0.7601
 8018SOL    HW235691   4.033   2.800   0.344  1.9954  0.2364  0.8167
 8019SOL     OW35692   0.138   0.654   6.953  0.1459 -0.0382  0.2233
 8019SOL    HW135693   0.049   0.619   6.955 -0.6317  1.9667  0.1387
 8019SOL    HW235694   0.177   0.603   7.024  0.3118 -1.6750 -1.0621
 8020SOL     OW35695   2.505   2.448   4.310 -0.5592 -0.1055  0.3276
 8020SOL    HW135696   2.444   2.448   4.384  1.9813  0.0148  2.4569
 8020SOL    HW235697   2.534   2.359   4.290  0.1161  0.3657 -0.7848
 8021SOL     OW35698   1.914   1.753   8.858 -0.6298  0.1821  0.5939
 8021SOL    HW135699   1.967   1.746   8.778  1.8925  1.0923  2.1817
 8021SOL    HW235700   1.915   1.845   8.883  0.4581  0.3959 -0.2542
 8022SOL     OW35701   3.418   2.653   2.346  0.6932 -0.1876 -0.0219
 8022SOL    HW135702   3.454   2.589   2.284 -0.2129 -1.9524  1.2596
 8022SOL    HW235703   3.366   2.713   2.292  1.1706 -0.3908 -0.7145
 8023SOL     OW35704   2.192   1.640   8.942 -0.0652  0.3304  0.2299
 8023SOL    HW135705   2.193   1.676   8.854  0.5088 -0.5423 -0.1143
 8023SOL    HW235706   2.098   1.623   8.945 -0.2985  1.3989 -1.1163
 8024SOL     OW35707   3.950   3.247   2.282  0.7831 -0.4814 -0.1407
 8024SOL    HW135708   3.946   3.181   2.351  1.0415 -0.8501 -0.4791
 8024SOL    HW235709   3.893   3.306   2.331 -0.0017 -2.3403  1.2061
 8025SOL     OW35710   4.282   1.743   4.427  0.0704  0.8967 -0.5744
 8025SOL    HW135711   4.193   1.717   4.404  0.8765 -0.6732 -1.8841
 8025SOL    HW235712   4.317   1.796   4.355 -0.5806  1.4010 -0.5193
 8026SOL     OW35713   0.625   4.246   3.073  0.2397  0.1694  0.3307
 8026SOL    HW135714   0.592   4.158   3.055 -1.4837  0.5262  1.8133
 8026SOL    HW235715   0.717   4.244   3.045  0.0811 -1.6772 -0.1080
 8027SOL     OW35716   4.335   1.251  11.104 -0.0424 -0.3905 -0.1957
 8027SOL    HW135717   4.415   1.216  11.064  0.3243  1.7336 -1.3357
 8027SOL    HW235718   4.359   1.343  11.117 -0.2323  0.0379 -2.7000
 8028SOL     OW35719   0.159   4.344   6.391 -0.1023 -0.3972 -0.0273
 8028SOL    HW135720   0.155   4.429   6.435  0.0861 -0.5129  0.2132
 8028SOL    HW235721   0.132   4.376   6.305 -0.6546 -1.7708 -0.3706
 8029SOL     OW35722   0.200   1.822   5.340  0.0120 -0.6022  0.2878
 8029SOL    HW135723   0.237   1.821   5.251  1.1931 -0.3770  0.7814
 8029SOL    HW235724   0.127   1.883   5.332 -0.2483 -1.2640 -2.5367
 8030SOL     OW35725   1.456   2.084   5.895 -0.1020 -0.2290 -0.0921
 8030SOL    HW135726   1.482   2.046   5.812  0.2483  1.3411 -0.6989
 8030SOL    HW235727   1.396   2.152   5.864 -1.3406 -0.8429  0.9253
 8031SOL     OW35728   0.101   1.739   4.679  0.1771  0.2367  0.1563
 8031SOL    HW135729   0.052   1.813   4.645  0.5015 -0.0469 -0.9274
 8031SOL    HW235730   0.190   1.767   4.656  0.4333 -0.1731  0.6327
 8032SOL     OW35731   0.378   0.672  12.630  0.0883  0.6041  0.2065
 8032SOL    HW135732   0.328   0.594  12.653 -2.1780  2.4071  1.4016
 8032SOL    HW235733   0.345   0.730  12.698 -2.6294  0.0339 -0.6098
 8033SOL     OW35734   0.544   0.757   6.029  0.1793 -0.4900 -0.4964
 8033SOL    HW135735   0.519   0.740   6.120  0.7424  2.6139  0.2435
 8033SOL    HW235736   0.638   0.772   6.034  0.5042 -2.5183 -0.5846
 8034SOL     OW35737   4.561   1.500   3.387 -0.2304 -0.4724  0.1551
 8034SOL    HW135738   4.474   1.504   3.427  0.1971  1.3413  0.9059
 8034SOL    HW235739   4.540   1.473   3.298  0.9974 -1.5814  0.2069
 8035SOL     OW35740   1.730   2.487  11.801 -0.0300 -0.0503  0.6065
 8035SOL    HW135741   1.805   2.541  11.829 -0.5158  0.3556  1.1224
 8035SOL    HW235742   1.664   2.521  11.860 -1.4623  0.0098 -1.0400
 8036SOL     OW35743   1.202   3.590   3.669 -0.1609 -0.3009  0.2640
 8036SOL    HW135744   1.136   3.591   3.600  2.4693  1.0400 -2.2553
 8036SOL    HW235745   1.207   3.683   3.693  1.1985  0.4934 -3.0850
 8037SOL     OW35746   3.234   1.728  13.273 -0.0055 -0.2078 -0.1806
 8037SOL    HW135747   3.151   1.749  13.231 -0.8989 -0.2253  1.5725
 8037SOL    HW235748   3.270   1.814  13.253 -0.2541  0.3785  1.8546
 8038SOL     OW35749   2.740   1.185   8.442 -0.3887  0.0078  0.1984
 8038SOL    HW135750   2.746   1.206   8.349  2.9808  0.4157  0.5171
 8038SOL    HW235751   2.731   1.276   8.468 -2.4666 -0.1390  0.0308
 8039SOL     OW35752   1.819   0.211   4.505  0.4896 -0.3953  0.5217
 8039SOL    HW135753   1.819   0.175   4.593  2.5473 -0.6046  0.4350
 8039SOL    HW235754   1.770   0.142   4.459  0.1975  0.4066 -0.3840
 8040SOL     OW35755   1.345   4.224   9.141 -0.1795 -0.1386  0.5276
 8040SOL    HW135756   1.341   4.233   9.236  0.3403  1.4976  0.3995
 8040SOL    HW235757   1.440   4.216   9.128 -0.4284 -2.7842  0.3753
 8041SOL     OW35758   3.505   0.813   3.027 -0.3743  0.1758 -0.4443
 8041SOL    HW135759   3.512   0.719   3.039  0.0874  0.6952  3.2995
 8041SOL    HW235760   3.535   0.815   2.936  0.4331 -1.7004 -0.2261
 8042SOL     OW35761   0.351   1.644   2.407  0.3156 -0.7748 -0.3016
 8042SOL    HW135762   0.377   1.638   2.315 -0.4536  1.5071 -0.6745
 8042SOL    HW235763   0.379   1.558   2.436  0.8264 -0.5299 -0.0575
 8043SOL     OW35764   4.346   4.313   6.330 -0.4250 -0.1224  0.1177
 8043SOL    HW135765   4.368   4.328   6.238  1.0153 -1.5651  0.2354
 8043SOL    HW235766   4.256   4.283   6.321 -0.5807  0.4238 -0.1738
 8044SOL     OW35767   0.179   1.287  14.160  0.0201 -0.9293  0.8631
 8044SOL    HW135768   0.133   1.239  14.092  0.6879 -0.1026 -0.1629
 8044SOL    HW235769   0.110   1.293  14.227 -1.0876  1.5509 -0.5031
 8045SOL     OW35770   2.830   2.128   1.175 -0.0015 -0.3755 -0.2746
 8045SOL    HW135771   2.867   2.099   1.259 -1.1773  0.3113  0.4848
 8045SOL    HW235772   2.749   2.077   1.173  0.9635 -1.9781  0.4880
 8046SOL     OW35773   1.309   3.545   4.331  0.4379  0.2436 -0.5723
 8046SOL    HW135774   1.249   3.599   4.278 -0.3096 -1.0691 -1.0556
 8046SOL    HW235775   1.394   3.587   4.320  0.5943  0.3703  1.1096
 8047SOL     OW35776   0.331   0.894   9.600  0.6616  0.0937 -0.2245
 8047SOL    HW135777   0.319   0.988   9.607  0.6564 -0.1390  3.0074
 8047SOL    HW235778   0.355   0.885   9.508  0.8681 -3.6515  0.1649
 8048SOL     OW35779   1.149   2.459   8.003 -0.0536  0.3113  1.0963
 8048SOL    HW135780   1.111   2.392   8.059 -0.7025 -0.1298  0.1265
 8048SOL    HW235781   1.200   2.513   8.063  1.8225 -0.3660  0.1333
 8049SOL     OW35782   4.709   0.202  17.154 -0.2175 -0.2680  0.6103
 8049SOL    HW135783   0.063   0.196  17.119  0.5839 -0.8990  2.7219
 8049SOL    HW235784   4.648   0.175  17.086  0.0746 -0.0244  0.2579
 8050SOL     OW35785   0.466   0.237   7.428  0.2621  0.2730  0.0961
 8050SOL    HW135786   0.383   0.222   7.382 -0.3685  4.2954 -0.0867
 8050SOL    HW235787   0.524   0.253   7.354 -0.2374 -1.7616 -0.7579
 8051SOL     OW35788   0.686   0.403   9.047 -0.5771 -0.0257  0.1791
 8051SOL    HW135789   0.675   0.392   8.953 -1.6179  0.1858  0.2767
 8051SOL    HW235790   0.645   0.319   9.072  0.3775 -0.6905 -0.4809
 8052SOL     OW35791   0.800   1.959   3.599  0.5877  0.3095  0.0447
 8052SOL    HW135792   0.835   2.014   3.669 -2.2769  1.9892  0.1382
 8052SOL    HW235793   0.776   1.883   3.652  0.3490  0.6281  0.3830
 8053SOL     OW35794   1.389   2.364   4.528  0.2705  0.4170  0.3542
 8053SOL    HW135795   1.464   2.423   4.534  1.7637 -1.4413 -0.0898
 8053SOL    HW235796   1.341   2.402   4.455  0.6631  1.8274  0.8213
 8054SOL     OW35797   4.061   0.522   7.121  0.1750  0.3114  0.5098
 8054SOL    HW135798   4.088   0.494   7.208 -0.2998 -2.5340 -0.2791
 8054SOL    HW235799   3.973   0.485   7.115  0.2965  0.2619 -0.9821
 8055SOL     OW35800   4.358   2.783   6.614 -0.0249 -0.3729  0.6749
 8055SOL    HW135801   4.383   2.787   6.522  0.1227 -0.3630  0.7146
 8055SOL    HW235802   4.264   2.769   6.619  0.0519 -1.2236 -0.2406
 8056SOL     OW35803   1.035   1.093   9.631  0.3063 -0.0794  0.1239
 8056SOL    HW135804   1.087   1.083   9.711 -1.1280  2.1048  1.3362
 8056SOL    HW235805   1.055   1.012   9.585 -0.9118 -1.4823  2.0517
 8057SOL     OW35806   2.740   2.815   1.051 -0.0841 -0.0776 -0.2266
 8057SOL    HW135807   2.755   2.832   0.958 -1.3986  1.7642 -0.1072
 8057SOL    HW235808   2.681   2.886   1.078 -0.1958 -0.3304  0.1996
 8058SOL     OW35809   3.016   0.029   7.032 -0.4815 -0.3495 -0.3332
 8058SOL    HW135810   2.995   0.112   7.074 -1.0110  0.5482 -2.3923
 8058SOL    HW235811   3.110   0.021   7.044 -0.4197  1.4126  0.3589
 8059SOL     OW35812   0.413   3.958   4.678 -0.0912 -0.6318 -0.1036
 8059SOL    HW135813   0.380   3.953   4.588 -0.2905 -0.9266 -0.0126
 8059SOL    HW235814   0.368   3.888   4.725 -1.5491  0.2826 -0.1153
 8060SOL     OW35815   2.691   4.120   5.680  0.6450 -0.1136  0.6488
 8060SOL    HW135816   2.721   4.157   5.764 -1.8294 -0.5816  1.7548
 8060SOL    HW235817   2.661   4.037   5.717 -1.1387  0.8700  1.4531
 8061SOL     OW35818   0.358   3.223   4.324  0.0569  0.4476 -0.0084
 8061SOL    HW135819   0.368   3.146   4.380 -1.8255  0.5059  0.3856
 8061SOL    HW235820   0.265   3.246   4.323 -0.0815 -0.1250 -1.3328
 8062SOL     OW35821   2.790   1.180  10.638  0.3167  0.0747 -0.4653
 8062SOL    HW135822   2.882   1.154  10.632 -0.0250 -1.2563  0.1594
 8062SOL    HW235823   2.776   1.262  10.684 -0.5734  2.3929 -4.8499
 8063SOL     OW35824   4.016   4.156   7.118  0.3327 -0.6997  0.1361
 8063SOL    HW135825   3.993   4.237   7.073  0.2405 -1.3674 -1.0165
 8063SOL    HW235826   3.929   4.137   7.153 -0.4508 -2.6722 -2.9499
 8064SOL     OW35827   4.390   4.596   8.152 -0.3139 -0.4587 -0.5893
 8064SOL    HW135828   4.346   4.681   8.156 -2.3359 -1.5242  0.1147
 8064SOL    HW235829   4.451   4.604   8.079 -0.5353 -0.5125 -0.7800
 8065SOL     OW35830   1.232   3.959   9.078  0.2353 -0.7073  0.2584
 8065SOL    HW135831   1.245   4.053   9.093 -0.3088 -0.6513  0.3832
 8065SOL    HW235832   1.312   3.926   9.120  0.2780 -1.5185 -0.4548
 8066SOL     OW35833   1.454   2.363   8.074 -0.0466  0.1893  0.2478
 8066SOL    HW135834   1.405   2.383   7.993  0.0886 -2.0164 -0.3802
 8066SOL    HW235835   1.399   2.294   8.110 -1.2531  0.3166 -1.3537
 8067SOL     OW35836   0.860   2.039   4.748  0.3504  0.4709  0.4289
 8067SOL    HW135837   0.924   2.092   4.700  0.2273 -0.0993 -0.3824
 8067SOL    HW235838   0.896   2.025   4.835  2.8446  1.1767 -0.4795
 8068SOL     OW35839   3.251   1.124   2.845 -0.4823  0.5146 -0.3984
 8068SOL    HW135840   3.290   1.091   2.926 -2.3815 -0.1931  0.2282
 8068SOL    HW235841   3.288   1.054   2.790 -0.8330 -1.3227  1.6906
 8069SOL     OW35842   3.838   3.989   5.800  0.5504  0.2029 -0.2482
 8069SOL    HW135843   3.907   4.035   5.753 -0.7613  0.0673 -2.2910
 8069SOL    HW235844   3.767   4.052   5.811  1.9679  1.6848  0.2791
 8070SOL     OW35845   0.475   3.016  14.651 -0.2932  0.1743  0.2593
 8070SOL    HW135846   0.443   3.041  14.738  0.2119  0.5840  0.3240
 8070SOL    HW235847   0.411   3.054  14.589  0.0235 -1.6574 -1.1892
 8071SOL     OW35848   3.242   3.237   4.026 -0.6622  0.2524 -0.0991
 8071SOL    HW135849   3.308   3.218   4.093 -0.1264  1.8663 -0.1601
 8071SOL    HW235850   3.207   3.315   4.070 -1.0406  0.3435 -0.5627
 8072SOL     OW35851   4.681   1.331   7.219  0.2359 -0.1370  0.2385
 8072SOL    HW135852   0.028   1.377   7.231  0.1674  1.1278 -3.9279
 8072SOL    HW235853   4.628   1.388   7.164  0.4465  0.6852  0.8920
 8073SOL     OW35854   2.588   3.495   0.397  0.3838  0.2998  0.0497
 8073SOL    HW135855   2.666   3.526   0.443  0.2353 -1.9411  1.8244
 8073SOL    HW235856   2.524   3.559   0.430  1.7716  2.5979 -1.7334
 8074SOL     OW35857   0.581   1.217   1.345 -0.0132  0.2496  0.3696
 8074SOL    HW135858   0.593   1.214   1.250  2.5590 -0.4284  0.7102
 8074SOL    HW235859   0.633   1.142   1.373  1.2589  0.6343 -0.9583
 8075SOL     OW35860   4.356   1.135  13.732 -0.2955  0.2323  0.2949
 8075SOL    HW135861   4.423   1.204  13.736  0.6164 -0.7263  1.6352
 8075SOL    HW235862   4.291   1.182  13.784 -1.6255  0.5755 -1.6786
 8076SOL     OW35863   0.798   1.253   9.856  0.3324  0.1623 -0.1927
 8076SOL    HW135864   0.774   1.219   9.942 -0.4634  1.5065  0.1209
 8076SOL    HW235865   0.846   1.332   9.880  0.9558  0.2947 -1.8781
 8077SOL     OW35866   3.649   2.602   3.556  0.0239  0.3805 -0.3779
 8077SOL    HW135867   3.610   2.515   3.546 -1.0979  0.6381  1.8520
 8077SOL    HW235868   3.652   2.615   3.650  0.8997  3.3256 -0.8103
 8078SOL     OW35869   1.956   2.315   6.257  0.2746 -0.1310 -0.5064
 8078SOL    HW135870   1.926   2.238   6.305  1.5906  0.1615  0.7484
 8078SOL    HW235871   1.915   2.298   6.171 -3.0831 -1.5662  1.3697
 8079SOL     OW35872   1.541   2.252  10.187  0.5036  0.0376  0.2231
 8079SOL    HW135873   1.619   2.296  10.153  1.3807 -0.9974  0.9000
 8079SOL    HW235874   1.512   2.310  10.258  1.2961 -0.5769  1.0447
 8080SOL     OW35875   3.725   4.339   2.858 -0.2954  0.1381 -0.1331
 8080SOL    HW135876   3.708   4.253   2.897  0.0210  0.2814  0.3229
 8080SOL    HW235877   3.779   4.370   2.930  0.3740 -1.0421 -0.1186
 8081SOL     OW35878   0.492   2.396  16.960  0.2300 -0.3778 -0.0004
 8081SOL    HW135879   0.454   2.405  17.047 -1.8254  0.6616 -0.9842
 8081SOL    HW235880   0.487   2.490  16.939 -0.2694  0.0326  1.9206
 8082SOL     OW35881   2.779   3.137   7.365 -0.0132 -0.5777 -0.2442
 8082SOL    HW135882   2.756   3.089   7.286  0.1820  2.5752 -2.1981
 8082SOL    HW235883   2.875   3.139   7.362 -0.0002 -0.3567  0.2485
 8083SOL     OW35884   3.560   2.784   8.212 -0.0057 -0.3679 -0.3233
 8083SOL    HW135885   3.610   2.829   8.280  0.9162  0.8629 -1.8402
 8083SOL    HW235886   3.621   2.712   8.197 -1.0198 -1.3574  0.2090
 8084SOL     OW35887   4.097   4.103  15.927 -0.0678  0.6884  0.6148
 8084SOL    HW135888   4.161   4.050  15.975 -2.3928 -1.7548  0.9890
 8084SOL    HW235889   4.156   4.167  15.886  2.2299 -0.8088  1.5627
 8085SOL     OW35890   1.354   0.602   9.598  0.4223  0.1356 -0.2252
 8085SOL    HW135891   1.429   0.560   9.640 -0.5704 -2.1638 -0.7657
 8085SOL    HW235892   1.382   0.693   9.607  0.3433 -0.3101  4.1844
 8086SOL     OW35893   0.464   4.235  15.160 -0.6448  0.3740  0.3167
 8086SOL    HW135894   0.495   4.307  15.105 -1.4684 -0.3085 -1.0566
 8086SOL    HW235895   0.547   4.204  15.197 -1.5954 -1.1447  1.1863
 8087SOL     OW35896   2.343   0.935   5.200 -0.1352  0.1729 -0.0429
 8087SOL    HW135897   2.404   0.903   5.134 -0.3736  1.2350 -0.7808
 8087SOL    HW235898   2.339   0.870   5.270 -0.7011 -1.2177 -1.3649
 8088SOL     OW35899   2.277   2.283   3.666  0.1098  0.2247  0.3048
 8088SOL    HW135900   2.347   2.318   3.610  2.0692 -1.8592  1.4624
 8088SOL    HW235901   2.219   2.359   3.667 -0.2474 -0.0457 -0.2562
 8089SOL     OW35902   3.525   0.775   4.493  0.1830  0.1409  0.2708
 8089SOL    HW135903   3.497   0.866   4.479 -0.4947 -0.0109  0.6831
 8089SOL    HW235904   3.457   0.732   4.442 -0.2565  0.6536  0.4205
 8090SOL     OW35905   4.181   2.958   5.822 -1.0221  0.5038 -0.5776
 8090SOL    HW135906   4.236   3.024   5.779  0.3931 -1.1312 -1.3056
 8090SOL    HW235907   4.176   2.882   5.764  0.1699 -1.4650  1.8514
 8091SOL     OW35908   1.932   4.033   2.090  0.4032 -0.3844 -0.3170
 8091SOL    HW135909   1.857   4.092   2.100  0.3948 -0.6579  1.3002
 8091SOL    HW235910   2.006   4.088   2.067  0.8266 -1.4614 -1.5053
 8092SOL     OW35911   3.061   4.423   2.328  0.4784 -0.2210 -0.0688
 8092SOL    HW135912   3.119   4.356   2.292  0.9881  0.1692  0.0230
 8092SOL    HW235913   3.056   4.495   2.264 -0.1782  0.0236  0.2548
 8093SOL     OW35914   4.691   4.620   3.750 -0.0946 -0.0318  0.6597
 8093SOL    HW135915   4.599   4.613   3.776 -0.8419  2.0781 -1.3442
 8093SOL    HW235916   4.715   4.698   3.800 -0.5331  0.3873  0.2211
 8094SOL     OW35917   2.928   3.071   0.788  0.2174 -0.2953 -0.2854
 8094SOL    HW135918   2.857   3.008   0.802  2.8964 -2.4219  3.6915
 8094SOL    HW235919   2.875   3.151   0.792 -1.3411 -1.2719 -1.2071
 8095SOL     OW35920   3.511   0.029   6.033 -0.3302  0.0554 -0.1064
 8095SOL    HW135921   3.480   0.069   5.952 -0.7884  1.4248  0.7406
 8095SOL    HW235922   3.448   0.055   6.101 -0.8776 -3.0517  0.5869
 8096SOL     OW35923   1.128   0.535   9.958  0.0486  0.2360  0.1374
 8096SOL    HW135924   1.222   0.519   9.951  0.2021 -0.4494  3.8430
 8096SOL    HW235925   1.106   0.481  10.034  0.7722  1.5301  1.2767
 8097SOL     OW35926   1.548   1.669  14.073 -0.0870  0.2664 -0.0926
 8097SOL    HW135927   1.549   1.632  14.161 -2.4395 -0.5000 -0.3851
 8097SOL    HW235928   1.555   1.764  14.078  1.4759  0.0593  1.3511
 8098SOL     OW35929   1.279   0.912  10.071 -0.6509  0.1503  0.7752
 8098SOL    HW135930   1.283   0.827  10.114  0.2739 -1.2884 -2.1599
 8098SOL    HW235931   1.372   0.931  10.080  0.0288 -2.4843 -0.6648
 8099SOL     OW35932   2.997   2.456   9.084  0.1543 -0.2248  0.1011
 8099SOL    HW135933   3.014   2.472   9.177 -0.8411  1.5788 -0.0275
 8099SOL    HW235934   2.995   2.361   9.086 -1.4014 -0.1689  1.1780
 8100SOL     OW35935   4.429   4.675   9.802 -0.0711  0.2330 -0.2331
 8100SOL    HW135936   4.495   4.620   9.843  0.1695  0.0409 -0.8749
 8100SOL    HW235937   4.402   0.007   9.865  1.7658 -0.2585  1.0631
 8101SOL     OW35938   3.765   3.132   8.220 -0.0558 -0.9447  0.4350
 8101SOL    HW135939   3.795   3.046   8.192 -1.1663 -1.0506 -0.4291
 8101SOL    HW235940   3.716   3.107   8.299  2.2523 -0.3609  2.0518
 8102SOL     OW35941   1.818   2.766   5.065  0.1265  0.0181 -0.3337
 8102SOL    HW135942   1.811   2.734   5.155 -0.0432 -0.8142 -0.6398
 8102SOL    HW235943   1.887   2.831   5.077  1.3091 -0.6618 -3.4769
 8103SOL     OW35944   3.174   1.668   7.510  0.1502  0.0203  0.1423
 8103SOL    HW135945   3.129   1.586   7.490  0.0749 -0.4350  2.2750
 8103SOL    HW235946   3.247   1.635   7.562  1.1677 -0.4643 -1.5648
 8104SOL     OW35947   1.605   1.240  14.313 -0.2012  0.5748 -0.7384
 8104SOL    HW135948   1.646   1.322  14.284  0.4624  1.0329  1.4527
 8104SOL    HW235949   1.649   1.218  14.395  1.1510  0.1065 -1.5950
 8105SOL     OW35950   0.380   0.039   8.145 -0.6234  0.1211  0.0403
 8105SOL    HW135951   0.303   4.729   8.111 -0.8010  0.9223 -0.6467
 8105SOL    HW235952   0.368   0.013   8.236 -2.2084  1.2429  0.1598
 8106SOL     OW35953   4.000   4.622   8.614 -0.1475  0.4856  0.1690
 8106SOL    HW135954   3.999   4.620   8.519 -0.8767 -0.8861  0.2068
 8106SOL    HW235955   4.078   4.669   8.643 -0.0020 -0.2227  0.9335
 8107SOL     OW35956   2.543   3.898   4.549 -0.8401  0.1586  0.0848
 8107SOL    HW135957   2.462   3.868   4.591  0.7469 -0.5715  2.5917
 8107SOL    HW235958   2.513   3.981   4.512  0.7431  0.5907 -0.2239
 8108SOL     OW35959   1.683   0.295   4.909  0.3018  0.3508 -0.2495
 8108SOL    HW135960   1.595   0.301   4.873  1.2065  3.1641 -1.8999
 8108SOL    HW235961   1.680   0.365   4.974 -2.5686 -1.0595  1.1198
 8109SOL     OW35962   1.136   2.577  16.938 -0.9054 -0.5317 -0.1864
 8109SOL    HW135963   1.049   2.606  16.965 -0.1787  1.3460  0.1213
 8109SOL    HW235964   1.126   2.610  16.849 -0.2528 -2.7749 -1.0833
 8110SOL     OW35965   2.482   2.652   6.255 -0.4293  0.4137 -0.0299
 8110SOL    HW135966   2.445   2.595   6.322 -1.7829  0.6185 -0.6078
 8110SOL    HW235967   2.400   2.691   6.224 -0.9140  0.0257  0.7621
 8111SOL     OW35968   2.277   1.939  11.439 -0.9509 -0.8149  0.0443
 8111SOL    HW135969   2.353   1.889  11.411 -0.3823 -1.7414  3.3473
 8111SOL    HW235970   2.226   1.945  11.358  1.4846 -2.8777 -1.6312
 8112SOL     OW35971   4.085   0.588   2.859  0.2301 -0.5112 -0.0123
 8112SOL    HW135972   4.150   0.642   2.903 -0.7954  1.4567 -0.9168
 8112SOL    HW235973   4.110   0.502   2.891 -0.3048 -0.4888  0.4819
 8113SOL     OW35974   1.201   0.517   8.279 -0.0048 -0.3575  0.2842
 8113SOL    HW135975   1.178   0.482   8.193  0.3688  2.3688 -0.9270
 8113SOL    HW235976   1.289   0.485   8.301  0.5347  1.0400  0.1601
 8114SOL     OW35977   2.648   1.695  11.628  0.0411  0.0266 -0.0604
 8114SOL    HW135978   2.736   1.670  11.657 -0.2197  0.7931  1.3885
 8114SOL    HW235979   2.674   1.762  11.565 -1.0801 -0.0298 -0.5738
 8115SOL     OW35980   0.401   4.578   2.606 -0.2554  0.0363 -0.5196
 8115SOL    HW135981   0.477   4.522   2.620  0.1828  0.4848 -1.1212
 8115SOL    HW235982   0.325   4.530   2.639  0.9527  0.2898  2.6817
 8116SOL     OW35983   3.594   2.033   8.510  0.4267 -0.1159 -0.1950
 8116SOL    HW135984   3.505   2.043   8.542 -0.2530 -0.3265 -1.9727
 8116SOL    HW235985   3.588   2.061   8.418  2.2933 -1.4766 -0.7298
 8117SOL     OW35986   2.334   2.420   6.819 -0.0970 -0.2627 -0.0345
 8117SOL    HW135987   2.276   2.402   6.746  2.6316 -3.0086 -1.5277
 8117SOL    HW235988   2.285   2.369   6.884  0.5716 -1.4399 -0.4459
 8118SOL     OW35989   3.462   0.010   0.180  0.0190  0.0629 -0.3607
 8118SOL    HW135990   3.553   0.030   0.200 -0.0341 -1.3380  1.2424
 8118SOL    HW235991   3.415   0.093   0.190 -0.6345 -0.5076  1.2888
 8119SOL     OW35992   1.085   2.381   7.739 -0.4133  0.1259  0.3539
 8119SOL    HW135993   1.145   2.404   7.810 -0.0678 -1.7396  0.6794
 8119SOL    HW235994   1.008   2.429   7.770  0.2660  1.7121 -0.4102
 8120SOL     OW35995   2.119   2.483   0.828 -0.0880 -0.0423  0.0419
 8120SOL    HW135996   2.052   2.498   0.762  0.3918  1.2501 -0.1387
 8120SOL    HW235997   2.190   2.544   0.807  0.6711 -0.9193  0.0613
 8121SOL     OW35998   2.731   1.261   2.106 -0.2000  0.0565 -0.4386
 8121SOL    HW135999   2.709   1.213   2.027 -0.2950 -0.0678 -0.3372
 8121SOL    HW236000   2.758   1.346   2.072  0.5213  0.1997  0.4837
 8122SOL     OW36001   0.477   3.827   5.363 -0.0197  0.5563  0.8213
 8122SOL    HW136002   0.413   3.770   5.405 -0.1130  2.1165  2.7979
 8122SOL    HW236003   0.503   3.869   5.445 -0.6766  0.7575  0.9279
 8123SOL     OW36004   2.112   4.434  16.369 -0.1401  0.0417  0.5205
 8123SOL    HW136005   2.092   4.350  16.410 -0.0760  0.4390  1.3739
 8123SOL    HW236006   2.083   4.412  16.280 -0.5631  0.3113  0.5939
 8124SOL     OW36007   2.399   0.263  11.168 -0.0793 -0.0724  0.7342
 8124SOL    HW136008   2.465   0.307  11.222  0.3693  2.3800 -1.8090
 8124SOL    HW236009   2.324   0.269  11.227  1.3434 -0.2459  2.5639
 8125SOL     OW36010   2.832   2.724   6.105 -0.5571  0.0287  0.1308
 8125SOL    HW136011   2.820   2.649   6.163  1.0126 -0.3282 -0.0087
 8125SOL    HW236012   2.889   2.776   6.161  0.4309  1.0643 -1.8420
 8126SOL     OW36013   0.554   0.763   7.788  0.1751 -0.6155 -0.2616
 8126SOL    HW136014   0.496   0.703   7.835  0.0898  0.7783  1.4080
 8126SOL    HW236015   0.501   0.842   7.775  2.6586  1.1566  0.3823
 8127SOL     OW36016   1.221   4.084   1.821  0.2148 -0.0438 -0.3921
 8127SOL    HW136017   1.190   4.026   1.752 -3.8590  0.0759  1.3054
 8127SOL    HW236018   1.225   4.166   1.772 -3.0172  1.6063  2.0803
 8128SOL     OW36019   2.781   1.323  10.018 -0.0646 -0.1248  0.3562
 8128SOL    HW136020   2.764   1.252   9.957 -2.3900  1.1573 -0.4702
 8128SOL    HW236021   2.834   1.378   9.961  0.8135 -2.1280 -0.7670
 8129SOL     OW36022   2.279   3.843   4.602 -0.8745  0.2060 -0.1298
 8129SOL    HW136023   2.249   3.769   4.655  0.7808 -0.1665  0.2816
 8129SOL    HW236024   2.230   3.829   4.521 -1.5550  0.9133  0.1693
 8130SOL     OW36025   3.160   0.673   0.265 -0.3366  0.1816  0.0550
 8130SOL    HW136026   3.150   0.578   0.275  1.0640 -0.1565 -1.8138
 8130SOL    HW236027   3.219   0.696   0.337 -0.9168  0.2831  0.4992
 8131SOL     OW36028   2.225   3.491   3.944 -0.1773 -0.5000 -0.1241
 8131SOL    HW136029   2.217   3.401   3.975  1.4499 -0.1328  1.3577
 8131SOL    HW236030   2.144   3.528   3.978 -0.1259  0.8924 -1.5374
 8132SOL     OW36031   4.304   1.631   8.619  0.9072 -0.5169 -0.3292
 8132SOL    HW136032   4.275   1.637   8.529 -2.9787  0.7800  1.0495
 8132SOL    HW236033   4.247   1.690   8.668  0.5663 -1.1614  0.0603
 8133SOL     OW36034   1.294   0.024   5.103 -0.5990  0.1303  0.2923
 8133SOL    HW136035   1.248   0.051   5.023 -2.0917 -2.7502  0.2041
 8133SOL    HW236036   1.275   4.666   5.106 -0.5523  0.0883 -0.6142
 8134SOL     OW36037   4.341   4.010  16.872 -0.0189 -0.0792 -0.2059
 8134SOL    HW136038   4.271   3.996  16.936  0.2909  0.3777  0.2390
 8134SOL    HW236039   4.405   3.943  16.895  1.6400  1.6626  0.2321
 8135SOL     OW36040   0.357   4.438   3.195 -0.1226 -0.0940  0.0308
 8135SOL    HW136041   0.357   4.427   3.100  0.4288  1.7774 -0.1850
 8135SOL    HW236042   0.320   4.354   3.221  0.3372  0.2679  1.8148
 8136SOL     OW36043   2.354   3.170  14.390 -0.8797 -0.0421 -0.6008
 8136SOL    HW136044   2.268   3.157  14.430 -0.3699 -0.5390  0.3445
 8136SOL    HW236045   2.340   3.262  14.369  4.5808  1.0094  0.2110
 8137SOL     OW36046   4.586   0.664   4.108 -0.4053 -0.1597 -0.1045
 8137SOL    HW136047   4.516   0.683   4.045 -0.8831  0.8029  0.7152
 8137SOL    HW236048   4.610   0.578   4.075  0.7340  0.3189 -0.5239
 8138SOL     OW36049   2.679   0.956   7.834 -0.0475 -0.7989  0.6975
 8138SOL    HW136050   2.746   0.891   7.815  0.2941 -0.5679  1.1211
 8138SOL    HW236051   2.613   0.945   7.766 -1.3786  0.8149  1.7278
 8139SOL     OW36052   0.336   3.631   7.617 -0.1620 -0.4578  0.0907
 8139SOL    HW136053   0.358   3.665   7.704  0.1448 -1.5172  0.4230
 8139SOL    HW236054   0.388   3.551   7.607  1.4241  0.7538 -1.3596
 8140SOL     OW36055   0.072   3.418   3.166 -0.1617  0.6335 -0.2832
 8140SOL    HW136056   0.097   3.344   3.110 -1.6738  0.9743 -1.3961
 8140SOL    HW236057   0.009   3.386   3.231 -0.1392 -1.4747 -1.2971
 8141SOL     OW36058   1.538   2.852   3.662  0.3000  0.0681  0.4322
 8141SOL    HW136059   1.550   2.794   3.737  1.9514  1.5131  1.2870
 8141SOL    HW236060   1.630   2.868   3.640  0.6677 -0.5170  1.5904
 8142SOL     OW36061   1.954   4.176   2.393  0.0777  0.1264  0.4018
 8142SOL    HW136062   2.049   4.171   2.388 -0.0505 -0.9709 -1.0068
 8142SOL    HW236063   1.930   4.084   2.379 -0.4456  0.3231 -0.0106
 8143SOL     OW36064   4.115   2.749  11.141  0.5162  0.0482  0.7962
 8143SOL    HW136065   4.175   2.796  11.082  1.6146 -2.4096 -0.0284
 8143SOL    HW236066   4.148   2.778  11.226  2.1859 -0.0570  0.1943
 8144SOL     OW36067   4.716   1.407  11.233  0.0831 -0.3819 -0.0397
 8144SOL    HW136068   4.731   1.501  11.245 -0.4717 -0.6337  2.5443
 8144SOL    HW236069   4.643   1.412  11.171 -0.3529 -1.5804  0.3758
 8145SOL     OW36070   0.723   4.052  13.479 -0.0030  0.1513  0.1159
 8145SOL    HW136071   0.656   4.005  13.430  0.5678 -1.7571  1.1367
 8145SOL    HW236072   0.757   4.112  13.413  3.2362 -0.4630  1.2170
 8146SOL     OW36073   3.807   3.319   3.428  0.3590  0.2355 -0.2004
 8146SOL    HW136074   3.720   3.322   3.388 -0.5043 -1.4670  1.5180
 8146SOL    HW236075   3.784   3.373   3.504  2.1723 -2.4096  2.2640
 8147SOL     OW36076   0.660   3.705   4.952 -0.1843 -0.4154  0.5601
 8147SOL    HW136077   0.643   3.681   4.861 -0.3946  1.3600  0.1309
 8147SOL    HW236078   0.736   3.648   4.969  0.6696  0.9661  1.3533
 8148SOL     OW36079   2.913   3.575   5.071  0.2619  0.0280 -1.0275
 8148SOL    HW136080   2.951   3.517   5.137 -0.2884  1.6875  0.7524
 8148SOL    HW236081   2.931   3.529   4.989  1.5328 -0.2894 -0.5546
 8149SOL     OW36082   4.062   2.153   5.560  0.1499 -0.3319 -0.3795
 8149SOL    HW136083   4.106   2.193   5.484 -0.1526 -1.8204 -1.3500
 8149SOL    HW236084   4.127   2.092   5.595  0.1172 -1.2926 -1.9902
 8150SOL     OW36085   1.448   0.373   4.781 -0.3507 -0.1162  0.6610
 8150SOL    HW136086   1.420   0.293   4.738 -1.2482  1.3432 -1.4841
 8150SOL    HW236087   1.476   0.428   4.708  0.3497 -0.1900  0.8746
 8151SOL     OW36088   0.212   3.567   1.182 -0.0595 -0.1366 -0.2735
 8151SOL    HW136089   0.268   3.507   1.232  2.2812  0.8973 -1.6663
 8151SOL    HW236090   0.273   3.614   1.126 -1.3148 -0.1701 -1.6578
 8152SOL     OW36091   0.289   3.204   1.793  0.3643  0.2183 -0.2102
 8152SOL    HW136092   0.225   3.161   1.736  0.8548 -0.7405 -0.0358
 8152SOL    HW236093   0.344   3.127   1.809  1.9980  0.8950 -2.6239
 8153SOL     OW36094   1.251   0.804   7.378  0.1812  0.1562  0.0817
 8153SOL    HW136095   1.292   0.842   7.300 -1.2032  1.6200  0.0657
 8153SOL    HW236096   1.283   0.714   7.369  1.0848  0.5258 -0.4124
 8154SOL     OW36097   1.084   1.808   4.587  0.3052  0.1913  0.1977
 8154SOL    HW136098   1.110   1.853   4.506  0.7098  0.2882  0.3828
 8154SOL    HW236099   0.988   1.814   4.590  0.3024  0.8037 -1.1348
 8155SOL     OW36100   1.780   1.172   6.353 -0.2684 -0.2818  0.0834
 8155SOL    HW136101   1.724   1.103   6.318  0.7881 -0.0420 -2.0887
 8155SOL    HW236102   1.799   1.219   6.272  1.3338 -0.2738  0.4683
 8156SOL     OW36103   3.874   2.811   4.826 -0.3850 -0.3489  0.3048
 8156SOL    HW136104   3.950   2.863   4.800 -0.3283 -1.5509 -1.8965
 8156SOL    HW236105   3.911   2.726   4.851  3.4218  1.5078  1.0284
 8157SOL     OW36106   4.628   0.040  17.340  0.1567  0.1932  0.2159
 8157SOL    HW136107   4.672   0.087  17.270  0.1584  0.0052  0.0927
 8157SOL    HW236108   4.695   4.719  17.379 -1.4474 -2.1196 -0.3956
 8158SOL     OW36109   3.417   2.991   4.198  1.0267  0.1687  0.1011
 8158SOL    HW136110   3.429   2.985   4.293  1.5160  0.6178  0.0690
 8158SOL    HW236111   3.510   2.995   4.174  0.6907  0.0790 -1.1785
 8159SOL     OW36112   3.030   4.150   2.989  0.1287 -0.1883 -0.3774
 8159SOL    HW136113   2.943   4.132   3.025  0.1286 -1.2652 -0.9223
 8159SOL    HW236114   3.037   4.241   3.018 -0.3965  0.3327 -1.9035
 8160SOL     OW36115   4.306   3.143   0.277 -0.2520  0.2641 -0.2189
 8160SOL    HW136116   4.325   3.220   0.330  1.3419 -0.5016  0.3322
 8160SOL    HW236117   4.211   3.143   0.264 -0.3518 -0.1755  0.5222
 8161SOL     OW36118   0.288   3.803   3.390  0.0458  0.2056  0.2730
 8161SOL    HW136119   0.243   3.884   3.416 -0.1752  0.1103  0.1927
 8161SOL    HW236120   0.229   3.755   3.333 -1.7378  2.1525  0.4526
 8162SOL     OW36121   1.172   4.122   2.967  0.0324  0.1254  0.0887
 8162SOL    HW136122   1.208   4.087   3.048 -1.2025  1.0382  1.0265
 8162SOL    HW236123   1.078   4.107   2.979  0.3127 -2.5341 -1.0996
 8163SOL     OW36124   1.766   0.516   0.873  0.1010 -0.2484  0.2840
 8163SOL    HW136125   1.857   0.499   0.849  0.5049  0.1069  1.5528
 8163SOL    HW236126   1.767   0.550   0.963 -1.8618  1.0423 -0.1569
 8164SOL     OW36127   3.104   4.603   3.693  0.3070 -0.0309  0.1464
 8164SOL    HW136128   3.079   4.695   3.693  2.5442  0.5628  3.9342
 8164SOL    HW236129   3.021   4.559   3.675  0.4918 -0.2288 -0.2330
 8165SOL     OW36130   0.975   1.910   6.958 -0.1546 -0.1164  0.1665
 8165SOL    HW136131   1.020   1.916   7.042  0.5704  4.1947 -0.5787
 8165SOL    HW236132   0.881   1.902   6.974 -0.0931 -0.8735  0.1590
 8166SOL     OW36133   0.461   0.360   4.956  0.1689  0.2006  0.0475
 8166SOL    HW136134   0.415   0.341   4.875  1.7266 -0.4211 -0.6880
 8166SOL    HW236135   0.412   0.306   5.019 -1.1964  0.4545 -0.7947
 8167SOL     OW36136   4.464   0.041  17.566  0.0160 -0.1467  0.4197
 8167SOL    HW136137   4.439   4.690  17.535 -1.3803  0.9019 -1.3463
 8167SOL    HW236138   4.505   0.077  17.488  0.5791  2.7010  2.0306
 8168SOL     OW36139   2.014   0.215   6.304 -0.5987 -0.6350  0.2105
 8168SOL    HW136140   1.926   0.248   6.286 -0.0620  1.7650  1.9570
 8168SOL    HW236141   2.026   0.256   6.389  0.9553  0.4499 -0.5290
 8169SOL     OW36142   2.669   4.099   1.402  0.6569 -0.0193 -0.6476
 8169SOL    HW136143   2.732   4.111   1.331  0.3621  0.4359 -0.8288
 8169SOL    HW236144   2.634   4.188   1.409  0.4934 -0.2165  1.1297
 8170SOL     OW36145   1.454   2.821  12.744  0.4400  0.1652  0.5868
 8170SOL    HW136146   1.469   2.909  12.709 -0.3937 -0.5356 -1.5397
 8170SOL    HW236147   1.524   2.767  12.707  1.4918  0.5764  1.9652
 8171SOL     OW36148   1.420   1.544   6.663  0.6835 -0.1292  0.0630
 8171SOL    HW136149   1.404   1.515   6.753 -0.0806 -0.8059 -0.2835
 8171SOL    HW236150   1.353   1.492   6.617  0.7288 -0.5458  0.4613
 8172SOL     OW36151   1.233   0.611  11.179  0.0965  0.1442 -0.1497
 8172SOL    HW136152   1.296   0.602  11.108 -3.3061  0.4350 -3.1757
 8172SOL    HW236153   1.173   0.671  11.136  0.9901  3.3125  3.0019
 8173SOL     OW36154   3.454   1.898   0.803 -0.4824 -0.1403 -0.4767
 8173SOL    HW136155   3.522   1.964   0.792 -0.2932 -0.1842  0.4479
 8173SOL    HW236156   3.389   1.966   0.822 -0.2278  0.1468 -0.6214
 8174SOL     OW36157   1.039   0.507   2.484 -0.4455  0.6919  0.2145
 8174SOL    HW136158   1.043   0.597   2.517  0.2400  0.1874  1.5234
 8174SOL    HW236159   1.013   0.520   2.393  1.2192 -2.3389 -0.7018
 8175SOL     OW36160   2.413   4.666   9.245 -0.2213  0.6263 -0.5592
 8175SOL    HW136161   2.364   4.730   9.193 -3.8187 -0.2424  1.8439
 8175SOL    HW236162   2.398   4.705   9.331 -1.8054  1.3044 -1.1462
 8176SOL     OW36163   3.077   3.721  15.501 -0.4524 -0.0831  0.3128
 8176SOL    HW136164   3.078   3.800  15.446  0.4464 -0.7788 -0.6658
 8176SOL    HW236165   3.030   3.765  15.572 -0.3515 -1.2159  1.0866
 8177SOL     OW36166   4.251   0.469  17.039  0.2499  1.0585 -0.5247
 8177SOL    HW136167   4.235   0.428  17.124  1.8933  1.1219 -0.1802
 8177SOL    HW236168   4.336   0.512  17.051  0.2364  1.5496 -2.1866
 8178SOL     OW36169   0.256   2.313  12.601 -0.8679  0.0324 -0.3189
 8178SOL    HW136170   0.250   2.331  12.507  1.0756  2.3130 -0.0049
 8178SOL    HW236171   0.317   2.384  12.620 -1.7183  0.4706  0.7727
 8179SOL     OW36172   2.464   1.755  16.435  0.1647 -0.1642  0.2657
 8179SOL    HW136173   2.522   1.710  16.496  0.5553  0.9755  0.7196
 8179SOL    HW236174   2.435   1.824  16.495 -0.3447  0.1076 -0.2966
 8180SOL     OW36175   0.720   1.668   3.067 -0.1619  0.5810  0.2377
 8180SOL    HW136176   0.734   1.664   3.161  1.5381 -0.4644 -0.0501
 8180SOL    HW236177   0.625   1.675   3.079 -0.3570 -0.2115 -0.7741
 8181SOL     OW36178   3.763   4.696  12.522 -0.1013  0.6670 -0.0992
 8181SOL    HW136179   3.723   4.611  12.506  0.8869 -0.4278  3.1442
 8181SOL    HW236180   3.750   0.009  12.441 -2.1241  1.3096  0.6066
 8182SOL     OW36181   4.327   1.189   8.997 -0.4207  0.4274  0.2810
 8182SOL    HW136182   4.237   1.158   9.006 -0.8014  0.4982 -3.1737
 8182SOL    HW236183   4.373   1.132   9.058  0.4525  0.2061 -0.5897
 8183SOL     OW36184   2.232   2.138  16.139 -0.2605 -0.3550  0.4016
 8183SOL    HW136185   2.280   2.219  16.161 -0.4758 -0.3374  0.7951
 8183SOL    HW236186   2.183   2.118  16.218 -1.2548 -2.0686 -0.6628
 8184SOL     OW36187   3.189   4.383   3.834 -0.6915  0.5389 -0.3428
 8184SOL    HW136188   3.181   4.467   3.788 -0.0037  0.4227 -0.6756
 8184SOL    HW236189   3.253   4.407   3.901 -0.8896 -0.7169  0.2838
 8185SOL     OW36190   2.638   0.138   9.619 -0.2038 -0.3183 -0.1475
 8185SOL    HW136191   2.682   0.186   9.548 -0.0407  0.4610  0.4791
 8185SOL    HW236192   2.700   0.074   9.653  0.4860 -0.9541 -2.5552
 8186SOL     OW36193   0.506   4.670   7.144 -0.4713  0.1383  0.3365
 8186SOL    HW136194   0.499   4.651   7.050 -0.9019 -0.1424  0.4241
 8186SOL    HW236195   0.589   4.628   7.166 -0.4658  0.9011  1.7750
 8187SOL     OW36196   4.176   0.632  11.368 -0.4080  0.1929 -0.0814
 8187SOL    HW136197   4.197   0.706  11.311  0.3770  0.8024  0.9857
 8187SOL    HW236198   4.251   0.580  11.339 -0.5899 -2.1334  3.6281
 8188SOL     OW36199   2.001   4.643   3.937 -0.4763 -0.0038 -0.0774
 8188SOL    HW136200   1.960   4.607   4.015 -1.1402  0.0891 -0.3841
 8188SOL    HW236201   2.031   4.725   3.976  0.7385 -0.3592 -0.2452
 8189SOL     OW36202   2.665   2.010   7.191 -0.2862  0.5952  0.2566
 8189SOL    HW136203   2.743   1.999   7.245  0.3352  3.5046 -0.0436
 8189SOL    HW236204   2.593   1.967   7.238 -1.1783  0.5040 -1.1950
 8190SOL     OW36205   0.646   2.614   2.770 -0.0936 -0.8441 -0.0455
 8190SOL    HW136206   0.712   2.629   2.837 -0.9206 -2.0635  1.0428
 8190SOL    HW236207   0.677   2.534   2.727  1.5698  0.3188 -1.0029
 8191SOL     OW36208   4.189   0.144  14.483  0.6208 -0.3122  0.4691
 8191SOL    HW136209   4.109   0.151  14.432 -0.1936  0.2205  1.8091
 8191SOL    HW236210   4.176   0.056  14.517 -0.8706 -0.4717 -0.5402
 8192SOL     OW36211   3.615   1.266  17.707  0.6881 -0.3936 -0.2102
 8192SOL    HW136212   3.645   1.256  17.616 -1.9206 -1.1861 -0.9673
 8192SOL    HW236213   3.698   1.255   0.014  0.8362 -0.6048 -0.5158
 8193SOL     OW36214   2.025   2.508   9.130 -0.1027  0.6803 -1.0149
 8193SOL    HW136215   2.077   2.508   9.050  0.1924 -1.0369 -0.8180
 8193SOL    HW236216   1.971   2.429   9.123 -0.6129  0.8886  0.6388
 8194SOL     OW36217   3.981   3.440   3.240 -0.4142 -0.3832 -0.1980
 8194SOL    HW136218   4.062   3.455   3.290 -0.8935  2.2105 -0.1789
 8194SOL    HW236219   3.922   3.419   3.312 -1.1124  0.5922 -0.4845
 8195SOL     OW36220   4.239   4.016  16.601 -1.1729  0.2188  0.3236
 8195SOL    HW136221   4.281   4.009  16.687  0.8766 -1.9548 -0.8504
 8195SOL    HW236222   4.230   4.111  16.591  0.3397  0.4196  0.8360
 8196SOL     OW36223   2.435   1.906   3.325 -0.3728  0.0060  0.0604
 8196SOL    HW136224   2.400   1.843   3.262  0.1714  1.1450 -1.3847
 8196SOL    HW236225   2.482   1.966   3.267  0.0613 -0.6186 -0.2374
 8197SOL     OW36226   4.735   2.074   6.988  0.2210 -0.3715 -0.1733
 8197SOL    HW136227   4.690   2.122   7.058  0.2026 -1.8609  0.8291
 8197SOL    HW236228   4.734   2.140   6.918 -1.3292  2.8914  2.8933
 8198SOL     OW36229   2.493   2.255  17.120 -0.0852  0.5652 -0.6846
 8198SOL    HW136230   2.423   2.315  17.147  0.9748  1.8619 -0.8454
 8198SOL    HW236231   2.448   2.172  17.104 -1.5275  1.1203  0.4512
 8199SOL     OW36232   3.923   2.288   8.436  0.0574 -0.7446  0.2931
 8199SOL    HW136233   3.964   2.374   8.446 -0.7394 -0.3667  0.2937
 8199SOL    HW236234   3.887   2.277   8.524 -0.1521  0.6786  0.3897
 8200SOL     OW36235   4.683   2.065   4.240  0.1082 -0.1859  0.3074
 8200SOL    HW136236   4.630   2.068   4.320 -0.7505 -0.6137 -0.2453
 8200SOL    HW236237   4.619   2.045   4.172  1.3420 -0.7314 -0.6936
 8201SOL     OW36238   0.452   0.756   1.232  0.6052  0.3891  0.5161
 8201SOL    HW136239   0.406   0.805   1.164  2.0870 -1.0235 -1.5204
 8201SOL    HW236240   0.378   0.752   1.292  1.8616  0.0326  2.0373
 8202SOL     OW36241   4.101   2.078  13.923 -0.1586 -0.6866 -0.5350
 8202SOL    HW136242   4.025   2.116  13.966  1.6521  1.5934  0.7105
 8202SOL    HW236243   4.140   2.022  13.990 -3.9495 -2.4026  0.2026
 8203SOL     OW36244   4.010   1.504   5.398 -0.7192  0.4448  0.3009
 8203SOL    HW136245   4.099   1.537   5.411 -0.2316 -0.6320 -0.2543
 8203SOL    HW236246   3.983   1.504   5.490  1.8480 -0.8473  1.0683
 8204SOL     OW36247   2.768   2.265  12.069 -0.3814 -0.2381 -0.3626
 8204SOL    HW136248   2.717   2.285  11.991 -0.1827 -1.9115 -0.9175
 8204SOL    HW236249   2.697   2.257  12.133  0.6512  2.3947  1.1396
 8205SOL     OW36250   0.873   1.383   7.988 -0.1219 -0.4233  0.0638
 8205SOL    HW136251   0.794   1.338   7.959 -0.4536  0.2756 -0.1107
 8205SOL    HW236252   0.881   1.333   8.069 -3.0165 -1.1321 -0.0759
 8206SOL     OW36253   2.154   1.431   8.333 -0.1492  0.7205  0.1759
 8206SOL    HW136254   2.093   1.362   8.306 -1.8394  2.0665  0.6269
 8206SOL    HW236255   2.116   1.489   8.399 -0.1779 -0.4501  1.2025
 8207SOL     OW36256   0.949   0.830   8.632 -0.2013 -0.1812  0.7353
 8207SOL    HW136257   0.890   0.904   8.647 -1.6458 -1.3719  1.0254
 8207SOL    HW236258   1.025   0.888   8.637 -0.4966  0.0850  2.1213
 8208SOL     OW36259   3.567   1.459   7.100  0.2448  0.4950 -0.4106
 8208SOL    HW136260   3.630   1.527   7.125  0.5562  1.5710 -4.1113
 8208SOL    HW236261   3.511   1.454   7.178 -0.5505  4.5915 -0.7324
 8209SOL     OW36262   4.483   3.425   1.942  0.0219 -0.1808  0.2443
 8209SOL    HW136263   4.491   3.509   1.989 -0.7162 -0.1956  0.3908
 8209SOL    HW236264   4.435   3.451   1.863 -0.8390 -1.1643  0.4541
 8210SOL     OW36265   2.600   0.631   2.100  0.0687  0.6225 -0.6407
 8210SOL    HW136266   2.634   0.646   2.189  2.1435 -0.7779 -1.1982
 8210SOL    HW236267   2.616   0.712   2.051  0.8654  0.6102 -0.4125
 8211SOL     OW36268   4.408   0.033   6.096  0.0297 -0.3276 -0.3315
 8211SOL    HW136269   4.420   4.693   6.154  0.3995 -1.4298 -1.8519
 8211SOL    HW236270   4.314   0.051   6.092  0.0520 -0.3238 -0.7961
 8212SOL     OW36271   2.835   0.375   6.345 -0.0456 -0.5085 -0.4216
 8212SOL    HW136272   2.879   0.290   6.347  1.4095  0.2866  0.7548
 8212SOL    HW236273   2.847   0.420   6.428 -0.6562 -2.5399  0.7618
 8213SOL     OW36274   1.928   3.336  16.742  0.8097  0.3430  0.4710
 8213SOL    HW136275   1.864   3.377  16.800  2.3637  1.1616  1.6244
 8213SOL    HW236276   1.872   3.297  16.674  2.1930 -2.3227  0.8542
 8214SOL     OW36277   4.194   1.083   2.960 -0.2391  0.2001 -0.6983
 8214SOL    HW136278   4.104   1.052   2.972 -0.9124  1.7551 -1.7578
 8214SOL    HW236279   4.232   1.051   3.042 -3.0883 -4.6773 -1.2626
 8215SOL     OW36280   3.697   1.442   7.820 -0.0402  0.3583  0.6010
 8215SOL    HW136281   3.700   1.534   7.846  0.0967  1.2093 -2.4154
 8215SOL    HW236282   3.789   1.421   7.836  0.2314  1.2900  0.2241
 8216SOL     OW36283   2.839   4.325  13.550 -0.1095  1.0079  0.2051
 8216SOL    HW136284   2.791   4.342  13.631  3.7039 -1.1615  2.9709
 8216SOL    HW236285   2.766   4.326  13.488  1.0408 -0.2945 -1.1691
 8217SOL     OW36286   0.377   0.928   4.807 -0.0323 -0.2575  0.5617
 8217SOL    HW136287   0.446   0.944   4.872 -0.2030 -2.2218  1.2109
 8217SOL    HW236288   0.312   0.875   4.852 -0.8577 -0.4025 -0.7942
 8218SOL     OW36289   0.652   4.518  17.125  0.0593 -0.0820 -0.1128
 8218SOL    HW136290   0.668   4.455  17.054  3.1905  2.2782 -1.5447
 8218SOL    HW236291   0.738   4.558  17.141 -0.0872 -1.3169  3.6376
 8219SOL     OW36292   3.940   1.376   7.264  0.5015 -0.3521  0.7034
 8219SOL    HW136293   3.966   1.317   7.194 -0.5779 -2.3485  1.9800
 8219SOL    HW236294   3.986   1.453   7.232  1.7388 -1.1317  0.6092
 8220SOL     OW36295   4.234   1.530   5.161  0.5075 -0.1656 -0.1276
 8220SOL    HW136296   4.186   1.449   5.142 -0.9114  0.7210 -0.3332
 8220SOL    HW236297   4.316   1.495   5.126  1.5071 -0.0529  2.1273
 8221SOL     OW36298   3.892   2.163   5.107  0.0585  0.0623 -1.0354
 8221SOL    HW136299   3.891   2.094   5.040  0.9136  0.4987 -1.4953
 8221SOL    HW236300   3.921   2.109   5.180 -0.8896  1.8431  0.6420
 8222SOL     OW36301   3.393   2.087  17.573  0.1892  0.3157 -0.8887
 8222SOL    HW136302   3.465   2.121  17.626 -0.1594 -1.4346  0.7056
 8222SOL    HW236303   3.407   1.995  17.593  1.0822  0.6631  0.1068
 8223SOL     OW36304   3.180   2.309  16.111  0.4779  0.1969  0.0202
 8223SOL    HW136305   3.178   2.225  16.065 -0.2940  0.1598  0.1172
 8223SOL    HW236306   3.176   2.276  16.201 -0.6978  1.0389  0.2762
 8224SOL     OW36307   2.832   1.397  14.981 -0.5783  0.2136 -0.4067
 8224SOL    HW136308   2.923   1.407  15.010  0.3409 -2.2049 -2.4633
 8224SOL    HW236309   2.827   1.302  14.978  0.2125  0.2305 -2.8496
 8225SOL     OW36310   3.113   2.236   3.998 -0.2820  0.7009 -0.2490
 8225SOL    HW136311   3.203   2.210   4.018 -1.2991 -0.6226  2.6981
 8225SOL    HW236312   3.115   2.324   4.036  1.2973  0.8638 -0.7249
 8226SOL     OW36313   0.723   4.628   0.546 -0.3077 -0.4537  0.1435
 8226SOL    HW136314   0.778   4.612   0.469 -0.3757 -1.7311  0.3729
 8226SOL    HW236315   0.728   4.724   0.544 -0.1702 -0.4480  1.2941
 8227SOL     OW36316   0.936   3.848   5.741  0.2479  0.2612  0.0554
 8227SOL    HW136317   0.956   3.784   5.809 -1.3560  0.0489  0.3125
 8227SOL    HW236318   0.900   3.917   5.797 -1.7681  0.3017 -1.3103
 8228SOL     OW36319   1.725   0.008  17.233 -0.5247  0.0793 -0.6776
 8228SOL    HW136320   1.812   0.017  17.194  0.5949  0.5156  1.9563
 8228SOL    HW236321   1.695   0.098  17.220  0.4729  0.8077  2.1338
 8229SOL     OW36322   2.033   2.455   2.919  0.5526 -0.5107  0.4437
 8229SOL    HW136323   1.964   2.506   2.877  1.1835  0.4813  0.6109
 8229SOL    HW236324   1.984   2.444   3.001  3.4410  1.4003  2.4472
 8230SOL     OW36325   0.043   1.383  16.944 -0.3524 -0.3480 -0.4132
 8230SOL    HW136326   0.123   1.423  16.978 -0.9231 -1.7178  2.5288
 8230SOL    HW236327   0.004   1.462  16.906  0.9000 -0.5693 -2.1852
 8231SOL     OW36328   2.059   3.223  12.634  0.3462 -0.7810  0.1965
 8231SOL    HW136329   2.030   3.286  12.700  0.0607 -1.1991  0.4731
 8231SOL    HW236330   2.004   3.149  12.660 -1.4779  0.4920 -0.0383
 8232SOL     OW36331   2.670   2.060  11.139 -0.7197  0.7146  0.0624
 8232SOL    HW136332   2.586   2.075  11.183 -1.4990 -0.0204 -1.1762
 8232SOL    HW236333   2.678   1.965  11.150  0.3193  0.4803 -2.8788
 8233SOL     OW36334   4.279   0.800   5.862 -0.1145 -0.4086  0.0317
 8233SOL    HW136335   4.318   0.830   5.779 -2.1636 -1.0345 -1.1487
 8233SOL    HW236336   4.345   0.739   5.895 -0.4214 -0.9184 -0.2980
 8234SOL     OW36337   1.399   2.868   6.865  0.1984  0.3073  0.0939
 8234SOL    HW136338   1.368   2.884   6.776 -0.2068 -1.3945 -0.0548
 8234SOL    HW236339   1.354   2.945   6.900  0.3540  1.9690 -3.3485
 8235SOL     OW36340   0.396   0.188  15.187 -0.2472 -0.2122 -0.2344
 8235SOL    HW136341   0.411   0.100  15.153  0.8579  0.0473 -0.4315
 8235SOL    HW236342   0.350   0.171  15.269 -0.2982  2.2644  0.2574
 8236SOL     OW36343   1.158   4.317   6.046 -0.0447 -0.2160 -0.1126
 8236SOL    HW136344   1.168   4.222   6.055 -0.6400 -0.3599 -1.1179
 8236SOL    HW236345   1.083   4.329   5.989 -1.6654 -1.3321  1.7975
 8237SOL     OW36346   1.221   1.993   3.986 -0.2879 -0.4229 -0.5155
 8237SOL    HW136347   1.269   1.940   4.050  0.8113 -2.1701 -2.7696
 8237SOL    HW236348   1.229   1.945   3.903 -2.1028 -2.1412  0.3007
 8238SOL     OW36349   3.559   1.859   1.727 -0.2862 -0.3956 -0.0921
 8238SOL    HW136350   3.540   1.834   1.818 -0.2326 -1.9832 -0.5091
 8238SOL    HW236351   3.629   1.796   1.710 -0.0935 -0.0835 -0.4465
 8239SOL     OW36352   3.071   2.448   8.421 -0.3836  0.3208  0.3771
 8239SOL    HW136353   3.091   2.526   8.471  0.8464  0.5451 -0.4450
 8239SOL    HW236354   3.100   2.464   8.331 -0.3101 -3.8409 -0.3672
 8240SOL     OW36355   4.261   2.016   5.721 -0.6426  0.4793  0.5694
 8240SOL    HW136356   4.239   1.968   5.801  0.4469 -0.2827  0.4048
 8240SOL    HW236357   4.252   1.943   5.660 -3.1400  0.3137  1.1611
 8241SOL     OW36358   1.148   0.755   0.901  0.3440 -0.2395  0.2999
 8241SOL    HW136359   1.216   0.819   0.921  0.9366 -0.8289  0.1256
 8241SOL    HW236360   1.081   0.794   0.959 -1.3771  1.6975 -2.9533
 8242SOL     OW36361   2.347   4.433   2.218 -0.1191  0.2747 -0.5939
 8242SOL    HW136362   2.434   4.466   2.244 -0.6922  1.7855 -0.5965
 8242SOL    HW236363   2.363   4.340   2.233  0.2810  0.4643  0.1672
 8243SOL     OW36364   2.305   4.561   1.979  0.6289 -0.5355 -0.5624
 8243SOL    HW136365   2.309   4.498   2.052  1.5518 -0.5584 -0.6362
 8243SOL    HW236366   2.229   4.522   1.936  0.4285  1.2282 -1.7880
 8244SOL     OW36367   2.753   2.739   7.276 -0.1540  0.1732 -0.1385
 8244SOL    HW136368   2.808   2.677   7.228 -1.0649 -0.6876 -0.0662
 8244SOL    HW236369   2.721   2.676   7.341  2.8298 -0.7485  0.4322
 8245SOL     OW36370   4.283   0.679   7.042 -0.3932 -0.1295 -0.4168
 8245SOL    HW136371   4.327   0.661   7.124 -2.1715  1.7530  0.9542
 8245SOL    HW236372   4.199   0.634   7.050 -0.8616  1.2542  2.3026
 8246SOL     OW36373   0.206   0.587   3.149 -0.1416 -0.3214 -0.0600
 8246SOL    HW136374   0.290   0.576   3.104  0.1085  0.1388  0.2968
 8246SOL    HW236375   0.234   0.655   3.210 -1.6236 -0.0167  0.2705
 8247SOL     OW36376   2.807   2.933   8.846  0.3122  0.2614 -0.4223
 8247SOL    HW136377   2.801   2.854   8.792  0.8513  0.9263 -1.4423
 8247SOL    HW236378   2.719   2.971   8.850  0.0262 -0.5102  0.6820
 8248SOL     OW36379   2.083   4.253   1.436  0.5015 -0.2511 -0.5627
 8248SOL    HW136380   2.111   4.236   1.346  1.5242 -0.5686 -0.1848
 8248SOL    HW236381   2.001   4.207   1.456  0.4919 -0.2883 -0.6887
 8249SOL     OW36382   2.189   3.120   6.956  0.4628 -0.4836 -0.0773
 8249SOL    HW136383   2.099   3.149   6.964  0.3480 -0.7413 -0.3825
 8249SOL    HW236384   2.194   3.083   7.044 -1.4842  1.1965  0.7071
 8250SOL     OW36385   0.140   0.871   8.828 -0.1533  0.4356  0.1682
 8250SOL    HW136386   0.205   0.901   8.764  0.9584 -1.5135  0.3594
 8250SOL    HW236387   0.142   0.947   8.885 -0.5669  0.4010  0.2311
 8251SOL     OW36388   4.156   3.330   2.659  0.1568  0.4648 -0.6358
 8251SOL    HW136389   4.144   3.373   2.743 -2.5481  0.2759 -0.9118
 8251SOL    HW236390   4.164   3.238   2.684 -0.7807  0.9610  1.5038
 8252SOL     OW36391   0.140   4.055   3.437  0.1107  0.5851  0.0575
 8252SOL    HW136392   0.102   4.031   3.522  0.3792 -0.1641 -0.0270
 8252SOL    HW236393   0.064   4.044   3.379  1.1345 -1.3216 -0.9324
 8253SOL     OW36394   3.702   2.942   4.652  0.3520  0.4882  0.4421
 8253SOL    HW136395   3.737   3.031   4.658  2.5385 -0.4127  0.8172
 8253SOL    HW236396   3.774   2.898   4.697  0.1954  0.6823  0.8845
 8254SOL     OW36397   0.581   4.627   6.162  0.4003 -0.5761 -0.6484
 8254SOL    HW136398   0.597   4.711   6.118  0.6649 -0.7747 -0.9341
 8254SOL    HW236399   0.521   4.595   6.095  0.0199 -1.0463 -0.0753
 8255SOL     OW36400   3.583   2.680   4.629  0.1348 -0.3641  0.0296
 8255SOL    HW136401   3.609   2.773   4.631  1.3295 -0.6906 -0.5960
 8255SOL    HW236402   3.591   2.654   4.721  3.9577 -1.0907 -0.5250
 8256SOL     OW36403   0.743   3.947  13.105 -0.2929  0.2788 -0.1321
 8256SOL    HW136404   0.656   3.949  13.064 -0.1547 -1.9226 -0.5127
 8256SOL    HW236405   0.721   3.891  13.179 -0.7759  2.6505  1.5387
 8257SOL     OW36406   2.526   2.672   8.946  0.3403 -0.3887 -0.4290
 8257SOL    HW136407   2.618   2.688   8.927 -0.0420  1.3027 -0.9017
 8257SOL    HW236408   2.500   2.606   8.881 -4.4816 -0.3187  1.4417
 8258SOL     OW36409   3.593   2.240   4.392 -0.5814 -0.1533  0.1171
 8258SOL    HW136410   3.550   2.319   4.360  1.9498  1.1619 -0.1244
 8258SOL    HW236411   3.681   2.274   4.410 -0.6653 -0.7748  1.6717
 8259SOL     OW36412   0.187   3.164  14.585  0.2682 -0.3378  0.2484
 8259SOL    HW136413   0.148   3.226  14.648  0.1940  0.0727 -0.1996
 8259SOL    HW236414   0.150   3.180  14.499  0.2280 -0.4765  0.2401
 8260SOL     OW36415   2.017   0.528   0.733  0.1522  0.4820 -0.3584
 8260SOL    HW136416   2.040   0.526   0.640 -2.8205  2.2392 -1.1289
 8260SOL    HW236417   2.096   0.496   0.778 -0.2597  0.9862  0.7195
 8261SOL     OW36418   0.843   4.607   4.313  0.3978 -0.4175  0.1535
 8261SOL    HW136419   0.769   4.635   4.259 -0.8658 -0.9342  1.6301
 8261SOL    HW236420   0.799   4.542   4.367  0.7581 -1.5789 -0.9411
 8262SOL     OW36421   1.137   2.893   5.264  0.7676  0.0252  0.2752
 8262SOL    HW136422   1.096   2.870   5.347  1.2220  0.9738  0.7658
 8262SOL    HW236423   1.223   2.920   5.295  0.7234  0.6439 -0.1536
 8263SOL     OW36424   4.716   3.836  12.433  0.1134  0.0721  0.0475
 8263SOL    HW136425   0.023   3.818  12.350 -0.9165 -0.9565 -0.2594
 8263SOL    HW236426   4.701   3.930  12.423  3.1337  0.5848  0.4733
 8264SOL     OW36427   3.814   4.525   4.040  0.3610  0.0531  0.1756
 8264SOL    HW136428   3.811   4.431   4.023 -1.3674 -0.1044  1.3257
 8264SOL    HW236429   3.898   4.528   4.085  0.7256 -1.3935 -0.3967
 8265SOL     OW36430   1.661   3.257   7.885 -0.0062  0.3506 -0.0711
 8265SOL    HW136431   1.614   3.179   7.854  0.3601 -0.6618  1.9301
 8265SOL    HW236432   1.593   3.294   7.942 -1.1799 -0.2599 -1.0701
 8266SOL     OW36433   0.348   3.806   2.485  0.5645  0.6833 -0.5360
 8266SOL    HW136434   0.305   3.770   2.407 -0.7331  0.3046  0.3677
 8266SOL    HW236435   0.423   3.750   2.507 -0.0951  0.2062  0.4682
 8267SOL     OW36436   2.448   0.401   6.704  0.7121  0.1118 -0.0097
 8267SOL    HW136437   2.475   0.309   6.708  2.4935  0.5967 -0.6708
 8267SOL    HW236438   2.490   0.419   6.620 -1.0229  1.3676 -0.5960
 8268SOL     OW36439   1.005   2.353   9.467 -0.6168 -0.3152 -0.2752
 8268SOL    HW136440   1.095   2.352   9.500 -0.3987  0.0532 -0.8478
 8268SOL    HW236441   1.017   2.400   9.384  0.9211 -0.1679  0.0210
 8269SOL     OW36442   4.631   3.036  12.085 -0.0993 -0.2407  0.0707
 8269SOL    HW136443   4.555   3.002  12.039 -1.2586  1.6188  0.6062
 8269SOL    HW236444   4.705   3.008  12.032 -1.8739 -1.0361 -1.9458
 8270SOL     OW36445   2.395   0.576   0.022 -0.0381  0.1125 -0.1190
 8270SOL    HW136446   2.337   0.648  17.735  1.5762  0.8496 -1.6034
 8270SOL    HW236447   2.390   0.505  17.699 -1.5137 -2.0418  2.4283
 8271SOL     OW36448   4.221   1.423   0.553  0.9047 -0.5028  0.3596
 8271SOL    HW136449   4.225   1.498   0.612 -2.3945  0.3566 -0.5157
 8271SOL    HW236450   4.316   1.410   0.547  0.7824 -1.9331  1.5164
 8272SOL     OW36451   0.732   2.665  13.522  0.2268  0.1192  0.3842
 8272SOL    HW136452   0.692   2.589  13.478  1.3157 -0.4531  0.3832
 8272SOL    HW236453   0.688   2.658  13.606  0.5691 -5.2089  0.1010
 8273SOL     OW36454   0.492   1.282   6.789  0.5036  0.6351  0.6087
 8273SOL    HW136455   0.565   1.239   6.834  0.9890  1.7381  0.8884
 8273SOL    HW236456   0.432   1.277   6.863 -0.1503 -3.8445 -0.2289
 8274SOL     OW36457   0.434   0.956   8.794 -0.6904 -0.0029  0.1709
 8274SOL    HW136458   0.440   1.046   8.763  1.2033 -0.8405 -1.9672
 8274SOL    HW236459   0.419   0.901   8.717 -1.9601  2.3341 -1.2425
 8275SOL     OW36460   3.633   3.852   0.961  0.3918 -0.2859  0.1883
 8275SOL    HW136461   3.686   3.869   0.883  1.1214 -0.4938  0.6415
 8275SOL    HW236462   3.690   3.885   1.030  0.9325 -0.9633  0.0674
 8276SOL     OW36463   1.867   1.952   9.333 -1.3405  0.1149 -0.1297
 8276SOL    HW136464   1.772   1.960   9.335 -1.3616 -0.3472  0.8330
 8276SOL    HW236465   1.883   1.907   9.250 -1.0983 -0.9324  0.4816
 8277SOL     OW36466   3.888   3.224   2.856 -0.1764 -0.0882  0.0932
 8277SOL    HW136467   3.916   3.180   2.776  2.3214 -0.0151  0.9340
 8277SOL    HW236468   3.847   3.307   2.829  1.5981  0.6842 -0.2543
 8278SOL     OW36469   2.158   3.647  11.297 -0.5235 -0.6302 -0.0739
 8278SOL    HW136470   2.073   3.639  11.340 -0.1139 -1.0022  0.6723
 8278SOL    HW236471   2.226   3.644  11.364 -0.6299 -0.7898  0.0269
 8279SOL     OW36472   0.835   0.358   7.479 -0.5255  0.0276  0.4180
 8279SOL    HW136473   0.821   0.391   7.391 -0.7869  1.2206  0.9112
 8279SOL    HW236474   0.838   0.431   7.541 -3.3175 -1.5374  2.4304
 8280SOL     OW36475   4.451   0.738   3.836  0.4687 -0.2187 -0.1967
 8280SOL    HW136476   4.355   0.730   3.841  0.5129 -2.0649 -2.6080
 8280SOL    HW236477   4.483   0.683   3.765 -1.6674 -1.4795 -0.1771
 8281SOL     OW36478   3.969   0.395  10.352  0.2677  0.5662 -0.1840
 8281SOL    HW136479   3.939   0.332  10.418  0.5213  0.9666  0.3068
 8281SOL    HW236480   3.932   0.345  10.279  0.6771  1.1994 -0.8153
 8282SOL     OW36481   2.509   1.050   7.330  0.3077  0.0965 -0.5795
 8282SOL    HW136482   2.452   1.116   7.289 -1.2806 -2.4283 -2.4527
 8282SOL    HW236483   2.508   0.983   7.262  0.2985 -0.6473  0.1468
 8283SOL     OW36484   0.193   3.982   1.040  0.0674  0.3995  0.5585
 8283SOL    HW136485   0.118   3.946   0.992 -0.3771  1.7099  0.2783
 8283SOL    HW236486   0.266   3.983   0.978 -1.0734  1.7511 -0.7507
 8284SOL     OW36487   1.277   3.364   1.706 -0.3730  0.2223 -0.5741
 8284SOL    HW136488   1.228   3.415   1.642 -1.8616 -1.7039 -0.9864
 8284SOL    HW236489   1.218   3.365   1.781  0.9304 -0.2398  0.4610
 8285SOL     OW36490   4.267   2.986   6.096  0.0037 -0.2784 -0.1512
 8285SOL    HW136491   4.224   2.976   6.011  1.0841  0.0398 -0.7354
 8285SOL    HW236492   4.352   3.018   6.067  0.1110  0.0910  0.5879
 8286SOL     OW36493   3.731   4.302   8.842 -0.1004 -0.1998 -0.3031
 8286SOL    HW136494   3.685   4.359   8.780  2.7697  2.3710 -0.0400
 8286SOL    HW236495   3.821   4.303   8.811 -0.0618  1.7578 -0.0984
 8287SOL     OW36496   2.730   2.585  10.644  0.2854  0.0597  0.0797
 8287SOL    HW136497   2.655   2.581  10.703  0.6435 -0.5707  0.5003
 8287SOL    HW236498   2.801   2.568  10.707 -0.7004 -0.5241  1.0316
 8288SOL     OW36499   4.352   1.955   4.592  0.1675 -0.2889 -0.5534
 8288SOL    HW136500   4.325   1.966   4.683 -1.4313 -0.9765 -0.9353
 8288SOL    HW236501   4.304   1.878   4.562  0.3940 -1.0584  1.0678
 8289SOL     OW36502   0.724   3.936   4.754 -0.4298  0.3443  0.2124
 8289SOL    HW136503   0.707   3.872   4.685  0.5705 -0.2331  0.5002
 8289SOL    HW236504   0.632   3.952   4.773 -0.4354  2.6891 -1.6580
 8290SOL     OW36505   4.082   3.464  14.974  0.0317 -0.0522 -0.6016
 8290SOL    HW136506   4.040   3.541  15.012 -0.1962 -0.9335  0.9259
 8290SOL    HW236507   4.100   3.497  14.886  0.8815 -0.7840 -0.7058
 8291SOL     OW36508   1.731   1.023   1.521  0.7149  0.0130 -0.2359
 8291SOL    HW136509   1.823   0.996   1.526  0.7874  0.0169 -1.6400
 8291SOL    HW236510   1.701   1.023   1.612  0.2045  2.9286 -0.4227
 8292SOL     OW36511   1.343   3.012   3.481 -0.4717  0.1114 -0.2491
 8292SOL    HW136512   1.254   3.028   3.514 -0.6962  0.1982 -0.8967
 8292SOL    HW236513   1.354   2.917   3.480 -1.9656 -0.0879  1.1710
 8293SOL     OW36514   4.110   0.467   5.349 -0.3234  0.0018  0.0760
 8293SOL    HW136515   4.066   0.389   5.383 -1.7058  0.2635 -1.1189
 8293SOL    HW236516   4.161   0.437   5.274 -0.9384 -1.3500  0.1944
 8294SOL     OW36517   2.881   1.886  17.252  0.0163  0.0562  0.7642
 8294SOL    HW136518   2.957   1.931  17.291  1.9017 -3.9538  1.7236
 8294SOL    HW236519   2.828   1.964  17.241  1.3258  0.7897 -0.3187
 8295SOL     OW36520   2.416   0.548   7.386 -0.5794 -0.5180 -0.1613
 8295SOL    HW136521   2.346   0.512   7.442 -0.7464 -0.6700 -0.4686
 8295SOL    HW236522   2.420   0.639   7.416 -1.8865 -0.6544  0.4339
 8296SOL     OW36523   0.125   0.044   5.470  0.1303 -0.4332  0.3841
 8296SOL    HW136524   0.191   0.110   5.447 -1.3918  0.2264 -2.0360
 8296SOL    HW236525   0.174   4.705   5.435 -0.5531  0.0091 -1.5318
 8297SOL     OW36526   4.719   3.901  16.153  0.5351  0.4627 -0.5245
 8297SOL    HW136527   0.017   3.835  16.213 -0.4979 -0.8779 -1.4050
 8297SOL    HW236528   4.634   3.932  16.183  0.5036 -0.0576 -0.0788
 8298SOL     OW36529   4.564   2.155   7.186  0.7270 -0.1708  0.1397
 8298SOL    HW136530   4.493   2.220   7.186  1.8048  0.9938  0.3315
 8298SOL    HW236531   4.551   2.115   7.272 -0.3474  1.0984  0.5727
 8299SOL     OW36532   4.035   2.864  12.816  0.0090 -0.2310  0.5507
 8299SOL    HW136533   4.121   2.862  12.774  0.1099 -0.2996  0.7602
 8299SOL    HW236534   4.000   2.776  12.806  0.7179 -0.4722  0.1976
 8300SOL     OW36535   2.919   3.923   3.747 -0.4167  0.2156  0.0695
 8300SOL    HW136536   2.982   3.982   3.788 -0.3686 -0.1534  0.5313
 8300SOL    HW236537   2.914   3.956   3.658 -0.0546 -0.3275 -0.1539
 8301SOL     OW36538   0.289   1.118   6.644 -0.5331 -0.1027 -0.5164
 8301SOL    HW136539   0.378   1.144   6.621 -0.5772 -0.0869 -0.6717
 8301SOL    HW236540   0.263   1.198   6.689  0.7711  0.0347  0.0038
 8302SOL     OW36541   4.456   3.717   9.971 -0.2720  0.3354 -0.0524
 8302SOL    HW136542   4.502   3.709   9.888 -1.4082  2.5153 -0.9109
 8302SOL    HW236543   4.499   3.795  10.008  0.0146  1.9180 -3.7669
 8303SOL     OW36544   4.694   4.373   7.289  0.1222 -0.6300  0.1314
 8303SOL    HW136545   4.676   4.371   7.195 -0.7472  0.9229  0.2638
 8303SOL    HW236546   4.710   4.279   7.303  0.5932 -0.4267  0.9854
 8304SOL     OW36547   3.007   0.146   8.962  0.3359  0.1980  0.0749
 8304SOL    HW136548   3.003   0.082   9.033  1.0593  1.7437  1.5178
 8304SOL    HW236549   3.023   0.225   9.013 -2.5751  1.5232 -1.0924
 8305SOL     OW36550   3.487   3.526   6.120 -0.6111 -0.1047  0.0800
 8305SOL    HW136551   3.417   3.555   6.061  0.0262  0.7472 -0.2481
 8305SOL    HW236552   3.468   3.584   6.193  1.2020  0.0940  0.3836
 8306SOL     OW36553   0.155   3.160  15.254  0.0726  0.8562 -0.1601
 8306SOL    HW136554   0.211   3.188  15.326  0.1421 -0.0941  0.1577
 8306SOL    HW236555   0.145   3.066  15.270 -4.5810  1.3774  0.0427
 8307SOL     OW36556   4.394   1.803   2.865  1.0160 -0.1759 -0.4235
 8307SOL    HW136557   4.337   1.880   2.856  2.1170  0.6615 -0.2688
 8307SOL    HW236558   4.440   1.800   2.781 -0.4707 -2.2710 -1.1580
 8308SOL     OW36559   4.571   2.526   8.082 -0.3965 -0.0930  0.5454
 8308SOL    HW136560   4.599   2.439   8.110 -2.3515 -1.5840 -2.1113
 8308SOL    HW236561   4.653   2.574   8.083 -0.4882  0.0704  0.3019
 8309SOL     OW36562   0.954   0.555   4.264  0.4157 -0.2046 -0.1339
 8309SOL    HW136563   0.888   0.614   4.301  1.1899  0.6026 -0.0372
 8309SOL    HW236564   1.028   0.616   4.269  0.6876 -0.4665 -1.1604
 8310SOL     OW36565   3.537   4.690  10.501 -0.6783 -0.0519 -0.5962
 8310SOL    HW136566   3.623   4.685  10.542 -0.6831  1.6918 -0.4067
 8310SOL    HW236567   3.514   0.041  10.533  0.2413  0.4864 -1.4085
 8311SOL     OW36568   3.553   1.547  15.581 -0.2294 -0.0915  0.0484
 8311SOL    HW136569   3.465   1.510  15.572 -0.0265 -0.1623 -1.7091
 8311SOL    HW236570   3.598   1.490  15.519 -0.1402  0.5647 -0.4999
 8312SOL     OW36571   2.563   0.052   0.745  0.1015 -0.3234  0.0091
 8312SOL    HW136572   2.641   0.104   0.763  1.6176 -2.5957  0.0529
 8312SOL    HW236573   2.560   4.724   0.817  2.5364  0.1215  0.4963
 8313SOL     OW36574   2.727   3.702   5.741 -0.1876  0.1956 -0.1699
 8313SOL    HW136575   2.786   3.705   5.666  1.0812  0.0493  0.8330
 8313SOL    HW236576   2.662   3.770   5.726  0.2913  0.6158 -0.3225
 8314SOL     OW36577   4.419   1.889   9.166  0.1573  0.9068  0.7049
 8314SOL    HW136578   4.396   1.917   9.078  1.1351 -0.8497 -0.1162
 8314SOL    HW236579   4.509   1.859   9.153  0.1002  1.3311 -0.6666
 8315SOL     OW36580   4.511   1.913  11.116 -0.5719  0.1742 -0.1155
 8315SOL    HW136581   4.458   1.876  11.045  0.0656  0.3615 -0.6845
 8315SOL    HW236582   4.444   1.963  11.163 -1.4633 -1.4209  0.3425
 8316SOL     OW36583   3.293   3.038   8.655  0.1491  0.4568 -0.0231
 8316SOL    HW136584   3.350   3.106   8.621  1.6036 -0.3421  0.7900
 8316SOL    HW236585   3.332   3.022   8.741 -0.9111  0.5796  0.4832
 8317SOL     OW36586   3.266   2.551   5.711  0.3328  0.2509 -0.1466
 8317SOL    HW136587   3.172   2.534   5.720  0.8761 -2.1206  1.0804
 8317SOL    HW236588   3.307   2.468   5.736  0.3223  0.5122  0.7558
 8318SOL     OW36589   2.475   0.133   2.601 -0.6808 -0.1970  0.1831
 8318SOL    HW136590   2.487   0.228   2.595 -1.4178  0.0892  3.0400
 8318SOL    HW236591   2.388   0.126   2.562 -0.3329  0.1289 -0.6504
 8319SOL     OW36592   1.216   1.506   4.909  0.4164 -0.1506 -0.5585
 8319SOL    HW136593   1.239   1.596   4.885 -0.4483  0.6586  1.6744
 8319SOL    HW236594   1.123   1.505   4.886  0.4785  2.3462 -0.9903
 8320SOL     OW36595   0.360   0.903  14.691 -0.2372 -0.0134 -0.1688
 8320SOL    HW136596   0.425   0.973  14.685 -2.8642  2.3307 -1.1720
 8320SOL    HW236597   0.332   0.886  14.601  1.5414 -3.3441 -0.1015
 8321SOL     OW36598   3.908   1.287   2.629  0.0849 -0.5219 -0.3981
 8321SOL    HW136599   3.984   1.344   2.637 -0.9139  0.7439  0.0803
 8321SOL    HW236600   3.847   1.332   2.689 -0.9442 -0.1075 -1.7448
 8322SOL     OW36601   0.962   2.661   6.145 -0.0359  0.3486  0.0467
 8322SOL    HW136602   0.973   2.720   6.070 -1.0371  0.4526 -0.0211
 8322SOL    HW236603   0.883   2.611   6.127  1.1994 -1.0836 -1.3729
 8323SOL     OW36604   0.491   2.633   5.378  0.4138 -0.1463  0.1576
 8323SOL    HW136605   0.413   2.688   5.377  1.6170  1.5707 -0.1434
 8323SOL    HW236606   0.546   2.700   5.336  1.8367 -0.3041  1.7502
 8324SOL     OW36607   1.972   1.357   7.217  0.1064  0.5680 -0.5057
 8324SOL    HW136608   2.000   1.283   7.163 -0.8438  0.9007 -1.4663
 8324SOL    HW236609   1.927   1.418   7.158 -1.3647 -1.0832 -1.0740
 8325SOL     OW36610   2.480   4.368   8.939  0.2490 -0.4827  0.0684
 8325SOL    HW136611   2.514   4.309   8.872  1.9094 -1.0612  1.4109
 8325SOL    HW236612   2.474   4.449   8.889  0.8057 -1.9024 -2.2680
 8326SOL     OW36613   0.145   2.986   2.488 -0.5979 -0.4696 -0.1065
 8326SOL    HW136614   0.109   2.989   2.576  0.3681 -1.3696  0.3169
 8326SOL    HW236615   0.187   2.900   2.494  0.3692 -0.0457 -0.7183
 8327SOL     OW36616   1.698   2.435   5.841 -0.1953  0.2736 -0.1226
 8327SOL    HW136617   1.728   2.388   5.763  1.8769 -1.1835  1.5963
 8327SOL    HW236618   1.664   2.519   5.807 -0.0474  0.2053 -0.4367
 8328SOL     OW36619   3.099   2.773  10.768  0.0976  0.0797 -0.0525
 8328SOL    HW136620   3.052   2.793  10.849 -0.5928  0.3771 -0.5298
 8328SOL    HW236621   3.192   2.782  10.791  0.1184  0.1113 -0.1489
 8329SOL     OW36622   4.089   1.979  11.814  0.3950  0.1692  0.3243
 8329SOL    HW136623   4.066   1.993  11.723 -0.7322 -0.3389  0.5281
 8329SOL    HW236624   4.070   1.885  11.820  3.3054 -0.3866  0.9012
 8330SOL     OW36625   0.612   1.054  12.174 -0.1253  0.5420 -0.0096
 8330SOL    HW136626   0.528   1.091  12.201 -1.0000 -1.1648 -0.4174
 8330SOL    HW236627   0.654   1.123  12.123 -1.5478  1.4653  0.0763
 8331SOL     OW36628   4.013   2.689  17.310  0.1253  0.3254  0.2002
 8331SOL    HW136629   4.033   2.750  17.240  1.4630 -1.1067 -0.6746
 8331SOL    HW236630   3.919   2.675  17.302  0.2411 -0.6412  0.4840
 8332SOL     OW36631   1.913   4.287   3.996  0.1249  0.5851  0.8495
 8332SOL    HW136632   1.826   4.254   4.018  0.9334 -0.4403  2.4880
 8332SOL    HW236633   1.904   4.369   4.043  0.7434  0.5686  0.9994
 8333SOL     OW36634   2.607   2.390   6.090  0.5221 -0.9344  0.5080
 8333SOL    HW136635   2.514   2.396   6.069  0.6684  0.2761  0.2470
 8333SOL    HW236636   2.620   2.470   6.141 -1.6822  1.0527 -2.0791
 8334SOL     OW36637   2.282   4.503   0.937  0.6823  0.0159  0.6781
 8334SOL    HW136638   2.220   4.575   0.920 -1.1190 -1.5879  0.4924
 8334SOL    HW236639   2.233   4.436   0.890 -0.3077  1.5643 -0.5252
 8335SOL     OW36640   3.456   2.799   9.454 -0.4729  0.7636 -0.2166
 8335SOL    HW136641   3.508   2.873   9.423 -0.6898  0.9191 -0.2089
 8335SOL    HW236642   3.367   2.832   9.441 -1.0233 -0.9940 -0.9335
 8336SOL     OW36643   1.869   2.007   0.448 -0.4883 -0.2468 -0.4628
 8336SOL    HW136644   1.844   1.915   0.442 -0.9946 -0.2219  1.1585
 8336SOL    HW236645   1.963   1.990   0.454 -0.7579 -1.6558 -0.2944
 8337SOL     OW36646   0.421   3.837  16.433 -0.0861  0.4843 -0.3365
 8337SOL    HW136647   0.414   3.837  16.337 -3.3167  0.0405 -0.1065
 8337SOL    HW236648   0.502   3.786  16.442 -0.6135 -0.5069 -1.1563
 8338SOL     OW36649   1.625   0.156   0.319  0.1891  0.1049  0.1322
 8338SOL    HW136650   1.690   0.087   0.328  0.4410  0.3615  0.3038
 8338SOL    HW236651   1.610   0.182   0.410  0.5135  2.2013 -0.3942
 8339SOL     OW36652   0.521   2.399   3.364 -0.4517  0.5049  0.1770
 8339SOL    HW136653   0.470   2.319   3.373 -0.9493  0.4878 -2.6905
 8339SOL    HW236654   0.486   2.462   3.427  0.4020  1.5565 -0.3929
 8340SOL     OW36655   3.963   0.687   9.670  0.4909 -0.2051  0.1784
 8340SOL    HW136656   3.960   0.775   9.709 -1.0034  1.3908 -3.4430
 8340SOL    HW236657   3.909   0.633   9.727 -0.8469  1.8177  0.8519
 8341SOL     OW36658   1.548   2.700  17.677 -0.2796  1.0673  0.2218
 8341SOL    HW136659   1.624   2.746  17.642  0.3959 -0.5309 -0.3892
 8341SOL    HW236660   1.497   2.747   0.003 -0.2508  0.5166  0.6390
 8342SOL     OW36661   4.033   1.287   3.962  0.1841  0.3370 -0.0960
 8342SOL    HW136662   4.054   1.340   4.039  0.0332  0.4403 -0.1243
 8342SOL    HW236663   4.114   1.302   3.913  0.7002 -0.9719  0.3708
 8343SOL     OW36664   1.666   2.008   5.082  0.0295  0.1602  0.1935
 8343SOL    HW136665   1.640   2.049   5.164  0.3896 -0.5022  0.6391
 8343SOL    HW236666   1.698   1.924   5.115 -1.2932 -0.3429  0.1677
 8344SOL     OW36667   2.443   1.722   2.518  0.0286  0.5237  0.3274
 8344SOL    HW136668   2.355   1.758   2.516 -1.0038 -1.9951  1.2037
 8344SOL    HW236669   2.490   1.804   2.534 -1.1583  1.4986 -1.2041
 8345SOL     OW36670   0.031   4.422   4.732 -0.1672 -0.2119 -0.1484
 8345SOL    HW136671   0.096   4.355   4.751 -0.9528 -0.2852  2.2597
 8345SOL    HW236672   4.707   4.368   4.680 -2.0987  0.8812  0.9383
 8346SOL     OW36673   1.166   2.128   4.924 -0.7361  0.3915 -0.7982
 8346SOL    HW136674   1.242   2.133   4.983 -0.1808 -2.2677 -1.2748
 8346SOL    HW236675   1.213   2.081   4.855 -0.1068 -0.6008  0.3030
 8347SOL     OW36676   0.644   1.994   6.498 -0.0093 -1.0034  0.5505
 8347SOL    HW136677   0.621   1.930   6.565 -0.6695 -0.3823  0.9248
 8347SOL    HW236678   0.559   2.023   6.464  1.0649 -2.1272 -3.0742
 8348SOL     OW36679   4.521   1.342   5.811 -0.0971 -0.3610  0.4558
 8348SOL    HW136680   4.470   1.422   5.803  0.9326  0.2727  0.1631
 8348SOL    HW236681   4.504   1.298   5.727  0.5845 -1.6386  0.9750
 8349SOL     OW36682   0.255   2.102   0.289  0.3110  0.4295  0.2226
 8349SOL    HW136683   0.333   2.119   0.237  0.8056 -2.3267  0.0760
 8349SOL    HW236684   0.190   2.160   0.248 -0.0066  0.7217  1.1394
 8350SOL     OW36685   2.105   2.267  11.879 -0.2779 -0.4358  0.0428
 8350SOL    HW136686   2.168   2.195  11.884 -2.8090 -2.5199  1.6322
 8350SOL    HW236687   2.164   2.339  11.853  0.9455 -1.7439 -0.8096
 8351SOL     OW36688   3.825   0.810   8.688 -0.3184  0.2895  0.4951
 8351SOL    HW136689   3.759   0.844   8.748 -0.9670  1.6338 -0.9740
 8351SOL    HW236690   3.888   0.881   8.700 -0.8811  0.9092 -0.2785
 8352SOL     OW36691   2.369   1.195   2.497 -0.3312  0.2310 -0.0397
 8352SOL    HW136692   2.292   1.219   2.445 -1.3369 -1.4186  0.6864
 8352SOL    HW236693   2.414   1.279   2.486 -0.4138 -0.0036 -2.1498
 8353SOL     OW36694   3.472   1.590  17.726 -0.2615 -0.4812  0.6204
 8353SOL    HW136695   3.392   1.540  17.737 -0.6004 -0.6045 -2.4268
 8353SOL    HW236696   3.516   1.571   0.069 -1.0391 -1.4038  0.8256
 8354SOL     OW36697   3.472   4.009   5.039 -0.3329  0.1356  0.0683
 8354SOL    HW136698   3.496   3.962   5.118  2.3951  0.3382 -0.6088
 8354SOL    HW236699   3.417   4.084   5.062 -2.9454 -1.4799 -1.0119
 8355SOL     OW36700   0.780   3.038  17.614  0.1374  0.4263  0.6001
 8355SOL    HW136701   0.839   3.057  17.688  0.7967 -1.1140  0.4761
 8355SOL    HW236702   0.712   3.100  17.639  0.9807  1.4734  0.2857
 8356SOL     OW36703   1.005   0.975   8.890  0.2725 -0.0560 -0.1581
 8356SOL    HW136704   0.935   0.988   8.953 -0.0854  0.9445 -0.7654
 8356SOL    HW236705   1.028   0.884   8.908  0.2637 -0.4523 -2.1168
 8357SOL     OW36706   3.686   3.936   6.589  0.5913  0.4046  0.1544
 8357SOL    HW136707   3.638   3.895   6.516 -0.3348 -1.7129  1.9412
 8357SOL    HW236708   3.680   3.865   6.653  2.5126  2.0029  2.1035
 8358SOL     OW36709   2.185   2.361  16.460  0.1884 -0.2276  0.2007
 8358SOL    HW136710   2.272   2.320  16.467  0.4505  0.1837 -0.6473
 8358SOL    HW236711   2.169   2.379  16.552 -0.6844  1.7659 -0.3387
 8359SOL     OW36712   1.343   1.531   2.895 -0.6484 -0.0768 -0.3063
 8359SOL    HW136713   1.366   1.472   2.967 -0.3507 -0.4854 -0.7399
 8359SOL    HW236714   1.415   1.593   2.887  1.8054 -3.1572 -2.1755
 8360SOL     OW36715   3.994   3.620   6.502 -0.5988  0.1627 -0.0223
 8360SOL    HW136716   4.022   3.593   6.415 -2.5056 -1.5813 -0.1226
 8360SOL    HW236717   4.030   3.708   6.497 -0.8315  0.1987 -1.0184
 8361SOL     OW36718   3.791   3.481   2.363 -0.4186 -0.4821 -0.1887
 8361SOL    HW136719   3.706   3.450   2.394 -0.8802 -0.0481 -1.0135
 8361SOL    HW236720   3.792   3.563   2.412 -1.6676 -0.3007 -0.4775
 8362SOL     OW36721   2.939   3.836   5.895 -0.5342 -0.2791 -0.2400
 8362SOL    HW136722   3.005   3.811   5.830  0.1373  1.1895 -0.1148
 8362SOL    HW236723   2.868   3.786   5.855  1.0109 -0.9273 -2.2098
 8363SOL     OW36724   0.408   1.425   6.191 -0.1133  0.2605  0.5299
 8363SOL    HW136725   0.375   1.463   6.273  1.9166  1.4915  0.7780
 8363SOL    HW236726   0.382   1.333   6.198 -0.0780  0.3494  1.8517
 8364SOL     OW36727   0.029   0.967   3.644 -0.2399 -0.7011  0.4506
 8364SOL    HW136728   4.673   0.983   3.620  0.2194  0.1464 -0.7724
 8364SOL    HW236729   0.068   1.015   3.570 -0.1338 -0.1795  0.8435
 8365SOL     OW36730   0.994   3.989  13.369 -0.4886 -0.2174  0.0827
 8365SOL    HW136731   0.938   3.925  13.326 -0.0607 -0.9165  0.5780
 8365SOL    HW236732   0.971   3.974  13.461 -2.3251 -0.2078 -0.3676
 8366SOL     OW36733   3.137   1.679   6.575  0.2561 -0.0001 -0.0392
 8366SOL    HW136734   3.202   1.610   6.579 -1.1907 -1.3351  0.5716
 8366SOL    HW236735   3.134   1.711   6.485  0.9151 -1.4569 -0.5674
 8367SOL     OW36736   1.750   2.596   5.351  1.1046  0.5144 -0.0407
 8367SOL    HW136737   1.832   2.578   5.398 -0.0479 -0.9676  1.3827
 8367SOL    HW236738   1.754   2.541   5.273 -1.1067 -2.7664  2.1866
 8368SOL     OW36739   0.867   0.582   5.118 -0.2460  0.1371 -0.4033
 8368SOL    HW136740   0.821   0.551   5.040 -2.2970 -0.9726  1.2630
 8368SOL    HW236741   0.818   0.537   5.187 -0.9547 -1.1482 -1.7506
 8369SOL     OW36742   3.686   4.608   2.722  0.2917  0.5105  0.2780
 8369SOL    HW136743   3.728   4.532   2.761 -2.7254 -1.7556 -0.8449
 8369SOL    HW236744   3.683   4.584   2.629 -0.6960  0.0273  0.4320
 8370SOL     OW36745   3.105   4.416   3.009  0.3978  0.3010  0.1346
 8370SOL    HW136746   3.146   4.405   3.095  0.8826  1.1973  0.0181
 8370SOL    HW236747   3.179   4.406   2.950  0.5814 -0.2044  0.4434
 8371SOL     OW36748   4.410   2.067   3.649 -0.2928 -0.2517 -0.1886
 8371SOL    HW136749   4.348   2.080   3.578  0.4201 -0.0784 -0.7816
 8371SOL    HW236750   4.370   2.099   3.730  0.4350  0.5386 -0.1321
 8372SOL     OW36751   4.066   1.403   4.587 -0.0258  0.0100 -0.1997
 8372SOL    HW136752   4.092   1.340   4.521 -0.3092  0.6851 -0.9626
 8372SOL    HW236753   4.151   1.435   4.615 -0.0842 -1.5691  1.7506
 8373SOL     OW36754   1.855   3.906   3.238 -0.2165 -0.2939 -0.1475
 8373SOL    HW136755   1.948   3.925   3.251 -1.1987  3.5648  1.2531
 8373SOL    HW236756   1.828   3.997   3.249 -0.1409 -0.1999 -0.7253
 8374SOL     OW36757   1.618   1.453   5.572  0.0956 -0.1610 -0.3999
 8374SOL    HW136758   1.584   1.517   5.510  0.3345  0.2962 -0.0649
 8374SOL    HW236759   1.537   1.428   5.617  0.8061  1.4020  1.7580
 8375SOL     OW36760   3.947   4.203   4.277  0.0173  0.4562  0.0959
 8375SOL    HW136761   3.979   4.274   4.220  1.9202  0.1537  0.7880
 8375SOL    HW236762   4.021   4.142   4.273  0.5662  1.1908 -1.1383
 8376SOL     OW36763   3.882   1.853   1.714 -0.5564 -0.0802  0.1354
 8376SOL    HW136764   3.818   1.804   1.765 -0.5279 -2.3953 -2.0793
 8376SOL    HW236765   3.882   1.792   1.640 -2.9368  1.1476 -0.9182
 8377SOL     OW36766   2.570   2.929   3.910 -0.0102  0.3732  0.0590
 8377SOL    HW136767   2.520   2.905   3.988 -1.0686 -3.0827 -1.7014
 8377SOL    HW236768   2.652   2.882   3.926 -1.4673 -1.5385  1.9195
 8378SOL     OW36769   3.702   0.912   1.506  0.1181  1.0551 -0.6270
 8378SOL    HW136770   3.788   0.887   1.541  0.4133 -1.0763 -2.8887
 8378SOL    HW236771   3.735   0.909   1.417 -1.2479 -1.0901 -1.0720
 8379SOL     OW36772   1.705   0.444   8.421 -0.1795  0.3563 -0.1545
 8379SOL    HW136773   1.629   0.476   8.469  0.8716  1.0085  1.0821
 8379SOL    HW236774   1.684   0.351   8.408  1.8358 -0.0068 -0.7511
 8380SOL     OW36775   2.935   3.506   9.079 -0.5530 -0.0175 -0.6596
 8380SOL    HW136776   3.012   3.498   9.135 -1.2095  0.3906  0.3069
 8380SOL    HW236777   2.973   3.555   9.006  2.3370  0.5240  1.2049
 8381SOL     OW36778   2.552   2.238   3.330  0.2488 -0.1818  0.0260
 8381SOL    HW136779   2.570   2.212   3.240  0.5370  0.0720  0.0075
 8381SOL    HW236780   2.466   2.200   3.341 -0.9048  2.1544 -0.8080
 8382SOL     OW36781   1.106   2.710   3.249 -0.3957  0.2773 -0.2379
 8382SOL    HW136782   1.013   2.688   3.240 -0.7603  0.9941  1.6828
 8382SOL    HW236783   1.137   2.637   3.302 -0.1895  0.2654 -0.3763
 8383SOL     OW36784   3.246   4.430   2.772  0.0425  0.0395  0.1676
 8383SOL    HW136785   3.307   4.400   2.704  0.1558  0.7345 -0.0421
 8383SOL    HW236786   3.164   4.428   2.723 -0.1951  1.3596  0.4941
 8384SOL     OW36787   1.946   0.358   9.494 -0.1941  0.2434  0.4236
 8384SOL    HW136788   2.007   0.295   9.533  2.9206  3.7067  1.1704
 8384SOL    HW236789   2.010   0.425   9.471  0.9883 -0.3256  2.0275
 8385SOL     OW36790   2.564   1.476  10.724  0.5500  0.2856  0.1673
 8385SOL    HW136791   2.549   1.500  10.815 -0.3730  0.9827 -0.1672
 8385SOL    HW236792   2.526   1.553  10.682  2.3701  0.3017 -1.4819
 8386SOL     OW36793   4.466   4.506   8.424  0.3169 -0.5779  0.2442
 8386SOL    HW136794   4.468   4.554   8.507  0.5695  2.5084 -1.5335
 8386SOL    HW236795   4.434   4.574   8.364  0.8650 -1.4238 -1.0213
 8387SOL     OW36796   0.466   2.698   0.005  0.2796  0.0003 -0.0886
 8387SOL    HW136797   0.528   2.675   0.074  0.4261  1.7078  0.3488
 8387SOL    HW236798   0.410   2.620   0.006  0.7246 -0.3026  3.1894
 8388SOL     OW36799   2.404   3.149  15.951  0.2735 -0.1180 -0.2832
 8388SOL    HW136800   2.472   3.135  15.885 -0.4102  2.8320 -1.5956
 8388SOL    HW236801   2.360   3.064  15.961  0.3616 -0.1972 -0.5392
 8389SOL     OW36802   0.554   2.268   3.706  0.2479  0.3422 -0.6446
 8389SOL    HW136803   0.648   2.254   3.696  0.0325 -2.2129  0.7195
 8389SOL    HW236804   0.524   2.177   3.709  0.6300  0.3131  2.0124
 8390SOL     OW36805   2.657   3.679   2.747 -0.4487 -0.0287 -0.5388
 8390SOL    HW136806   2.607   3.627   2.811  1.7765 -1.2050  0.2745
 8390SOL    HW236807   2.599   3.707   2.677  0.8216 -0.9492 -1.9574
 8391SOL     OW36808   0.363   1.190   9.831  0.5583  0.2457  0.5173
 8391SOL    HW136809   0.398   1.173   9.744  0.3637  0.3596  0.4178
 8391SOL    HW236810   0.310   1.267   9.814  2.4752  1.8645  1.8984
 8392SOL     OW36811   1.137   1.776   5.307  0.4731 -0.9595  0.8974
 8392SOL    HW136812   1.058   1.727   5.332  1.0335 -2.1360  0.3658
 8392SOL    HW236813   1.152   1.822   5.390  1.3292  0.6363 -0.1427
 8393SOL     OW36814   3.184   2.518  12.180  0.6251  0.2473 -0.0240
 8393SOL    HW136815   3.094   2.543  12.202  0.9588  0.0193  1.5738
 8393SOL    HW236816   3.182   2.430  12.216  1.2703  1.1644  2.2547
 8394SOL     OW36817   4.189   4.425   5.048 -0.2026  0.2646  0.2087
 8394SOL    HW136818   4.174   4.512   5.086  1.0357  0.9575 -0.8691
 8394SOL    HW236819   4.109   4.374   5.060 -1.5275  1.7726 -2.1570
 8395SOL     OW36820   0.929   2.101   7.967  0.0758 -0.5298  0.1397
 8395SOL    HW136821   0.893   2.190   7.962 -0.8663 -0.8306  1.7596
 8395SOL    HW236822   0.941   2.088   8.061 -0.3802  0.5416  0.3551
 8396SOL     OW36823   1.739   3.206   2.518 -0.2817  0.1979 -0.0239
 8396SOL    HW136824   1.773   3.176   2.602 -1.3815 -1.3648 -0.1368
 8396SOL    HW236825   1.755   3.300   2.523 -0.7757  0.3365 -1.0278
 8397SOL     OW36826   2.172   1.075   3.567  0.0388 -0.5196 -0.2277
 8397SOL    HW136827   2.261   1.058   3.598 -0.6254 -0.8658  1.4809
 8397SOL    HW236828   2.175   1.167   3.543 -1.1701 -0.9483 -2.0359
 8398SOL     OW36829   2.378   2.143  13.223  0.1163  0.0849 -0.4423
 8398SOL    HW136830   2.454   2.194  13.196 -0.1200  2.0416  2.6395
 8398SOL    HW236831   2.408   2.055  13.200  0.2174 -0.6447  2.5007
 8399SOL     OW36832   3.503   1.965   4.146  0.4965  0.1077 -0.6596
 8399SOL    HW136833   3.467   1.986   4.232 -0.4680 -1.7227 -0.6201
 8399SOL    HW236834   3.598   1.964   4.158  0.4079 -1.1890 -0.0771
 8400SOL     OW36835   4.235   1.291   2.670 -0.9153 -0.1527 -0.1108
 8400SOL    HW136836   4.309   1.231   2.669 -0.4631  0.4253 -1.5729
 8400SOL    HW236837   4.160   1.240   2.700 -0.4028  0.4795  2.1865
 8401SOL     OW36838   3.463   2.493   2.118  0.5493 -0.2085  0.6237
 8401SOL    HW136839   3.515   2.453   2.048 -0.1527  1.5164 -0.9056
 8401SOL    HW236840   3.421   2.556   2.059  0.0952 -0.7886  0.3270
 8402SOL     OW36841   1.948   4.640  17.079  0.2448 -0.2346  0.3832
 8402SOL    HW136842   2.010   4.580  17.038 -1.4263 -1.5045 -0.2543
 8402SOL    HW236843   1.964   4.710  17.015  2.2124 -0.5108  0.5783
 8403SOL     OW36844   4.278   0.196  16.926  0.0799  0.2779 -0.3298
 8403SOL    HW136845   4.368   0.224  16.909 -0.1533  0.1980 -1.6648
 8403SOL    HW236846   4.256   0.249  17.003  1.5506  1.8850 -1.0032
 8404SOL     OW36847   3.005   1.149  12.228 -0.2974  0.3836 -0.2051
 8404SOL    HW136848   3.100   1.136  12.232 -0.1200  1.9976  0.9830
 8404SOL    HW236849   2.978   1.078  12.171 -0.8374 -0.2588  0.8553
 8405SOL     OW36850   0.020   2.167   2.368 -0.1363  0.5468  0.6844
 8405SOL    HW136851   4.720   2.226   2.434  1.4199 -1.1571  3.0467
 8405SOL    HW236852   4.711   2.086   2.390 -1.0381  0.1074 -2.7637
 8406SOL     OW36853   1.685   1.283   7.147  0.5547 -0.3987  0.2047
 8406SOL    HW136854   1.628   1.253   7.076  0.4523  1.6593 -0.5840
 8406SOL    HW236855   1.727   1.346   7.088 -1.1188 -1.2491 -1.9020
 8407SOL     OW36856   0.400   0.045   4.951  0.3508  0.3033  0.2684
 8407SOL    HW136857   0.321   0.011   4.994  0.7285 -1.4745 -0.4753
 8407SOL    HW236858   0.367   0.053   4.861 -2.4197 -1.8213  1.0870
 8408SOL     OW36859   2.537   2.157   8.249 -0.8064  0.0387  0.2911
 8408SOL    HW136860   2.520   2.175   8.157 -1.1355 -2.1604 -0.0956
 8408SOL    HW236861   2.507   2.241   8.282  0.7308  0.1693  1.3620
 8409SOL     OW36862   3.566   0.544   3.011  0.2287 -0.1467  0.1105
 8409SOL    HW136863   3.557   0.449   3.001  3.8962 -0.3834 -1.1931
 8409SOL    HW236864   3.623   0.571   2.939 -0.3640 -2.7392 -1.2985
 8410SOL     OW36865   2.885   1.477   2.029 -0.1986  0.1321 -0.6089
 8410SOL    HW136866   2.976   1.505   2.015  0.3855 -1.2290  0.4255
 8410SOL    HW236867   2.848   1.508   1.946 -0.3071  0.0881 -0.5766
 8411SOL     OW36868   1.099   3.958   0.562 -0.3768  0.0253 -0.0324
 8411SOL    HW136869   1.046   3.924   0.635  1.8892 -0.6422  1.2961
 8411SOL    HW236870   1.164   4.007   0.613  1.4665  0.0094 -2.4100
 8412SOL     OW36871   3.406   0.841   2.447  0.4550  0.5201  0.5405
 8412SOL    HW136872   3.494   0.807   2.434 -0.1912  0.5391 -3.7545
 8412SOL    HW236873   3.354   0.782   2.393  0.0892  2.6003 -1.4031
 8413SOL     OW36874   0.171   1.301  16.730 -0.1631  0.2948 -0.2866
 8413SOL    HW136875   0.137   1.309  16.819  0.5167 -1.7443  0.1396
 8413SOL    HW236876   0.266   1.305  16.735 -0.0933  0.6461 -1.8083
 8414SOL     OW36877   3.582   0.728   8.113  0.0499  0.1483 -0.3739
 8414SOL    HW136878   3.603   0.722   8.020 -2.3724  1.9144 -1.0470
 8414SOL    HW236879   3.606   0.819   8.132  1.4083 -0.7088  1.9690
 8415SOL     OW36880   0.270   2.798   9.082 -0.0578  0.0812 -0.7781
 8415SOL    HW136881   0.197   2.757   9.036  1.6155 -1.8422 -1.6915
 8415SOL    HW236882   0.319   2.721   9.110  0.6015  0.3604 -1.1600
 8416SOL     OW36883   0.445   2.674   3.429  0.3268 -0.4769 -0.0555
 8416SOL    HW136884   0.423   2.760   3.465  3.2766  0.1296  0.2927
 8416SOL    HW236885   0.507   2.645   3.496  2.3428  2.1440 -0.8222
 8417SOL     OW36886   2.304   2.992   8.208 -0.0643 -0.2498 -0.1978
 8417SOL    HW136887   2.284   2.978   8.116  0.2419  0.2090 -0.3294
 8417SOL    HW236888   2.254   2.924   8.254 -2.2822  0.6060 -1.3399
 8418SOL     OW36889   1.259   2.920   0.713  0.0513 -0.0099 -0.8284
 8418SOL    HW136890   1.310   2.926   0.794 -1.0160  0.4520 -0.1873
 8418SOL    HW236891   1.315   2.867   0.656  0.2609 -1.7056  0.9442
 8419SOL     OW36892   1.007   4.730   0.628 -0.0760 -0.4785  0.0039
 8419SOL    HW136893   1.024   0.078   0.671 -0.4354 -1.4281  2.0024
 8419SOL    HW236894   0.980   0.022   0.541  1.3025  0.2016 -0.1944
 8420SOL     OW36895   1.750   4.453  17.110  0.3481  0.1027  0.6685
 8420SOL    HW136896   1.789   4.540  17.122  1.4275  0.0729 -2.5371
 8420SOL    HW236897   1.783   4.411  17.189  0.8456 -3.3314 -1.3705
 8421SOL     OW36898   1.494   4.558  15.842 -0.3696 -0.3208  0.2834
 8421SOL    HW136899   1.500   4.653  15.833 -1.0319 -0.2690  0.4017
 8421SOL    HW236900   1.400   4.542  15.833 -0.7432  0.8939  2.0090
 8422SOL     OW36901   0.796   2.280   6.286  0.5784 -0.3606 -0.1953
 8422SOL    HW136902   0.759   2.361   6.321 -2.6157 -2.2391  0.7731
 8422SOL    HW236903   0.832   2.241   6.365 -4.1940 -0.8966  1.7243
 8423SOL     OW36904   4.618   2.062  14.098  0.0184 -0.0314  0.7732
 8423SOL    HW136905   4.525   2.053  14.077 -0.1695  2.7041  0.4065
 8423SOL    HW236906   4.657   1.978  14.071  2.1167  0.8857  0.9478
 8424SOL     OW36907   3.272   4.016   7.023  0.0126  0.0708 -0.2591
 8424SOL    HW136908   3.218   4.071   7.079 -0.8350  0.2462 -1.2797
 8424SOL    HW236909   3.341   4.080   7.004  0.2328 -0.3101 -0.7476
 8425SOL     OW36910   3.734   1.511   1.771 -0.6111  0.1053 -0.3976
 8425SOL    HW136911   3.687   1.431   1.792 -1.6982  0.9398  0.3049
 8425SOL    HW236912   3.739   1.508   1.675 -0.4778  0.9749 -0.4241
 8426SOL     OW36913   2.030   1.682  10.762  0.3381  0.0443  0.0741
 8426SOL    HW136914   1.971   1.657  10.833 -1.4917  2.0818 -0.7397
 8426SOL    HW236915   2.113   1.637  10.783 -0.5501 -1.4627  0.3806
 8427SOL     OW36916   4.162   2.096   3.475  0.0531  0.4790  0.5614
 8427SOL    HW136917   4.087   2.103   3.415  0.1038  0.3879  0.4868
 8427SOL    HW236918   4.153   2.001   3.481  1.4804  0.1922 -1.7466
 8428SOL     OW36919   4.375   1.350  10.233 -0.0275 -0.5932  0.2523
 8428SOL    HW136920   4.464   1.364  10.201 -0.5401  0.7200 -0.5692
 8428SOL    HW236921   4.326   1.431  10.222 -1.6736 -1.6616 -0.2765
 8429SOL     OW36922   0.614   1.517   7.078 -0.2155 -0.2240  0.3722
 8429SOL    HW136923   0.632   1.506   7.171 -0.5682  1.2999  0.6271
 8429SOL    HW236924   0.532   1.471   7.061  0.0220 -0.6454  0.3828
 8430SOL     OW36925   2.044   4.715  12.895  0.5728 -0.5752  0.3957
 8430SOL    HW136926   2.057   0.017  12.808  0.4232 -2.5665 -0.5035
 8430SOL    HW236927   1.974   0.031  12.934  0.5275 -0.8427  0.6690
 8431SOL     OW36928   0.907   4.199   5.533 -0.4871 -0.3471  0.5094
 8431SOL    HW136929   0.864   4.200   5.619  2.4249  1.2041  1.9343
 8431SOL    HW236930   0.938   4.109   5.522  2.5973  0.8467 -0.3702
 8432SOL     OW36931   0.849   0.781   7.229  0.1742  0.4035  0.2650
 8432SOL    HW136932   0.807   0.742   7.307 -1.9994 -1.6617 -1.9254
 8432SOL    HW236933   0.909   0.842   7.272  0.4628 -0.3573  0.9451
 8433SOL     OW36934   3.307   2.013   3.766  0.1720  0.4485 -0.1312
 8433SOL    HW136935   3.359   1.978   3.838 -2.7682 -1.0621  1.2638
 8433SOL    HW236936   3.369   2.007   3.693 -0.4025 -0.8040 -0.5169
 8434SOL     OW36937   3.628   4.077   4.292  0.2932 -0.3136 -0.5567
 8434SOL    HW136938   3.601   3.988   4.271  0.1843 -0.7341  1.3713
 8434SOL    HW236939   3.661   4.076   4.383  2.6013 -1.6188 -1.4076
 8435SOL     OW36940   0.560   0.512   2.187  0.1859 -0.7384 -0.0086
 8435SOL    HW136941   0.508   0.431   2.186  1.2631 -1.4266 -0.2631
 8435SOL    HW236942   0.536   0.553   2.104  0.8668 -2.3815 -1.0209
 8436SOL     OW36943   3.411   1.436   7.594 -0.1526 -0.1914  0.0302
 8436SOL    HW136944   3.442   1.368   7.655 -0.6919 -0.9020 -0.4849
 8436SOL    HW236945   3.379   1.503   7.653 -1.5335  0.9842 -2.0796
 8437SOL     OW36946   3.051   2.272   3.141 -0.0853 -0.1467  0.1319
 8437SOL    HW136947   3.022   2.227   3.062  2.6209 -1.4330 -0.1158
 8437SOL    HW236948   3.015   2.360   3.125 -0.2360 -0.6645 -2.3285
 8438SOL     OW36949   1.784   4.537   7.259 -0.1792  0.0930  0.3630
 8438SOL    HW136950   1.755   4.623   7.230 -1.3440 -0.0283  1.1670
 8438SOL    HW236951   1.764   4.544   7.353  0.5799 -0.5525  0.5686
 8439SOL     OW36952   2.672   1.295   7.402 -0.3866  0.2473  0.1091
 8439SOL    HW136953   2.636   1.207   7.389 -1.0139  0.2317  2.0071
 8439SOL    HW236954   2.742   1.284   7.466  0.8410  1.1612 -1.0863
 8440SOL     OW36955   0.772   3.621   6.083  0.3332 -0.4347 -0.3509
 8440SOL    HW136956   0.696   3.622   6.025 -1.6084  1.4343  2.2184
 8440SOL    HW236957   0.846   3.630   6.023 -0.4776  1.6397 -1.0745
 8441SOL     OW36958   3.749   0.862   2.376  0.0061  0.6820 -0.3554
 8441SOL    HW136959   3.832   0.876   2.331  0.0594  1.2974 -0.0630
 8441SOL    HW236960   3.743   0.766   2.382 -0.7101  0.4130 -5.0981
 8442SOL     OW36961   0.100   4.133   5.178 -0.0326 -0.2647 -0.3493
 8442SOL    HW136962   0.148   4.196   5.125 -0.1228  0.2860  0.2265
 8442SOL    HW236963   0.014   4.176   5.184  1.6483  2.7414  2.4878
 8443SOL     OW36964   2.880   0.977   4.798  0.3276 -0.3561  1.3031
 8443SOL    HW136965   2.798   1.027   4.803 -0.2713 -1.1161 -0.9953
 8443SOL    HW236966   2.913   0.988   4.887  0.0573 -0.4679  1.4171
 8444SOL     OW36967   2.844   4.574  14.298  0.0273 -0.0946 -0.2980
 8444SOL    HW136968   2.853   4.669  14.297 -2.0783  0.1252  1.8193
 8444SOL    HW236969   2.931   4.546  14.329 -0.4346 -0.0206  1.0774
 8445SOL     OW36970   2.669   0.735   2.798  0.4755 -0.3087 -0.2431
 8445SOL    HW136971   2.684   0.649   2.838 -1.7939 -0.6668 -0.1499
 8445SOL    HW236972   2.710   0.797   2.859  0.9368 -0.7834 -0.0654
 8446SOL     OW36973   4.344   2.524   0.924 -0.4044  0.6654 -0.5026
 8446SOL    HW136974   4.429   2.481   0.923  0.1135  1.7448 -3.0559
 8446SOL    HW236975   4.304   2.483   1.001  0.7384  2.5681  1.1219
 8447SOL     OW36976   0.119   3.654  14.697 -0.1798  0.4170  0.5616
 8447SOL    HW136977   0.030   3.680  14.720 -0.0602  1.6988 -0.4278
 8447SOL    HW236978   0.113   3.560  14.681  3.5424  0.0741  1.3365
 8448SOL     OW36979   2.675   0.483   2.923  0.4226 -0.0827 -0.3722
 8448SOL    HW136980   2.672   0.517   3.013 -0.8061  0.4400 -0.6078
 8448SOL    HW236981   2.581   0.482   2.902  0.6117  1.4951 -1.3250
 8449SOL     OW36982   1.761   0.087   9.596  0.2985  0.4729 -0.0660
 8449SOL    HW136983   1.806   0.158   9.643  0.9887 -1.3204  1.9912
 8449SOL    HW236984   1.701   0.055   9.663  1.6020 -4.0082 -1.0458
 8450SOL     OW36985   1.857   4.627  11.405  0.5289 -0.2463 -0.4775
 8450SOL    HW136986   1.879   4.642  11.313  3.6657 -0.2572  0.2815
 8450SOL    HW236987   1.798   4.552  11.401 -1.8234  1.5619 -0.4545
 8451SOL     OW36988   1.728   2.280   0.442 -0.7956  0.2797 -0.3848
 8451SOL    HW136989   1.640   2.245   0.428 -0.2709 -1.4405  0.5846
 8451SOL    HW236990   1.781   2.200   0.442 -0.0406  0.7842 -0.2631
 8452SOL     OW36991   4.032   3.593  16.684 -0.2082 -0.1419  0.8643
 8452SOL    HW136992   4.020   3.632  16.770 -1.7508  3.1715 -0.8298
 8452SOL    HW236993   4.101   3.531  16.708  2.2708  2.1326 -0.3666
 8453SOL     OW36994   1.354   0.543  13.490  0.7002 -0.7891  0.0293
 8453SOL    HW136995   1.414   0.605  13.449 -1.3946  0.7951 -0.6776
 8453SOL    HW236996   1.381   0.453  13.472  0.7537 -0.5177 -1.2557
 8454SOL     OW36997   4.003   3.989   3.758 -0.0617  0.3548  0.0496
 8454SOL    HW136998   4.040   3.986   3.847 -0.5553  1.7262  0.2973
 8454SOL    HW236999   4.022   4.080   3.735 -1.5659  0.1045 -2.1085
 8455SOL     OW37000   4.428   1.797   3.610 -0.3449  0.3771 -0.1493
 8455SOL    HW137001   4.349   1.743   3.603 -0.1477 -0.1314  1.4698
 8455SOL    HW237002   4.387   1.883   3.624  1.4725  1.2684 -0.3553
 8456SOL     OW37003   0.835   0.154  13.907 -0.0353  0.3420 -0.0940
 8456SOL    HW137004   0.761   0.203  13.872  0.6022  1.7737  0.5666
 8456SOL    HW237005   0.789   0.075  13.936  0.9163 -0.5089 -0.8980
 8457SOL     OW37006   1.830   2.292   9.061 -0.0024 -0.2135  0.2350
 8457SOL    HW137007   1.769   2.318   8.993 -1.8479 -2.0915  1.1913
 8457SOL    HW237008   1.894   2.246   9.006  0.4451  0.6383  0.0400
 8458SOL     OW37009   1.282   1.524   4.035  0.0339 -0.9234 -0.0978
 8458SOL    HW137010   1.318   1.526   4.124  0.1484  0.3957 -0.1787
 8458SOL    HW237011   1.313   1.608   4.003 -0.0015 -0.5068  0.9458
 8459SOL     OW37012   3.534   0.106   3.262  0.0027 -0.2761 -0.4639
 8459SOL    HW137013   3.471   0.116   3.333  1.4252  1.6728  0.5110
 8459SOL    HW237014   3.539   0.010   3.260 -0.8054 -0.4180  4.6115
 8460SOL     OW37015   2.933   1.952  15.512  0.3882  0.0085  0.0279
 8460SOL    HW137016   2.904   1.928  15.424  0.8080  1.4671 -0.5071
 8460SOL    HW237017   3.028   1.944  15.497  0.5240 -1.1765  1.4717
 8461SOL     OW37018   4.339   1.015   2.459  0.2832  0.2824 -0.2140
 8461SOL    HW137019   4.352   1.039   2.551  0.0435  1.0100 -0.3654
 8461SOL    HW237020   4.403   0.946   2.443  0.1453 -0.2423  1.4836
 8462SOL     OW37021   0.759   2.823  15.914  0.2405  0.4199 -0.5181
 8462SOL    HW137022   0.710   2.813  15.996 -1.5452 -1.8331 -1.8873
 8462SOL    HW237023   0.782   2.916  15.927  0.4773 -0.2035  3.5747
 8463SOL     OW37024   0.659   0.184   8.404 -0.2638 -0.3409  0.1011
 8463SOL    HW137025   0.745   0.161   8.368 -0.8581  0.2626 -1.7318
 8463SOL    HW237026   0.627   0.244   8.337  1.6358  1.4675  0.8401
 8464SOL     OW37027   0.303   0.544   6.443 -0.0861 -0.3512  0.3395
 8464SOL    HW137028   0.250   0.624   6.452  0.8165  0.2638  0.2584
 8464SOL    HW237029   0.329   0.523   6.533 -1.4377  0.9107  1.0397
 8465SOL     OW37030   2.581   3.961   3.024 -0.2900 -0.0384 -0.0923
 8465SOL    HW137031   2.508   4.004   3.070 -0.4538  0.7761 -1.1126
 8465SOL    HW237032   2.561   3.868   3.028 -0.3545 -0.0431 -0.5016
 8466SOL     OW37033   0.580   3.981   2.693 -0.3697  0.6124  0.1990
 8466SOL    HW137034   0.555   4.032   2.616 -1.1223  0.2566  0.2081
 8466SOL    HW237035   0.661   3.953   2.650  0.5293  0.3575  2.0853
 8467SOL     OW37036   2.202   0.182   5.159  0.3415 -0.6932  0.1261
 8467SOL    HW137037   2.234   0.128   5.232  0.2329 -1.9209 -0.7326
 8467SOL    HW237038   2.113   0.149   5.157 -0.2373  0.9137 -0.6097
 8468SOL     OW37039   4.532   2.626   5.076  0.0717 -0.1452  0.5042
 8468SOL    HW137040   4.559   2.714   5.102 -0.3315 -0.2503  1.2791
 8468SOL    HW237041   4.496   2.632   4.988  0.5080 -1.9976  0.2014
 8469SOL     OW37042   2.582   4.352   9.405 -0.0881 -0.3890 -0.1599
 8469SOL    HW137043   2.668   4.358   9.447  1.1143 -2.0420 -2.3783
 8469SOL    HW237044   2.603   4.302   9.326 -0.7323 -0.7173 -0.1275
 8470SOL     OW37045   1.886   1.262   8.003  0.2682 -0.0729  0.2638
 8470SOL    HW137046   1.932   1.313   8.069 -0.8369 -0.3829  1.2586
 8470SOL    HW237047   1.829   1.329   7.966  0.0608 -0.2293  0.3003
 8471SOL     OW37048   4.307   4.511   5.939  0.7804 -0.3928 -0.1072
 8471SOL    HW137049   4.325   4.428   5.983 -1.7361 -0.4908  0.7142
 8471SOL    HW237050   4.372   4.574   5.973 -0.6858  1.0525  0.0110
 8472SOL     OW37051   3.792   0.418   7.181 -0.8369  0.3998 -0.0716
 8472SOL    HW137052   3.739   0.357   7.130  0.0560  1.4731 -2.2376
 8472SOL    HW237053   3.815   0.359   7.254  1.5489  0.3589 -0.8640
 8473SOL     OW37054   3.862   1.734   8.440 -0.8689  0.1570  0.1721
 8473SOL    HW137055   3.803   1.752   8.367 -0.9327 -2.6470 -0.4568
 8473SOL    HW237056   3.929   1.679   8.400 -0.2683  0.3778  0.8796
 8474SOL     OW37057   0.021   4.664   4.849  0.2392 -0.0490  0.5182
 8474SOL    HW137058   4.667   4.684   4.822  0.0794 -1.6095 -0.0992
 8474SOL    HW237059   0.027   4.573   4.822 -2.1375 -0.7273  2.3303
 8475SOL     OW37060   2.381   1.622   7.906  0.0658 -0.1308  0.0569
 8475SOL    HW137061   2.322   1.591   7.976  0.3379  0.0306  0.3589
 8475SOL    HW237062   2.454   1.566   7.933  0.9356  0.5547 -0.9178
 8476SOL     OW37063   1.050   1.528  10.326 -0.1444  0.3621  0.4987
 8476SOL    HW137064   0.966   1.529  10.280 -0.2302  0.6358  0.6652
 8476SOL    HW237065   1.031   1.444  10.369  1.5121 -0.1706  0.2213
 8477SOL     OW37066   3.012   0.980   6.435 -0.8732 -0.3522 -0.1520
 8477SOL    HW137067   3.057   0.896   6.425  0.2899  0.4041 -1.1425
 8477SOL    HW237068   3.100   1.018   6.441 -0.4387 -1.1501 -1.6411
 8478SOL     OW37069   0.524   3.530   6.234 -0.1314 -0.2236  0.1899
 8478SOL    HW137070   0.585   3.590   6.191  1.6632  0.1244  3.2560
 8478SOL    HW237071   0.440   3.544   6.191 -0.7837  0.9675  1.8651
 8479SOL     OW37072   4.461   0.671   2.581  0.0917 -0.0345 -0.0891
 8479SOL    HW137073   4.411   0.597   2.617  1.6356 -0.5199  1.0203
 8479SOL    HW237074   4.488   0.720   2.658 -1.1702 -0.3228  0.5470
 8480SOL     OW37075   1.339   0.667  10.172  0.3097  0.9726 -0.1505
 8480SOL    HW137076   1.351   0.626  10.086  0.4584  1.8752 -0.5584
 8480SOL    HW237077   1.402   0.610  10.215 -0.3997 -1.8509 -2.8476
 8481SOL     OW37078   4.143   3.885  10.220 -0.0449 -0.2305  0.2032
 8481SOL    HW137079   4.130   3.852  10.308  0.2575  1.6639  0.9609
 8481SOL    HW237080   4.128   3.978  10.235  0.1194  0.0224 -1.1121
 8482SOL     OW37081   1.134   2.222   2.831  0.4260 -0.5284 -0.4306
 8482SOL    HW137082   1.092   2.258   2.753  2.0031  2.0976 -0.0583
 8482SOL    HW237083   1.067   2.156   2.848  1.0538 -1.0346  0.1168
 8483SOL     OW37084   0.097   2.245   8.606 -0.3297 -0.2028 -0.0996
 8483SOL    HW137085   0.029   2.179   8.604 -0.6613  0.1106  0.8821
 8483SOL    HW237086   0.135   2.225   8.692  1.0952  0.5071 -0.5560
 8484SOL     OW37087   4.126   2.248  12.668  0.2099  0.9218 -0.0962
 8484SOL    HW137088   4.205   2.290  12.700  1.9051  0.5316 -3.7238
 8484SOL    HW237089   4.147   2.191  12.594  1.8394 -0.2636  1.2780
 8485SOL     OW37090   4.634   1.018   8.481 -0.0327 -0.0449 -0.0419
 8485SOL    HW137091   4.627   0.923   8.489  0.7458 -0.2280 -1.3136
 8485SOL    HW237092   4.729   1.016   8.493 -0.0581  2.6698  0.5920
 8486SOL     OW37093   0.269   4.353   2.837 -0.0073 -0.5883 -0.5949
 8486SOL    HW137094   0.233   4.272   2.872  1.1512 -0.7317  0.2680
 8486SOL    HW237095   0.243   4.353   2.745  1.7124 -2.3216 -1.0673
 8487SOL     OW37096   3.186   4.707   6.428 -0.1417  0.0901  0.6769
 8487SOL    HW137097   3.110   4.711   6.369  0.1203 -0.3328  0.3032
 8487SOL    HW237098   3.144   4.679   6.509  0.4712 -2.8469 -0.0187
 8488SOL     OW37099   3.671   1.581   6.550 -0.1293  0.5280 -0.3825
 8488SOL    HW137100   3.586   1.603   6.511  0.0426 -0.2783 -1.2101
 8488SOL    HW237101   3.685   1.644   6.621 -0.7172  1.2701 -0.9301
 8489SOL     OW37102   3.567   2.269   2.968  0.3309  0.2748 -0.8850
 8489SOL    HW137103   3.521   2.342   3.008  1.4013 -0.8290  2.3439
 8489SOL    HW237104   3.505   2.247   2.898 -0.4292  0.1944 -0.1842
 8490SOL     OW37105   4.325   3.457   8.273  0.3542 -0.8498 -0.4093
 8490SOL    HW137106   4.288   3.420   8.354 -2.3900  0.4522 -1.0788
 8490SOL    HW237107   4.382   3.521   8.316 -0.1068 -0.1330 -0.8814
 8491SOL     OW37108   2.734   2.496   2.041 -0.1842 -0.3761 -0.1822
 8491SOL    HW137109   2.706   2.483   2.132  2.3057  0.9530  0.7431
 8491SOL    HW237110   2.670   2.563   2.017 -0.3134 -1.1355 -1.9886
 8492SOL     OW37111   1.079   0.645  11.550  0.0106 -0.2657  0.1508
 8492SOL    HW137112   1.090   0.709  11.620  3.0524 -1.3062  0.6074
 8492SOL    HW237113   1.069   0.565  11.602  0.1498 -1.7972 -2.1400
 8493SOL     OW37114   1.209   0.543   4.641  0.1260 -0.7870 -0.5905
 8493SOL    HW137115   1.302   0.530   4.628  0.4975 -1.2688  2.4216
 8493SOL    HW237116   1.203   0.623   4.589 -0.6395 -0.3548  0.1484
 8494SOL     OW37117   2.727   1.647  14.904  0.0740  0.4431  0.1680
 8494SOL    HW137118   2.758   1.559  14.925 -1.1935 -0.2822 -1.0008
 8494SOL    HW237119   2.789   1.684  14.840 -1.6596  2.7463 -0.1703
 8495SOL     OW37120   0.120   1.776   4.114 -0.6184 -0.2441  0.1263
 8495SOL    HW137121   0.096   1.782   4.207 -2.1914 -0.1261 -0.2868
 8495SOL    HW237122   0.182   1.849   4.111 -0.5152 -0.3907 -1.1787
 8496SOL     OW37123   4.212   3.727   5.723  0.0818 -0.7354 -0.1831
 8496SOL    HW137124   4.259   3.760   5.646 -0.3333 -0.0018 -0.1196
 8496SOL    HW237125   4.171   3.646   5.692  0.0111 -0.4678 -0.7971
 8497SOL     OW37126   0.854   2.729   5.746  0.4821 -0.4932  0.5434
 8497SOL    HW137127   0.908   2.771   5.813  1.4600  0.8083 -1.0741
 8497SOL    HW237128   0.799   2.803   5.722  2.6436  1.3245  1.2580
 8498SOL     OW37129   1.330   1.434  10.565 -0.0006  0.1999  0.1268
 8498SOL    HW137130   1.360   1.423  10.475 -2.9737 -1.4743 -0.6706
 8498SOL    HW237131   1.403   1.486  10.596 -0.6205  1.4756 -0.5654
 8499SOL     OW37132   2.991   1.332   4.684  0.0988 -0.7959 -0.0718
 8499SOL    HW137133   2.942   1.290   4.614  0.4205  1.4487 -1.6236
 8499SOL    HW237134   3.054   1.396   4.652 -0.1095 -0.8486 -0.5868
 8500SOL     OW37135   0.907   0.443   6.819 -0.5856 -0.1960  0.4646
 8500SOL    HW137136   0.828   0.388   6.822 -0.7303 -0.0434 -0.6442
 8500SOL    HW237137   0.887   0.486   6.902 -0.0843 -1.4543  1.2419
 8501SOL     OW37138   2.349   3.426   8.280 -0.3736  0.1038  0.0602
 8501SOL    HW137139   2.434   3.389   8.256 -0.2256 -0.1582  0.9903
 8501SOL    HW237140   2.388   3.512   8.291 -1.3846  1.0227 -3.6176
 8502SOL     OW37141   1.823   0.566   6.878  0.2592 -0.1789 -0.6123
 8502SOL    HW137142   1.906   0.557   6.924 -0.2300  0.7392  0.4536
 8502SOL    HW237143   1.837   0.504   6.807  0.1721 -1.2621  0.3260
 8503SOL     OW37144   1.730   4.299   8.378  0.3959 -0.1034 -0.1867
 8503SOL    HW137145   1.716   4.226   8.317  1.8788  0.7427 -1.5419
 8503SOL    HW237146   1.706   4.254   8.459  0.3647  1.4886  0.6730
 8504SOL     OW37147   4.566   3.190  16.039 -0.4726  0.0287 -0.1780
 8504SOL    HW137148   4.636   3.135  16.005 -0.5182  0.2099 -0.5703
 8504SOL    HW237149   4.596   3.278  16.018 -0.5623 -0.3514 -1.9105
 8505SOL     OW37150   3.753   4.464   7.520  0.3564 -0.2396  0.3862
 8505SOL    HW137151   3.693   4.409   7.472  1.5696  0.2958 -1.7434
 8505SOL    HW237152   3.829   4.406   7.522 -0.4207 -1.2305  1.0480
 8506SOL     OW37153   0.069   3.196  14.348 -0.3690  0.1115 -0.1221
 8506SOL    HW137154   0.086   3.272  14.292 -0.0776 -0.2075 -0.4595
 8506SOL    HW237155   0.092   3.132  14.282 -0.5989 -1.3808  1.2576
 8507SOL     OW37156   0.614   0.288   3.940  0.7426  0.7508 -0.7792
 8507SOL    HW137157   0.663   0.306   3.860  0.2579 -0.4310 -1.3387
 8507SOL    HW237158   0.652   0.353   3.999 -1.5070  0.2930  1.1713
 8508SOL     OW37159   1.773   3.269   3.244  0.0722  0.0970  0.4460
 8508SOL    HW137160   1.696   3.225   3.280 -0.5607  0.4795 -0.4617
 8508SOL    HW237161   1.741   3.351   3.280  2.0714  0.0548  2.2878
 8509SOL     OW37162   0.440   0.885   0.151 -0.0326  0.5371  0.1190
 8509SOL    HW137163   0.398   0.968   0.176 -1.2122 -0.3249  0.9907
 8509SOL    HW237164   0.480   0.849   0.230  2.8480  2.2903 -0.5266
 8510SOL     OW37165   1.321   1.822   7.659  0.2967 -0.1177 -0.1855
 8510SOL    HW137166   1.315   1.910   7.620 -3.5749 -0.9221 -1.4376
 8510SOL    HW237167   1.245   1.772   7.631 -0.8524  1.7785 -0.4833
 8511SOL     OW37168   4.031   3.696  15.122  0.3987  0.1614 -0.5725
 8511SOL    HW137169   3.987   3.771  15.082  1.9774  0.6819 -1.3061
 8511SOL    HW237170   4.062   3.740  15.201  1.3844  1.1293 -1.5097
 8512SOL     OW37171   0.621   3.974   5.564 -0.3700 -0.8807 -0.5398
 8512SOL    HW137172   0.712   3.981   5.591 -0.3105 -2.4664 -0.3562
 8512SOL    HW237173   0.600   4.066   5.547  2.0604 -0.1805  0.3694
 8513SOL     OW37174   2.765   2.008   8.741  0.0865 -0.3546 -0.5285
 8513SOL    HW137175   2.788   2.051   8.823  0.6714 -3.7671  1.0910
 8513SOL    HW237176   2.821   2.067   8.689 -0.5646 -1.5592 -2.6151
 8514SOL     OW37177   2.490   3.023   8.546  0.5544  0.4157  0.6249
 8514SOL    HW137178   2.524   3.019   8.635 -0.4842 -0.1339  0.9898
 8514SOL    HW237179   2.431   3.098   8.547  1.3163  1.0261  0.0174
 8515SOL     OW37180   1.237   0.167   5.414  0.4813 -0.0485 -0.0784
 8515SOL    HW137181   1.256   0.201   5.327 -1.0354 -1.5563 -0.9872
 8515SOL    HW237182   1.167   0.104   5.398  0.8691 -0.7047  0.8164
 8516SOL     OW37183   1.143   0.125   3.158 -0.7774  0.1783  0.7715
 8516SOL    HW137184   1.136   0.070   3.236 -1.9099  0.0475  0.5866
 8516SOL    HW237185   1.154   0.205   3.208  2.2545 -0.5201  1.1810
 8517SOL     OW37186   1.693   1.643   4.483 -0.6888 -0.2083 -0.2002
 8517SOL    HW137187   1.604   1.659   4.516 -0.0713 -2.1520  2.4553
 8517SOL    HW237188   1.747   1.699   4.539 -1.1223  1.0323 -1.0579
 8518SOL     OW37189   2.563   2.811   3.310 -0.3535  0.0094 -0.2772
 8518SOL    HW137190   2.584   2.853   3.394 -1.9634 -1.9466  1.0900
 8518SOL    HW237191   2.568   2.720   3.338  0.7327 -0.7752 -2.9728
 8519SOL     OW37192   2.179   1.168   2.202  0.4052 -0.2014  0.2815
 8519SOL    HW137193   2.138   1.097   2.153  2.4424 -0.7964 -0.5824
 8519SOL    HW237194   2.205   1.222   2.128 -0.2734 -0.6348 -0.2606
 8520SOL     OW37195   0.895   3.572   4.941 -0.3965 -0.2033 -0.1981
 8520SOL    HW137196   0.961   3.504   4.956  0.1808  0.9847  2.6647
 8520SOL    HW237197   0.942   3.635   4.887 -0.1032 -1.0512 -0.9395
 8521SOL     OW37198   4.615   1.437   2.388 -0.2086 -0.0578  0.2854
 8521SOL    HW137199   4.696   1.388   2.376 -1.7796 -2.0820 -2.0323
 8521SOL    HW237200   4.605   1.436   2.483 -2.0469 -1.5189  0.0722
 8522SOL     OW37201   4.031   2.311   6.732  0.2224 -0.0430 -0.0812
 8522SOL    HW137202   4.036   2.248   6.661 -3.8587 -2.4431  1.7898
 8522SOL    HW237203   3.955   2.367   6.714  1.5373  1.8414  0.1795
 8523SOL     OW37204   4.066   4.088   7.377 -0.0012  0.1788 -0.1348
 8523SOL    HW137205   4.161   4.100   7.373  0.3259 -1.3186  2.8037
 8523SOL    HW237206   4.051   4.081   7.283  0.0224 -2.4712  0.0602
 8524SOL     OW37207   0.902   1.310   7.397  0.0675 -0.6085  0.2180
 8524SOL    HW137208   0.924   1.325   7.306  0.9381 -1.0569  0.3567
 8524SOL    HW237209   0.811   1.341   7.398  0.5386  0.7709 -0.9211
 8525SOL     OW37210   3.172   4.483   7.177  0.1664  0.3590  0.2479
 8525SOL    HW137211   3.079   4.494   7.197  0.7315  1.9841  2.0101
 8525SOL    HW237212   3.168   4.390   7.154  0.4340  0.0184  1.5874
 8526SOL     OW37213   1.073   0.453   5.447 -0.6113 -0.1768  0.3186
 8526SOL    HW137214   1.042   0.362   5.445  1.8306 -1.0134  0.7094
 8526SOL    HW237215   1.007   0.487   5.506 -0.3562 -1.6700  1.4721
 8527SOL     OW37216   1.177   0.357   7.173  0.0508  0.1484  0.1455
 8527SOL    HW137217   1.219   0.275   7.148 -0.3558 -0.2026  0.6074
 8527SOL    HW237218   1.217   0.409   7.103 -1.3308  2.4453  1.0699
 8528SOL     OW37219   3.375   3.495   1.691  0.3508  0.4351 -0.5622
 8528SOL    HW137220   3.449   3.501   1.630 -0.3821  0.0494 -1.4837
 8528SOL    HW237221   3.395   3.415   1.740  2.4465  0.7205 -0.9428
 8529SOL     OW37222   2.170   1.136   4.798 -0.3487  0.5867  0.3010
 8529SOL    HW137223   2.092   1.172   4.839 -1.6020 -1.2837 -0.4446
 8529SOL    HW237224   2.228   1.213   4.801 -0.4281  0.6529  0.1168
 8530SOL     OW37225   0.008   0.688   2.138 -0.0933 -0.8048  0.1378
 8530SOL    HW137226   0.001   0.597   2.111 -3.0339 -0.6160  0.3311
 8530SOL    HW237227   4.731   0.685   2.233  0.5475 -1.8362  0.1849
 8531SOL     OW37228   2.032   1.864  11.767 -0.5098  0.5539 -0.5241
 8531SOL    HW137229   1.992   1.893  11.685 -0.0824  0.2842 -0.8251
 8531SOL    HW237230   2.121   1.846  11.735 -0.5647  1.1876 -1.0309
 8532SOL     OW37231   1.878   4.180  10.650 -0.0654 -0.2832  0.1902
 8532SOL    HW137232   1.892   4.104  10.706 -0.7296 -1.5057 -1.3092
 8532SOL    HW237233   1.901   4.153  10.561 -2.4190 -1.5345 -0.0141
 8533SOL     OW37234   3.256   2.759   2.131  0.0960  0.1722 -0.0774
 8533SOL    HW137235   3.243   2.689   2.067  0.0662  2.0333 -2.0974
 8533SOL    HW237236   3.166   2.792   2.130  0.1641  0.3009 -1.3493
 8534SOL     OW37237   1.967   3.161   2.279 -0.3206  0.2665 -0.0896
 8534SOL    HW137238   2.052   3.191   2.246  0.2915 -1.1980  0.1561
 8534SOL    HW237239   1.993   3.150   2.370 -0.6048 -0.8865 -0.1451
 8535SOL     OW37240   0.916   3.831   1.595  0.0279  0.0694  0.2040
 8535SOL    HW137241   0.903   3.796   1.507  0.6464 -0.4359  0.3188
 8535SOL    HW237242   0.862   3.910   1.581  0.8372  1.1344  3.1384
 8536SOL     OW37243   0.146   2.058   5.870 -0.5288 -0.1081 -0.1070
 8536SOL    HW137244   0.052   2.075   5.867 -0.1498  2.1530  0.5447
 8536SOL    HW237245   0.184   2.146   5.875 -3.1374  1.0725 -1.3163
 8537SOL     OW37246   2.687   0.728   6.329 -0.1033 -0.1201  0.5746
 8537SOL    HW137247   2.713   0.718   6.237  1.4781  1.3321  0.8674
 8537SOL    HW237248   2.592   0.718   6.330  0.1648 -2.6629 -0.3418
 8538SOL     OW37249   1.749   2.736   4.483 -0.2886 -1.1596 -0.4349
 8538SOL    HW137250   1.686   2.802   4.454  0.4531 -0.5510 -0.6540
 8538SOL    HW237251   1.793   2.724   4.399  3.7826  0.2417  1.4933
 8539SOL     OW37252   2.416   4.060   1.272 -0.3353 -0.0860  0.0794
 8539SOL    HW137253   2.371   3.999   1.331  0.5726  0.3940  1.2678
 8539SOL    HW237254   2.501   4.043   1.313  0.4644  0.2673 -1.4604
 8540SOL     OW37255   1.880   3.587   1.529  0.2105  0.1386  0.3024
 8540SOL    HW137256   1.908   3.672   1.564  0.1955 -0.0591  0.8004
 8540SOL    HW237257   1.806   3.569   1.588 -0.9532  1.3216 -0.8111
 8541SOL     OW37258   0.579   1.480   1.849  0.3959  0.0229  0.3955
 8541SOL    HW137259   0.533   1.435   1.779 -0.6126  2.5464 -0.5824
 8541SOL    HW237260   0.545   1.412   1.908  0.1769 -1.9987 -2.1062
 8542SOL     OW37261   1.424   1.737   8.552  0.0010 -1.0794 -0.5238
 8542SOL    HW137262   1.407   1.646   8.528  1.9485 -1.8817  1.1670
 8542SOL    HW237263   1.357   1.780   8.499  0.0081  0.2949  0.5678
 8543SOL     OW37264   2.393   4.388   4.109 -0.0618 -0.0802 -0.3363
 8543SOL    HW137265   2.407   4.432   4.193 -3.0923 -1.6803  0.9816
 8543SOL    HW237266   2.301   4.364   4.100 -0.1668 -0.4987  1.9370
 8544SOL     OW37267   3.270   1.660   3.357  0.5859 -0.1445  0.1496
 8544SOL    HW137268   3.205   1.715   3.313  0.7697 -0.3255 -0.3418
 8544SOL    HW237269   3.315   1.625   3.280 -2.4062 -0.0720 -1.6555
 8545SOL     OW37270   4.105   0.526  10.699 -0.0474  0.1238 -0.2060
 8545SOL    HW137271   4.180   0.527  10.640 -0.1002 -1.1318 -0.2967
 8545SOL    HW237272   4.151   0.515  10.782 -1.7857  3.8573  1.2421
 8546SOL     OW37273   2.143   1.065   7.326  0.1038 -0.1149 -0.5051
 8546SOL    HW137274   2.147   1.032   7.236 -0.3980 -1.0586 -0.1814
 8546SOL    HW237275   2.152   0.991   7.386 -1.2738 -0.4229 -0.6898
 8547SOL     OW37276   0.630   0.963   9.029  0.3006  0.4188 -0.3559
 8547SOL    HW137277   0.582   0.969   8.946 -2.2022  1.0253  1.1186
 8547SOL    HW237278   0.692   0.891   9.015  0.9329  1.0111 -0.5783
 8548SOL     OW37279   4.610   2.265   4.870  0.0963  0.0733 -0.3026
 8548SOL    HW137280   4.619   2.295   4.961 -0.7238 -2.0856  0.4810
 8548SOL    HW237281   4.589   2.175   4.892  2.6624 -0.6783 -0.8829
 8549SOL     OW37282   2.038   4.699  11.196  0.5139  0.0673  0.2730
 8549SOL    HW137283   2.024   4.608  11.167 -0.0265  0.1844  0.1799
 8549SOL    HW237284   1.950   4.734  11.182  0.0617 -1.3480 -0.4903
 8550SOL     OW37285   0.776   4.241   8.514 -0.0605 -0.2329 -0.1011
 8550SOL    HW137286   0.758   4.334   8.525 -2.0346 -0.7756  1.2497
 8550SOL    HW237287   0.728   4.202   8.587 -0.4485 -1.4848 -1.0173
 8551SOL     OW37288   2.055   2.000  15.010  0.5663  0.0465  0.3799
 8551SOL    HW137289   2.096   1.914  15.007 -3.0670 -1.6738  0.7581
 8551SOL    HW237290   1.965   1.969  15.020  0.8912 -0.9979 -0.0189
 8552SOL     OW37291   1.717   3.279   4.531 -0.0945  0.3637 -0.3886
 8552SOL    HW137292   1.738   3.274   4.438 -0.5543  2.5364 -0.5910
 8552SOL    HW237293   1.624   3.263   4.519 -0.0755  1.7994 -2.3913
 8553SOL     OW37294   4.574   2.830   2.120 -0.1907 -0.0466 -0.2937
 8553SOL    HW137295   4.627   2.843   2.199  0.0719 -2.2968 -0.1133
 8553SOL    HW237296   4.623   2.886   2.060  0.6411 -1.5265 -1.0051
 8554SOL     OW37297   4.577   1.634   8.605  0.4736  0.4261 -0.1181
 8554SOL    HW137298   4.597   1.540   8.601 -0.8285  0.1041  0.9828
 8554SOL    HW237299   4.490   1.632   8.645  0.6106 -0.0205  0.1640
 8555SOL     OW37300   0.373   2.154   5.480  0.5028 -0.0905  0.3851
 8555SOL    HW137301   0.463   2.162   5.511  0.7436 -1.3353  0.0389
 8555SOL    HW237302   0.353   2.247   5.486 -0.4946 -0.4522  2.3978
 8556SOL     OW37303   0.493   2.898   7.071 -0.5436  0.0442  0.1710
 8556SOL    HW137304   0.451   2.941   7.146 -0.8699  0.6004 -0.3346
 8556SOL    HW237305   0.418   2.841   7.054  0.1630 -0.6474 -0.6276
 8557SOL     OW37306   1.836   3.380   8.360 -0.0666  0.7026 -0.0414
 8557SOL    HW137307   1.920   3.378   8.314 -1.1935 -1.5075 -2.0138
 8557SOL    HW237308   1.811   3.290   8.337  1.3609  0.6361 -1.3532
 8558SOL     OW37309   3.183   2.466   7.105  0.2719  0.3152  0.3473
 8558SOL    HW137310   3.198   2.393   7.045  0.1801 -1.2322  2.2105
 8558SOL    HW237311   3.229   2.538   7.063 -0.9802 -0.2552 -1.9872
 8559SOL     OW37312   2.368   3.048   3.118 -0.6846  0.5893 -0.2384
 8559SOL    HW137313   2.360   3.031   3.212 -2.3627  0.3104 -0.4386
 8559SOL    HW237314   2.411   3.133   3.125  2.6123 -1.0676 -0.4264
 8560SOL     OW37315   2.020   0.872  10.858 -0.3383  0.4366  0.3668
 8560SOL    HW137316   1.927   0.887  10.842 -0.2589  1.6901  1.0535
 8560SOL    HW237317   2.052   0.853  10.770  0.4253 -1.2447  1.0065
 8561SOL     OW37318   3.229   0.202  16.977 -0.6901 -0.8783  0.1286
 8561SOL    HW137319   3.168   0.217  17.049 -0.5335  0.3953 -0.0007
 8561SOL    HW237320   3.282   0.139  17.026  0.0917  1.6454  2.5399
 8562SOL     OW37321   2.228   0.537   8.016  0.0353 -0.1311 -0.3757
 8562SOL    HW137322   2.248   0.621   8.056 -0.2405 -0.1028 -0.2959
 8562SOL    HW237323   2.133   0.527   8.026 -0.0641 -0.1253 -1.3131
 8563SOL     OW37324   4.408   0.342   2.420  0.5139  0.3278 -0.0649
 8563SOL    HW137325   4.485   0.395   2.442 -0.7426  1.9976  0.2282
 8563SOL    HW237326   4.349   0.363   2.492  0.5944  1.3377 -0.2921
 8564SOL     OW37327   2.077   0.919   6.255 -0.0532 -0.1514 -0.0754
 8564SOL    HW137328   2.096   0.910   6.161 -1.1557  0.4551 -0.3544
 8564SOL    HW237329   2.002   0.861   6.263 -0.8996  1.0773  0.7863
 8565SOL     OW37330   0.862   3.530   6.853  0.1811 -0.2261  0.3515
 8565SOL    HW137331   0.791   3.591   6.836  0.0212 -0.7488 -0.8976
 8565SOL    HW237332   0.828   3.484   6.930 -1.7415 -0.6049 -0.7423
 8566SOL     OW37333   4.120   3.705   3.594  0.2047  0.1312  0.5301
 8566SOL    HW137334   4.147   3.776   3.536  2.3427  1.1027  2.7537
 8566SOL    HW237335   4.077   3.735   3.674 -0.1338 -0.0139  0.4013
 8567SOL     OW37336   1.333   3.149   8.999 -0.2113  0.5499  0.0595
 8567SOL    HW137337   1.343   3.055   8.987  1.1620  0.5052  1.6275
 8567SOL    HW237338   1.422   3.173   9.026  0.0330  0.5806 -0.7671
 8568SOL     OW37339   3.665   2.516   3.903  0.3407 -0.4680 -0.0440
 8568SOL    HW137340   3.584   2.469   3.882 -0.3744  0.8584 -0.2421
 8568SOL    HW237341   3.617   2.592   3.935 -0.8032 -0.0660 -2.6735
 8569SOL     OW37342   2.770   2.725   5.801 -0.6319  0.0578 -0.5143
 8569SOL    HW137343   2.851   2.749   5.846  0.8508 -1.0252 -2.5804
 8569SOL    HW237344   2.715   2.691   5.872 -1.6048 -0.0339 -1.3110
 8570SOL     OW37345   0.956   4.198   3.865  0.1291  0.0250 -0.3983
 8570SOL    HW137346   0.914   4.149   3.794  0.5485  1.1541 -1.4373
 8570SOL    HW237347   0.878   4.204   3.920  2.0031 -2.0718  2.4954
 8571SOL     OW37348   4.538   3.280  17.510 -0.2971  0.5089  0.3466
 8571SOL    HW137349   4.495   3.354  17.553  0.5046  1.0031  0.2922
 8571SOL    HW237350   4.632   3.286  17.527 -0.2286  3.9783 -1.2489
 8572SOL     OW37351   1.104   4.378   8.500 -0.3499  0.0808  0.2707
 8572SOL    HW137352   1.072   4.406   8.586 -0.1721 -1.9096  0.9839
 8572SOL    HW237353   1.182   4.326   8.521 -1.0986 -1.5423 -0.9835
 8573SOL     OW37354   1.307   4.150   2.661  0.5595 -0.4184 -0.1784
 8573SOL    HW137355   1.370   4.185   2.599 -0.4829 -0.0695 -1.0434
 8573SOL    HW237356   1.241   4.219   2.667 -0.8881 -1.7644 -0.6964
 8574SOL     OW37357   0.454   4.702   3.300  0.3921 -0.8786  0.2883
 8574SOL    HW137358   0.415   4.626   3.256 -0.2664 -0.8553  0.8178
 8574SOL    HW237359   0.449   0.042   3.242 -0.5045  0.0193  1.5166
 8575SOL     OW37360   1.034   4.455   8.760  0.2399 -0.6969  0.0923
 8575SOL    HW137361   0.969   4.525   8.751  1.9642  0.5744 -2.5665
 8575SOL    HW237362   1.095   4.518   8.798  1.4976  0.7124 -4.1885
 8576SOL     OW37363   1.148   0.154  15.796  0.4291 -0.2433 -0.8271
 8576SOL    HW137364   1.057   0.126  15.810  0.1186 -1.2636 -4.7940
 8576SOL    HW237365   1.146   0.248  15.815 -2.9637 -0.0216 -2.1734
 8577SOL     OW37366   1.566   1.997   2.437  0.0628 -0.0900 -0.1217
 8577SOL    HW137367   1.603   2.067   2.491 -1.8777 -0.1281  1.2806
 8577SOL    HW237368   1.478   1.988   2.473  0.3728 -1.8501  0.2108
 8578SOL     OW37369   0.577   2.452   1.007  0.0028 -0.6720  0.0771
 8578SOL    HW137370   0.603   2.535   0.968  1.1710 -1.3670 -0.6223
 8578SOL    HW237371   0.664   2.429   1.041 -0.0502  0.2257  0.8222
 8579SOL     OW37372   1.583   2.734   8.873 -0.3923 -0.6040 -0.3042
 8579SOL    HW137373   1.550   2.650   8.841 -2.0144  0.2442 -0.8481
 8579SOL    HW237374   1.671   2.713   8.905 -0.4144 -1.5535 -0.8625
 8580SOL     OW37375   4.251   3.386   8.570 -0.0075  0.4565 -0.5324
 8580SOL    HW137376   4.161   3.397   8.539 -0.6104  2.9704  2.1214
 8580SOL    HW237377   4.271   3.298   8.602  1.9299  1.3334  0.6603
 8581SOL     OW37378   4.635   1.352   4.320 -0.4774  0.3385  0.3964
 8581SOL    HW137379   4.626   1.270   4.272  1.7672  0.6949 -0.6285
 8581SOL    HW237380   4.619   1.418   4.253  2.6512  2.5628  1.8231
 8582SOL     OW37381   2.378   0.329   9.341 -0.3268  0.4023 -0.2078
 8582SOL    HW137382   2.289   0.306   9.369 -0.7624  2.2858 -0.0909
 8582SOL    HW237383   2.413   0.253   9.295 -0.6606  0.1867 -0.1046
 8583SOL     OW37384   2.859   0.303  13.818  0.8398  0.3985 -0.4345
 8583SOL    HW137385   2.784   0.359  13.834 -0.1126 -1.7059  2.4300
 8583SOL    HW237386   2.840   0.219  13.860  0.2135  0.8049  0.0927
 8584SOL     OW37387   1.349   4.562  15.485  0.2808  0.7084  0.0760
 8584SOL    HW137388   1.269   4.509  15.484  0.0913  0.9748  1.0359
 8584SOL    HW237389   1.320   4.648  15.512 -3.1158 -0.0444 -1.2605
 8585SOL     OW37390   2.346   4.419  16.487 -0.3200  0.0178  0.7058
 8585SOL    HW137391   2.361   4.330  16.455 -0.6993  0.4799 -0.7896
 8585SOL    HW237392   2.263   4.441  16.444  0.0425  2.1960  1.1421
 8586SOL     OW37393   3.585   1.193   5.038 -0.7759  0.4848 -0.4224
 8586SOL    HW137394   3.512   1.202   4.977 -0.8070  0.7281 -0.3518
 8586SOL    HW237395   3.626   1.112   5.009 -1.1118  0.1753 -0.0191
 8587SOL     OW37396   0.738   0.312   5.832  0.1179  0.3977 -0.3561
 8587SOL    HW137397   0.672   0.372   5.797  1.9872  3.8745  2.1201
 8587SOL    HW237398   0.767   0.267   5.753  1.5696  0.3536  0.1914
 8588SOL     OW37399   0.476   0.083   8.573 -0.3849  0.2011  0.6671
 8588SOL    HW137400   0.535   0.105   8.501 -0.7712  0.5761  0.4687
 8588SOL    HW237401   0.515   0.138   8.641  2.8850  1.1360 -1.9351
 8589SOL     OW37402   3.394   3.201   6.757 -0.6380 -0.8314 -0.0810
 8589SOL    HW137403   3.406   3.203   6.852 -0.8856  0.5292 -0.0732
 8589SOL    HW237404   3.303   3.170   6.755 -0.1494 -2.3040  0.8365
 8590SOL     OW37405   4.069   3.073  17.705 -0.1978 -0.0629  0.2105
 8590SOL    HW137406   4.145   3.119  17.670 -0.7067 -0.3381 -1.2264
 8590SOL    HW237407   4.106   2.988  17.730 -1.1423 -1.4540 -3.1088
 8591SOL     OW37408   0.534   0.708  14.921  0.0592 -0.4639  0.5141
 8591SOL    HW137409   0.561   0.799  14.927 -0.8893 -0.3184  2.4361
 8591SOL    HW237410   0.617   0.672  14.952  0.6015  2.7642  2.7441
 8592SOL     OW37411   1.845   2.933   2.983 -0.3255  0.0546 -0.0876
 8592SOL    HW137412   1.902   2.867   2.944  0.1163  0.5909 -0.3593
 8592SOL    HW237413   1.831   2.899   3.071  0.1238  0.7482  0.2517
 8593SOL     OW37414   3.146   2.099  12.381  0.5435 -0.0985  0.1497
 8593SOL    HW137415   3.130   2.159  12.308  3.0283  2.3118  1.5909
 8593SOL    HW237416   3.231   2.128  12.414  0.0103  0.7783  0.7507
 8594SOL     OW37417   1.844   0.828   1.004 -0.4074 -0.3243 -0.3762
 8594SOL    HW137418   1.835   0.744   1.048 -2.4361  0.5942  0.9665
 8594SOL    HW237419   1.919   0.871   1.045  0.6695 -0.3266 -2.3221
 8595SOL     OW37420   2.394   0.733   4.376  0.7480 -0.2711  0.2835
 8595SOL    HW137421   2.330   0.666   4.352  0.5071 -0.6187  1.8833
 8595SOL    HW237422   2.461   0.671   4.405  0.9780 -0.8126 -1.4664
 8596SOL     OW37423   4.041   1.752   4.715 -0.2134 -0.3014 -0.0033
 8596SOL    HW137424   3.991   1.700   4.778 -0.1344 -0.6245 -0.2021
 8596SOL    HW237425   4.033   1.697   4.637 -2.3365  2.0130 -1.4236
 8597SOL     OW37426   2.220   1.815   5.067 -0.0657  0.5959 -0.4714
 8597SOL    HW137427   2.126   1.819   5.051 -0.3063  2.5218  1.5017
 8597SOL    HW237428   2.246   1.887   5.124  0.3237  1.2324 -1.4636
 8598SOL     OW37429   2.754   1.570   7.399  0.2898  0.2174  0.3395
 8598SOL    HW137430   2.848   1.553   7.406  0.3727  0.9619  1.1259
 8598SOL    HW237431   2.726   1.500   7.340 -0.1233 -0.1318  0.9467
 8599SOL     OW37432   1.133   3.063  15.083  0.0300  0.3485  0.2883
 8599SOL    HW137433   1.044   3.092  15.103  0.4197  1.9832 -0.3552
 8599SOL    HW237434   1.120   3.008  15.006 -0.4813 -0.9995  1.3390
 8600SOL     OW37435   0.975   1.769   4.921 -0.0566  0.2136 -0.3323
 8600SOL    HW137436   0.932   1.775   4.835 -0.4737 -3.0209 -0.3563
 8600SOL    HW237437   0.955   1.679   4.948 -2.8446  1.4856  1.7885
 8601SOL     OW37438   1.085   3.359   6.011 -0.7125 -0.0878 -0.0880
 8601SOL    HW137439   1.093   3.399   6.097 -2.6556  2.0970 -0.9217
 8601SOL    HW237440   1.115   3.432   5.957  2.9850 -1.1060  0.5661
 8602SOL     OW37441   3.373   2.231   8.765 -0.1535  0.1115 -0.1119
 8602SOL    HW137442   3.283   2.257   8.788 -1.3784 -1.7227 -2.7886
 8602SOL    HW237443   3.358   2.200   8.676 -1.6051 -1.8985  0.8139
 8603SOL     OW37444   0.597   2.897  15.559 -0.2179  0.3201 -0.0316
 8603SOL    HW137445   0.630   2.975  15.602 -1.1426  1.5229 -1.5236
 8603SOL    HW237446   0.568   2.931  15.475  0.1704 -0.1299 -0.3528
 8604SOL     OW37447   4.458   1.014   6.053 -0.1047 -0.2165 -0.0160
 8604SOL    HW137448   4.550   0.987   6.053 -0.1243 -0.2806 -0.2816
 8604SOL    HW237449   4.441   1.006   6.147 -2.3597 -0.0367 -0.4134
 8605SOL     OW37450   4.232   3.556   3.953 -0.2379  0.0871 -0.6919
 8605SOL    HW137451   4.272   3.475   3.985  0.6419  0.8763  0.2278
 8605SOL    HW237452   4.220   3.602   4.036  0.6064  0.2663 -0.6677
 8606SOL     OW37453   2.081   0.853   7.503  0.2896  0.5345  0.0046
 8606SOL    HW137454   2.109   0.763   7.520 -0.3826  0.3502  0.1320
 8606SOL    HW237455   2.103   0.896   7.585  0.3608 -2.3205  1.4720
 8607SOL     OW37456   1.265   3.577   4.813  0.1945  0.7146  0.8417
 8607SOL    HW137457   1.190   3.628   4.845  0.3281 -0.9134  3.8039
 8607SOL    HW237458   1.222   3.492   4.800  2.0595 -0.1728  0.5066
 8608SOL     OW37459   0.943   2.433  17.251  0.2698  0.1990  0.4159
 8608SOL    HW137460   0.951   2.524  17.281 -0.0358  0.4284 -0.2063
 8608SOL    HW237461   0.955   2.396  17.339 -0.2436 -1.1056 -0.0765
 8609SOL     OW37462   4.184   3.629   1.143  0.0320 -0.6001 -0.2913
 8609SOL    HW137463   4.223   3.564   1.085  0.2358 -1.8727  1.2784
 8609SOL    HW237464   4.105   3.639   1.090 -0.6522 -0.8373  0.6936
 8610SOL     OW37465   1.303   2.523   5.694 -0.3916 -0.2777  0.8931
 8610SOL    HW137466   1.328   2.615   5.705  1.6900 -0.5744 -1.4127
 8610SOL    HW237467   1.303   2.494   5.785  2.1482 -0.6007  0.7957
 8611SOL     OW37468   2.199   4.023  10.211 -0.4152  0.1420 -0.2168
 8611SOL    HW137469   2.289   3.995  10.200 -0.4758 -0.5105  0.9842
 8611SOL    HW237470   2.181   4.078  10.135 -0.5320 -1.1703 -1.1215
 8612SOL     OW37471   2.371   1.279  10.859 -0.1953 -0.3373 -0.4232
 8612SOL    HW137472   2.314   1.220  10.810 -0.6147 -0.7613  0.5707
 8612SOL    HW237473   2.457   1.238  10.855  0.6286  1.4502 -0.5967
 8613SOL     OW37474   0.608   0.043  17.512 -1.3094 -0.1165  0.2021
 8613SOL    HW137475   0.632   0.043  17.605 -1.8701  2.1968  0.3426
 8613SOL    HW237476   0.641   0.129  17.485 -0.2684 -0.3769  0.6359
 8614SOL     OW37477   2.162   3.935   7.618  0.5643 -0.0787  0.1917
 8614SOL    HW137478   2.227   3.891   7.563 -0.5445 -2.0734  0.4604
 8614SOL    HW237479   2.106   3.857   7.628 -1.7125  1.9902  3.6231
 8615SOL     OW37480   1.604   0.312  16.994 -0.1464  0.5624 -0.2342
 8615SOL    HW137481   1.689   0.312  16.949 -0.1633 -3.9230 -0.2208
 8615SOL    HW237482   1.584   0.405  16.983  0.5735  0.6179 -1.0610
 8616SOL     OW37483   4.010   3.140   0.232  0.3231  0.1919 -0.0678
 8616SOL    HW137484   3.930   3.095   0.260  0.3204  0.2947  0.0877
 8616SOL    HW237485   4.035   3.101   0.148 -2.0829 -0.6748 -0.3793
 8617SOL     OW37486   4.479   2.900   3.720 -0.0230  0.2601 -0.2984
 8617SOL    HW137487   4.438   2.986   3.712  1.5681  0.7916 -2.8826
 8617SOL    HW237488   4.526   2.899   3.803 -0.8888  0.8909  0.1904
 8618SOL     OW37489   3.604   1.125   6.089  0.4053  0.3989 -0.0972
 8618SOL    HW137490   3.654   1.082   6.020 -0.8363  0.7271 -1.2048
 8618SOL    HW237491   3.599   1.215   6.059  1.0884 -0.6986 -3.5184
 8619SOL     OW37492   0.630   1.128   7.409  0.2884 -0.6513 -0.2581
 8619SOL    HW137493   0.686   1.071   7.463  1.3859 -1.3393 -2.1387
 8619SOL    HW237494   0.574   1.183   7.464  1.0611 -1.2109  1.1045
 8620SOL     OW37495   3.753   0.432   5.297 -0.3418  0.6116 -0.1464
 8620SOL    HW137496   3.664   0.416   5.330 -0.7859  0.9906 -1.1694
 8620SOL    HW237497   3.799   0.351   5.321  1.4597  1.7825  0.2611
 8621SOL     OW37498   3.693   2.621   1.813  0.3874 -0.1496  0.1850
 8621SOL    HW137499   3.660   2.534   1.835  1.7412 -0.4175  1.1437
 8621SOL    HW237500   3.767   2.640   1.870  2.5872 -1.1192 -2.3581
 8622SOL     OW37501   3.076   3.207   2.223  0.7711  0.1919 -0.1283
 8622SOL    HW137502   3.163   3.216   2.260  0.5254 -0.0558  0.5110
 8622SOL    HW237503   3.046   3.290   2.260 -0.5063 -0.0530 -0.6124
 8623SOL     OW37504   2.031   0.840   4.199 -0.3722  1.0426  0.2769
 8623SOL    HW137505   2.094   0.891   4.250 -0.7069  0.8644  0.8663
 8623SOL    HW237506   2.062   0.852   4.109  0.2634 -1.0299  0.2207
 8624SOL     OW37507   1.172   0.583   8.758  0.1613  0.1083 -0.2416
 8624SOL    HW137508   1.084   0.577   8.722  1.2647  0.3366 -2.9682
 8624SOL    HW237509   1.160   0.500   8.804 -1.2638  0.3125 -0.2539
 8625SOL     OW37510   3.154   3.962  15.331 -0.1047 -0.2368  0.2116
 8625SOL    HW137511   3.153   3.997  15.420 -0.5273 -2.3762  1.0477
 8625SOL    HW237512   3.165   4.045  15.285  1.7240 -1.1238 -0.9401
 8626SOL     OW37513   3.413   3.930   2.092 -0.3185  0.2884 -0.1406
 8626SOL    HW137514   3.450   4.015   2.114 -3.0527  1.8255 -1.4174
 8626SOL    HW237515   3.482   3.896   2.037  1.2106  0.1392  1.8683
 8627SOL     OW37516   1.348   1.470   8.874 -0.5501  0.0602 -0.7463
 8627SOL    HW137517   1.366   1.382   8.904 -0.4161  0.5274  0.5423
 8627SOL    HW237518   1.407   1.463   8.799 -0.0410  2.0544 -0.5279
 8628SOL     OW37519   2.845   4.235   2.249  0.3535  0.3680 -0.6720
 8628SOL    HW137520   2.807   4.294   2.185 -2.1304  0.2113  0.6614
 8628SOL    HW237521   2.910   4.291   2.292  0.0154  1.2479 -1.3417
 8629SOL     OW37522   1.500   2.013   1.869 -0.6908  0.1764  0.3957
 8629SOL    HW137523   1.582   2.034   1.826 -1.2196 -0.6717 -1.0402
 8629SOL    HW237524   1.494   1.917   1.864  1.9481 -0.0170  1.2057
 8630SOL     OW37525   0.564   1.158   5.965 -0.4144 -0.0200  0.1172
 8630SOL    HW137526   0.530   1.102   5.895 -2.2573  0.5625  0.5432
 8630SOL    HW237527   0.492   1.164   6.027 -1.4571  0.0105 -1.0938
 8631SOL     OW37528   2.689   3.373   9.615 -0.4387  0.1338 -0.1330
 8631SOL    HW137529   2.703   3.442   9.549 -0.1630 -2.0585 -2.3789
 8631SOL    HW237530   2.607   3.334   9.586  0.4099 -1.9160  0.2121
 8632SOL     OW37531   0.525   1.816   8.390 -0.2929  0.1034  0.5302
 8632SOL    HW137532   0.568   1.732   8.408 -0.1149 -0.3950 -2.1905
 8632SOL    HW237533   0.589   1.870   8.343  0.2441 -0.8651  0.1277
 8633SOL     OW37534   2.840   3.693   4.508 -0.1591 -0.0184  0.4429
 8633SOL    HW137535   2.916   3.645   4.474  0.2762 -0.1098  1.5505
 8633SOL    HW237536   2.770   3.628   4.504  0.9633 -1.2805  1.3894
 8634SOL     OW37537   3.067   0.122   8.697  0.5203 -0.0872 -0.0558
 8634SOL    HW137538   3.010   0.129   8.773 -1.4935 -0.5290 -1.5286
 8634SOL    HW237539   3.013   0.146   8.622  2.2129  0.0088 -1.2514
 8635SOL     OW37540   0.327   1.634  12.716  0.2845 -0.0091  0.0060
 8635SOL    HW137541   0.412   1.604  12.683 -0.5534 -0.4665 -1.7213
 8635SOL    HW237542   0.346   1.665  12.805 -0.4826  0.3913  0.0273
 8636SOL     OW37543   2.634   1.610  16.585 -0.6474  0.0462 -0.6377
 8636SOL    HW137544   2.590   1.580  16.665 -0.3131 -1.4617 -1.0185
 8636SOL    HW237545   2.659   1.523  16.555 -1.1989 -0.8404  1.4816
 8637SOL     OW37546   0.867   4.099   1.004  0.0882  0.1878 -0.0585
 8637SOL    HW137547   0.786   4.107   1.055  1.6892  0.5630  2.4119
 8637SOL    HW237548   0.825   4.064   0.926 -0.2907  0.1425  0.1625
 8638SOL     OW37549   0.286   2.122   5.191  0.2782 -0.3854 -0.0708
 8638SOL    HW137550   0.358   2.172   5.152  0.7126 -2.0758 -1.4914
 8638SOL    HW237551   0.307   2.096   5.280 -1.1452 -0.6509  0.1798
 8639SOL     OW37552   3.559   2.392   8.671  0.2354  0.1673 -0.2802
 8639SOL    HW137553   3.502   2.326   8.712  1.1724  0.3297  1.2766
 8639SOL    HW237554   3.498   2.461   8.647 -1.9460 -1.4923  0.4466
 8640SOL     OW37555   0.577   1.138   5.439  0.0545  0.3630 -0.1301
 8640SOL    HW137556   0.527   1.115   5.361  0.8870  0.0121 -0.5646
 8640SOL    HW237557   0.664   1.150   5.400 -0.2485  0.0050 -0.9187
 8641SOL     OW37558   2.885   4.114   4.434 -0.3410  0.0938  0.0164
 8641SOL    HW137559   2.819   4.046   4.420  2.9249 -2.7194 -1.8137
 8641SOL    HW237560   2.954   4.064   4.389  0.5802  2.2416 -0.9783
 8642SOL     OW37561   3.928   0.112   6.943  0.3252  0.0409 -0.5949
 8642SOL    HW137562   3.939   0.054   6.868  0.6897 -0.7240  0.0580
 8642SOL    HW237563   3.832   0.115   6.950  0.4338 -3.2327  1.9342
 8643SOL     OW37564   3.127   2.925   4.546  0.5164  0.3469 -0.7260
 8643SOL    HW137565   3.091   2.907   4.459  2.3997 -1.4549 -1.1267
 8643SOL    HW237566   3.208   2.874   4.541  0.1708 -0.3253  0.4564
 8644SOL     OW37567   1.969   0.844   6.803 -0.1759  0.2113  0.3159
 8644SOL    HW137568   1.895   0.834   6.744  0.9395  1.5898 -1.3531
 8644SOL    HW237569   1.955   0.772   6.864  0.9547  0.0062  0.3327
 8645SOL     OW37570   3.919   1.516  11.733  0.1790 -0.0427 -0.9183
 8645SOL    HW137571   3.914   1.598  11.782  1.1953 -1.1745  1.1187
 8645SOL    HW237572   4.010   1.487  11.728 -0.4053 -2.0269 -0.4033
 8646SOL     OW37573   1.141   0.891   3.218  0.4454 -0.7210 -0.2869
 8646SOL    HW137574   1.133   0.837   3.297 -0.3086  0.1242  0.2159
 8646SOL    HW237575   1.214   0.949   3.242  0.6723 -1.2430  0.2733
 8647SOL     OW37576   1.937   1.238   6.554 -0.0743 -0.5701 -0.5746
 8647SOL    HW137577   1.999   1.166   6.551 -1.2361 -1.4621 -3.0466
 8647SOL    HW237578   1.883   1.214   6.479 -0.5765  1.5887 -0.9116
 8648SOL     OW37579   4.594   1.662   4.264 -0.2649 -0.1441 -0.2892
 8648SOL    HW137580   4.585   1.732   4.199  0.9779 -0.9679 -1.3632
 8648SOL    HW237581   4.505   1.631   4.275 -0.6525  1.5085  1.2497
 8649SOL     OW37582   3.254   2.913   0.090  0.0600 -0.2311 -0.0998
 8649SOL    HW137583   3.165   2.946   0.078 -0.4755 -1.0347  1.7868
 8649SOL    HW237584   3.255   2.842   0.025 -3.2133 -1.0301  0.7135
 8650SOL     OW37585   0.123   0.579   5.900 -0.4777 -0.0384  0.0354
 8650SOL    HW137586   0.137   0.484   5.906 -1.3843  0.0276  3.0037
 8650SOL    HW237587   0.060   0.598   5.970 -2.2914 -2.2254 -1.0155
 8651SOL     OW37588   0.060   3.036   4.265  0.0930  0.1702  0.0624
 8651SOL    HW137589   0.060   2.947   4.230 -0.9360  0.5771 -0.9835
 8651SOL    HW237590   0.113   3.073   4.195  2.0880 -1.9273  0.4526
 8652SOL     OW37591   3.153   1.754   4.953  0.1615 -0.2299  0.5169
 8652SOL    HW137592   3.154   1.669   4.997 -0.1623  0.8284  2.5711
 8652SOL    HW237593   3.063   1.758   4.922 -1.0969  1.3977  4.3402
 8653SOL     OW37594   0.123   1.782   2.483 -0.0426 -0.4207 -0.0643
 8653SOL    HW137595   0.192   1.719   2.461 -0.3994 -0.6154 -0.6405
 8653SOL    HW237596   0.067   1.781   2.406 -1.2562 -1.3999  0.8217
 8654SOL     OW37597   3.685   0.143   4.575  0.1001  0.1906 -0.1054
 8654SOL    HW137598   3.695   0.064   4.629  0.6158 -0.1447 -0.6946
 8654SOL    HW237599   3.648   0.208   4.635 -3.3823 -0.1665 -1.8349
 8655SOL     OW37600   0.125   4.514   4.490 -0.3408  0.1514 -0.3398
 8655SOL    HW137601   0.101   4.487   4.579 -3.1456 -0.5801 -1.3251
 8655SOL    HW237602   0.142   4.608   4.502  0.1053  0.4768 -3.4820
 8656SOL     OW37603   3.020   0.288  13.492 -0.3485  0.3364 -0.3936
 8656SOL    HW137604   2.967   0.280  13.412 -0.9174  1.5557 -0.1395
 8656SOL    HW237605   3.033   0.382  13.483 -1.7494  0.5292 -0.3545
 8657SOL     OW37606   3.898   4.585  14.553 -0.4037  0.4110  0.5447
 8657SOL    HW137607   3.833   4.643  14.592 -1.9983 -1.1163  0.1555
 8657SOL    HW237608   3.939   4.545  14.630 -1.7887 -2.0165  0.0371
 8658SOL     OW37609   0.353   2.203   3.390  0.5091  0.7004  0.1990
 8658SOL    HW137610   0.379   2.111   3.393  3.8838  1.6738  0.5982
 8658SOL    HW237611   0.284   2.193   3.324 -0.1894  0.1077  1.0169
 8659SOL     OW37612   3.378   4.131   3.678 -0.0150 -0.3837  0.3916
 8659SOL    HW137613   3.390   4.144   3.772  3.2284 -1.0809  0.0970
 8659SOL    HW237614   3.354   4.216   3.641 -1.7931 -1.2242 -0.3575
 8660SOL     OW37615   4.386   1.056   2.751  0.8475 -0.2252 -0.6297
 8660SOL    HW137616   4.418   0.969   2.774  0.0638  0.3763  2.7710
 8660SOL    HW237617   4.325   1.064   2.825  0.0462 -0.1728 -1.2915
 8661SOL     OW37618   2.051   3.380   8.599  0.5073 -0.3935 -0.2512
 8661SOL    HW137619   2.104   3.326   8.542  0.2968 -0.2881 -0.5454
 8661SOL    HW237620   1.977   3.324   8.622 -1.1881  0.9457 -2.4921
 8662SOL     OW37621   2.404   2.362  14.682 -0.0947  0.7884 -0.0827
 8662SOL    HW137622   2.313   2.386  14.700 -1.4782 -4.4054 -0.1059
 8662SOL    HW237623   2.449   2.415  14.747 -0.2714  1.2222 -0.3166
 8663SOL     OW37624   0.303   2.563   9.199  0.1481 -0.1083 -0.2707
 8663SOL    HW137625   0.245   2.569   9.275  2.0515 -0.3889  1.2249
 8663SOL    HW237626   0.373   2.509   9.236 -0.8315 -0.3022  1.2904
 8664SOL     OW37627   3.562   3.452   3.067  0.3016  0.5582  0.0167
 8664SOL    HW137628   3.628   3.384   3.079  1.6908  1.7939 -0.5376
 8664SOL    HW237629   3.529   3.425   2.982 -1.0189  1.1719  0.3429
 8665SOL     OW37630   0.129   1.428   2.139 -0.9449  0.2987 -0.2317
 8665SOL    HW137631   0.219   1.458   2.140 -0.4682 -1.1439 -0.1585
 8665SOL    HW237632   0.116   1.384   2.223 -1.2312  3.3195  1.2734
 8666SOL     OW37633   0.886   0.614   2.194  0.0049 -0.2410 -0.1819
 8666SOL    HW137634   0.867   0.640   2.104 -0.0183 -0.7904 -0.3325
 8666SOL    HW237635   0.799   0.604   2.232 -0.6098 -1.2636 -1.8958
 8667SOL     OW37636   2.619   3.183   4.311  0.4263 -0.8526 -0.0245
 8667SOL    HW137637   2.677   3.203   4.385  0.3290 -1.8398  0.3149
 8667SOL    HW237638   2.644   3.091   4.305 -0.0988 -0.9275 -0.8695
 8668SOL     OW37639   1.549   4.213   7.182  0.0985  0.0289  0.1575
 8668SOL    HW137640   1.560   4.201   7.276  1.4829  1.3322  0.1685
 8668SOL    HW237641   1.473   4.271   7.182  0.2291  0.2002  0.3290
 8669SOL     OW37642   1.057   4.155   6.985  0.3233  0.0669  0.0175
 8669SOL    HW137643   1.149   4.179   6.977  0.4452 -0.7088 -0.9531
 8669SOL    HW237644   1.047   4.102   7.064 -1.7420  1.0171  0.3969
 8670SOL     OW37645   2.868   3.395   3.787  0.0320  0.6706 -0.6255
 8670SOL    HW137646   2.780   3.388   3.750 -0.4480  4.0474 -0.0571
 8670SOL    HW237647   2.884   3.488   3.772  2.5266  0.5857  1.4585
 8671SOL     OW37648   3.467   4.455  14.557  0.2358 -0.0922  0.2596
 8671SOL    HW137649   3.477   4.497  14.642  3.8549 -0.2732 -0.0549
 8671SOL    HW237650   3.405   4.396  14.599 -1.1223  1.3312  0.2502
 8672SOL     OW37651   2.683   4.272   1.039 -0.0403  0.1193 -0.4864
 8672SOL    HW137652   2.611   4.331   1.062  0.3694  0.3479  0.2245
 8672SOL    HW237653   2.753   4.333   1.014  0.3362 -0.2977 -0.4475
 8673SOL     OW37654   4.551   2.001   3.926  0.8532  0.2309  0.4229
 8673SOL    HW137655   4.466   2.036   3.898  1.3885  0.5165 -0.8409
 8673SOL    HW237656   4.613   2.057   3.880 -1.7319  2.3853 -0.4752
 8674SOL     OW37657   4.065   2.388  17.449 -0.1661 -0.3082 -0.7267
 8674SOL    HW137658   3.983   2.339  17.451  0.5089 -1.5319 -2.4831
 8674SOL    HW237659   4.093   2.411  17.537 -0.8785 -0.9615 -0.3303
 8675SOL     OW37660   0.406   3.075   5.524  0.3457  0.0930  0.1818
 8675SOL    HW137661   0.329   3.122   5.555  0.8728  2.3952 -2.0643
 8675SOL    HW237662   0.436   3.140   5.460  0.2035  0.1736  0.1973
 8676SOL     OW37663   2.793   3.286  12.043  0.4595 -0.3814  0.1930
 8676SOL    HW137664   2.757   3.350  12.105  1.4905 -0.6182  1.0452
 8676SOL    HW237665   2.841   3.223  12.097  2.7845  0.9844 -0.2473
 8677SOL     OW37666   0.667   1.573   7.857  0.5660 -0.1711  0.7501
 8677SOL    HW137667   0.714   1.620   7.788  1.3361  0.9057  2.0044
 8677SOL    HW237668   0.666   1.636   7.929  1.2755 -1.2005  1.6595
 8678SOL     OW37669   3.218   2.756   2.698  0.6775  0.9331 -0.3512
 8678SOL    HW137670   3.257   2.797   2.775  0.6083  1.2321 -0.4754
 8678SOL    HW237671   3.231   2.667   2.728  0.9933  1.0143 -0.2562
 8679SOL     OW37672   1.723   4.142   7.001 -0.1878 -0.1480  0.3977
 8679SOL    HW137673   1.699   4.206   6.934 -0.7545  0.3821  1.1238
 8679SOL    HW237674   1.667   4.170   7.073  0.2573 -0.7969  0.9939
 8680SOL     OW37675   0.343   2.218   0.759  0.7161 -0.0998  0.6230
 8680SOL    HW137676   0.336   2.217   0.664  1.6115  4.2645  0.5036
 8680SOL    HW237677   0.251   2.226   0.783  0.4545  2.4648 -1.2562
 8681SOL     OW37678   0.606   2.741   1.168  0.0361  0.1508  0.2187
 8681SOL    HW137679   0.534   2.780   1.218  1.2149 -0.3728  2.3083
 8681SOL    HW237680   0.677   2.718   1.228 -0.0110 -1.5288 -0.3718
 8682SOL     OW37681   0.733   1.965   5.066  0.1412  0.4669  0.4029
 8682SOL    HW137682   0.826   1.989   5.064  0.4367 -0.6788 -0.0587
 8682SOL    HW237683   0.695   2.046   5.098 -1.9045  0.0049 -0.8752
 8683SOL     OW37684   1.663   1.117   3.653  0.4517  0.1606 -0.2000
 8683SOL    HW137685   1.726   1.046   3.648  0.6815  0.4608 -1.3839
 8683SOL    HW237686   1.607   1.091   3.727 -0.9013  2.0754 -0.5425
 8684SOL     OW37687   0.005   3.447  17.109  0.5106  0.0626  0.0553
 8684SOL    HW137688   4.699   3.402  17.035  1.3486  0.8685 -0.9087
 8684SOL    HW237689   0.071   3.379  17.127 -0.9173 -1.4534 -0.4281
 8685SOL     OW37690   0.013   1.182   1.825 -0.0163 -0.3849  0.0527
 8685SOL    HW137691   4.665   1.140   1.806 -0.0547  0.1571 -1.0167
 8685SOL    HW237692   4.721   1.211   1.912 -0.5380  0.3122 -0.3377
 8686SOL     OW37693   1.800   0.788   1.845 -0.1899 -0.3417 -0.3004
 8686SOL    HW137694   1.784   0.793   1.751  3.2656 -1.3230 -0.9437
 8686SOL    HW237695   1.856   0.711   1.847  0.9007  0.4328 -1.8296
 8687SOL     OW37696   0.084   0.295   2.565  0.0165 -0.0981  0.1135
 8687SOL    HW137697   0.005   0.246   2.587 -1.2934  1.1744 -1.7669
 8687SOL    HW237698   0.148   0.253   2.623  1.0061 -1.0683 -1.6621
 8688SOL     OW37699   4.199   0.560   9.088  0.8131  0.2983  0.1460
 8688SOL    HW137700   4.184   0.574   9.181 -0.0876 -0.1766  0.0726
 8688SOL    HW237701   4.112   0.543   9.051  0.6054  1.4390  0.1089
 8689SOL     OW37702   0.506   3.984   6.877 -0.2051 -0.1720 -0.6446
 8689SOL    HW137703   0.493   3.903   6.827 -1.6550 -0.3251 -0.0207
 8689SOL    HW237704   0.513   3.957   6.968  0.4576 -1.2773 -1.0163
 8690SOL     OW37705   4.531   1.392   4.738  0.2033  0.1278 -0.7518
 8690SOL    HW137706   4.588   1.417   4.810 -0.7462  1.8154 -0.5757
 8690SOL    HW237707   4.462   1.343   4.783  1.3119  0.5730  1.4311
 8691SOL     OW37708   1.434   3.555   3.163  0.4897  0.2814  0.3280
 8691SOL    HW137709   1.497   3.618   3.199  0.8129  0.3470 -0.3560
 8691SOL    HW237710   1.492   3.501   3.109 -0.9432 -1.5324  0.6064
 8692SOL     OW37711   0.026   3.929  15.010  0.4461 -0.0997  0.4251
 8692SOL    HW137712   4.712   3.884  14.942 -0.2555 -0.2373  1.0222
 8692SOL    HW237713   0.075   3.850  15.032  0.5952  0.2963  1.5413
 8693SOL     OW37714   1.668   2.536   8.637 -0.0874  0.7864 -0.2521
 8693SOL    HW137715   1.696   2.484   8.562 -0.7790 -3.9227  2.7679
 8693SOL    HW237716   1.668   2.621   8.593  4.0457  0.8475 -0.1344
 8694SOL     OW37717   0.924   1.117   6.510 -0.4386  0.4581  0.3474
 8694SOL    HW137718   1.002   1.099   6.562  0.8016  0.2791 -1.5593
 8694SOL    HW237719   0.852   1.093   6.567 -0.8272  1.9012  0.4790
 8695SOL     OW37720   1.162   0.489   7.984 -0.1893 -0.4135 -0.2740
 8695SOL    HW137721   1.188   0.419   7.924 -0.0387 -1.1002  0.5913
 8695SOL    HW237722   1.091   0.535   7.939 -1.3359 -0.2790  1.7166
 8696SOL     OW37723   1.718   4.376  11.327  0.4819 -0.2151 -0.4646
 8696SOL    HW137724   1.758   4.309  11.381 -2.4442 -1.4990  0.0871
 8696SOL    HW237725   1.641   4.338  11.286 -1.2156  0.3968  2.2110
 8697SOL     OW37726   2.366   3.189  17.494  0.4077 -0.5556 -0.0337
 8697SOL    HW137727   2.451   3.212  17.532 -1.3197  0.4068  3.2531
 8697SOL    HW237728   2.378   3.212  17.402 -0.2228 -0.7038 -0.1522
 8698SOL     OW37729   2.664   1.882   3.627  0.2335 -0.1152 -0.0931
 8698SOL    HW137730   2.599   1.937   3.583  0.3085 -1.2856 -1.6642
 8698SOL    HW237731   2.667   1.920   3.715  0.0093 -0.2488 -0.0273
 8699SOL     OW37732   3.886   2.185  14.064  0.0440 -0.1165 -0.0459
 8699SOL    HW137733   3.807   2.238  14.053 -1.2114 -1.6322  1.6524
 8699SOL    HW237734   3.935   2.220  14.138 -1.0757 -0.3605  0.8088
 8700SOL     OW37735   1.594   1.215   2.372  0.3073  0.6596  0.1680
 8700SOL    HW137736   1.499   1.229   2.378  0.4475  1.9996 -0.8915
 8700SOL    HW237737   1.597   1.121   2.355  0.5939  0.7412 -0.2278
 8701SOL     OW37738   4.358   4.154   8.104 -0.5972  0.1236  0.3291
 8701SOL    HW137739   4.343   4.227   8.164 -0.4339 -0.4666  1.0926
 8701SOL    HW237740   4.452   4.140   8.112 -0.7393 -0.5195  0.8589
 8702SOL     OW37741   0.771   0.331   9.348 -0.5091 -0.0210  0.0870
 8702SOL    HW137742   0.866   0.319   9.344 -0.4921 -0.0972  0.6219
 8702SOL    HW237743   0.734   0.270   9.285  1.0081  0.0910 -0.9111
 8703SOL     OW37744   2.763   3.225   3.275  0.1256  0.5858 -0.5474
 8703SOL    HW137745   2.843   3.181   3.245 -0.1459  0.6924 -1.4250
 8703SOL    HW237746   2.789   3.241   3.365  1.0187  0.7084 -0.8224
 8704SOL     OW37747   3.687   3.152   8.755  0.0212 -0.0403 -0.3564
 8704SOL    HW137748   3.781   3.163   8.763  0.1063  1.6763 -3.6894
 8704SOL    HW237749   3.651   3.240   8.762 -1.1025 -0.3497 -2.0833
 8705SOL     OW37750   2.525   0.977   3.381 -0.2314  0.4476  0.0420
 8705SOL    HW137751   2.503   1.069   3.372 -1.2444  0.3388  1.2627
 8705SOL    HW237752   2.491   0.975   3.471 -2.4833  2.7002 -0.7671
 8706SOL     OW37753   0.524   2.981  15.305  0.1806  0.0331 -0.1666
 8706SOL    HW137754   0.550   2.958  15.216  1.8991 -0.7225  0.5315
 8706SOL    HW237755   0.489   3.068  15.284 -0.2136 -0.1870 -0.4270
 8707SOL     OW37756   3.122   2.484  11.117  0.1895  0.1276 -0.0763
 8707SOL    HW137757   3.174   2.449  11.045  2.2788 -0.2302  1.6042
 8707SOL    HW237758   3.121   2.417  11.185 -2.9717  1.4444  1.1494
 8708SOL     OW37759   2.843   4.170   8.950  0.0597 -0.9413  1.0738
 8708SOL    HW137760   2.906   4.208   9.012  1.5808 -1.4503 -0.1604
 8708SOL    HW237761   2.841   4.238   8.883 -2.3279 -2.3395 -0.2407
 8709SOL     OW37762   0.801   2.049  14.865  0.1695 -0.5673  0.0082
 8709SOL    HW137763   0.733   2.115  14.878  1.7627  0.7374  1.7340
 8709SOL    HW237764   0.874   2.102  14.897 -0.9240  1.3185 -0.6333
 8710SOL     OW37765   1.454   3.495   5.653  0.3324  0.2631 -0.2052
 8710SOL    HW137766   1.497   3.413   5.677  1.5015  1.3094  1.2426
 8710SOL    HW237767   1.518   3.545   5.604  2.3387 -0.7608  1.3645
 8711SOL     OW37768   4.415   3.788   3.375 -0.2497  0.6202 -0.0975
 8711SOL    HW137769   4.462   3.719   3.423 -0.3634  1.3577  1.0641
 8711SOL    HW237770   4.472   3.815   3.304 -0.2396 -1.7122 -0.9783
 8712SOL     OW37771   2.180   0.010  11.426  0.0069 -0.0886 -0.2485
 8712SOL    HW137772   2.127   4.719  11.351 -0.0179 -1.3776  0.2256
 8712SOL    HW237773   2.154   4.674  11.484 -0.1068  0.1689  0.0181
 8713SOL     OW37774   3.453   1.875   9.351  0.0552 -0.0079  0.2915
 8713SOL    HW137775   3.429   1.812   9.418 -3.5810  0.7291 -0.3065
 8713SOL    HW237776   3.462   1.822   9.271 -1.1749 -0.0536  0.1886
 8714SOL     OW37777   3.370   3.268   1.837 -0.2343  0.3289 -0.0799
 8714SOL    HW137778   3.399   3.193   1.787 -0.9293  0.0940 -0.1339
 8714SOL    HW237779   3.312   3.230   1.903 -0.3609 -0.2025 -0.5025
 8715SOL     OW37780   4.707   1.813   3.597  0.2224 -0.0670  0.2499
 8715SOL    HW137781   4.614   1.834   3.594 -0.2115 -1.7559  1.8006
 8715SOL    HW237782   4.714   1.786   3.506  0.6369  1.2529 -0.1124
 8716SOL     OW37783   2.853   1.996   5.808 -0.1669  0.2918  0.1626
 8716SOL    HW137784   2.828   2.002   5.716  0.8587  1.6789 -0.0211
 8716SOL    HW237785   2.941   2.032   5.800  0.6683 -1.5827  0.9417
 8717SOL     OW37786   0.841   1.250   5.093 -0.6455  0.4452  0.2141
 8717SOL    HW137787   0.900   1.297   5.151 -1.2055  0.3228  0.8898
 8717SOL    HW237788   0.782   1.323   5.073 -0.1751  0.8757  0.4259
 8718SOL     OW37789   0.834   3.078  15.948 -0.0704  0.4171  0.2001
 8718SOL    HW137790   0.895   3.105  15.879  1.2514 -1.7970  0.5016
 8718SOL    HW237791   0.848   3.146  16.013  2.0664  1.2666 -1.1210
 8719SOL     OW37792   1.859   4.317  10.889  0.0225  0.5294 -0.2177
 8719SOL    HW137793   1.850   4.307  10.794 -0.4340  3.3815 -0.4886
 8719SOL    HW237794   1.810   4.236  10.905 -0.8513  1.2784  0.9528
 8720SOL     OW37795   0.675   2.818  16.980  0.2186  0.2454  0.2309
 8720SOL    HW137796   0.690   2.884  17.047 -1.6519 -0.6648  1.5315
 8720SOL    HW237797   0.672   2.876  16.903  0.9305 -0.2269 -0.1558
 8721SOL     OW37798   0.666   4.584   9.163 -0.1500 -0.1162 -0.4155
 8721SOL    HW137799   0.679   4.507   9.107  1.2360 -0.6439  0.6503
 8721SOL    HW237800   0.732   4.570   9.230  0.1884  1.1774 -0.4708
 8722SOL     OW37801   2.142   3.051   8.782  0.3390 -0.2334  0.1544
 8722SOL    HW137802   2.083   2.979   8.806 -1.7644  1.2180 -0.5803
 8722SOL    HW237803   2.222   3.006   8.806 -0.0184 -0.9861 -0.0734
 8723SOL     OW37804   3.867   4.314  15.407  0.3277  0.0261 -0.2020
 8723SOL    HW137805   3.842   4.223  15.423  0.0587  0.2839  0.8805
 8723SOL    HW237806   3.961   4.308  15.425 -0.2023 -1.1997  2.1715
 8724SOL     OW37807   0.782   4.587   8.427 -0.5609 -0.0277 -0.0778
 8724SOL    HW137808   0.697   4.584   8.472 -1.1242  0.5550 -1.1008
 8724SOL    HW237809   0.741   4.597   8.341 -0.2642  1.7994 -0.0219
 8725SOL     OW37810   1.392   2.430   8.527  0.4274 -0.3874  0.7065
 8725SOL    HW137811   1.386   2.508   8.581 -0.4960 -0.6909  1.0511
 8725SOL    HW237812   1.483   2.432   8.499 -0.7799  0.2830 -3.1637
 8726SOL     OW37813   4.097   4.156  15.609 -0.1248  0.3651 -0.9477
 8726SOL    HW137814   4.143   4.072  15.601 -0.0480  0.1641  1.7047
 8726SOL    HW237815   4.110   4.196  15.523 -1.0706  1.9004 -0.3651
 8727SOL     OW37816   3.425   3.969   6.109  0.0687  0.4110 -0.5383
 8727SOL    HW137817   3.433   3.879   6.140 -0.4694  0.0805 -1.3629
 8727SOL    HW237818   3.417   4.016   6.193  0.0980 -2.6375  1.1741
 8728SOL     OW37819   2.745   0.531   9.665  0.4729 -0.3369 -0.5928
 8728SOL    HW137820   2.720   0.508   9.754 -1.2236 -0.9306 -1.2100
 8728SOL    HW237821   2.717   0.458   9.609  1.7171 -0.3221 -1.2372
 8729SOL     OW37822   3.473   1.657   5.229  0.1606 -0.0835  0.3081
 8729SOL    HW137823   3.528   1.613   5.293  1.3179  1.7336  0.5632
 8729SOL    HW237824   3.403   1.592   5.217  0.7531 -0.3507 -1.7846
 8730SOL     OW37825   2.349   3.897   8.009 -0.0218  1.1922 -0.1135
 8730SOL    HW137826   2.322   3.966   8.070 -0.5900 -1.6843  2.9046
 8730SOL    HW237827   2.270   3.883   7.956  0.6897 -2.1713 -0.2844
 8731SOL     OW37828   0.452   4.218  10.954 -0.5389 -0.0973  0.0977
 8731SOL    HW137829   0.438   4.130  10.987 -0.8256 -0.4695 -1.0206
 8731SOL    HW237830   0.365   4.249  10.979 -2.0752 -3.3216 -1.2651
 8732SOL     OW37831   0.447   0.065   9.551  0.0502 -0.2722 -0.1051
 8732SOL    HW137832   0.402   4.735   9.497  4.3503 -1.3470 -2.4288
 8732SOL    HW237833   0.399   0.143   9.526  0.9028  0.0825 -0.6239
 8733SOL     OW37834   1.160   2.366  14.961  0.3310 -0.3444 -0.8756
 8733SOL    HW137835   1.235   2.425  14.975 -1.3203  0.9820  2.2929
 8733SOL    HW237836   1.093   2.433  14.972  0.0495 -0.6516 -0.7286
 8734SOL     OW37837   2.196   0.191   0.612  0.2761 -0.2636  0.3653
 8734SOL    HW137838   2.202   0.267   0.669  0.8059  0.6927 -0.9459
 8734SOL    HW237839   2.278   0.183   0.562 -1.3929 -1.1726 -2.2773
 8735SOL     OW37840   2.241   3.357  12.877 -0.2039 -0.4048 -0.5671
 8735SOL    HW137841   2.289   3.384  12.956 -1.3906  0.2578 -0.0786
 8735SOL    HW237842   2.226   3.264  12.894 -0.2335 -0.2907  0.0248
 8736SOL     OW37843   3.927   1.470   3.083 -0.0720 -0.3674 -0.0822
 8736SOL    HW137844   3.882   1.459   2.999 -0.7077  0.4054  0.1537
 8736SOL    HW237845   3.941   1.565   3.090 -2.2324  0.0273 -0.8993
 8737SOL     OW37846   0.295   0.104  13.270 -0.2725  0.8165  0.1901
 8737SOL    HW137847   0.363   0.072  13.329 -1.5126 -0.4975  0.8976
 8737SOL    HW237848   0.344   0.111  13.187  0.7231 -0.3328  0.6734
 8738SOL     OW37849   2.983   2.924  10.586 -0.0219 -0.2594 -0.2640
 8738SOL    HW137850   3.025   2.867  10.650 -2.2448 -0.1397  1.2796
 8738SOL    HW237851   3.036   3.002  10.597  1.8524 -1.1844 -2.6552
 8739SOL     OW37852   0.608   0.283   2.853  1.0875 -0.2300  0.4358
 8739SOL    HW137853   0.626   0.377   2.853  0.7453 -0.1645  0.8145
 8739SOL    HW237854   0.655   0.261   2.772  0.2742 -0.1857 -0.0551
 8740SOL     OW37855   3.150   0.551   2.020  0.4441  0.1436  0.1674
 8740SOL    HW137856   3.087   0.622   2.012 -1.2321 -1.5484 -1.7033
 8740SOL    HW237857   3.169   0.541   2.113 -2.0392 -1.4726  0.5090
 8741SOL     OW37858   1.076   4.701   9.084 -0.5612 -0.4982 -0.4271
 8741SOL    HW137859   1.159   4.718   9.128 -0.5381  1.4721 -1.2393
 8741SOL    HW237860   1.057   4.609   9.106 -1.0580  0.3028  2.4371
 8742SOL     OW37861   0.223   3.743   2.987  0.4451  0.3548 -0.6655
 8742SOL    HW137862   0.157   3.749   2.918 -1.5223  1.2235  1.2857
 8742SOL    HW237863   0.304   3.735   2.936 -0.6463  0.9997 -2.4850
 8743SOL     OW37864   1.709   3.505   3.001 -0.1374 -0.0838  0.1676
 8743SOL    HW137865   1.776   3.438   3.011 -1.8499 -1.8154  0.1228
 8743SOL    HW237866   1.764   3.575   3.035  1.4098 -0.9425 -0.5615
 8744SOL     OW37867   1.233   2.310   0.099 -0.0530 -0.0146 -0.1552
 8744SOL    HW137868   1.165   2.361   0.054 -1.4943 -0.7184  1.2145
 8744SOL    HW237869   1.265   2.370   0.166  1.8815  1.2731 -2.2063
 8745SOL     OW37870   1.698   3.443  11.440 -0.4091 -0.1167  0.0656
 8745SOL    HW137871   1.627   3.458  11.503 -0.0264 -1.5374  0.8166
 8745SOL    HW237872   1.668   3.480  11.356 -0.5500 -0.3591  0.0100
 8746SOL     OW37873   2.870   2.837  16.076  0.3594  0.0007  0.5919
 8746SOL    HW137874   2.777   2.831  16.099  0.5242 -0.3623  1.1673
 8746SOL    HW237875   2.886   2.751  16.037 -0.3565  0.4271 -0.6333
 8747SOL     OW37876   0.937   3.437  17.095 -0.0591 -0.3388 -0.3088
 8747SOL    HW137877   0.996   3.380  17.046 -0.0464 -0.9356  0.4005
 8747SOL    HW237878   0.984   3.467  17.173 -1.5678 -0.9442  0.8277
 8748SOL     OW37879   1.234   0.966  11.263 -0.1772  0.6791 -0.3078
 8748SOL    HW137880   1.236   1.008  11.348  2.9034 -0.4410  0.1807
 8748SOL    HW237881   1.285   1.024  11.207 -0.8405 -0.1982 -1.8142
 8749SOL     OW37882   1.926   3.640   2.227  0.2983  0.2943  0.0938
 8749SOL    HW137883   2.008   3.614   2.269 -0.1557  1.4327  1.6696
 8749SOL    HW237884   1.929   3.588   2.147  0.9835  1.5509 -0.6913
 8750SOL     OW37885   1.329   0.810   4.513 -0.0264  0.1235  0.0496
 8750SOL    HW137886   1.326   0.837   4.605 -2.1473 -0.6244  0.1873
 8750SOL    HW237887   1.422   0.826   4.495 -0.6290  1.8112 -1.4937
 8751SOL     OW37888   2.426   4.241   4.492  0.3515  0.1218 -0.7228
 8751SOL    HW137889   2.440   4.260   4.585 -1.2391  1.6921 -0.8066
 8751SOL    HW237890   2.407   4.327   4.456 -1.0097 -0.2283 -0.8226
 8752SOL     OW37891   1.569   3.968   2.145 -0.3041  0.0990  0.1956
 8752SOL    HW137892   1.634   3.949   2.212 -1.0044  0.0931  0.8627
 8752SOL    HW237893   1.518   4.037   2.187 -1.9415 -2.1091  1.8202
 8753SOL     OW37894   3.747   1.740   1.926 -0.0573 -0.0720 -0.2851
 8753SOL    HW137895   3.825   1.725   1.980 -1.1228 -1.4683  0.8614
 8753SOL    HW237896   3.742   1.655   1.883 -2.4162 -1.2251  2.2764
 8754SOL     OW37897   4.265   4.071   9.198  0.1699  0.4704  0.4780
 8754SOL    HW137898   4.297   3.985   9.170  1.4764  1.0951  0.0280
 8754SOL    HW237899   4.342   4.124   9.178 -0.3798  1.3157  0.5972
 8755SOL     OW37900   0.296   0.509  16.833  0.1145 -0.3671  0.0336
 8755SOL    HW137901   0.239   0.483  16.906 -0.3131  0.0348 -0.1558
 8755SOL    HW237902   0.235   0.517  16.760  1.5274 -2.2872 -1.3684
 8756SOL     OW37903   3.631   1.665   1.264 -0.0682 -0.3387 -0.2241
 8756SOL    HW137904   3.571   1.733   1.234  0.4856  0.5819  0.7613
 8756SOL    HW237905   3.617   1.597   1.198  0.5270 -1.7487  1.0857
 8757SOL     OW37906   2.653   3.053  11.151  0.2349 -0.9732  0.0545
 8757SOL    HW137907   2.583   3.094  11.100  1.0833  0.7412  0.2477
 8757SOL    HW237908   2.654   3.111  11.228  2.2366 -1.9642  0.7895
 8758SOL     OW37909   2.052   1.285  12.730  0.2211 -0.0814 -0.3608
 8758SOL    HW137910   2.064   1.310  12.822 -0.8378 -0.2170 -0.1828
 8758SOL    HW237911   1.994   1.210  12.746  0.7491 -0.1555  1.2289
 8759SOL     OW37912   1.202   3.910   6.850 -0.4088  0.2574  0.6816
 8759SOL    HW137913   1.209   3.822   6.887  1.6903  1.5617  3.3552
 8759SOL    HW237914   1.278   3.953   6.888  0.4334 -0.3445 -0.3082
 8760SOL     OW37915   0.867   3.108  13.086  0.1855 -0.1757  0.2993
 8760SOL    HW137916   0.784   3.083  13.126  0.9774  0.3070  2.2777
 8760SOL    HW237917   0.917   3.147  13.158 -0.0841 -0.1821  0.4886
 8761SOL     OW37918   2.360   2.799   7.242 -0.7068  0.8182  0.6093
 8761SOL    HW137919   2.329   2.728   7.187 -3.7496  2.2163  0.5519
 8761SOL    HW237920   2.428   2.747   7.286 -1.1684 -2.1512 -2.2133
 8762SOL     OW37921   4.179   0.964  10.588  0.2750  0.4730 -0.5390
 8762SOL    HW137922   4.209   0.918  10.666 -0.5531  1.0240  0.1037
 8762SOL    HW237923   4.092   0.928  10.575 -0.1806  0.8235  1.4500
 8763SOL     OW37924   2.072   2.529   4.575 -0.4186 -0.4324  0.0890
 8763SOL    HW137925   1.982   2.510   4.549 -0.7931 -0.2068  1.1975
 8763SOL    HW237926   2.047   2.601   4.634 -1.5759  0.9230 -2.0613
 8764SOL     OW37927   4.115   1.406   2.244  0.1966  0.4391  0.0651
 8764SOL    HW137928   4.075   1.406   2.156  3.6606 -2.6444 -1.4753
 8764SOL    HW237929   4.158   1.321   2.242 -0.8020 -0.0911  1.6480
 8765SOL     OW37930   2.014   1.878   3.148 -0.3235  0.2196 -0.3253
 8765SOL    HW137931   2.053   1.866   3.235  1.6379  2.0828 -0.9478
 8765SOL    HW237932   1.930   1.909   3.184  0.5741  0.1748  1.8549
 8766SOL     OW37933   2.516   0.949   6.635 -0.0728 -0.1538 -0.5401
 8766SOL    HW137934   2.596   1.000   6.620  1.8718 -2.2522  2.4775
 8766SOL    HW237935   2.539   0.921   6.724  0.7241  0.9914 -0.3936
 8767SOL     OW37936   4.218   1.861   5.930 -0.1187  0.0699  0.1780
 8767SOL    HW137937   4.280   1.855   6.002 -0.7485  1.2098  0.8013
 8767SOL    HW237938   4.185   1.771   5.920  0.5084  0.0276 -1.5787
 8768SOL     OW37939   2.598   0.883   6.914 -0.4589 -0.5204  0.1689
 8768SOL    HW137940   2.515   0.898   6.959 -0.9434  0.4913 -1.0402
 8768SOL    HW237941   2.657   0.905   6.986  0.0706 -1.6342  0.0763
 8769SOL     OW37942   3.092   2.740  10.339 -0.0034  0.2645  0.0738
 8769SOL    HW137943   3.080   2.752  10.245  1.8793 -0.7044 -0.2973
 8769SOL    HW237944   3.002   2.725  10.369 -0.2804 -3.0241 -2.4035
 8770SOL     OW37945   3.700   0.071   0.257 -0.7230  0.6423 -0.0569
 8770SOL    HW137946   3.757   0.017   0.311  0.5176  0.2378 -1.7513
 8770SOL    HW237947   3.763   0.136   0.226 -1.0886 -0.2634 -2.6927
 8771SOL     OW37948   1.134   0.217   1.323  0.3157 -0.3112 -0.6691
 8771SOL    HW137949   1.086   0.289   1.364 -0.2761 -1.1954  0.1854
 8771SOL    HW237950   1.142   0.156   1.396 -0.4577  2.7263  1.9840
 8772SOL     OW37951   0.835   3.151   8.884  0.2401 -0.6869  0.0821
 8772SOL    HW137952   0.926   3.162   8.914 -0.6529  1.6128  1.9728
 8772SOL    HW237953   0.847   3.089   8.812  0.6809  1.1776 -1.4457
 8773SOL     OW37954   2.980   4.231   7.675 -0.0618  0.2701  0.6202
 8773SOL    HW137955   2.920   4.284   7.622 -0.2522 -0.7131 -0.1559
 8773SOL    HW237956   3.061   4.248   7.628  0.1756 -0.8480  0.6163
 8774SOL     OW37957   2.522   0.840  15.689 -0.2718  0.2327 -0.0502
 8774SOL    HW137958   2.561   0.924  15.714  0.7655 -0.2550 -0.0277
 8774SOL    HW237959   2.572   0.805  15.615 -2.2336 -2.0681 -0.2970
 8775SOL     OW37960   0.831   3.061   4.069 -0.3447 -0.6435  0.0853
 8775SOL    HW137961   0.735   3.065   4.074 -0.4661 -2.0461 -1.0377
 8775SOL    HW237962   0.841   2.977   4.114 -0.3548 -0.0616  1.1513
 8776SOL     OW37963   0.880   4.659   8.680 -0.8187 -0.8111  0.2712
 8776SOL    HW137964   0.818   4.726   8.708  0.7174  0.8333 -0.2617
 8776SOL    HW237965   0.838   4.644   8.595 -0.3772 -1.2545  0.1306
 8777SOL     OW37966   3.415   0.252  15.977  0.4966 -0.0296 -0.3544
 8777SOL    HW137967   3.502   0.253  16.018 -0.8291  0.1999  2.3802
 8777SOL    HW237968   3.403   0.159  15.954  0.1079 -0.2698  0.8452
 8778SOL     OW37969   2.332   1.328  13.196 -1.0477 -0.1574 -0.1381
 8778SOL    HW137970   2.245   1.309  13.163 -0.5679 -1.2051 -0.7838
 8778SOL    HW237971   2.337   1.272  13.274  1.1635 -1.2470 -1.0774
 8779SOL     OW37972   2.764   3.729   8.007  0.4582  0.3530  0.0070
 8779SOL    HW137973   2.714   3.765   7.934  0.5045  2.3573  0.9681
 8779SOL    HW237974   2.702   3.678   8.059 -1.5395  3.8562  1.0337
 8780SOL     OW37975   2.795   0.907   9.406  0.2480 -0.0392  0.3761
 8780SOL    HW137976   2.710   0.883   9.368  1.2176  0.5546 -2.1726
 8780SOL    HW237977   2.797   1.000   9.384  0.5265  0.0044  0.5898
 8781SOL     OW37978   4.228   1.348   3.099 -0.4854 -0.2873  0.1134
 8781SOL    HW137979   4.205   1.273   3.045 -0.1374 -0.6407  0.4548
 8781SOL    HW237980   4.166   1.336   3.171 -0.6066  0.2131  0.0968
 8782SOL     OW37981   4.677   1.612   5.528  0.1236 -0.5164  0.1807
 8782SOL    HW137982   0.020   1.658   5.559  0.3204 -0.9949  0.3977
 8782SOL    HW237983   4.608   1.664   5.569  1.0489  0.1365  0.9276
 8783SOL     OW37984   2.463   2.827  12.073  0.3590 -0.2514 -0.1742
 8783SOL    HW137985   2.442   2.910  12.029  0.3105  1.0700  2.3149
 8783SOL    HW237986   2.388   2.822  12.132  1.1063 -0.0308  0.7808
 8784SOL     OW37987   0.014   1.031   4.767  0.0235  0.1372  0.2576
 8784SOL    HW137988   0.105   1.055   4.751  0.7010 -2.2082  0.5717
 8784SOL    HW237989   4.731   0.988   4.683 -0.3753 -1.5641  1.2225
 8785SOL     OW37990   2.719   1.198   8.156 -0.2093 -0.1531 -0.5891
 8785SOL    HW137991   2.730   1.216   8.062 -0.7045 -0.3126 -0.6787
 8785SOL    HW237992   2.641   1.143   8.149 -1.6042  1.8723 -0.9814
 8786SOL     OW37993   0.699   1.516  17.315 -0.4613  0.0806 -0.1728
 8786SOL    HW137994   0.695   1.429  17.355  0.7395 -0.9165 -2.2510
 8786SOL    HW237995   0.682   1.574  17.390 -1.3158 -1.2987  0.7011
 8787SOL     OW37996   2.207   3.931   3.787 -0.1180 -0.0550  0.0409
 8787SOL    HW137997   2.232   3.903   3.875  0.3836 -0.0529 -0.0975
 8787SOL    HW237998   2.212   4.025   3.807  0.3045  0.4865 -2.6479
 8788SOL     OW37999   1.307   0.958   1.737  0.9654  0.1122  0.4861
 8788SOL    HW138000   1.350   0.994   1.815  0.0819 -0.8493  1.4252
 8788SOL    HW238001   1.264   0.886   1.783 -0.2911  1.2827  1.1477
 8789SOL     OW38002   1.370   4.658  14.232  0.0050 -0.2480  0.2768
 8789SOL    HW138003   1.369   0.014  14.260  0.3323  0.2484 -1.3162
 8789SOL    HW238004   1.282   4.622  14.229  0.6078 -1.4860 -2.6482
 8790SOL     OW38005   1.215   1.112   4.611  0.3277  0.0079 -1.0981
 8790SOL    HW138006   1.227   1.201   4.644  0.5880 -0.5635  0.3600
 8790SOL    HW238007   1.232   1.057   4.688 -0.4750  2.9208  1.1699
 8791SOL     OW38008   0.948   0.462   9.114 -0.3623  0.2822 -0.2246
 8791SOL    HW138009   0.860   0.439   9.084 -0.6060  1.3068 -0.2913
 8791SOL    HW238010   0.932   0.519   9.189 -0.2677 -0.1999  0.1659
 8792SOL     OW38011   2.885   1.126  14.938 -0.1218 -0.6863  0.0228
 8792SOL    HW138012   2.909   1.130  14.845  0.5065  0.7453  0.2445
 8792SOL    HW238013   2.907   1.037  14.965 -1.5559 -1.2932 -0.7768
 8793SOL     OW38014   0.839   4.530  13.214 -0.2876 -0.1017  0.5521
 8793SOL    HW138015   0.904   4.486  13.160  0.1280  0.5097  0.5500
 8793SOL    HW238016   0.900   4.555  13.284 -0.3565  0.1716  0.5150
 8794SOL     OW38017   1.368   2.170   1.247  0.4132  0.1860 -0.3085
 8794SOL    HW138018   1.346   2.221   1.325  0.6308 -1.4031  0.8006
 8794SOL    HW238019   1.308   2.097   1.263 -0.8464  0.9576 -1.5036
 8795SOL     OW38020   2.815   1.824  16.329  0.1310 -0.0500 -0.3172
 8795SOL    HW138021   2.866   1.881  16.272  0.4890  0.0783  0.1287
 8795SOL    HW238022   2.831   1.865  16.414  0.6851 -1.9657  0.5071
 8796SOL     OW38023   4.057   0.394   3.572 -0.4523 -0.7220 -0.1389
 8796SOL    HW138024   4.060   0.335   3.647 -0.9517 -1.7065 -0.8954
 8796SOL    HW238025   3.979   0.365   3.524 -0.2619 -0.7115 -0.4515
 8797SOL     OW38026   3.543   0.348   6.644  0.1937  0.2755  0.5125
 8797SOL    HW138027   3.529   0.419   6.581  1.3088 -1.2435 -1.4722
 8797SOL    HW238028   3.581   0.279   6.590 -4.1867 -1.1294 -0.7738
 8798SOL     OW38029   4.315   2.164   9.777  0.3699  0.6111  0.6039
 8798SOL    HW138030   4.358   2.249   9.763  0.4384  0.3447 -0.7619
 8798SOL    HW238031   4.222   2.184   9.774  0.1141 -0.9508 -1.7072
 8799SOL     OW38032   2.463   1.731  12.094  0.0650 -0.3523  0.5726
 8799SOL    HW138033   2.398   1.673  12.132 -2.3566  0.6914 -1.9558
 8799SOL    HW238034   2.468   1.687  12.009  4.7093  0.7374  0.2705
 8800SOL     OW38035   1.630   2.388   4.806  0.0928  0.1416  0.1246
 8800SOL    HW138036   1.711   2.340   4.788 -0.6869 -1.3866  0.7006
 8800SOL    HW238037   1.639   2.475   4.767  0.1173 -0.4312 -1.1396
 8801SOL     OW38038   1.917   2.253  11.102  0.3473  0.0290 -0.5585
 8801SOL    HW138039   1.901   2.244  11.008 -0.7270 -2.2911 -0.1732
 8801SOL    HW238040   1.958   2.339  11.106  1.9870 -0.7781  0.2247
 8802SOL     OW38041   0.856   1.406   4.110  0.2378 -0.6787  0.6714
 8802SOL    HW138042   0.917   1.420   4.038  0.9080 -1.9033  0.9978
 8802SOL    HW238043   0.826   1.496   4.120  1.5881 -0.2238  0.5581
 8803SOL     OW38044   3.643   3.560   5.873  0.1341 -0.8025 -0.2340
 8803SOL    HW138045   3.618   3.548   5.965  0.1142 -1.4755 -0.3304
 8803SOL    HW238046   3.723   3.613   5.881 -1.8369  1.9658  1.4727
 8804SOL     OW38047   0.063   4.067   5.837 -0.2312  0.0085 -0.2888
 8804SOL    HW138048   0.092   3.984   5.800 -1.0676  0.0445 -1.0124
 8804SOL    HW238049   4.704   4.068   5.847 -0.0625 -1.0483  1.4574
 8805SOL     OW38050   2.628   4.429   2.862 -0.0584  0.7025  0.2125
 8805SOL    HW138051   2.684   4.476   2.924  0.9233  1.3771 -1.1749
 8805SOL    HW238052   2.603   4.503   2.806 -0.0833 -0.8451 -1.8246
 8806SOL     OW38053   0.289   3.933   6.443 -0.1957 -0.1691  0.1965
 8806SOL    HW138054   0.289   3.958   6.535  0.7989 -0.3405  0.2474
 8806SOL    HW238055   0.382   3.944   6.425 -0.4164  0.1711 -0.7236
 8807SOL     OW38056   1.212   2.351   9.199  0.2150 -0.3554  0.6691
 8807SOL    HW138057   1.192   2.260   9.217  2.5107 -0.8704  0.5598
 8807SOL    HW238058   1.301   2.346   9.164  0.7717 -1.6164  2.2806
 8808SOL     OW38059   4.057   4.568   3.844  0.0224 -0.0737 -0.6756
 8808SOL    HW138060   4.082   4.660   3.851 -2.3494  0.4276  1.1928
 8808SOL    HW238061   4.107   4.530   3.916  0.4190  0.3616 -0.7294
 8809SOL     OW38062   0.083   1.369   8.667  0.0789  0.0987 -0.5287
 8809SOL    HW138063   0.135   1.303   8.622  0.0426  0.0981 -0.5698
 8809SOL    HW238064   4.727   1.355   8.642  0.0949  0.9635 -1.0595
 8810SOL     OW38065   2.166   0.218   9.585  0.1473 -0.2924  0.4114
 8810SOL    HW138066   2.112   0.180   9.654  1.1296 -0.9629  0.8013
 8810SOL    HW238067   2.257   0.202   9.607  0.7944  1.8101 -0.7520
 8811SOL     OW38068   0.854   4.607   7.650  0.1477 -0.4951 -0.3515
 8811SOL    HW138069   0.790   4.649   7.593  0.2558 -0.8452 -0.7308
 8811SOL    HW238070   0.924   4.672   7.643 -0.2732  0.2950  2.6891
 8812SOL     OW38071   2.657   2.802   6.385 -0.1887 -0.0107  0.1232
 8812SOL    HW138072   2.573   2.759   6.369 -0.7194  0.1271  2.5951
 8812SOL    HW238073   2.687   2.848   6.306  2.0658 -0.0543  0.9499
 8813SOL     OW38074   0.445   3.778   5.090  0.0126  0.8091 -0.5210
 8813SOL    HW138075   0.480   3.767   5.178 -0.8189  0.9682 -0.1683
 8813SOL    HW238076   0.516   3.752   5.031  0.4449  0.2918  0.2345
 8814SOL     OW38077   3.440   4.156   2.380  0.6327 -0.6492 -0.1745
 8814SOL    HW138078   3.499   4.232   2.381  0.0270 -0.1924  0.5467
 8814SOL    HW238079   3.493   4.080   2.355 -0.6765 -1.7099  0.3506
 8815SOL     OW38080   0.653   1.704  16.861 -0.1127  0.3650 -0.6205
 8815SOL    HW138081   0.680   1.745  16.943  2.6024 -2.8756  0.1357
 8815SOL    HW238082   0.609   1.623  16.889  0.0900  0.5343  0.1988
 8816SOL     OW38083   0.652   0.126   5.071 -0.1485 -0.5012 -0.3159
 8816SOL    HW138084   0.629   0.193   5.136 -0.9254  0.0621 -1.1758
 8816SOL    HW238085   0.564   0.104   5.042 -0.1727 -0.6684 -0.1239
 8817SOL     OW38086   1.702   3.326   5.165  0.1275  0.0689  0.1196
 8817SOL    HW138087   1.700   3.230   5.169 -2.3401  0.0836 -0.7725
 8817SOL    HW238088   1.682   3.351   5.075  1.4319 -1.0144 -0.4701
 8818SOL     OW38089   2.182   2.596  11.256  0.1138  0.1114 -0.2031
 8818SOL    HW138090   2.098   2.610  11.300  0.5768  1.0118  0.3805
 8818SOL    HW238091   2.222   2.682  11.246  0.9178 -0.1032  1.1918
 8819SOL     OW38092   1.310   0.853   3.730 -0.1593 -0.8075 -0.0763
 8819SOL    HW138093   1.377   0.900   3.680  0.4926 -0.6591  0.9392
 8819SOL    HW238094   1.329   0.897   3.812  3.1570  1.2215 -1.9223
 8820SOL     OW38095   0.253   0.635  11.235 -0.2407 -0.1646  0.4774
 8820SOL    HW138096   0.321   0.702  11.226  0.8881 -1.1686  1.4586
 8820SOL    HW238097   0.245   0.629  11.330 -1.8526 -0.9241  0.2850
 8821SOL     OW38098   1.292   3.128  12.454  0.0449 -0.2015 -0.4549
 8821SOL    HW138099   1.366   3.148  12.512  0.4578 -1.7381 -0.4778
 8821SOL    HW238100   1.256   3.046  12.487  1.5857 -0.5602  0.3121
 8822SOL     OW38101   2.261   0.830   2.490 -0.1696  0.6977  0.0340
 8822SOL    HW138102   2.220   0.783   2.417  1.1297  0.6263 -0.6669
 8822SOL    HW238103   2.317   0.886   2.436 -2.5830  2.7359 -0.3427
 8823SOL     OW38104   3.087   0.829   2.528 -0.7000 -0.2283  0.4059
 8823SOL    HW138105   3.069   0.781   2.609  0.4028 -1.9686 -0.3722
 8823SOL    HW238106   3.162   0.877   2.561 -1.8909  1.0814  1.1788
 8824SOL     OW38107   4.589   2.896   4.773  0.2775  0.2561  0.0328
 8824SOL    HW138108   4.589   2.957   4.699 -0.8984  0.5361  0.2573
 8824SOL    HW238109   4.559   2.955   4.843 -0.7212 -0.6994  0.4168
 8825SOL     OW38110   1.069   4.304  10.081  0.5142  0.3711 -0.2898
 8825SOL    HW138111   1.022   4.383  10.053  1.1455  0.9018  0.1334
 8825SOL    HW238112   1.066   4.309  10.176 -0.8094  0.6658 -0.3448
 8826SOL     OW38113   0.639   4.071   3.571 -0.3747 -0.4067 -0.1063
 8826SOL    HW138114   0.675   4.141   3.517  0.0582  0.1984  0.9642
 8826SOL    HW238115   0.646   4.110   3.658  2.1063  0.5905 -0.7347
 8827SOL     OW38116   1.859   2.458   9.751  0.6914  0.2283 -0.0281
 8827SOL    HW138117   1.950   2.487   9.756  0.3636  1.3201 -0.3224
 8827SOL    HW238118   1.805   2.534   9.775  1.5565  0.5179  1.0089
 8828SOL     OW38119   2.224   0.429  13.901  0.1096  0.2246  0.0524
 8828SOL    HW138120   2.224   0.380  13.983 -1.0454  1.3330  0.7161
 8828SOL    HW238121   2.312   0.407  13.870 -0.2977  0.7495 -1.4854
 8829SOL     OW38122   2.494   4.283   5.033  0.0191 -0.3798 -0.0896
 8829SOL    HW138123   2.450   4.202   5.059 -0.7190 -0.1426 -0.6231
 8829SOL    HW238124   2.466   4.353   5.092  3.7274 -1.4588  2.9317
 8830SOL     OW38125   2.359   1.654   3.578  0.1761  0.1517  0.0174
 8830SOL    HW138126   2.270   1.659   3.544  0.5941 -1.7180 -1.3512
 8830SOL    HW238127   2.352   1.699   3.662 -0.6937 -0.1557  0.1047
 8831SOL     OW38128   2.955   1.256  16.938  0.1655 -0.4186 -0.3439
 8831SOL    HW138129   3.042   1.284  16.909  1.0272 -1.2314  1.4665
 8831SOL    HW238130   2.903   1.330  16.907  0.2424 -2.1032 -4.5082
 8832SOL     OW38131   1.491   1.078   4.560  0.1988  0.4186 -0.5863
 8832SOL    HW138132   1.397   1.082   4.579  0.2908 -0.5057  0.0991
 8832SOL    HW238133   1.518   1.167   4.542 -2.2947  0.8460 -2.1556
 8833SOL     OW38134   1.266   3.391   2.200  0.1685 -0.0993 -0.5689
 8833SOL    HW138135   1.220   3.310   2.222 -0.6754  0.0702 -1.7565
 8833SOL    HW238136   1.194   3.450   2.223  1.1143  0.5313  0.7758
 8834SOL     OW38137   1.045   3.824   2.516  0.0801  0.2225  0.5822
 8834SOL    HW138138   1.094   3.860   2.590  1.2379 -1.6904  0.7205
 8834SOL    HW238139   1.114   3.831   2.450  1.3691 -0.8236  1.8338
 8835SOL     OW38140   1.626   4.597   6.823  0.1299 -0.0997 -0.0438
 8835SOL    HW138141   1.667   4.517   6.857 -1.0455 -0.8734 -0.4459
 8835SOL    HW238142   1.641   4.603   6.729 -0.6425 -0.9977 -0.2249
 8836SOL     OW38143   0.493   2.425   6.620  0.3775  0.1930 -0.1334
 8836SOL    HW138144   0.534   2.498   6.667  0.2922  0.6083 -0.7213
 8836SOL    HW238145   0.562   2.362   6.641 -3.0104 -3.0293  1.3669
 8837SOL     OW38146   2.233   2.570   8.174  0.5359  0.6328  0.2933
 8837SOL    HW138147   2.297   2.595   8.108  1.2052  0.3466  0.8281
 8837SOL    HW238148   2.219   2.658   8.208  2.0496  1.4511 -1.2258
 8838SOL     OW38149   1.765   1.678   3.544  0.7681  0.5113  0.0835
 8838SOL    HW138150   1.774   1.587   3.573 -0.4586 -0.2939 -2.1088
 8838SOL    HW238151   1.761   1.670   3.449  2.2059 -0.5529  0.1121
 8839SOL     OW38152   1.326   3.549  13.377  0.4673  0.2730  0.2470
 8839SOL    HW138153   1.407   3.498  13.374  0.0759 -0.3454  0.2285
 8839SOL    HW238154   1.346   3.597  13.297 -0.6697 -1.4053 -1.0192
 8840SOL     OW38155   4.565   1.458  12.306 -0.0371  0.2330 -0.0175
 8840SOL    HW138156   4.582   1.470  12.399 -0.5225  1.4817 -0.0888
 8840SOL    HW238157   4.512   1.537  12.292  0.8528  0.7389 -0.5543
 8841SOL     OW38158   1.339   0.755   8.872 -0.0340 -0.0900 -0.1817
 8841SOL    HW138159   1.356   0.685   8.935  0.7716 -0.5149 -0.8677
 8841SOL    HW238160   1.273   0.718   8.813 -0.1496  1.0059 -0.7340
 8842SOL     OW38161   1.577   4.601   4.866 -0.5938  0.3379  0.4426
 8842SOL    HW138162   1.492   4.644   4.880  0.7659  3.5684 -1.2378
 8842SOL    HW238163   1.588   4.572   4.956  3.0775 -0.6272 -0.3045
 8843SOL     OW38164   0.955   3.301  16.234 -0.6754 -0.5509  0.1217
 8843SOL    HW138165   0.876   3.295  16.289 -1.2733 -0.6554 -0.7526
 8843SOL    HW238166   1.005   3.224  16.260 -0.0380  0.0846  0.7852
 8844SOL     OW38167   3.430   4.114   3.124  0.7017  0.2018 -0.4269
 8844SOL    HW138168   3.365   4.089   3.058  1.0971  1.6170 -1.3672
 8844SOL    HW238169   3.419   4.041   3.184  0.7006  0.8684  0.3851
 8845SOL     OW38170   1.047   4.488   6.707  0.1836  0.0358 -0.3037
 8845SOL    HW138171   0.997   4.540   6.770  0.2865  0.7067 -0.7792
 8845SOL    HW238172   1.095   4.552   6.655  0.0775  1.3965  1.2760
 8846SOL     OW38173   0.183   3.191   6.341 -0.0678  0.3075 -0.5424
 8846SOL    HW138174   0.260   3.175   6.396 -0.8004 -1.9011 -0.1399
 8846SOL    HW238175   0.144   3.261   6.392 -0.7324 -0.3928 -0.0848
 8847SOL     OW38176   2.147   1.097  15.808  0.1297  0.0695 -0.1245
 8847SOL    HW138177   2.142   1.102  15.903  2.2437 -4.4605  0.2284
 8847SOL    HW238178   2.121   1.006  15.794  0.3222  0.2868 -1.9482
 8848SOL     OW38179   0.339   2.223  13.826 -0.3082  0.1213  0.1840
 8848SOL    HW138180   0.314   2.180  13.745  0.9648 -1.5574  0.6761
 8848SOL    HW238181   0.256   2.222  13.872 -0.7962  0.0157 -0.7087
 8849SOL     OW38182   4.508   4.108  11.371  0.1803 -0.1014 -0.1651
 8849SOL    HW138183   4.560   4.186  11.354 -0.7889  0.6870  0.5823
 8849SOL    HW238184   4.571   4.037  11.388  0.8777  0.5730  0.0314
 8850SOL     OW38185   4.227   3.968   0.063  0.4049 -0.1063  0.4485
 8850SOL    HW138186   4.272   3.968   0.147  0.2845  2.3954  0.5126
 8850SOL    HW238187   4.136   3.966   0.094  0.5061  1.9188  0.8787
 8851SOL     OW38188   2.760   3.956   9.925 -0.1176  0.9146  0.1403
 8851SOL    HW138189   2.830   4.016   9.899  1.5506 -0.8611  0.5095
 8851SOL    HW238190   2.805   3.872   9.914  0.0874  0.9517  0.6626
 8852SOL     OW38191   1.184   2.794   4.984  0.5507  0.2715 -0.0499
 8852SOL    HW138192   1.174   2.817   5.076 -3.4130  1.6000 -0.8389
 8852SOL    HW238193   1.212   2.704   4.999 -0.4037  0.0907  0.5926
 8853SOL     OW38194   3.150   4.443   1.614 -0.4422 -0.0307  0.5237
 8853SOL    HW138195   3.228   4.404   1.654 -0.5032  1.1294  1.7541
 8853SOL    HW238196   3.118   4.504   1.680 -1.6354 -0.0920  0.0114
 8854SOL     OW38197   4.557   2.955   3.325  0.5927 -0.1157  0.4227
 8854SOL    HW138198   4.551   2.930   3.417  2.8836 -1.7583  0.0993
 8854SOL    HW238199   4.621   2.892   3.292  0.0320 -0.8290  0.7096
 8855SOL     OW38200   2.314   1.707   1.942  0.6606 -0.8209 -0.0647
 8855SOL    HW138201   2.235   1.660   1.970  0.0089  1.3816  1.7410
 8855SOL    HW238202   2.282   1.729   1.854 -1.3056  0.5905  0.9928
 8856SOL     OW38203   1.200   4.557   1.783 -0.2352 -0.9885 -0.0787
 8856SOL    HW138204   1.274   4.614   1.804 -0.3115 -1.6508  1.9582
 8856SOL    HW238205   1.244   4.473   1.775  0.4767 -0.9401  3.2911
 8857SOL     OW38206   1.442   4.602   4.129 -0.0286 -0.8761  0.2242
 8857SOL    HW138207   1.371   4.666   4.124  0.9550  0.1465 -0.8061
 8857SOL    HW238208   1.396   4.524   4.159 -1.1087 -1.1575 -2.2115
 8858SOL     OW38209   4.263   4.522   4.583  0.0624 -0.0513 -0.3080
 8858SOL    HW138210   4.168   4.523   4.593 -0.2825 -1.7919 -3.2604
 8858SOL    HW238211   4.294   4.609   4.608 -2.6278  0.7362  0.3153
 8859SOL     OW38212   4.388   3.840   2.162  0.2830 -0.1597 -0.0243
 8859SOL    HW138213   4.298   3.861   2.184 -0.0383 -0.7589 -0.7574
 8859SOL    HW238214   4.431   3.922   2.187 -0.6924  0.8403 -1.6425
 8860SOL     OW38215   2.634   1.727   1.197 -0.2130  0.1382 -0.1874
 8860SOL    HW138216   2.619   1.821   1.185  0.5299  0.3704  0.7169
 8860SOL    HW238217   2.665   1.704   1.109  0.3686  1.7540 -0.4126
 8861SOL     OW38218   3.366   0.395   3.166  0.1996 -0.3606 -0.3965
 8861SOL    HW138219   3.351   0.330   3.097  0.2741  0.2469 -0.9806
 8861SOL    HW238220   3.404   0.469   3.119  0.4153  0.5881  1.2829
 8862SOL     OW38221   3.858   3.320   4.053  0.3940 -0.2425 -0.3262
 8862SOL    HW138222   3.842   3.246   3.995 -0.9426  0.8983 -1.4211
 8862SOL    HW238223   3.845   3.292   4.143  0.6653  1.5250  0.2603
 8863SOL     OW38224   0.823   2.013   5.868  0.2621  0.6512  0.4560
 8863SOL    HW138225   0.738   1.993   5.828 -0.3746 -0.1045  2.1730
 8863SOL    HW238226   0.795   2.088   5.920 -4.6038 -0.6236 -0.2480
 8864SOL     OW38227   0.363   0.337   6.112 -0.0261 -0.8100  0.2030
 8864SOL    HW138228   0.281   0.302   6.148 -0.4084  1.0679  1.1626
 8864SOL    HW238229   0.423   0.288   6.169  0.0107 -1.3825 -0.3270
 8865SOL     OW38230   4.039   2.004   1.936  0.3750 -0.2523  0.0085
 8865SOL    HW138231   4.008   1.960   1.857 -2.0790  2.0797 -0.3250
 8865SOL    HW238232   4.006   1.939   1.997  0.6173 -0.1104  0.2898
 8866SOL     OW38233   2.066   2.465   9.991 -0.2251  0.5074 -0.6045
 8866SOL    HW138234   2.009   2.528  10.035  0.9276  1.3835 -0.3500
 8866SOL    HW238235   2.130   2.520   9.945  2.7634 -0.9012  1.8602
 8867SOL     OW38236   1.190   4.394   7.449  0.4100 -0.2551 -0.3801
 8867SOL    HW138237   1.208   4.412   7.542 -2.2329 -1.7139  0.4079
 8867SOL    HW238238   1.095   4.380   7.451  0.4724 -0.3119  2.1297
 8868SOL     OW38239   1.387   3.615   1.806  0.3251 -0.0007  0.1136
 8868SOL    HW138240   1.398   3.695   1.858 -0.6264 -0.7271  1.4542
 8868SOL    HW238241   1.295   3.625   1.782  0.5996  0.1873 -0.8519
 8869SOL     OW38242   3.535   0.330   2.314 -0.1036 -0.2200 -0.1050
 8869SOL    HW138243   3.471   0.282   2.366 -1.3382  0.4639 -1.0020
 8869SOL    HW238244   3.578   0.252   2.279 -0.9333 -0.8830  0.3605
 8870SOL     OW38245   3.744   3.541   7.648 -0.2072 -0.1470  0.0997
 8870SOL    HW138246   3.788   3.457   7.663  0.0649  0.0071  0.1577
 8870SOL    HW238247   3.654   3.536   7.681  0.1254 -0.5894  0.9569
 8871SOL     OW38248   2.071   2.408   8.873  1.5167  0.2983  0.0698
 8871SOL    HW138249   2.100   2.459   8.797  0.3280  1.1048  0.1530
 8871SOL    HW238250   2.141   2.345   8.890  0.7108 -0.5465  0.2623
 8872SOL     OW38251   0.420   4.303   6.443 -0.1061 -0.0031  0.2394
 8872SOL    HW138252   0.330   4.329   6.424 -0.5727 -1.0358  0.9993
 8872SOL    HW238253   0.403   4.228   6.500  2.8048  0.1678  1.3866
 8873SOL     OW38254   3.038   2.028   6.188 -0.5938  0.4728 -0.8745
 8873SOL    HW138255   3.045   2.063   6.277  0.3440 -2.7561  0.3150
 8873SOL    HW238256   2.972   1.961   6.207  0.2868  0.4356  2.0091
 8874SOL     OW38257   2.867   0.863  11.810  0.3594 -0.5316 -0.3602
 8874SOL    HW138258   2.941   0.872  11.750  0.2439 -0.4518 -0.4909
 8874SOL    HW238259   2.823   0.790  11.767  0.4579 -1.4555  1.1235
 8875SOL     OW38260   3.178   3.460   2.897  0.1488 -0.2726  0.1998
 8875SOL    HW138261   3.182   3.445   2.991  1.4783  0.3423  0.2531
 8875SOL    HW238262   3.151   3.552   2.894 -1.5069 -0.7505  0.5762
 8876SOL     OW38263   1.880   3.400  11.812  0.1229  0.0068 -0.1926
 8876SOL    HW138264   1.952   3.461  11.829 -0.6700  0.8268  0.2224
 8876SOL    HW238265   1.808   3.458  11.785  0.4953  1.9318  2.8760
 8877SOL     OW38266   2.498   1.053  12.814  0.0249  0.0933  0.1728
 8877SOL    HW138267   2.525   1.006  12.893  2.1895 -0.6001 -0.9857
 8877SOL    HW238268   2.403   1.060  12.826  0.1844  0.4214  1.2775
 8878SOL     OW38269   1.261   2.389   1.712 -0.2775 -0.0037  0.2250
 8878SOL    HW138270   1.334   2.428   1.760 -0.5857  1.0817 -0.1780
 8878SOL    HW238271   1.251   2.304   1.754  1.2366 -1.2133 -1.8340
 8879SOL     OW38272   1.697   0.936   3.358 -0.5643 -0.8756  0.2583
 8879SOL    HW138273   1.741   0.970   3.280 -1.0671  0.5956  0.6212
 8879SOL    HW238274   1.624   0.887   3.322 -3.2587  2.6899  0.9261
 8880SOL     OW38275   3.399   3.277   5.466 -1.3209  0.4695 -0.3451
 8880SOL    HW138276   3.368   3.190   5.491 -0.1083  0.0378 -0.3188
 8880SOL    HW238277   3.420   3.313   5.552  2.9751 -1.2179 -0.6728
 8881SOL     OW38278   0.755   1.297   2.622  0.2566 -0.0827  0.2001
 8881SOL    HW138279   0.812   1.264   2.691  2.7403  0.8436 -1.4022
 8881SOL    HW238280   0.818   1.357   2.583 -0.1769  0.5617  0.4907
 8882SOL     OW38281   3.431   2.584   9.264 -0.0989  0.0064 -0.2508
 8882SOL    HW138282   3.461   2.656   9.319  0.8819 -0.9769  0.4954
 8882SOL    HW238283   3.499   2.592   9.198 -0.9162  0.6590 -1.0063
 8883SOL     OW38284   0.704   3.422   6.510  0.2453  0.8859  0.4407
 8883SOL    HW138285   0.762   3.449   6.439  1.2978 -1.1752  0.5381
 8883SOL    HW238286   0.759   3.361   6.559 -2.0738 -1.3594  0.2199
 8884SOL     OW38287   1.612   1.832   3.143 -0.0809 -0.4843 -0.2857
 8884SOL    HW138288   1.588   1.909   3.194  0.6484  0.9532 -2.1484
 8884SOL    HW238289   1.671   1.771   3.188 -3.3067 -2.0246  1.8284
 8885SOL     OW38290   4.574   4.152   3.436 -0.4105  0.1509  0.3710
 8885SOL    HW138291   4.597   4.242   3.456 -0.0795  0.6417 -2.1735
 8885SOL    HW238292   4.609   4.126   3.351  0.8266 -0.2179  0.9927
 8886SOL     OW38293   3.964   2.018   5.314 -0.0062 -0.4443 -0.0189
 8886SOL    HW138294   3.935   1.928   5.310  0.2302 -0.5692  1.1551
 8886SOL    HW238295   4.015   2.010   5.394  0.1816  2.1731  0.1339
 8887SOL     OW38296   2.032   3.252  13.370 -0.2272  0.3137  0.4823
 8887SOL    HW138297   2.022   3.176  13.427  0.4556  0.3218  0.6124
 8887SOL    HW238298   1.967   3.314  13.402  1.1824  1.9341  0.2230
 8888SOL     OW38299   1.146   2.626  14.595  0.0555 -0.0815  0.0635
 8888SOL    HW138300   1.224   2.571  14.604  0.3069  0.1884 -0.4782
 8888SOL    HW238301   1.156   2.689  14.667 -0.7050  0.2009 -0.0767
 8889SOL     OW38302   4.608   3.562  17.685  0.4475 -0.4475 -0.4844
 8889SOL    HW138303   4.643   3.556  17.596 -1.0040  1.1339 -1.1656
 8889SOL    HW238304   4.533   3.502  17.681  0.3320 -0.3974  0.9370
 8890SOL     OW38305   3.047   3.598   8.115 -0.2986 -0.0809  0.4920
 8890SOL    HW138306   3.054   3.655   8.192  3.5127  1.0996 -0.7535
 8890SOL    HW238307   2.979   3.639   8.060  2.3710 -0.0795 -2.7760
 8891SOL     OW38308   0.528   0.837   0.917  0.2874 -0.0216  0.3961
 8891SOL    HW138309   0.508   0.755   0.872  2.1296 -0.1425 -0.1855
 8891SOL    HW238310   0.579   0.814   0.994  3.0587 -0.4239 -1.5722
 8892SOL     OW38311   0.063   2.005   5.557  0.2975  0.2329  0.0762
 8892SOL    HW138312   0.032   2.052   5.479  2.4147 -2.3567 -2.3275
 8892SOL    HW238313   0.145   1.979   5.516  0.3111  1.0823 -0.4411
 8893SOL     OW38314   0.277   1.970   4.560 -1.1249  0.2697  0.0053
 8893SOL    HW138315   0.192   2.012   4.549 -0.1293  1.8584 -1.7132
 8893SOL    HW238316   0.340   2.039   4.536 -2.1863  1.2448  0.0229
 8894SOL     OW38317   4.650   2.832  13.574  0.2125  0.2144  0.1861
 8894SOL    HW138318   4.589   2.871  13.512  0.7800  1.2153  0.2592
 8894SOL    HW238319   4.600   2.837  13.655 -1.1695  0.0488 -0.6675
 8895SOL     OW38320   1.961   4.082   7.481  0.3454  0.0411  0.4549
 8895SOL    HW138321   2.043   4.046   7.515  0.6338  0.2820  0.0191
 8895SOL    HW238322   1.944   4.013   7.417  0.4103  2.0798 -1.7681
 8896SOL     OW38323   1.669   0.489   7.693  0.2182 -0.2335  0.0074
 8896SOL    HW138324   1.677   0.584   7.704  1.9542 -0.4436  0.4575
 8896SOL    HW238325   1.574   0.477   7.703  0.4481 -0.8823  1.3708
 8897SOL     OW38326   0.611   1.357  15.628  0.5363 -0.2979 -0.1922
 8897SOL    HW138327   0.598   1.262  15.619  1.5427 -0.4626  0.1209
 8897SOL    HW238328   0.579   1.393  15.545  2.0469  1.1429 -0.1370
 8898SOL     OW38329   1.417   3.003   8.176  0.6840  0.0379 -0.2015
 8898SOL    HW138330   1.390   3.048   8.096 -2.2099  0.5941  1.0881
 8898SOL    HW238331   1.334   2.967   8.204 -0.2759  0.9609 -1.8680
 8899SOL     OW38332   2.950   3.033   8.589 -0.8464  0.0422 -0.3893
 8899SOL    HW138333   2.928   2.953   8.638  0.3084 -0.2399 -0.3421
 8899SOL    HW238334   2.931   3.101   8.653 -2.1463 -0.7769  0.1090
 8900SOL     OW38335   3.684   4.225   2.599 -0.0288 -0.5480  0.3936
 8900SOL    HW138336   3.674   4.260   2.687  0.7814 -1.0216  0.6706
 8900SOL    HW238337   3.759   4.167   2.608  0.3710 -0.0539  0.2785
 8901SOL     OW38338   1.555   1.363   4.167  0.3253  0.0616  0.2964
 8901SOL    HW138339   1.544   1.344   4.074  3.2638 -1.8540  0.3273
 8901SOL    HW238340   1.490   1.301   4.199 -0.4746  0.1525 -1.1483
 8902SOL     OW38341   3.429   2.180   4.594 -0.1067 -0.2282  0.0995
 8902SOL    HW138342   3.503   2.197   4.536 -0.8719  0.2709 -0.7360
 8902SOL    HW238343   3.389   2.114   4.537 -2.0882  0.4528  0.6825
 8903SOL     OW38344   2.785   1.049  16.475  0.5801 -0.2777 -0.4288
 8903SOL    HW138345   2.806   0.970  16.526 -0.3666  1.1485  2.1668
 8903SOL    HW238346   2.741   1.100  16.543 -0.0069 -1.2653 -0.0785
 8904SOL     OW38347   3.076   3.258   5.760  0.6658 -0.5528 -0.2399
 8904SOL    HW138348   3.086   3.336   5.705  0.9697 -0.0477  0.5271
 8904SOL    HW238349   3.060   3.293   5.847  0.1621 -3.0049  0.6545
 8905SOL     OW38350   3.851   1.055  14.777  0.0669  0.2237 -0.5681
 8905SOL    HW138351   3.821   1.129  14.829 -0.3217  0.9430 -1.8159
 8905SOL    HW238352   3.898   1.012  14.849 -0.1969  1.6892  0.4787
 8906SOL     OW38353   1.786   1.621   5.864 -0.3681 -0.4474  0.3792
 8906SOL    HW138354   1.715   1.562   5.889 -1.8822  1.3481  0.2843
 8906SOL    HW238355   1.752   1.684   5.800 -0.0292  1.0775  1.7021
 8907SOL     OW38356   0.523   0.558  15.511 -0.0505  0.5070  0.2472
 8907SOL    HW138357   0.602   0.612  15.518 -0.0964  0.3517  1.9915
 8907SOL    HW238358   0.556   0.483  15.461  0.4619 -0.1326  1.5465
 8908SOL     OW38359   3.964   0.752  10.617 -0.4408 -0.0581 -0.0410
 8908SOL    HW138360   3.978   0.737  10.523  0.7819 -2.4230  0.5287
 8908SOL    HW238361   4.016   0.677  10.647 -2.7394 -0.5469  2.6604
 8909SOL     OW38362   3.094   4.215   7.137 -0.3956  0.2055  0.5305
 8909SOL    HW138363   3.060   4.186   7.222  2.3190 -0.7463  1.2980
 8909SOL    HW238364   3.047   4.160   7.074  0.9433 -0.1935 -0.1319
 8910SOL     OW38365   0.318   0.010  10.905 -0.2257 -0.9582  0.2503
 8910SOL    HW138366   0.320   4.653  10.879  0.8934 -0.3929 -1.6434
 8910SOL    HW238367   0.260   0.007  10.981 -0.4076  1.4956  0.2240
 8911SOL     OW38368   2.267   0.770   2.000 -0.6144 -0.4267 -0.1399
 8911SOL    HW138369   2.350   0.818   1.994  0.1858 -1.7324  0.2344
 8911SOL    HW238370   2.291   0.681   1.972  1.0507  0.0410 -0.2404
 8912SOL     OW38371   3.394   3.120   4.769 -0.2367 -0.5866 -0.0859
 8912SOL    HW138372   3.410   3.175   4.845  2.9516 -1.3702 -0.2008
 8912SOL    HW238373   3.454   3.047   4.787  0.4957  0.1814  0.5532
 8913SOL     OW38374   2.364   0.025   4.505  0.4065  0.3556 -0.0392
 8913SOL    HW138375   2.404   0.109   4.482 -0.2321  0.4787 -0.6815
 8913SOL    HW238376   2.410   0.007   4.587  0.7419  1.0053 -0.0856
 8914SOL     OW38377   1.576   2.677   6.604  0.1665  0.4404 -0.4561
 8914SOL    HW138378   1.584   2.698   6.697  0.0010  0.5423 -0.4634
 8914SOL    HW238379   1.482   2.662   6.593  0.2790 -0.9722  0.5092
 8915SOL     OW38380   1.299   0.836   6.011  0.4185 -0.9511 -0.3391
 8915SOL    HW138381   1.288   0.774   5.938 -0.8923 -2.6371  1.2785
 8915SOL    HW238382   1.246   0.914   5.998  0.6493 -0.9103 -1.0273
 8916SOL     OW38383   2.804   3.824   6.647  0.1757  0.4164 -0.2807
 8916SOL    HW138384   2.782   3.900   6.701 -2.6437  0.4351 -1.4729
 8916SOL    HW238385   2.791   3.748   6.704 -0.3372  0.1111 -0.7997
 8917SOL     OW38386   0.764   1.600  14.529  0.2536 -0.0213 -0.5342
 8917SOL    HW138387   0.809   1.654  14.594 -1.0282 -1.0355  1.2015
 8917SOL    HW238388   0.680   1.588  14.572  0.4286 -0.4746 -0.3160
 8918SOL     OW38389   0.902   2.309   3.717  0.6206 -0.5591 -0.7165
 8918SOL    HW138390   0.855   2.324   3.635  0.1267  1.4992 -0.0576
 8918SOL    HW238391   0.988   2.278   3.688 -0.2814 -0.0782 -3.9459
 8919SOL     OW38392   0.893   2.088   5.628  0.1903 -0.3460  0.3724
 8919SOL    HW138393   0.886   2.083   5.724  0.9678 -0.1649  0.4338
 8919SOL    HW238394   0.979   2.127   5.615  0.0708  0.0163  0.6531
 8920SOL     OW38395   2.776   2.339   5.868  0.3098 -0.0647 -0.2049
 8920SOL    HW138396   2.856   2.297   5.900  0.1875 -1.4920 -1.7492
 8920SOL    HW238397   2.746   2.362   5.956 -1.7337  0.2801 -0.9926
 8921SOL     OW38398   4.475   2.469   1.526  0.4865 -0.1424 -0.2362
 8921SOL    HW138399   4.543   2.402   1.517  1.8451  1.3337 -0.9053
 8921SOL    HW238400   4.411   2.426   1.583  0.2751  0.4423 -0.0297
 8922SOL     OW38401   2.345   0.166   7.013  0.1766 -0.0032  0.1061
 8922SOL    HW138402   2.279   0.220   7.056  0.1298 -0.6127  0.7954
 8922SOL    HW238403   2.408   0.226   6.973 -0.8986  1.1232  0.0945
 8923SOL     OW38404   0.412   1.317   1.991  0.2696 -0.6765  0.5255
 8923SOL    HW138405   0.341   1.342   1.932 -0.6742  0.5912  2.1718
 8923SOL    HW238406   0.386   1.226   1.999  0.6841 -0.7833  0.6565
 8924SOL     OW38407   1.505   1.222   7.628 -0.1660  0.0203 -0.3076
 8924SOL    HW138408   1.473   1.168   7.555 -2.5847  0.0032  0.7792
 8924SOL    HW238409   1.480   1.312   7.605 -0.1704  0.2950  0.8020
 8925SOL     OW38410   3.345   2.991   8.222 -0.8427  0.3361 -0.4974
 8925SOL    HW138411   3.425   2.940   8.235 -1.1653  0.3319  1.4134
 8925SOL    HW238412   3.300   2.983   8.306  0.8660  2.4703  0.6267
 8926SOL     OW38413   2.585   0.295  11.355 -0.1399  0.4285 -0.5544
 8926SOL    HW138414   2.601   0.202  11.372  1.7196  0.9754  0.7111
 8926SOL    HW238415   2.622   0.326  11.438  1.2110 -2.0569 -0.2065
 8927SOL     OW38416   0.121   0.591   3.486  0.0216  0.3503 -0.5254
 8927SOL    HW138417   0.088   0.664   3.433  2.5220  0.8545 -1.4255
 8927SOL    HW238418   0.201   0.635   3.516 -0.3639 -0.0355  1.0588
 8928SOL     OW38419   2.521   3.859   8.569  0.3089  0.3981  0.3725
 8928SOL    HW138420   2.452   3.798   8.594  1.4071  0.0518  2.5623
 8928SOL    HW238421   2.508   3.874   8.475  0.1660  0.7761  0.4516
 8929SOL     OW38422   3.674   0.252  16.101 -0.5149 -0.1537  0.4412
 8929SOL    HW138423   3.703   0.343  16.104 -1.4032  0.0899  1.8759
 8929SOL    HW238424   3.751   0.205  16.132 -0.0540  0.4713  0.2321
 8930SOL     OW38425   2.508   4.026   1.643 -0.1522  0.5756  0.3902
 8930SOL    HW138426   2.519   3.941   1.685 -1.3397 -0.6097 -1.6941
 8930SOL    HW238427   2.571   4.029   1.571 -1.7469 -1.6397 -1.1009
 8931SOL     OW38428   4.564   3.838   1.932 -0.4839  0.4023 -0.6071
 8931SOL    HW138429   4.512   3.849   2.012 -0.2429 -1.1694 -0.2297
 8931SOL    HW238430   4.529   3.903   1.873 -1.6692  0.7057  0.4246
 8932SOL     OW38431   3.392   0.767   8.400  0.1242  0.3942 -0.1916
 8932SOL    HW138432   3.356   0.748   8.487  1.5793 -2.0849 -0.1006
 8932SOL    HW238433   3.484   0.774   8.425 -0.0675 -1.8917  1.2017
 8933SOL     OW38434   0.183   4.167   6.067  0.0709 -0.4532  0.0764
 8933SOL    HW138435   0.152   4.130   5.984 -0.7565  0.4562 -0.0101
 8933SOL    HW238436   0.274   4.179   6.041 -1.0497  2.5295 -2.4899
 8934SOL     OW38437   1.511   3.132  12.975 -1.2105 -0.0398  0.3291
 8934SOL    HW138438   1.497   3.095  13.062 -0.3729  0.9996  0.9025
 8934SOL    HW238439   1.462   3.213  12.991 -0.4818  0.7452 -1.4494
 8935SOL     OW38440   2.542   1.147  12.548 -0.0982  0.7109  0.1631
 8935SOL    HW138441   2.524   1.117  12.636  0.5135  1.6016  0.5978
 8935SOL    HW238442   2.469   1.207  12.531 -0.2406  0.3201 -0.5977
 8936SOL     OW38443   0.398   2.038   6.392 -0.1773  0.3996 -0.2383
 8936SOL    HW138444   0.326   2.071   6.446 -0.0571 -1.5480  1.1396
 8936SOL    HW238445   0.363   2.013   6.306 -1.4915 -0.1991  0.4716
 8937SOL     OW38446   3.718   0.839  10.639 -0.1581  0.0073 -0.1202
 8937SOL    HW138447   3.810   0.814  10.631 -0.4616 -1.1737  0.0886
 8937SOL    HW238448   3.724   0.920  10.691  1.5796 -0.1431 -0.0825
 8938SOL     OW38449   2.996   1.289  10.249 -0.7158  1.3573 -0.3343
 8938SOL    HW138450   2.988   1.260  10.158  3.2134 -1.2651  0.1301
 8938SOL    HW238451   2.908   1.272  10.281  0.1457 -1.9210  0.2856
 8939SOL     OW38452   2.189   4.227   2.778 -0.0410  0.0122 -0.4050
 8939SOL    HW138453   2.182   4.187   2.691 -2.4645 -1.2440  0.3824
 8939SOL    HW238454   2.282   4.242   2.794 -0.0496 -1.0106  0.5509
 8940SOL     OW38455   1.323   2.067   9.438  0.1315 -0.3664 -0.2662
 8940SOL    HW138456   1.237   2.046   9.402 -0.4081 -0.8491  1.2946
 8940SOL    HW238457   1.360   2.131   9.377 -1.5180  0.2629 -0.5897
 8941SOL     OW38458   0.524   0.665   5.031  0.0191  0.8156  0.4169
 8941SOL    HW138459   0.523   0.571   5.009  1.4746  1.2191 -1.3337
 8941SOL    HW238460   0.476   0.674   5.114 -1.3677  0.0447 -0.2819
 8942SOL     OW38461   3.187   3.735   4.819 -0.7960 -0.3315  0.4745
 8942SOL    HW138462   3.119   3.763   4.757 -1.2640  0.4024  1.3160
 8942SOL    HW238463   3.252   3.800   4.794 -0.8579  0.1456  1.5639
 8943SOL     OW38464   3.114   4.163   0.701 -0.1452  0.0090  0.0146
 8943SOL    HW138465   3.061   4.085   0.684  0.8603 -1.1382  2.1223
 8943SOL    HW238466   3.113   4.169   0.797  0.3209  0.3120  0.0052
 8944SOL     OW38467   1.623   1.876   2.199  0.6558 -1.3530 -0.1279
 8944SOL    HW138468   1.596   1.901   2.287  0.8844  0.8117 -0.6656
 8944SOL    HW238469   1.558   1.930   2.153  1.9621  0.7232  0.4520
 8945SOL     OW38470   4.561   4.141   4.860 -0.3129  0.4094  0.1886
 8945SOL    HW138471   4.629   4.078   4.838  0.7850  1.4589  0.6161
 8945SOL    HW238472   4.553   4.137   4.955  1.0990 -0.4387  0.2747
 8946SOL     OW38473   0.503   3.962   1.613  0.2441  0.1802  0.5192
 8946SOL    HW138474   0.474   3.925   1.530  0.9164 -0.2437  0.4742
 8946SOL    HW238475   0.421   3.992   1.653  0.2603  0.1071  0.6072
 8947SOL     OW38476   3.116   2.244  13.260  0.2023  0.2926 -0.8221
 8947SOL    HW138477   3.139   2.165  13.210 -1.1894 -1.3921  1.2052
 8947SOL    HW238478   3.022   2.236  13.273  0.4564  0.7578  1.2450
 8948SOL     OW38479   3.288   2.249   3.256  0.3050 -0.5687 -0.6276
 8948SOL    HW138480   3.272   2.294   3.339  0.0314 -1.1484 -0.3595
 8948SOL    HW238481   3.201   2.262   3.220  0.3717 -1.8564 -1.2581
 8949SOL     OW38482   3.155   1.543   5.165  0.2336  0.1170  0.3766
 8949SOL    HW138483   3.220   1.485   5.204 -0.3044  1.4350  3.2176
 8949SOL    HW238484   3.130   1.591   5.244 -0.2181 -1.7300  1.3761
 8950SOL     OW38485   0.017   3.114   7.715  0.3622 -0.4008  0.6850
 8950SOL    HW138486   0.053   3.124   7.803 -0.1967 -0.3590  0.9079
 8950SOL    HW238487   4.670   3.162   7.722 -0.7305 -2.1317 -0.1463
 8951SOL     OW38488   1.658   2.345   1.074  0.2066  0.0972 -0.4742
 8951SOL    HW138489   1.692   2.311   0.991 -1.2297 -1.1942 -0.5244
 8951SOL    HW238490   1.572   2.366   1.036  0.7718  0.4349 -1.5863
 8952SOL     OW38491   0.230   3.258  16.538 -0.8413  0.1823 -0.2614
 8952SOL    HW138492   0.299   3.191  16.547 -1.7340 -1.1260 -2.9068
 8952SOL    HW238493   0.159   3.229  16.595 -0.5105 -1.1307 -0.5107
 8953SOL     OW38494   4.292   0.880   6.866 -0.2461  0.0979  0.2783
 8953SOL    HW138495   4.309   0.940   6.939 -2.4582 -0.3306  1.1447
 8953SOL    HW238496   4.276   0.800   6.916 -0.2371 -0.0026  0.1198
 8954SOL     OW38497   4.308   3.032   7.578  0.1599 -0.5831 -0.3532
 8954SOL    HW138498   4.259   3.025   7.496 -0.5845  0.3610  0.0059
 8954SOL    HW238499   4.397   3.011   7.549  0.1946 -0.6106 -0.2262
 8955SOL     OW38500   0.052   0.254  13.288 -0.5022 -0.5563  0.1900
 8955SOL    HW138501   0.078   0.328  13.343 -3.0000  0.5075 -0.0255
 8955SOL    HW238502   0.121   0.189  13.286  1.1053  1.1666 -0.2444
 8956SOL     OW38503   2.457   1.835   8.733 -0.0371  0.4501 -0.8196
 8956SOL    HW138504   2.420   1.857   8.819  0.9092 -0.9700 -0.0450
 8956SOL    HW238505   2.540   1.795   8.761 -1.9596 -1.3059  2.4804
 8957SOL     OW38506   2.184   4.227   5.880  0.3910  0.2043  0.1028
 8957SOL    HW138507   2.232   4.296   5.833  2.6109 -1.7715 -0.5152
 8957SOL    HW238508   2.254   4.211   5.943  1.3594  3.8296 -0.0438
 8958SOL     OW38509   1.662   2.814   6.195 -0.1204 -0.1809 -0.2792
 8958SOL    HW138510   1.721   2.739   6.194  0.6799  0.4451 -0.1770
 8958SOL    HW238511   1.577   2.776   6.217  0.6605 -2.5975 -1.5231
 8959SOL     OW38512   2.214   0.725   3.422  0.1408  0.0890  0.8077
 8959SOL    HW138513   2.130   0.758   3.454 -0.0385 -0.9240  1.4171
 8959SOL    HW238514   2.269   0.747   3.498 -1.0270 -1.4361  2.0942
 8960SOL     OW38515   2.654   1.853   3.016  0.0521  0.0357 -0.0666
 8960SOL    HW138516   2.629   1.828   2.927 -0.9859 -0.8488  0.4670
 8960SOL    HW238517   2.639   1.772   3.066  0.3476 -0.9727 -1.6208
 8961SOL     OW38518   3.017   0.272   7.214 -0.5287 -0.2575  0.0340
 8961SOL    HW138519   2.938   0.326   7.208 -1.5015 -1.5519  1.4931
 8961SOL    HW238520   3.068   0.324   7.276 -0.8655 -1.9670  1.7407
 8962SOL     OW38521   1.351   2.254   5.661 -0.1160  0.0445  0.7129
 8962SOL    HW138522   1.441   2.287   5.662  0.0446 -0.4047  0.6924
 8962SOL    HW238523   1.310   2.341   5.655 -0.9414 -0.3927 -0.0495
 8963SOL     OW38524   4.637   3.235   4.078  0.7132 -0.6547 -0.0251
 8963SOL    HW138525   4.659   3.238   4.171  1.3586  1.9170 -0.2709
 8963SOL    HW238526   4.701   3.296   4.042  0.7970 -0.2648  0.7738
 8964SOL     OW38527   3.307   3.020   5.525  0.4756  0.5598  0.3303
 8964SOL    HW138528   3.346   2.933   5.534 -0.4063  0.2863  1.4388
 8964SOL    HW238529   3.262   3.022   5.610 -2.0766  1.4331 -1.0201
 8965SOL     OW38530   0.045   0.481   7.935 -0.2088 -0.0427  0.7195
 8965SOL    HW138531   0.123   0.440   7.897 -0.3208  1.4420 -1.1285
 8965SOL    HW238532   4.724   0.405   7.953 -0.1964 -0.7905 -2.3753
 8966SOL     OW38533   3.257   1.168   7.914  0.0579  0.1382 -0.1962
 8966SOL    HW138534   3.340   1.207   7.885  0.1685 -0.3132 -0.4804
 8966SOL    HW238535   3.222   1.232   7.976 -1.2601 -0.8979  0.1224
 8967SOL     OW38536   0.890   2.879  15.349  0.5487  0.7726 -0.4252
 8967SOL    HW138537   0.925   2.842  15.268 -0.1081 -0.1337 -0.2872
 8967SOL    HW238538   0.902   2.805  15.409 -0.7025  0.4608 -0.5664
 8968SOL     OW38539   3.373   2.799   4.485  0.1962  0.5697  0.3858
 8968SOL    HW138540   3.408   2.726   4.536  1.2822  0.0734 -1.0772
 8968SOL    HW238541   3.344   2.760   4.402 -0.1367 -1.1336  1.3109
 8969SOL     OW38542   0.092   1.928   1.613 -0.2415  0.2377  0.0199
 8969SOL    HW138543   0.127   1.877   1.686  2.4492  0.5171 -1.0692
 8969SOL    HW238544   0.108   1.873   1.537  2.7519  0.4001  0.5378
 8970SOL     OW38545   4.473   1.469   2.156  0.2019  0.1248 -0.1081
 8970SOL    HW138546   4.522   1.447   2.236  2.3169  0.9627 -1.1735
 8970SOL    HW238547   4.397   1.495   2.208 -0.0932  0.9169 -0.9522
 8971SOL     OW38548   2.285   2.262   8.908 -0.4908  0.5754  0.1352
 8971SOL    HW138549   2.350   2.238   8.974 -0.9892  0.4659  0.5835
 8971SOL    HW238550   2.332   2.325   8.854  0.5259 -0.5829 -0.3351
 8972SOL     OW38551   2.658   3.881   3.861 -0.0007  0.0169 -0.0072
 8972SOL    HW138552   2.634   3.971   3.881  1.3026  0.0701  1.2361
 8972SOL    HW238553   2.742   3.893   3.817 -0.0029  0.5053  0.1258
 8973SOL     OW38554   3.094   4.021   8.654 -0.2004 -0.2704 -0.0118
 8973SOL    HW138555   3.121   4.051   8.568 -0.9824  1.8544  0.4772
 8973SOL    HW238556   3.000   4.017   8.641 -0.1433 -2.1051  0.1221
 8974SOL     OW38557   2.437   3.507   9.308 -0.4098  0.0608 -0.6058
 8974SOL    HW138558   2.456   3.434   9.367  1.1743  0.8122 -0.1961
 8974SOL    HW238559   2.524   3.510   9.269 -0.5213 -0.2450 -0.8788
 8975SOL     OW38560   2.931   4.122   1.533 -0.2270 -0.2841  0.2011
 8975SOL    HW138561   2.864   4.106   1.467 -0.4719  2.1740 -0.1163
 8975SOL    HW238562   3.006   4.109   1.475 -1.7495  0.8923 -2.0123
 8976SOL     OW38563   1.661   1.117   2.124 -0.9409  0.4419 -0.0351
 8976SOL    HW138564   1.683   1.039   2.175 -2.5324  0.5676  0.8361
 8976SOL    HW238565   1.734   1.171   2.156 -0.3338 -3.0262  4.4344
 8977SOL     OW38566   0.605   3.633   6.934  0.1289 -0.4818 -0.4295
 8977SOL    HW138567   0.618   3.568   7.003 -0.0375  0.6227  0.6476
 8977SOL    HW238568   0.639   3.711   6.977 -0.2090  0.1225 -1.2790
 8978SOL     OW38569   3.507   2.441   8.303  0.3582 -0.4277  0.1929
 8978SOL    HW138570   3.469   2.418   8.387  0.9741  0.1437  0.6243
 8978SOL    HW238571   3.572   2.508   8.326  0.0508 -0.1937  0.3669
 8979SOL     OW38572   4.426   2.350   9.085 -0.6695 -0.3914 -0.5108
 8979SOL    HW138573   4.486   2.395   9.146 -0.1530 -0.9553 -0.5999
 8979SOL    HW238574   4.378   2.292   9.144 -1.2164  1.3511  0.7624
 8980SOL     OW38575   3.385   3.375   8.338  0.1947  0.0226 -0.0241
 8980SOL    HW138576   3.291   3.374   8.319  0.2329  3.4921 -0.3846
 8980SOL    HW238577   3.409   3.380   8.245 -0.0408 -1.4928 -0.1620
 8981SOL     OW38578   2.402   3.761   4.951 -0.8438  0.1911  0.4168
 8981SOL    HW138579   2.369   3.729   4.867  0.2534 -1.8197  0.7547
 8981SOL    HW238580   2.401   3.856   4.940 -0.6051 -0.0036 -1.3298
 8982SOL     OW38581   0.283   1.052   4.487 -0.3368 -0.1514 -0.5208
 8982SOL    HW138582   0.197   1.015   4.469  0.1120 -0.9606 -0.9818
 8982SOL    HW238583   0.256   1.118   4.550  2.0704  0.3141  0.0537
 8983SOL     OW38584   2.665   0.623   6.881  0.5727  0.0080  0.5024
 8983SOL    HW138585   2.659   0.617   6.786 -0.5847  0.9369  0.5266
 8983SOL    HW238586   2.663   0.718   6.887 -0.8294  0.0516 -0.6409
 8984SOL     OW38587   1.513   3.596   7.917 -0.3271 -0.4541  0.1316
 8984SOL    HW138588   1.431   3.643   7.933  1.3927  2.1717  1.1429
 8984SOL    HW238589   1.489   3.551   7.835  2.6315  0.8992 -1.4493
 8985SOL     OW38590   0.180   2.497   6.060  0.3305  0.3367  0.2330
 8985SOL    HW138591   0.213   2.430   5.999 -2.7435  1.1363 -2.3263
 8985SOL    HW238592   0.230   2.473   6.138  0.8880  0.4959 -0.0824
 8986SOL     OW38593   2.810   1.588  12.219 -0.3273  0.2998 -0.4346
 8986SOL    HW138594   2.753   1.539  12.277  0.7548  0.7375  1.0105
 8986SOL    HW238595   2.880   1.523  12.210 -0.6303  0.2392 -2.3095
 8987SOL     OW38596   2.006   2.272  15.478  0.2212 -0.0632  0.4420
 8987SOL    HW138597   2.045   2.241  15.397  0.5769  1.9805 -0.1856
 8987SOL    HW238598   2.040   2.211  15.543 -0.8523 -0.7624  0.3491
 8988SOL     OW38599   3.713   0.382   6.880 -0.4163 -0.0892 -0.6109
 8988SOL    HW138600   3.688   0.291   6.896 -1.4813  0.2812 -0.1074
 8988SOL    HW238601   3.649   0.400   6.811  0.1151 -0.4541 -1.1919
 8989SOL     OW38602   3.867   3.430   8.705 -0.0445  0.2886 -0.2413
 8989SOL    HW138603   3.874   3.455   8.796 -2.1099  0.5958 -0.1643
 8989SOL    HW238604   3.809   3.499   8.673 -0.8215  0.0255  0.5969
 8990SOL     OW38605   4.666   0.641   7.740 -0.2656  0.3411  0.0788
 8990SOL    HW138606   4.585   0.596   7.714 -0.1399  0.0598  0.1713
 8990SOL    HW238607   4.684   0.583   7.814 -0.6657  1.4154  0.9999
 8991SOL     OW38608   3.769   2.989   7.503 -0.7852 -0.2720  0.4284
 8991SOL    HW138609   3.732   2.942   7.578 -0.4177  0.8903  1.3246
 8991SOL    HW238610   3.850   3.027   7.536 -2.8231  2.4711  2.2590
 8992SOL     OW38611   2.834   1.142   2.912 -0.7760 -0.3595  0.0999
 8992SOL    HW138612   2.742   1.147   2.939 -0.5469  1.6132  0.5165
 8992SOL    HW238613   2.892   1.164   2.985 -1.4277 -0.4447  0.6433
 8993SOL     OW38614   1.693   1.228   3.972 -0.4372  0.2288 -0.7027
 8993SOL    HW138615   1.734   1.255   4.054 -3.7625  0.5098  0.8970
 8993SOL    HW238616   1.681   1.134   3.990 -1.8351  0.6662  0.6585
 8994SOL     OW38617   2.746   3.403   7.729  0.3229  0.3493  0.3884
 8994SOL    HW138618   2.711   3.480   7.685  1.4334 -0.1921 -1.4585
 8994SOL    HW238619   2.784   3.442   7.808  0.2178  0.1881  0.5192
 8995SOL     OW38620   4.048   3.710  16.955 -0.0300  0.3664 -0.0892
 8995SOL    HW138621   3.995   3.778  16.997 -0.0118  1.7175 -2.2356
 8995SOL    HW238622   4.070   3.667  17.037  0.3496 -0.5091 -0.6465
 8996SOL     OW38623   0.727   3.405   2.774 -0.3316 -0.3405 -0.2780
 8996SOL    HW138624   0.738   3.492   2.812 -0.1521 -0.8149  0.7345
 8996SOL    HW238625   0.814   3.383   2.741 -1.2239 -3.5307 -0.4519
 8997SOL     OW38626   4.430   1.162   5.024  0.0219 -0.1913  0.1191
 8997SOL    HW138627   4.403   1.243   5.066  0.7662  0.0991  0.0371
 8997SOL    HW238628   4.400   1.174   4.934 -0.6444  0.0357  0.3723
 8998SOL     OW38629   2.983   0.779   2.275 -0.3213  0.4141  0.1603
 8998SOL    HW138630   3.042   0.840   2.231  1.5971 -0.4385  1.5841
 8998SOL    HW238631   2.965   0.828   2.355  0.8677  0.5634  0.3391
 8999SOL     OW38632   3.111   3.584  10.895 -0.1197 -0.2672 -0.0131
 8999SOL    HW138633   3.159   3.619  10.820  0.9467 -0.5639  0.5212
 8999SOL    HW238634   3.162   3.610  10.972 -0.8101 -1.7245  0.9231
 9000SOL     OW38635   4.153   1.879   9.129  0.2831  0.1292  0.2655
 9000SOL    HW138636   4.243   1.878   9.160 -0.5084 -1.5830  2.5115
 9000SOL    HW238637   4.176   1.899   9.039 -1.2807 -1.0360 -0.3964
 9001SOL     OW38638   3.816   4.207   4.523  0.1528  0.3845  0.3229
 9001SOL    HW138639   3.779   4.295   4.522  2.0667  1.2145  1.9857
 9001SOL    HW238640   3.871   4.203   4.445  0.8821  0.7807  0.8163
 9002SOL     OW38641   4.438   0.216  14.941  0.1772 -0.4700  0.1132
 9002SOL    HW138642   4.433   0.311  14.936 -1.5478 -0.6305 -1.2872
 9002SOL    HW238643   4.363   0.180  14.894 -1.0878  0.9670  1.0217
 9003SOL     OW38644   2.203   1.079   1.624 -0.3764  0.5987 -0.0282
 9003SOL    HW138645   2.185   1.171   1.644  0.1302  0.8813 -0.8861
 9003SOL    HW238646   2.297   1.067   1.612 -0.1756  2.5145 -0.4227
 9004SOL     OW38647   1.445   3.513   4.592 -0.4336 -0.6494 -0.4606
 9004SOL    HW138648   1.405   3.580   4.648  0.8097 -2.5643  2.6994
 9004SOL    HW238649   1.394   3.536   4.515 -1.4921 -1.4600 -0.0067
 9005SOL     OW38650   0.880   0.614   3.252 -0.8045  0.3313 -0.9399
 9005SOL    HW138651   0.934   0.554   3.303 -0.5606  0.7272 -0.7358
 9005SOL    HW238652   0.895   0.584   3.162 -2.3551  0.3181 -1.1876
 9006SOL     OW38653   2.079   2.392  13.289 -0.0177 -0.2662 -0.1817
 9006SOL    HW138654   2.116   2.439  13.214  1.4334  2.8074  2.4673
 9006SOL    HW238655   2.016   2.458  13.317 -0.1626  0.0268 -1.1740
 9007SOL     OW38656   0.135   1.628   6.329  0.3356 -0.1003 -0.1873
 9007SOL    HW138657   0.159   1.627   6.236  0.7780  0.1771 -0.0755
 9007SOL    HW238658   0.132   1.535   6.351 -1.6127  0.3740  1.5281
 9008SOL     OW38659   3.388   0.300   1.155  0.2101 -0.8061  0.7897
 9008SOL    HW138660   3.400   0.355   1.232  1.2076 -0.7248  0.5846
 9008SOL    HW238661   3.447   0.226   1.169  1.9331  0.7691  1.7806
 9009SOL     OW38662   1.314   1.308   2.744  0.4905  0.3906  0.0433
 9009SOL    HW138663   1.294   1.390   2.790  1.3826 -0.5240  2.0366
 9009SOL    HW238664   1.409   1.306   2.737  0.3261  1.1194 -2.3345
 9010SOL     OW38665   2.384   3.607   8.551 -0.3816 -0.2518 -0.3958
 9010SOL    HW138666   2.390   3.601   8.456  1.4818 -2.2374 -0.1570
 9010SOL    HW238667   2.443   3.534   8.570 -1.3746 -1.1332 -0.6491
 9011SOL     OW38668   2.520   0.166   5.554 -0.1057 -0.4613 -0.1020
 9011SOL    HW138669   2.589   0.231   5.544 -2.0099  1.5729 -0.1001
 9011SOL    HW238670   2.474   0.196   5.632  0.9627  1.3118 -0.1458
 9012SOL     OW38671   3.129   1.552   3.153  0.3620  0.3099  0.1563
 9012SOL    HW138672   3.071   1.614   3.110 -0.2254 -1.6008 -1.8461
 9012SOL    HW238673   3.134   1.472   3.099  3.1529 -1.6577  3.3313
 9013SOL     OW38674   0.789   3.193   6.676  0.3049  0.4007  0.0385
 9013SOL    HW138675   0.847   3.166   6.747 -1.4648 -1.8191  0.6460
 9013SOL    HW238676   0.754   3.113   6.638 -1.1648  0.7976  0.5558
 9014SOL     OW38677   2.892   3.424   1.311  0.2948  0.2960  0.2391
 9014SOL    HW138678   2.934   3.507   1.290  0.3647 -0.1189 -1.2636
 9014SOL    HW238679   2.953   3.351   1.296  0.2561  0.6832 -1.9034
 9015SOL     OW38680   4.700   1.191   7.770 -0.2655  0.2790 -0.6535
 9015SOL    HW138681   4.658   1.109   7.745  0.3855 -0.4030  0.4598
 9015SOL    HW238682   0.047   1.152   7.803  0.1681  0.0217 -2.0592
 9016SOL     OW38683   1.102   0.368   2.837 -0.3679  0.3392 -0.4032
 9016SOL    HW138684   1.104   0.328   2.750 -0.1522  1.3903 -0.8820
 9016SOL    HW238685   1.071   0.298   2.894 -1.1896 -0.3744 -1.7231
 9017SOL     OW38686   3.599   2.380   1.905  0.6629 -0.5376  0.2558
 9017SOL    HW138687   3.523   2.330   1.875  0.2751 -0.2214  0.6955
 9017SOL    HW238688   3.643   2.303   1.940  0.4985 -0.6675  0.1756
 9018SOL     OW38689   4.629   3.020  12.363 -0.0882 -0.3483  0.8772
 9018SOL    HW138690   4.650   3.021  12.270 -0.4250  1.6463  0.8433
 9018SOL    HW238691   4.711   3.038  12.409  0.0780  2.6711 -0.6193
 9019SOL     OW38692   0.420   2.268   4.647 -0.2528 -0.0821 -0.4256
 9019SOL    HW138693   0.437   2.272   4.741 -1.4652  0.0655 -0.2076
 9019SOL    HW238694   0.395   2.361   4.641  2.0506  0.5195 -0.5729
 9020SOL     OW38695   0.184   2.041   4.110 -0.5885  0.5829  0.3085
 9020SOL    HW138696   0.143   2.061   4.026 -0.4071  1.5032  0.4357
 9020SOL    HW238697   0.109   2.065   4.164 -0.6295  2.4984 -0.6188
 9021SOL     OW38698   0.501   3.883   7.130 -0.4816 -0.0752  0.4915
 9021SOL    HW138699   0.584   3.852   7.167 -0.5065  0.4774  1.0106
 9021SOL    HW238700   0.446   3.805   7.129  0.3896 -0.6816  0.3577
 9022SOL     OW38701   2.186   0.859   6.004 -0.1442 -0.1207 -0.2471
 9022SOL    HW138702   2.111   0.876   5.948 -1.0097  4.4673  2.3418
 9022SOL    HW238703   2.254   0.903   5.953  0.3393  0.0189  0.5076
 9023SOL     OW38704   3.910   3.081   8.475  0.2788 -0.0081 -0.1652
 9023SOL    HW138705   3.965   3.140   8.424  1.8312 -1.8116 -0.5411
 9023SOL    HW238706   3.924   3.107   8.566  1.4848 -1.1812 -0.0365
 9024SOL     OW38707   0.186   1.498   1.121  0.2540  0.4461  0.0517
 9024SOL    HW138708   0.095   1.511   1.147  0.4371  0.8645  0.4773
 9024SOL    HW238709   0.222   1.475   1.207 -0.4132 -0.6172  0.0464
 9025SOL     OW38710   2.182   2.729  11.605  0.2165  0.3938 -0.1760
 9025SOL    HW138711   2.230   2.651  11.576 -0.7623 -0.5060  0.5986
 9025SOL    HW238712   2.100   2.734  11.556 -0.3383 -2.9492  0.3836
 9026SOL     OW38713   1.229   3.411   6.846 -0.1582 -0.1453  0.1083
 9026SOL    HW138714   1.172   3.440   6.775 -1.1220  1.1508  1.4130
 9026SOL    HW238715   1.295   3.350   6.812 -0.3966 -0.3940  0.0906
 9027SOL     OW38716   0.506   0.469  11.768 -0.1118  0.2258 -0.1047
 9027SOL    HW138717   0.442   0.538  11.754 -0.4483 -0.2438 -0.8865
 9027SOL    HW238718   0.574   0.500  11.827 -0.4715  0.6693  0.0709
 9028SOL     OW38719   0.558   2.383   9.240  0.1118 -0.0539 -0.4601
 9028SOL    HW138720   0.535   2.382   9.333  2.6686 -0.9246  0.1467
 9028SOL    HW238721   0.596   2.297   9.223  0.7283  0.3779 -1.2474
 9029SOL     OW38722   0.938   1.499  11.226  0.1473  0.4174 -0.0548
 9029SOL    HW138723   0.921   1.406  11.240  2.2842  0.3520  2.2360
 9029SOL    HW238724   0.986   1.489  11.144 -0.3318 -1.7169 -0.0808
 9030SOL     OW38725   3.777   2.119   1.787  0.6811  0.6776  0.0090
 9030SOL    HW138726   3.759   2.025   1.788  1.6697  0.5330  2.8076
 9030SOL    HW238727   3.839   2.120   1.860 -2.3428  1.8438  2.5302
 9031SOL     OW38728   3.532   0.004   8.664  0.0781 -0.1164 -0.1688
 9031SOL    HW138729   3.472   0.038   8.731 -0.4695 -0.6561 -0.3822
 9031SOL    HW238730   3.488   0.011   8.580 -0.1519 -1.2933 -0.1485
 9032SOL     OW38731   4.522   3.073   4.563  0.0526 -0.2662  0.3201
 9032SOL    HW138732   4.471   3.008   4.515  0.8289 -0.6458  0.0134
 9032SOL    HW238733   4.548   3.131   4.492 -2.8039 -0.8556 -1.1975
 9033SOL     OW38734   0.575   4.191   2.494 -0.3397  0.2290 -0.3219
 9033SOL    HW138735   0.579   4.246   2.572  1.1936  0.1035 -0.3078
 9033SOL    HW238736   0.653   4.221   2.447 -0.5561 -0.4084 -1.0858
 9034SOL     OW38737   4.107   2.539   9.083 -0.2681  0.3072 -0.7139
 9034SOL    HW138738   4.131   2.462   9.135 -0.6662  0.4096 -0.3799
 9034SOL    HW238739   4.122   2.501   8.996 -1.5579 -1.4483 -0.1895
 9035SOL     OW38740   4.507   2.714   7.899 -0.1883  0.1006 -0.3070
 9035SOL    HW138741   4.536   2.664   7.976  0.1697  0.8825  0.0610
 9035SOL    HW238742   4.515   2.803   7.932 -0.0073 -0.8085  2.0641
 9036SOL     OW38743   0.573   3.644   0.757  0.4507 -0.3358 -0.4562
 9036SOL    HW138744   0.603   3.554   0.764  0.1395 -0.3771  0.3250
 9036SOL    HW238745   0.586   3.648   0.663 -1.0107 -0.3084 -0.6586
 9037SOL     OW38746   4.174   1.676   8.221  0.2264 -0.2904  0.7135
 9037SOL    HW138747   4.254   1.710   8.181 -0.1244 -1.8920 -1.3458
 9037SOL    HW238748   4.205   1.591   8.252 -0.7106 -0.6261  0.7526
 9038SOL     OW38749   2.631   0.845  13.286 -0.2615 -0.2912  0.1015
 9038SOL    HW138750   2.631   0.776  13.352 -0.2236 -0.6134 -0.2397
 9038SOL    HW238751   2.693   0.905  13.328 -0.8378 -0.0516  0.6024
 9039SOL     OW38752   2.938   1.916   2.129  0.1156 -0.3845  0.7133
 9039SOL    HW138753   2.950   1.981   2.198  3.7236 -2.4019  2.0163
 9039SOL    HW238754   2.846   1.893   2.139 -0.1256 -0.5083 -1.8625
 9040SOL     OW38755   1.967   2.364   8.401  0.1587  0.0524 -0.4378
 9040SOL    HW138756   1.996   2.368   8.310 -2.1645  0.7412 -1.1503
 9040SOL    HW238757   1.963   2.272   8.427 -0.5978 -0.4279 -2.2667
 9041SOL     OW38758   0.026   3.653   3.581 -0.1090 -0.1333  0.3239
 9041SOL    HW138759   4.673   3.636   3.548  0.1495 -0.5798 -0.1232
 9041SOL    HW238760   0.006   3.658   3.675  1.3040 -0.0264  0.6170
 9042SOL     OW38761   0.486   2.132  12.311  0.1788  0.1462  0.6670
 9042SOL    HW138762   0.447   2.218  12.296 -0.1168  0.0588  0.9582
 9042SOL    HW238763   0.467   2.119  12.404 -0.0144 -0.3890  0.5504
 9043SOL     OW38764   0.163   2.816   5.073  0.9098  0.5613 -0.0293
 9043SOL    HW138765   0.071   2.844   5.067  1.3252  1.6112 -1.4685
 9043SOL    HW238766   0.189   2.835   4.983 -0.8902  0.4098 -0.5853
 9044SOL     OW38767   3.854   2.746   2.091 -0.4052 -0.1516  0.4388
 9044SOL    HW138768   3.790   2.740   2.162 -1.8621  1.0595 -0.7998
 9044SOL    HW238769   3.915   2.675   2.110  0.6097  0.9438  1.3086
 9045SOL     OW38770   1.715   3.122   9.692  0.5465 -0.6818  0.1401
 9045SOL    HW138771   1.729   3.121   9.597 -2.9719  0.2001 -0.3557
 9045SOL    HW238772   1.684   3.211   9.706  0.9113 -0.4448 -0.5625
 9046SOL     OW38773   0.834   1.078   0.941 -0.3440 -0.1200  0.1350
 9046SOL    HW138774   0.879   1.004   0.982 -0.1884  0.1172  0.3936
 9046SOL    HW238775   0.899   1.119   0.884 -0.7368  1.8262  1.0959
 9047SOL     OW38776   1.360   0.694  12.435  0.0162 -0.3681 -0.4827
 9047SOL    HW138777   1.433   0.688  12.496 -0.6762 -0.1061  0.3835
 9047SOL    HW238778   1.351   0.785  12.405 -1.5342 -0.2309  0.3626
 9048SOL     OW38779   1.177   2.757  16.234  0.1311  0.0185 -0.0812
 9048SOL    HW138780   1.258   2.730  16.190  0.7385  3.0035 -0.7743
 9048SOL    HW238781   1.112   2.754  16.163  0.1543 -0.8568 -0.0724
 9049SOL     OW38782   3.985   4.516   4.629  0.0951 -0.2920  0.4171
 9049SOL    HW138783   3.975   4.605   4.661 -2.5903  0.3378 -2.2725
 9049SOL    HW238784   3.895   4.502   4.600  0.4672  1.1266 -1.3795
 9050SOL     OW38785   1.232   3.592   5.881 -0.5823  0.2630  0.0025
 9050SOL    HW138786   1.291   3.544   5.940  3.5658  3.3268 -1.6272
 9050SOL    HW238787   1.288   3.624   5.810  1.0417 -1.6350  0.4334
 9051SOL     OW38788   4.315   2.299   3.452 -0.0124 -0.4953 -0.4281
 9051SOL    HW138789   4.286   2.286   3.362  0.5440  0.6863 -0.7763
 9051SOL    HW238790   4.264   2.224   3.483  1.8681 -2.0157 -0.9616
 9052SOL     OW38791   3.269   0.527  14.122  0.0052 -0.3228 -0.5566
 9052SOL    HW138792   3.208   0.502  14.191  0.4681  0.6402  0.2042
 9052SOL    HW238793   3.213   0.503  14.047 -0.6098 -0.4308 -0.0680
 9053SOL     OW38794   0.560   0.813  11.046 -0.3089 -0.6802 -0.0369
 9053SOL    HW138795   0.526   0.821  11.135  1.4512 -0.6998  0.6410
 9053SOL    HW238796   0.495   0.874  11.011  0.7054 -0.8840 -2.2305
 9054SOL     OW38797   3.422   1.909   3.109  0.0280  0.2866  0.0957
 9054SOL    HW138798   3.489   1.945   3.051  1.4517 -1.1100  0.8811
 9054SOL    HW238799   3.380   1.985   3.151 -0.6459 -0.2195  0.3367
 9055SOL     OW38800   0.774   3.274   8.168  0.6878 -0.1583  0.1174
 9055SOL    HW138801   0.692   3.270   8.218  0.3700  3.1253 -0.1277
 9055SOL    HW238802   0.755   3.220   8.091  0.9581 -0.5306  0.3079
 9056SOL     OW38803   1.487   3.148   4.834  0.2618  0.7127 -0.3014
 9056SOL    HW138804   1.546   3.113   4.767  1.0007 -0.5268  0.9982
 9056SOL    HW238805   1.480   3.074   4.894  1.2211  1.6177  0.9519
 9057SOL     OW38806   2.520   1.696   9.539 -0.5566 -0.8783  0.0948
 9057SOL    HW138807   2.551   1.725   9.453 -2.0265 -1.7093 -0.7137
 9057SOL    HW238808   2.470   1.618   9.515  1.0135 -1.8842  0.0520
 9058SOL     OW38809   0.191   4.129  15.241 -0.2926  0.3459 -0.4831
 9058SOL    HW138810   0.279   4.167  15.229 -0.1970 -0.0818 -1.1119
 9058SOL    HW238811   0.194   4.051  15.185  1.4625  1.1658 -1.5428
 9059SOL     OW38812   0.998   2.318   7.274  0.3863 -0.4920 -0.2528
 9059SOL    HW138813   0.922   2.309   7.331 -0.3267 -0.2312 -1.1638
 9059SOL    HW238814   1.064   2.311   7.343 -2.0644  2.6207  2.4676
 9060SOL     OW38815   1.863   0.947   7.141  0.0428  0.1132 -0.3598
 9060SOL    HW138816   1.845   1.003   7.216 -0.4880 -1.0253  0.3492
 9060SOL    HW238817   1.836   0.862   7.176  0.3767  0.7561  1.4403
 9061SOL     OW38818   4.664   2.010  14.623 -0.1259  0.1740 -0.2454
 9061SOL    HW138819   4.598   2.029  14.556 -0.8202 -1.4847 -0.0353
 9061SOL    HW238820   0.008   2.013  14.569 -2.6063  3.3318 -3.7359
 9062SOL     OW38821   1.845   3.238   4.757 -0.1245  0.2865 -0.1476
 9062SOL    HW138822   1.821   3.145   4.754  2.5846 -0.4293 -0.0368
 9062SOL    HW238823   1.803   3.270   4.677  0.5745 -0.0483 -0.6581
 9063SOL     OW38824   4.171   2.941   7.331  0.1442  0.0070 -0.2622
 9063SOL    HW138825   4.103   2.992   7.288  0.1094 -0.7925 -1.1399
 9063SOL    HW238826   4.217   2.899   7.258 -0.3837  0.0722 -0.6267
 9064SOL     OW38827   3.197   2.569   3.116 -0.0701  0.8584  0.0778
 9064SOL    HW138828   3.178   2.571   3.022  0.5401 -1.9958 -0.0821
 9064SOL    HW238829   3.112   2.545   3.153  0.3438 -1.0075 -0.1929
 9065SOL     OW38830   2.241   3.231   7.443 -0.3367  0.0918  0.6857
 9065SOL    HW138831   2.164   3.244   7.498 -1.3119 -2.3643 -0.1442
 9065SOL    HW238832   2.288   3.161   7.487 -1.0272 -0.3947  0.6362
 9066SOL     OW38833   4.303   3.115  10.813 -0.0255  0.5420 -0.0642
 9066SOL    HW138834   4.301   3.068  10.896  1.3633  0.8972  0.1772
 9066SOL    HW238835   4.214   3.146  10.798 -0.3517 -0.6665 -0.6217
 9067SOL     OW38836   3.800   1.370   1.515  0.3333 -0.0581  0.0260
 9067SOL    HW138837   3.710   1.339   1.509 -0.2944  1.8620 -0.6323
 9067SOL    HW238838   3.854   1.292   1.523  0.4365  0.0412  0.2887
 9068SOL     OW38839   3.295   2.106   9.470  0.0968  0.3954  0.2025
 9068SOL    HW138840   3.289   2.200   9.453 -0.7383  0.0899 -1.1846
 9068SOL    HW238841   3.385   2.094   9.500 -0.7476 -3.6762  1.1457
 9069SOL     OW38842   3.090   3.747   8.341  0.4470 -0.1342  0.2402
 9069SOL    HW138843   3.038   3.826   8.355  0.9151  0.3803 -0.8506
 9069SOL    HW238844   3.180   3.779   8.354  0.8734 -1.3746  0.2943
 9070SOL     OW38845   1.190   3.437   2.681 -0.0919 -0.2143 -0.7271
 9070SOL    HW138846   1.240   3.514   2.709 -0.6177 -0.3946  0.6783
 9070SOL    HW238847   1.267   3.391   2.647  2.2724  2.0653  1.5128
 9071SOL     OW38848   0.902   3.198  17.454 -0.0824 -0.3780 -0.2525
 9071SOL    HW138849   0.825   3.251  17.479 -1.2303 -1.7299 -0.9559
 9071SOL    HW238850   0.879   3.116  17.498  0.5489  0.1137  1.0097
 9072SOL     OW38851   2.430   1.583   5.297 -0.0776 -0.6970 -1.0578
 9072SOL    HW138852   2.473   1.498   5.304 -1.2175 -1.2438 -0.6875
 9072SOL    HW238853   2.402   1.594   5.206  0.1732 -2.3325 -1.3302
 9073SOL     OW38854   1.938   3.999   9.133 -0.5730 -0.1173  0.3411
 9073SOL    HW138855   2.005   4.067   9.144 -1.6842  1.3415 -1.7799
 9073SOL    HW238856   1.987   3.918   9.145  0.3731  0.8049  2.6764
 9074SOL     OW38857   0.188   4.252   1.037 -0.1363  0.6250 -0.2471
 9074SOL    HW138858   0.185   4.158   1.053  1.9655  0.9248  1.8626
 9074SOL    HW238859   0.145   4.279   1.118 -3.1042 -1.1023 -1.2364
 9075SOL     OW38860   2.456   2.187   1.934 -0.2422  0.5026 -0.0028
 9075SOL    HW138861   2.379   2.196   1.991 -0.2104 -1.5284  0.3495
 9075SOL    HW238862   2.448   2.275   1.896 -0.7568 -0.1777 -1.4893
 9076SOL     OW38863   3.762   0.179   9.031 -0.4222  0.4371 -0.5337
 9076SOL    HW138864   3.674   0.193   9.067 -0.1575  2.4605 -0.6781
 9076SOL    HW238865   3.734   0.103   8.980  0.2898  0.4346 -0.9144
 9077SOL     OW38866   2.424   2.242  16.471 -0.2736 -0.1665  0.6245
 9077SOL    HW138867   2.498   2.245  16.410 -1.2112  1.5754 -0.4513
 9077SOL    HW238868   2.477   2.252  16.550  0.5777 -0.9755  0.1536
 9078SOL     OW38869   4.184   0.340   2.869 -0.6837 -0.4991  0.5888
 9078SOL    HW138870   4.213   0.267   2.925 -2.1147 -1.5365 -0.0280
 9078SOL    HW238871   4.107   0.299   2.829  0.1789 -2.9394  1.4321
 9079SOL     OW38872   0.598   2.724   9.411  0.4611 -0.5437  0.0091
 9079SOL    HW138873   0.663   2.703   9.478 -3.4773  0.7915  4.2261
 9079SOL    HW238874   0.650   2.743   9.333 -3.1331  1.3564 -1.8877
 9080SOL     OW38875   0.338   2.570   8.742  0.0910 -1.3220 -0.1492
 9080SOL    HW138876   0.274   2.598   8.808  2.2784  1.4988  0.8161
 9080SOL    HW238877   0.382   2.518   8.810  0.5674 -0.0607  0.5264
 9081SOL     OW38878   3.144   1.208   5.710 -0.2035  0.0876 -0.0433
 9081SOL    HW138879   3.065   1.262   5.713 -0.6198 -0.3086 -4.0086
 9081SOL    HW238880   3.182   1.214   5.798  0.2726 -0.8705 -0.1856
 9082SOL     OW38881   2.329   1.185   6.559  0.1948  0.3021 -0.0866
 9082SOL    HW138882   2.398   1.119   6.564  0.0275  0.0292 -1.2997
 9082SOL    HW238883   2.256   1.135   6.523  0.1680 -1.8734  3.0216
 9083SOL     OW38884   3.294   1.129   1.777  1.0176 -0.1596  0.6084
 9083SOL    HW138885   3.377   1.137   1.729 -0.2063 -0.3037 -1.5547
 9083SOL    HW238886   3.320   1.054   1.831 -0.2204 -0.9698  0.0900
 9084SOL     OW38887   0.200   3.731   7.401 -0.2030  0.1368 -0.1143
 9084SOL    HW138888   0.106   3.751   7.407 -0.0962  0.0267  1.9739
 9084SOL    HW238889   0.221   3.692   7.486 -1.0763 -0.2523 -0.0660
 9085SOL     OW38890   2.185   4.150   4.362  0.0282 -0.7337  0.1296
 9085SOL    HW138891   2.164   4.196   4.443 -1.5408 -0.0233 -0.6813
 9085SOL    HW238892   2.281   4.140   4.365  0.3314  2.2420  0.8119
 9086SOL     OW38893   2.198   3.230   9.408 -0.2796 -0.2320  0.3151
 9086SOL    HW138894   2.118   3.252   9.456  0.0783 -1.3143  1.4290
 9086SOL    HW238895   2.153   3.202   9.329  1.8683  1.9880 -1.6987
 9087SOL     OW38896   1.613   2.763  14.225  0.3252 -0.8624 -0.0131
 9087SOL    HW138897   1.579   2.840  14.179  0.2777 -0.5516  0.5429
 9087SOL    HW238898   1.651   2.707  14.157 -2.0736  0.0523 -2.1448
 9088SOL     OW38899   1.796   0.099   2.798 -0.1353  0.5820 -0.0517
 9088SOL    HW138900   1.768   0.030   2.858 -2.4546 -1.0901 -3.0461
 9088SOL    HW238901   1.887   0.071   2.789 -0.7336 -2.2954  3.0855
 9089SOL     OW38902   3.341   1.226   9.684  0.3808 -0.0872  1.0793
 9089SOL    HW138903   3.372   1.155   9.739  1.7871 -1.4051 -1.4335
 9089SOL    HW238904   3.246   1.218   9.696  0.1997 -0.7971 -0.8058
 9090SOL     OW38905   0.655   2.723   8.961 -0.2828  0.1172 -0.0239
 9090SOL    HW138906   0.655   2.785   9.034  1.1853 -1.7545  1.5628
 9090SOL    HW238907   0.707   2.771   8.896  2.2283 -4.2184 -1.2397
 9091SOL     OW38908   3.311   0.234   6.733 -0.4167  0.0263 -0.7256
 9091SOL    HW138909   3.298   0.277   6.817 -0.0770  1.4416 -1.3897
 9091SOL    HW238910   3.392   0.274   6.702  0.6084 -1.2983  0.2367
 9092SOL     OW38911   2.164   1.920   9.311  0.4594  0.1038  0.5364
 9092SOL    HW138912   2.107   1.967   9.249  1.7143  0.6513 -0.1976
 9092SOL    HW238913   2.113   1.839   9.310  0.8995 -0.1813  1.0085
 9093SOL     OW38914   0.079   0.747  17.020  0.1177  0.1601 -0.3161
 9093SOL    HW138915   0.014   0.783  17.081 -0.8336  0.9729 -1.7995
 9093SOL    HW238916   0.116   0.826  16.979 -1.6590  1.0811 -0.1690
 9094SOL     OW38917   1.049   2.879  14.896  0.1685 -0.2140  0.4795
 9094SOL    HW138918   0.970   2.875  14.843  1.2247 -0.4419 -1.0656
 9094SOL    HW238919   1.118   2.857  14.834 -1.5825 -1.5072 -0.9786
 9095SOL     OW38920   4.373   3.983  13.623 -0.3218  0.6545  0.0814
 9095SOL    HW138921   4.357   4.011  13.713 -1.9738 -1.9890  0.6141
 9095SOL    HW238922   4.410   4.069  13.602 -1.0645  0.8034 -0.6038
 9096SOL     OW38923   0.414   1.441   5.157  0.1619  0.2915  0.1568
 9096SOL    HW138924   0.481   1.477   5.217 -0.0207  1.4423 -0.3184
 9096SOL    HW238925   0.448   1.352   5.159  0.8995  0.6159  2.3404
 9097SOL     OW38926   0.909   1.322   8.282 -0.3772  0.1031  0.7704
 9097SOL    HW138927   0.973   1.251   8.291 -0.6888 -0.3023 -0.2534
 9097SOL    HW238928   0.833   1.285   8.329 -0.3887 -2.5348 -1.3417
 9098SOL     OW38929   0.185   3.503  17.429 -0.2621 -0.2379  0.0524
 9098SOL    HW138930   0.206   3.439  17.498  0.0541 -1.0147 -0.7575
 9098SOL    HW238931   0.101   3.536  17.461  0.4561  0.1628  1.5246
 9099SOL     OW38932   3.362   4.146   0.545  0.3290 -0.4800 -0.0454
 9099SOL    HW138933   3.272   4.151   0.577  0.6655  1.2562  0.6100
 9099SOL    HW238934   3.361   4.124   0.452 -1.0699 -0.0626 -0.1161
 9100SOL     OW38935   4.185   2.337   3.210 -0.0264  0.0791 -0.5740
 9100SOL    HW138936   4.235   2.406   3.167  0.2590  1.6157  2.2204
 9100SOL    HW238937   4.101   2.327   3.164 -0.2112 -0.3785 -0.1441
 9101SOL     OW38938   1.722   3.641   6.783 -0.0374  0.4904  0.0149
 9101SOL    HW138939   1.774   3.675   6.711 -0.3250 -0.4175 -0.6218
 9101SOL    HW238940   1.644   3.695   6.774  0.7325  1.3676 -1.3484
 9102SOL     OW38941   1.378   4.103   2.283 -0.3725  0.3262  0.1931
 9102SOL    HW138942   1.298   4.086   2.233  0.1748  0.8407 -0.8718
 9102SOL    HW238943   1.360   4.182   2.333  1.5337  1.2635 -0.5898
 9103SOL     OW38944   0.793   4.345   2.371  0.7140  0.4592  0.8534
 9103SOL    HW138945   0.718   4.378   2.322  0.2127 -0.0035  1.3091
 9103SOL    HW238946   0.861   4.366   2.307  0.2574 -0.8528 -0.0373
 9104SOL     OW38947   1.926   0.715  15.220  0.4706 -0.2327  0.5605
 9104SOL    HW138948   1.987   0.759  15.279  0.2729  2.6637 -1.4407
 9104SOL    HW238949   1.977   0.667  15.155  0.6540 -1.2323  1.4352
 9105SOL     OW38950   0.688   2.521  17.579 -0.3627  0.1657 -0.1887
 9105SOL    HW138951   0.678   2.457  17.509 -1.2563 -1.1178  1.0882
 9105SOL    HW238952   0.630   2.589  17.546  0.4426  1.1138  0.3228
 9106SOL     OW38953   2.494   1.061   1.640 -0.3999 -0.7700  0.2815
 9106SOL    HW138954   2.511   0.973   1.606  1.7785 -0.3581  0.3313
 9106SOL    HW238955   2.515   1.115   1.564  0.6015  1.5179  2.1899
 9107SOL     OW38956   2.829   1.486   9.059  0.2506  0.5776 -0.3134
 9107SOL    HW138957   2.900   1.486   8.995  1.2903 -0.8596  0.8220
 9107SOL    HW238958   2.880   1.497   9.140  2.6468 -0.5340 -1.6767
 9108SOL     OW38959   2.389   0.987   2.686 -0.0599 -0.0744  0.0053
 9108SOL    HW138960   2.409   1.065   2.634  2.6882 -1.0780 -0.4377
 9108SOL    HW238961   2.352   0.933   2.616  1.0924 -1.0797  0.1694
 9109SOL     OW38962   1.969   0.901   5.830  0.1999  0.7481  0.6623
 9109SOL    HW138963   1.938   0.936   5.747  0.2137  0.0606  0.3659
 9109SOL    HW238964   1.900   0.840   5.857 -0.1046  0.5567 -0.5595
 9110SOL     OW38965   3.996   2.282  14.289 -0.1141 -0.1909 -0.2849
 9110SOL    HW138966   4.068   2.340  14.315  0.0570 -0.8159  0.6262
 9110SOL    HW238967   3.931   2.309  14.354  0.2899  0.4289 -0.1365
 9111SOL     OW38968   1.357   4.614   6.816  0.3325 -0.0127 -0.1651
 9111SOL    HW138969   1.318   4.702   6.815 -0.0113 -0.1683 -0.5382
 9111SOL    HW238970   1.444   4.627   6.853  0.4681 -1.6221  0.0652
 9112SOL     OW38971   1.120   4.551   6.401 -0.4342 -0.1293 -0.3952
 9112SOL    HW138972   1.066   4.587   6.331 -3.4411  0.8022  2.4329
 9112SOL    HW238973   1.207   4.569   6.363 -0.7742  0.9969 -0.6425
 9113SOL     OW38974   0.851   3.635   1.795  0.2163 -0.5607 -0.1664
 9113SOL    HW138975   0.890   3.548   1.785 -2.6297 -2.0852  1.9600
 9113SOL    HW238976   0.850   3.646   1.700  0.3665 -1.3398 -0.2654
 9114SOL     OW38977   1.657   4.271   9.152 -0.2249  0.1712  0.7496
 9114SOL    HW138978   1.746   4.246   9.176 -0.0692  0.4504  0.4550
 9114SOL    HW238979   1.669   4.348   9.097  1.6884 -0.4075  0.3697
 9115SOL     OW38980   0.061   0.396   3.305 -0.3413  0.0401 -0.3771
 9115SOL    HW138981   0.087   0.470   3.359 -1.1697  0.2477 -0.2585
 9115SOL    HW238982   0.090   0.426   3.219 -0.4237 -1.3641 -0.8999
 9116SOL     OW38983   2.950   0.776   7.046  0.2658 -0.0866 -0.3363
 9116SOL    HW138984   2.931   0.690   7.009 -1.3030 -0.0053  0.2818
 9116SOL    HW238985   3.030   0.756   7.094  0.9913 -0.3957 -1.6663
 9117SOL     OW38986   2.876   3.587  15.850 -0.0129  0.0291  0.0686
 9117SOL    HW138987   2.839   3.560  15.934 -0.2464  1.1870  0.3354
 9117SOL    HW238988   2.803   3.574  15.790 -0.0027 -0.4624  0.1667
 9118SOL     OW38989   1.690   3.239   2.200  0.0069 -0.0729 -0.5296
 9118SOL    HW138990   1.767   3.192   2.232  0.4734  1.2097  0.2091
 9118SOL    HW238991   1.658   3.281   2.279 -2.6730 -0.0086 -1.6544
 9119SOL     OW38992   4.381   3.281   5.194  0.0449 -0.5039 -0.5841
 9119SOL    HW138993   4.301   3.277   5.142  1.0245 -1.8890 -1.9811
 9119SOL    HW238994   4.384   3.194   5.235 -1.5350 -0.4978 -0.4745
 9120SOL     OW38995   0.810   1.677   4.122  0.0204  0.6333  0.5640
 9120SOL    HW138996   0.770   1.719   4.046  2.1545 -0.6437 -1.2364
 9120SOL    HW238997   0.893   1.724   4.132  0.9094 -0.4270 -1.7480
 9121SOL     OW38998   3.173   3.454   3.191  0.1373  0.1644 -0.2183
 9121SOL    HW138999   3.236   3.526   3.193 -0.9276  1.0222  3.3258
 9121SOL    HW239000   3.137   3.451   3.280  2.0722  1.8025  0.5989
 9122SOL     OW39001   0.489   2.105  16.992 -0.6641  0.4202  0.2219
 9122SOL    HW139002   0.519   2.065  17.073  2.7409  1.1819 -0.6290
 9122SOL    HW239003   0.479   2.199  17.009 -0.6117  0.5399 -0.3945
 9123SOL     OW39004   1.158   3.483   4.062 -0.3882 -0.2477  0.2132
 9123SOL    HW139005   1.238   3.431   4.059 -0.8225 -0.9750  1.4478
 9123SOL    HW239006   1.083   3.429   4.038 -1.8950  2.1196 -0.4796
 9124SOL     OW39007   0.129   4.004   7.871  0.1302 -0.8953 -0.2509
 9124SOL    HW139008   0.203   4.036   7.820  0.9096 -1.9455  0.2141
 9124SOL    HW239009   0.106   3.924   7.823  0.8008 -0.0021 -2.0783
 9125SOL     OW39010   2.033   2.636   8.462  0.5734 -0.2878 -0.1603
 9125SOL    HW139011   2.025   2.546   8.428 -0.9690  0.6218 -2.2309
 9125SOL    HW239012   2.031   2.614   8.555  0.0458 -1.6428 -0.4915
 9126SOL     OW39013   4.238   2.347   5.310  0.1632  0.2187  0.1025
 9126SOL    HW139014   4.232   2.358   5.215  0.3843 -2.1295 -0.1724
 9126SOL    HW239015   4.306   2.280   5.315  1.1558  1.3847  2.1482
 9127SOL     OW39016   2.605   3.223  11.366 -0.2040 -0.0011 -0.2818
 9127SOL    HW139017   2.636   3.187  11.449 -0.4727 -0.6017 -0.4382
 9127SOL    HW239018   2.585   3.315  11.385 -0.7439  0.3564 -2.6194
 9128SOL     OW39019   3.414   2.287   0.471  0.0509 -0.3315  0.2564
 9128SOL    HW139020   3.419   2.355   0.404 -1.4798 -1.2413 -0.7744
 9128SOL    HW239021   3.359   2.325   0.540  1.0775  0.4042  0.6799
 9129SOL     OW39022   4.505   1.586  10.427 -0.6100  0.5497 -0.6624
 9129SOL    HW139023   4.457   1.656  10.472 -0.3141  1.0271 -1.0948
 9129SOL    HW239024   4.579   1.637  10.394 -0.6244  1.7442  1.1130
 9130SOL     OW39025   3.027   1.488  17.583 -1.2488  0.3420  0.1783
 9130SOL    HW139026   2.967   1.524  17.518  0.1289 -0.5425 -1.5846
 9130SOL    HW239027   3.020   1.564  17.641 -0.9293 -0.4283  1.2231
 9131SOL     OW39028   4.338   4.554   4.035 -0.3735  0.2666 -0.3062
 9131SOL    HW139029   4.353   4.575   3.943 -0.4598 -1.6762 -0.7700
 9131SOL    HW239030   4.372   4.635   4.073  0.9564 -0.6668  0.5464
 9132SOL     OW39031   1.638   3.886   3.737  0.2882 -0.0875 -0.5023
 9132SOL    HW139032   1.570   3.878   3.804  0.2475  0.7082 -0.4395
 9132SOL    HW239033   1.619   3.968   3.691 -0.1202 -1.2112 -2.3434
 9133SOL     OW39034   1.094   0.454  13.327  0.8213  0.3556  0.2304
 9133SOL    HW139035   1.182   0.466  13.363  2.0394 -0.1494 -2.5381
 9133SOL    HW239036   1.049   0.538  13.339 -1.1752 -0.4641 -1.4125
 9134SOL     OW39037   1.755   4.486   6.425 -0.0277 -0.8590  0.2940
 9134SOL    HW139038   1.727   4.396   6.413 -1.2387 -0.6011  1.1830
 9134SOL    HW239039   1.849   4.470   6.432 -0.1118 -1.8368 -0.7691
 9135SOL     OW39040   4.322   2.684  13.354  0.7557 -0.1396 -0.3664
 9135SOL    HW139041   4.381   2.608  13.363 -0.9463 -1.9812 -4.7299
 9135SOL    HW239042   4.342   2.730  13.435  0.1509  0.2441 -0.4385
 9136SOL     OW39043   2.692   3.755  12.938 -0.2967  0.4306  0.3462
 9136SOL    HW139044   2.712   3.663  12.923 -0.0367  0.2985  1.4833
 9136SOL    HW239045   2.598   3.739  12.934 -0.3021  0.9806 -1.6246
 9137SOL     OW39046   4.363   2.984   2.255  0.2501  0.1443  0.1102
 9137SOL    HW139047   4.447   2.942   2.270  0.1056 -0.0768  0.3104
 9137SOL    HW239048   4.372   3.041   2.179  0.4684  2.2001  1.6958
 9138SOL     OW39049   0.707   0.440   5.311 -0.6941 -0.3889  0.0866
 9138SOL    HW139050   0.673   0.351   5.310  1.5044 -1.2412  1.0038
 9138SOL    HW239051   0.655   0.481   5.380  0.7708 -1.6075  1.8837
 9139SOL     OW39052   4.003   3.872   5.490 -0.1151 -0.4436 -0.2714
 9139SOL    HW139053   3.982   3.789   5.534  0.5545  0.2065  1.2990
 9139SOL    HW239054   3.930   3.922   5.525  0.2730  2.4942 -3.6930
 9140SOL     OW39055   2.746   0.639  11.700  0.0522 -0.3345  0.0995
 9140SOL    HW139056   2.719   0.622  11.610  1.8711 -0.1606 -0.4894
 9140SOL    HW239057   2.683   0.589  11.752  1.8110  0.7655  3.3269
 9141SOL     OW39058   1.753   3.551  16.487  0.0401 -0.2093  0.2832
 9141SOL    HW139059   1.847   3.536  16.484 -0.0021 -0.3902 -0.0427
 9141SOL    HW239060   1.732   3.570  16.579 -3.1578  0.0804 -0.5172
 9142SOL     OW39061   0.175   0.020   1.991 -0.3621  0.2483  0.2568
 9142SOL    HW139062   0.120   0.053   2.062 -0.6705 -0.2229  0.2340
 9142SOL    HW239063   0.110   4.712   1.936  1.0123  1.3196 -2.2500
 9143SOL     OW39064   0.642   0.830   2.037  0.7039 -0.0471 -0.4160
 9143SOL    HW139065   0.718   0.792   1.991  0.2591 -1.9820  0.4467
 9143SOL    HW239066   0.578   0.775   1.992  2.0314 -0.7854 -1.4201
 9144SOL     OW39067   1.492   2.990   5.868 -0.1999 -0.4237 -0.1045
 9144SOL    HW139068   1.578   2.987   5.910 -0.1246 -0.6033 -0.2723
 9144SOL    HW239069   1.439   3.006   5.946 -3.0314  1.3186 -2.4040
 9145SOL     OW39070   0.740   2.251   8.440 -0.4411 -0.7530 -0.5937
 9145SOL    HW139071   0.817   2.306   8.458 -0.4564 -1.4108  1.5085
 9145SOL    HW239072   0.683   2.289   8.506  1.5920 -1.0122  1.3328
 9146SOL     OW39073   4.626   2.518   4.435  0.0029 -0.4919 -0.0432
 9146SOL    HW139074   4.700   2.459   4.418  1.4829  1.3667 -0.0702
 9146SOL    HW239075   4.566   2.464   4.487  0.9073 -1.2697  0.2035
 9147SOL     OW39076   3.671   4.507   5.336 -0.1094 -0.1299  0.2378
 9147SOL    HW139077   3.639   4.512   5.426  1.0021  0.5722  0.5935
 9147SOL    HW239078   3.761   4.539   5.346  0.1721 -0.9992  0.4376
 9148SOL     OW39079   1.952   2.974   5.180  0.2131  0.0888 -0.5407
 9148SOL    HW139080   1.991   2.987   5.266 -3.8685  1.9081  1.0448
 9148SOL    HW239081   2.013   3.031   5.132  1.4596 -2.1631 -1.6691
 9149SOL     OW39082   0.830   4.555   3.204  1.0218 -0.9080  0.3938
 9149SOL    HW139083   0.738   4.548   3.232  0.2682  1.7864 -1.3321
 9149SOL    HW239084   0.840   4.494   3.132 -2.1675 -0.2032 -0.6818
 9150SOL     OW39085   4.339   2.621   5.781  0.0952  0.1808  0.2266
 9150SOL    HW139086   4.316   2.546   5.726 -2.6188 -1.2634  3.3833
 9150SOL    HW239087   4.359   2.692   5.719 -1.1843 -1.2684 -1.8280
 9151SOL     OW39088   4.672   2.795   3.552  0.2291 -0.3752  0.1824
 9151SOL    HW139089   4.600   2.828   3.606  0.0046  1.0145 -0.9576
 9151SOL    HW239090   4.643   2.704   3.554  1.3025 -0.7621 -2.1623
 9152SOL     OW39091   1.332   4.127   5.690 -0.0100  0.3025  0.0777
 9152SOL    HW139092   1.366   4.215   5.705 -0.0211  0.1114  1.2261
 9152SOL    HW239093   1.316   4.118   5.596  2.4614  3.1525 -0.6102
 9153SOL     OW39094   1.557   2.988   4.114  0.4851  0.5582 -0.4061
 9153SOL    HW139095   1.540   3.081   4.106  0.0138  0.4713 -0.3651
 9153SOL    HW239096   1.490   2.957   4.053  0.3172 -3.3432  1.7317
 9154SOL     OW39097   1.580   1.053   8.275 -0.2239  0.3729 -0.1344
 9154SOL    HW139098   1.560   1.146   8.282 -1.1770  0.2944 -1.9482
 9154SOL    HW239099   1.643   1.035   8.345 -1.6430  2.5427  1.7001
 9155SOL     OW39100   4.611   2.280  17.226  0.2354 -0.2955 -0.6147
 9155SOL    HW139101   4.687   2.336  17.241  1.3667 -2.3180  1.3410
 9155SOL    HW239102   4.584   2.302  17.137  0.9276  0.4711 -0.6308
 9156SOL     OW39103   4.248   2.057   7.595 -0.8102 -0.6340  0.4834
 9156SOL    HW139104   4.218   1.993   7.660 -1.4091 -1.5646 -0.7307
 9156SOL    HW239105   4.286   2.124   7.654 -1.4467  0.6339 -0.5475
 9157SOL     OW39106   3.483   1.787   6.656 -0.4839  0.4324 -0.0150
 9157SOL    HW139107   3.446   1.700   6.644  0.9905 -0.4002  1.4119
 9157SOL    HW239108   3.403   1.834   6.679 -1.2441 -0.3691 -1.0387
 9158SOL     OW39109   4.010   1.656   2.329  0.1734  0.2646 -0.3252
 9158SOL    HW139110   4.045   1.567   2.325  0.2662  0.2461  0.9906
 9158SOL    HW239111   3.922   1.644   2.365 -0.2708  0.4390 -1.3466
 9159SOL     OW39112   1.227   4.154   0.014  0.6350  0.1523  0.5558
 9159SOL    HW139113   1.181   4.227  17.713  1.5410  0.4965  0.1424
 9159SOL    HW239114   1.159   4.119   0.070  1.3250  2.2023  2.6668
 9160SOL     OW39115   4.000   3.060   2.675  0.5590  0.0060  0.3186
 9160SOL    HW139116   3.967   3.033   2.589 -0.1386 -2.3230  1.3116
 9160SOL    HW239117   3.959   2.990   2.726  1.1242 -0.4422  0.1586
 9161SOL     OW39118   3.552   4.136   9.420 -0.3463 -0.0878 -0.5135
 9161SOL    HW139119   3.588   4.065   9.475 -0.2522 -0.1203 -0.6171
 9161SOL    HW239120   3.621   4.201   9.435 -0.4262  0.4071 -2.3627
 9162SOL     OW39121   0.781   4.488  14.993 -0.5614 -0.2095 -0.3381
 9162SOL    HW139122   0.714   4.443  14.941 -1.8350  0.1883  0.9540
 9162SOL    HW239123   0.802   4.568  14.946  2.9457 -1.4536 -0.8824
 9163SOL     OW39124   2.706   0.997  10.421  0.4572 -0.0084 -0.4980
 9163SOL    HW139125   2.611   0.996  10.411  0.3393 -1.0883  0.8251
 9163SOL    HW239126   2.714   1.025  10.512  2.2635  0.9257 -0.9410
 9164SOL     OW39127   0.780   3.825   1.335  0.0520  0.4658  0.4061
 9164SOL    HW139128   0.712   3.813   1.268 -1.0893  3.3717  1.0577
 9164SOL    HW239129   0.746   3.897   1.388  0.7395  1.6432 -0.7306
 9165SOL     OW39130   0.030   3.128   0.887 -0.5186 -0.1477 -0.2517
 9165SOL    HW139131   0.054   3.131   0.979  3.0620 -3.4695 -1.0678
 9165SOL    HW239132   0.089   3.072   0.836 -0.9468 -1.6451  0.8994
 9166SOL     OW39133   3.063   2.135   6.717  0.0983 -0.2645  0.3233
 9166SOL    HW139134   2.969   2.115   6.719 -0.4212  1.8675 -1.6563
 9166SOL    HW239135   3.100   2.047   6.715 -0.7106 -0.6096  0.6173
 9167SOL     OW39136   3.041   4.317   7.999 -0.5004  0.5523  0.4172
 9167SOL    HW139137   3.066   4.402   7.965 -2.0651  1.0649  0.5755
 9167SOL    HW239138   3.128   4.283   8.020 -0.4855  2.2649  3.0753
 9168SOL     OW39139   2.134   3.622  15.592  0.1255 -0.8544  0.1441
 9168SOL    HW139140   2.138   3.684  15.665  1.2722  0.6716 -1.2201
 9168SOL    HW239141   2.039   3.608  15.599 -0.2412  1.2835 -0.4799
 9169SOL     OW39142   2.787   2.762   8.034  0.1837 -0.3918 -0.5137
 9169SOL    HW139143   2.793   2.708   8.112 -3.0495 -0.4504 -0.3104
 9169SOL    HW239144   2.698   2.795   8.046  0.1875 -0.1189 -1.2348
 9170SOL     OW39145   2.458   1.659  10.940 -0.3159  0.4197 -0.0972
 9170SOL    HW139146   2.504   1.643  11.022  0.3912 -2.7516 -1.0978
 9170SOL    HW239147   2.472   1.753  10.928 -0.2070  0.2207 -1.5572
 9171SOL     OW39148   2.486   1.278  10.538  0.1451  0.1421 -0.3330
 9171SOL    HW139149   2.525   1.339  10.600  0.5794  0.2546 -0.7148
 9171SOL    HW239150   2.393   1.304  10.535  0.2458  0.4521 -0.7524
 9172SOL     OW39151   1.780   2.216   3.273  0.1575  0.1583  0.4766
 9172SOL    HW139152   1.695   2.178   3.251  0.6405 -0.3554 -0.4829
 9172SOL    HW239153   1.815   2.141   3.322 -0.6753 -0.5126  0.0471
 9173SOL     OW39154   0.181   0.855  12.398  0.0142  0.2140 -0.7835
 9173SOL    HW139155   0.224   0.902  12.470  1.6857  0.2175 -1.7748
 9173SOL    HW239156   0.256   0.843  12.339  1.0185  1.0797  0.3365
 9174SOL     OW39157   2.343   4.431   9.466  0.2113  0.3041 -0.3108
 9174SOL    HW139158   2.431   4.400   9.446  0.4664  0.8697 -0.0695
 9174SOL    HW239159   2.311   4.442   9.377 -0.8843 -0.1613  0.0246
 9175SOL     OW39160   2.275   0.647   5.166  0.1039  0.2110 -0.1867
 9175SOL    HW139161   2.238   0.609   5.087 -1.5047  1.2260  0.0812
 9175SOL    HW239162   2.354   0.683   5.124 -0.1366  1.3375  0.3137
 9176SOL     OW39163   2.122   4.433   7.012  0.1998 -0.3520 -0.1354
 9176SOL    HW139164   2.057   4.385   6.961  1.3983 -1.1873 -0.8845
 9176SOL    HW239165   2.068   4.443   7.090 -0.2033 -0.0183 -0.4601
 9177SOL     OW39166   0.245   4.199   4.671 -0.4527 -0.0486 -0.0397
 9177SOL    HW139167   0.167   4.146   4.686 -1.2957  1.1895 -0.0175
 9177SOL    HW239168   0.312   4.133   4.690  0.3895  0.4402 -1.3346
 9178SOL     OW39169   0.768   3.582   5.370 -0.4538  0.0912  0.0436
 9178SOL    HW139170   0.759   3.669   5.333  0.7120  0.1137 -0.1977
 9178SOL    HW239171   0.855   3.584   5.410 -0.5383 -1.7823  0.3350
 9179SOL     OW39172   1.678   0.806   5.903  0.6079 -0.6826  0.4338
 9179SOL    HW139173   1.653   0.761   5.823  0.4985 -2.0092  1.2140
 9179SOL    HW239174   1.657   0.896   5.878  0.8985 -0.5306  0.7220
 9180SOL     OW39175   3.079   1.086   5.403 -0.3398  0.2008  0.3116
 9180SOL    HW139176   3.063   1.004   5.449  1.4342  1.0257  2.3944
 9180SOL    HW239177   2.995   1.096   5.359  0.2606  1.1147 -0.6160
 9181SOL     OW39178   0.329   2.668   7.689 -0.0265  0.0101  0.0455
 9181SOL    HW139179   0.392   2.740   7.693  0.6968 -0.4503 -2.6282
 9181SOL    HW239180   0.253   2.726   7.682  0.2595  0.3843  0.0800
 9182SOL     OW39181   2.604   3.238  10.040 -0.0416  0.4447 -0.2865
 9182SOL    HW139182   2.541   3.304  10.009 -0.7275 -0.3064 -0.4918
 9182SOL    HW239183   2.612   3.271  10.130 -0.9070 -1.4731  0.5014
 9183SOL     OW39184   0.457   2.055  13.340 -0.1212  0.3892  0.2373
 9183SOL    HW139185   0.381   2.112  13.325 -0.2699 -0.8629 -3.5572
 9183SOL    HW239186   0.521   2.122  13.363 -0.5393  0.9916 -0.3522
 9184SOL     OW39187   4.310   1.673  12.900  0.2031  0.0361  0.1182
 9184SOL    HW139188   4.355   1.753  12.873  0.3558  0.0192  0.3270
 9184SOL    HW239189   4.325   1.635  12.813 -2.7970 -0.1857 -0.3008
 9185SOL     OW39190   2.540   1.353   4.207 -0.8147  0.7364 -0.0058
 9185SOL    HW139191   2.523   1.293   4.135  0.5487 -1.2654  1.3363
 9185SOL    HW239192   2.629   1.321   4.222 -0.7694  1.2199  0.7796
 9186SOL     OW39193   4.391   3.960   1.162 -0.0453 -0.2269 -0.5347
 9186SOL    HW139194   4.311   3.959   1.213  0.5987  0.0992  0.4793
 9186SOL    HW239195   4.355   3.996   1.081  2.1777 -0.3456 -1.5901
 9187SOL     OW39196   0.695   2.541   0.112 -0.3804  0.0607 -0.5166
 9187SOL    HW139197   0.722   2.453   0.138  4.3703  1.6593 -0.0448
 9187SOL    HW239198   0.680   2.532   0.018  1.0508  4.5775 -1.2097
 9188SOL     OW39199   2.359   3.193   6.452  0.2589 -0.3750 -0.1765
 9188SOL    HW139200   2.302   3.138   6.505  0.0184  1.9258  1.9810
 9188SOL    HW239201   2.338   3.157   6.366 -3.5263  0.6012  0.3431
 9189SOL     OW39202   4.273   0.580   7.992  0.3243  0.1984 -0.2707
 9189SOL    HW139203   4.340   0.644   8.015 -0.8684  1.2986  0.1734
 9189SOL    HW239204   4.217   0.635   7.937 -1.5701 -0.9109  0.5260
 9190SOL     OW39205   0.263   0.416   0.536  0.0231 -0.4353 -0.3618
 9190SOL    HW139206   0.265   0.505   0.571  0.3770 -0.7298  0.3607
 9190SOL    HW239207   0.237   0.361   0.610 -3.5165  1.9757  0.1669
 9191SOL     OW39208   0.998   4.377  14.536 -0.3669 -0.2652  0.2408
 9191SOL    HW139209   0.934   4.313  14.505 -1.0621 -0.0578  1.2548
 9191SOL    HW239210   1.084   4.361  14.497 -0.6314 -1.6697  0.2576
 9192SOL     OW39211   1.728   2.204   8.274  0.5703 -0.4009  0.2747
 9192SOL    HW139212   1.810   2.176   8.316  0.8165 -1.9681 -1.2506
 9192SOL    HW239213   1.754   2.203   8.182  1.4252 -0.5373  0.5226
 9193SOL     OW39214   0.887   0.108   1.706  0.1370 -0.4065  0.1527
 9193SOL    HW139215   0.906   0.191   1.749 -1.5387 -0.9475  1.9496
 9193SOL    HW239216   0.959   0.103   1.643 -0.0024  0.7648 -0.0910
 9194SOL     OW39217   3.837   3.689   8.212 -0.7056 -0.3962 -0.1527
 9194SOL    HW139218   3.806   3.603   8.183 -2.0228  0.4193 -1.1775
 9194SOL    HW239219   3.888   3.712   8.135 -0.3561 -1.5373 -0.2646
 9195SOL     OW39220   2.113   1.358   4.093  0.1615 -0.5110 -0.0455
 9195SOL    HW139221   2.099   1.451   4.110 -1.1935 -0.4121 -1.6839
 9195SOL    HW239222   2.162   1.367   4.011 -0.8390 -2.6435 -0.8782
 9196SOL     OW39223   1.779   3.221   5.630  0.1869 -0.7005  0.2071
 9196SOL    HW139224   1.831   3.215   5.550 -0.9904 -0.9758 -0.5384
 9196SOL    HW239225   1.770   3.316   5.629 -1.4183 -0.8394  1.7023
 9197SOL     OW39226   0.596   0.882   6.852 -0.1373 -0.5161  0.1812
 9197SOL    HW139227   0.502   0.888   6.834  0.1683  1.6066 -0.6957
 9197SOL    HW239228   0.597   0.935   6.932 -1.2752  1.6937 -1.2691
 9198SOL     OW39229   4.686   3.068   3.863  0.3435  0.1111 -0.1687
 9198SOL    HW139230   4.674   3.116   3.946 -1.2285 -1.6360  0.6266
 9198SOL    HW239231   4.658   3.130   3.795 -1.2021 -1.0383 -0.5812
 9199SOL     OW39232   3.937   4.294   7.459  0.1209  0.3675  0.2535
 9199SOL    HW139233   3.987   4.243   7.396 -0.8197 -0.0390 -0.1627
 9199SOL    HW239234   3.960   4.245   7.537  1.3789 -0.2502 -0.5021
 9200SOL     OW39235   2.235   2.734   3.969 -0.1925  0.4649 -0.4785
 9200SOL    HW139236   2.296   2.772   4.032  0.2147 -1.7633  0.4467
 9200SOL    HW239237   2.221   2.809   3.911 -2.2201  0.2144 -0.3214
 9201SOL     OW39238   0.995   3.397  10.389  0.3165 -0.1054 -0.0876
 9201SOL    HW139239   0.926   3.453  10.426  1.8077  1.5804  0.0950
 9201SOL    HW239240   0.980   3.315  10.438 -3.0733 -0.7005 -2.1127
 9202SOL     OW39241   4.386   0.386  13.217  0.2810  0.2672  0.5000
 9202SOL    HW139242   4.436   0.439  13.279 -0.5658  0.3521  1.1206
 9202SOL    HW239243   4.450   0.315  13.220  1.0061  0.8431 -1.6733
 9203SOL     OW39244   3.690   0.134   2.194 -0.2673 -0.2878 -0.5363
 9203SOL    HW139245   3.694   0.039   2.183  1.7478 -0.5414  2.4168
 9203SOL    HW239246   3.778   0.169   2.205  0.3432 -1.2892 -2.1094
 9204SOL     OW39247   3.222   0.552   9.908 -0.1055 -0.3955 -0.4498
 9204SOL    HW139248   3.236   0.587   9.820 -4.0018 -0.0893 -0.9111
 9204SOL    HW239249   3.312   0.526   9.929  0.8092  2.1709 -1.2567
 9205SOL     OW39250   1.616   4.171   4.778  0.0027 -0.3182  0.6512
 9205SOL    HW139251   1.686   4.236   4.772 -1.5255  1.3149  0.4124
 9205SOL    HW239252   1.614   4.164   4.873  0.3908  1.6180  0.8132
 9206SOL     OW39253   4.203   2.842   7.953  0.3579  0.1970  0.3417
 9206SOL    HW139254   4.240   2.790   8.025  1.7895 -0.7625 -1.0730
 9206SOL    HW239255   4.151   2.781   7.901  0.1765  0.3417  0.3539
 9207SOL     OW39256   2.265   1.670  12.683 -0.0901 -0.2092 -0.3464
 9207SOL    HW139257   2.351   1.710  12.696 -0.3901 -0.2111  1.5831
 9207SOL    HW239258   2.289   1.578  12.700 -1.2067 -0.7552 -1.6920
 9208SOL     OW39259   4.391   3.738  15.149 -0.5290  0.8887 -0.0019
 9208SOL    HW139260   4.316   3.754  15.207 -1.6664  0.4013 -1.3427
 9208SOL    HW239261   4.464   3.769  15.203  0.1836 -0.4129 -0.2244
 9209SOL     OW39262   0.088   0.565   6.679  0.0260 -0.0901 -0.0440
 9209SOL    HW139263   0.021   0.625   6.712 -0.4161 -0.8208  0.3853
 9209SOL    HW239264   0.159   0.587   6.739  0.3620 -1.3850  0.0373
 9210SOL     OW39265   1.196   2.647   7.258 -0.3461 -0.6333 -0.3727
 9210SOL    HW139266   1.180   2.716   7.195  0.5012  1.3966  1.6400
 9210SOL    HW239267   1.209   2.565   7.210 -1.5901 -1.1461  0.1515
 9211SOL     OW39268   3.477   1.673  15.293 -0.0945  0.1770  0.3487
 9211SOL    HW139269   3.507   1.665  15.383 -1.5606  1.5334  0.9570
 9211SOL    HW239270   3.543   1.732  15.258  0.1987  0.0676  0.7298
 9212SOL     OW39271   4.491   3.732   8.264  0.3970 -0.4198 -0.3359
 9212SOL    HW139272   4.419   3.788   8.234  0.4355 -0.4261 -0.4403
 9212SOL    HW239273   4.559   3.777   8.214  0.3171  0.5426  0.4170
 9213SOL     OW39274   1.768   1.654   3.277  0.2802 -0.6955  0.5095
 9213SOL    HW139275   1.860   1.659   3.250 -0.2207  0.3280 -0.9809
 9213SOL    HW239276   1.744   1.569   3.239  2.6888 -1.1246 -0.0271
 9214SOL     OW39277   1.971   0.163  17.419  0.0083  0.5543 -0.4662
 9214SOL    HW139278   1.895   0.161  17.477  1.6068 -0.0468  1.5943
 9214SOL    HW239279   1.977   0.257  17.399 -1.9293  0.4802 -1.3698
 9215SOL     OW39280   2.294   4.562   6.429  0.0293  0.0455  0.4964
 9215SOL    HW139281   2.260   4.623   6.364 -0.7401 -0.5323  0.3569
 9215SOL    HW239282   2.219   4.508   6.456 -0.7408  1.0880  0.4626
 9216SOL     OW39283   4.580   2.791  10.847 -0.5035 -0.4024 -0.1238
 9216SOL    HW139284   4.554   2.800  10.938 -2.5280  1.7744 -0.9102
 9216SOL    HW239285   4.673   2.811  10.851 -0.4304  0.0395 -3.4779
 9217SOL     OW39286   2.799   0.777   5.337  0.0121 -0.0394 -0.5653
 9217SOL    HW139287   2.816   0.688   5.307  1.8218 -0.9495  3.1727
 9217SOL    HW239288   2.881   0.788   5.386 -0.0940  0.6253 -0.5305
 9218SOL     OW39289   3.141   2.603  14.562  0.2433 -0.3122  0.3662
 9218SOL    HW139290   3.188   2.682  14.589 -0.2908  0.3490 -0.6091
 9218SOL    HW239291   3.080   2.598  14.635  0.6809 -1.3006  0.6635
 9219SOL     OW39292   0.830   2.710   1.343  0.2466  0.1187  0.5036
 9219SOL    HW139293   0.782   2.687   1.423  0.2080 -0.5796  0.2757
 9219SOL    HW239294   0.869   2.791   1.374 -0.3458  1.3585 -2.0574
 9220SOL     OW39295   3.795   2.778   7.288  0.4373 -0.0463  0.2142
 9220SOL    HW139296   3.877   2.740   7.257  0.7778  0.8619  0.0207
 9220SOL    HW239297   3.820   2.862   7.325  0.7561 -1.4070  3.0760
 9221SOL     OW39298   4.619   0.880  11.959 -0.1583  0.1284  0.2347
 9221SOL    HW139299   4.666   0.899  12.040 -0.4051 -3.6236  1.2715
 9221SOL    HW239300   4.587   0.791  11.973 -0.1830  0.1603  0.3751
 9222SOL     OW39301   4.336   4.224   5.156  0.5054 -0.1261  0.4062
 9222SOL    HW139302   4.281   4.299   5.132  1.0611  0.4382  0.9146
 9222SOL    HW239303   4.299   4.147   5.113 -0.1949  0.9915 -0.9898
 9223SOL     OW39304   1.433   3.413   1.988 -0.3703 -0.4684  0.5276
 9223SOL    HW139305   1.405   3.479   1.925  1.4940 -1.8921 -1.8153
 9223SOL    HW239306   1.364   3.424   2.054 -1.7305 -0.8932 -0.8310
 9224SOL     OW39307   4.615   4.275   5.119 -0.0409 -0.2691  0.1724
 9224SOL    HW139308   4.530   4.233   5.127  0.4237 -1.4060 -0.9040
 9224SOL    HW239309   4.590   4.367   5.117 -1.4695 -0.6464  0.8219
 9225SOL     OW39310   2.183   2.187  12.425  0.2447  0.0994 -0.1568
 9225SOL    HW139311   2.199   2.247  12.352  0.9141 -2.4558 -2.0830
 9225SOL    HW239312   2.089   2.195  12.443  0.5062 -1.3006  1.8296
 9226SOL     OW39313   4.432   1.705  13.843  0.3623 -0.8503  0.2107
 9226SOL    HW139314   4.495   1.704  13.770  0.2457 -2.3874  0.1429
 9226SOL    HW239315   4.418   1.612  13.856 -2.7241 -0.2188  1.3500
 9227SOL     OW39316   0.543   4.689  16.005  0.3728  0.2194 -0.0816
 9227SOL    HW139317   0.526   0.012  15.931  1.6638  0.4461 -0.1930
 9227SOL    HW239318   0.594   0.010  16.063  0.5761  0.9267 -0.9608
 9228SOL     OW39319   4.406   2.984   0.974 -0.0865 -0.0008  0.3299
 9228SOL    HW139320   4.379   3.029   1.054  0.4275  0.0303  0.4861
 9228SOL    HW239321   4.407   2.892   1.003  2.5561 -0.2297 -0.4538
 9229SOL     OW39322   4.450   2.074  14.446  0.3895 -0.5755 -0.0034
 9229SOL    HW139323   4.459   2.007  14.378 -0.9953  0.3368 -1.0851
 9229SOL    HW239324   4.355   2.085  14.451  0.2082 -2.7047  1.3329
 9230SOL     OW39325   1.998   4.098   0.506 -0.0696  0.3466  0.3588
 9230SOL    HW139326   2.085   4.072   0.477 -0.5521  0.8172 -1.4960
 9230SOL    HW239327   2.022   4.190   0.517  0.2112  0.2477  0.5803
 9231SOL     OW39328   2.793   3.266   3.530  0.0567  0.1394 -0.1627
 9231SOL    HW139329   2.737   3.231   3.599 -3.1858  1.9130 -1.9087
 9231SOL    HW239330   2.861   3.305   3.585  0.7288  1.7295 -2.1257
 9232SOL     OW39331   0.963   2.180   1.801 -0.1023  0.3355 -0.3954
 9232SOL    HW139332   1.059   2.179   1.807 -0.2748  0.7528  2.4594
 9232SOL    HW239333   0.950   2.086   1.809 -1.4586  0.7809  2.7856
 9233SOL     OW39334   4.553   1.409   7.760  0.1082 -0.3245 -0.5255
 9233SOL    HW139335   4.599   1.325   7.758  1.4537  0.4088 -0.5531
 9233SOL    HW239336   4.623   1.459   7.801 -0.2837 -0.7792  0.6834
 9234SOL     OW39337   4.639   4.358  10.949  0.5930 -0.2385  0.2251
 9234SOL    HW139338   4.597   4.307  10.879 -3.4676  1.3741  1.5054
 9234SOL    HW239339   4.573   4.418  10.983 -0.3710 -1.6734  0.8549
 9235SOL     OW39340   4.008   1.870   3.793 -0.2495 -0.0679 -0.0175
 9235SOL    HW139341   4.028   1.868   3.700  0.1982 -1.3371  0.0968
 9235SOL    HW239342   3.974   1.780   3.799 -2.1032  0.7176  1.2409
 9236SOL     OW39343   1.398   4.465   6.569 -0.0411 -0.1085  0.6920
 9236SOL    HW139344   1.326   4.472   6.632  1.3491  1.0087  2.1347
 9236SOL    HW239345   1.456   4.538   6.587  3.8533 -3.2263  0.6559
 9237SOL     OW39346   2.778   1.492   5.004  0.4086 -0.5156 -0.2463
 9237SOL    HW139347   2.773   1.551   4.928  0.3971  2.0619  1.7631
 9237SOL    HW239348   2.747   1.557   5.066  1.9014  0.1847 -0.2443
 9238SOL     OW39349   4.208   2.751   2.137 -0.3711 -0.1056  0.0022
 9238SOL    HW139350   4.271   2.784   2.202 -0.4892 -0.9052  0.5247
 9238SOL    HW239351   4.234   2.787   2.052 -0.1872 -1.4237 -0.4927
 9239SOL     OW39352   2.414   2.484   1.909  0.7756  0.0038  0.2603
 9239SOL    HW139353   2.358   2.522   1.977  0.3002  0.3708 -0.3298
 9239SOL    HW239354   2.485   2.548   1.913 -0.0881  1.0370 -0.9366
 9240SOL     OW39355   2.529   3.027  16.244 -0.0704 -0.1197  0.3566
 9240SOL    HW139356   2.548   2.970  16.318 -1.1206  2.6911  2.7989
 9240SOL    HW239357   2.537   2.967  16.170  1.3913  2.5081 -1.6493
 9241SOL     OW39358   2.056   2.225   2.782 -0.8068  0.2249 -0.2592
 9241SOL    HW139359   2.022   2.277   2.710 -1.2582  1.8378  1.1265
 9241SOL    HW239360   2.053   2.293   2.849  1.4040  0.8541 -0.8086
 9242SOL     OW39361   1.651   3.658   8.947 -0.1373  0.0508 -0.1457
 9242SOL    HW139362   1.668   3.569   8.977  0.6203  1.2898  3.1765
 9242SOL    HW239363   1.556   3.656   8.939 -0.3978  0.2156  2.8060
 9243SOL     OW39364   1.835   3.734   3.637  0.0936 -0.3923 -0.9110
 9243SOL    HW139365   1.773   3.791   3.683  0.0522  1.1450 -2.8832
 9243SOL    HW239366   1.808   3.648   3.670 -0.4673  0.2559  0.3207
 9244SOL     OW39367   1.914   0.157  10.066 -0.3511  0.1495 -0.6415
 9244SOL    HW139368   1.857   0.201  10.129 -1.2813  2.9312 -3.4500
 9244SOL    HW239369   1.859   0.079  10.057  0.3078 -0.4957  0.9490
 9245SOL     OW39370   2.446   2.694   2.679 -0.3343 -0.4042  0.0253
 9245SOL    HW139371   2.434   2.613   2.729  0.2201  0.0325  0.8808
 9245SOL    HW239372   2.396   2.762   2.725  0.9385  0.3241  0.3459
 9246SOL     OW39373   4.192   0.469   7.353 -0.4093 -0.2020 -0.0952
 9246SOL    HW139374   4.274   0.421   7.343 -0.4129  0.2308 -2.1882
 9246SOL    HW239375   4.220   0.534   7.416  2.3960 -0.8336 -0.6805
 9247SOL     OW39376   2.788   3.739   4.073 -0.8536 -0.8648  0.2789
 9247SOL    HW139377   2.729   3.783   4.011 -0.2762  0.2578  0.5263
 9247SOL    HW239378   2.754   3.650   4.070  1.1096 -1.6696  2.2152
 9248SOL     OW39379   0.569   1.598   7.572 -0.0693  0.5136  0.0651
 9248SOL    HW139380   0.534   1.569   7.656 -0.7883  1.6155  0.1484
 9248SOL    HW239381   0.628   1.668   7.601  3.3342 -3.0319  1.7359
 9249SOL     OW39382   4.320   4.130   0.942 -0.3634  0.1683  0.4860
 9249SOL    HW139383   4.262   4.188   0.991  0.6975  3.9926 -2.7730
 9249SOL    HW239384   4.276   4.118   0.858 -1.6612  2.1485  0.8839
 9250SOL     OW39385   2.174   1.921   7.403  0.1838 -0.2561 -0.0551
 9250SOL    HW139386   2.231   1.845   7.407  1.6310  0.9304  1.6447
 9250SOL    HW239387   2.138   1.921   7.492 -3.0933 -0.5479 -1.3687
 9251SOL     OW39388   2.095   4.686   8.608  0.1329 -0.3383 -0.2629
 9251SOL    HW139389   2.062   0.039   8.590 -3.4349 -1.3049  1.5018
 9251SOL    HW239390   2.017   4.640   8.637  0.0931  0.5518  1.0409
 9252SOL     OW39391   1.691   3.356   1.944 -0.2891 -0.2298  0.3554
 9252SOL    HW139392   1.599   3.379   1.956 -0.7204 -0.0612 -3.1203
 9252SOL    HW239393   1.702   3.316   2.030 -0.7951 -1.0846  0.0226
 9253SOL     OW39394   1.516   0.791   5.400  0.2037 -0.3925 -0.4716
 9253SOL    HW139395   1.589   0.835   5.357 -0.7185 -0.0444 -1.6745
 9253SOL    HW239396   1.557   0.704   5.399  0.7260 -0.1600  0.8283
 9254SOL     OW39397   3.298   4.141   9.700 -0.1282 -0.8748  0.3078
 9254SOL    HW139398   3.386   4.175   9.686  0.1345 -1.1992  1.1376
 9254SOL    HW239399   3.289   4.144   9.795  2.6781 -1.7636  0.6043
 9255SOL     OW39400   4.665   3.918  10.245 -0.3824 -0.5876  0.6436
 9255SOL    HW139401   4.640   4.006  10.217  1.9198 -0.1235  0.0167
 9255SOL    HW239402   4.629   3.922  10.333  2.7057 -1.4971  1.9395
 9256SOL     OW39403   0.738   3.384  12.490 -0.2350  0.1609 -0.2287
 9256SOL    HW139404   0.698   3.351  12.570 -0.9136  0.5321 -0.4155
 9256SOL    HW239405   0.705   3.316  12.432  0.2687 -0.2732 -0.0035
 9257SOL     OW39406   4.709   3.920  11.351  0.3603  1.0939  0.2040
 9257SOL    HW139407   4.646   3.849  11.335  0.3458  1.3529 -0.9062
 9257SOL    HW239408   4.723   3.909  11.445  0.1804 -1.7065 -0.0912
 9258SOL     OW39409   4.152   3.363   4.430 -0.1584 -0.1603  0.2104
 9258SOL    HW139410   4.233   3.360   4.481 -0.6041 -0.0881  0.9342
 9258SOL    HW239411   4.096   3.387   4.505 -0.4275 -1.7374  0.5142
 9259SOL     OW39412   2.520   1.368  12.152 -0.2903  0.1484 -0.0288
 9259SOL    HW139413   2.567   1.425  12.213  0.3556  0.0227 -0.4094
 9259SOL    HW239414   2.501   1.430  12.081 -0.0806 -1.0101 -1.1028
 9260SOL     OW39415   2.426   3.683   8.297 -0.2982  0.0510  0.4758
 9260SOL    HW139416   2.501   3.650   8.247 -1.1701 -3.6758  1.6340
 9260SOL    HW239417   2.431   3.778   8.287  1.7905 -0.1943 -0.8041
 9261SOL     OW39418   3.081   1.785  12.851 -0.5334  0.1558  0.8308
 9261SOL    HW139419   3.172   1.795  12.879 -1.0212 -1.7399  3.0386
 9261SOL    HW239420   3.053   1.876  12.840 -1.0918  0.3452  3.9902
 9262SOL     OW39421   1.527   0.282  15.678  0.0200 -0.2261 -0.1767
 9262SOL    HW139422   1.479   0.336  15.740 -1.2485 -0.7811 -0.6679
 9262SOL    HW239423   1.573   0.359  15.645  0.7953  0.2383  1.9822
 9263SOL     OW39424   4.363   0.114   5.332  0.0552  0.1505  0.0722
 9263SOL    HW139425   4.314   0.077   5.405  1.4819 -1.8312  0.0226
 9263SOL    HW239426   4.425   0.154   5.392 -2.0857  0.3533  2.1369
 9264SOL     OW39427   4.231   0.029   6.425  0.2914 -0.2658  0.1082
 9264SOL    HW139428   4.216   0.084   6.501 -2.7633  0.6816 -1.1435
 9264SOL    HW239429   4.326   0.020   6.418  0.2686 -0.1826 -0.3514
 9265SOL     OW39430   0.889   4.341  15.292 -0.5771 -0.0848  0.0116
 9265SOL    HW139431   0.931   4.339  15.206 -1.4467 -1.5542 -0.3667
 9265SOL    HW239432   0.962   4.370  15.347 -1.3009 -0.3078  1.0904
 9266SOL     OW39433   2.475   3.290   9.437  0.6744  0.2719  0.2279
 9266SOL    HW139434   2.515   3.206   9.457  0.5960  0.1542 -0.1120
 9266SOL    HW239435   2.383   3.265   9.430  0.2668  1.4144  1.4988
 9267SOL     OW39436   2.639   2.712  13.983  0.2242  0.3453 -0.3776
 9267SOL    HW139437   2.643   2.662  13.902  1.2015 -0.9788  0.4674
 9267SOL    HW239438   2.599   2.643  14.036 -0.8577  1.6003  0.4474
 9268SOL     OW39439   3.638   0.701  14.411 -0.0127  0.4461  0.1096
 9268SOL    HW139440   3.701   0.637  14.378  1.4566  2.4167 -0.9435
 9268SOL    HW239441   3.671   0.728  14.497  0.5594 -1.9265  0.6338
 9269SOL     OW39442   3.120   3.732   3.503 -0.1152  0.8320  0.6815
 9269SOL    HW139443   3.183   3.703   3.438 -0.1451  2.7437 -0.2198
 9269SOL    HW239444   3.178   3.801   3.536 -1.2392  1.6076  1.0478
 9270SOL     OW39445   2.232   3.662   5.958 -0.0265  0.7526 -0.1578
 9270SOL    HW139446   2.138   3.678   5.962 -0.5903 -1.9687 -2.3200
 9270SOL    HW239447   2.255   3.742   5.910 -0.1085 -0.1536 -1.7309
 9271SOL     OW39448   3.516   4.159   7.148  0.2013  0.2516  0.0269
 9271SOL    HW139449   3.481   4.143   7.236  0.6418 -0.2744  0.1155
 9271SOL    HW239450   3.459   4.226   7.113 -2.9713 -1.7550  1.3753
 9272SOL     OW39451   3.716   1.265   8.202  0.0239 -0.0651 -0.5614
 9272SOL    HW139452   3.644   1.313   8.244  0.3733  0.4731 -0.5779
 9272SOL    HW239453   3.713   1.317   8.122 -0.2938  0.4275 -0.2278
 9273SOL     OW39454   3.478   0.718   5.176 -0.4735  0.2624  0.9625
 9273SOL    HW139455   3.480   0.769   5.257 -2.0693 -0.5623  1.5291
 9273SOL    HW239456   3.409   0.653   5.190 -1.6135  0.9745 -1.2488
 9274SOL     OW39457   2.906   1.097   1.026 -0.3521 -0.2973  0.2451
 9274SOL    HW139458   2.841   1.027   1.017 -0.7150 -0.0147  0.6254
 9274SOL    HW239459   2.928   1.107   0.934  0.3592  0.2729  0.4808
 9275SOL     OW39460   0.456   4.164  16.087  0.0552 -0.0840 -0.2371
 9275SOL    HW139461   0.365   4.193  16.101  0.1289 -0.1085  0.2750
 9275SOL    HW239462   0.499   4.247  16.067 -3.2753  1.6602 -0.1587
 9276SOL     OW39463   0.598   2.918   3.189 -0.6948 -0.0035 -0.3040
 9276SOL    HW139464   0.692   2.937   3.181 -0.6192 -0.2322  0.0650
 9276SOL    HW239465   0.558   3.005   3.185  0.4941  0.6061  0.9842
 9277SOL     OW39466   4.727   0.708   5.068 -0.0141 -0.0965 -0.0678
 9277SOL    HW139467   4.666   0.768   5.025 -0.8578 -1.4048 -0.6768
 9277SOL    HW239468   4.671   0.647   5.115 -1.5680  2.0624  0.9016
 9278SOL     OW39469   3.393   4.080   0.286 -0.1592  0.6064  0.0138
 9278SOL    HW139470   3.336   4.152   0.260  0.7415  1.1846 -0.3512
 9278SOL    HW239471   3.397   4.025   0.208 -1.6940  1.2932 -0.5369
 9279SOL     OW39472   3.397   2.605  11.009 -0.3646 -0.5785 -0.0018
 9279SOL    HW139473   3.448   2.642  11.082 -0.1819  0.8281 -0.8460
 9279SOL    HW239474   3.367   2.680  10.957 -0.0464 -1.2572 -1.1580
 9280SOL     OW39475   2.693   1.938  11.507  0.0021  0.0064 -0.0096
 9280SOL    HW139476   2.640   2.014  11.531  0.9929  1.2358 -1.7706
 9280SOL    HW239477   2.769   1.973  11.462  0.6690  0.4499  1.4559
 9281SOL     OW39478   4.497   3.335  16.669 -0.3134  0.6937 -0.1583
 9281SOL    HW139479   4.499   3.304  16.579  1.9470 -3.1426  1.2577
 9281SOL    HW239480   4.473   3.428  16.662  1.3217  1.1685  0.5078
 9282SOL     OW39481   1.392   0.478   2.930  0.2208 -0.2269  0.2544
 9282SOL    HW139482   1.444   0.467   2.850  0.5990 -0.4136  0.5269
 9282SOL    HW239483   1.309   0.435   2.911  0.0822  0.8487 -1.5311
 9283SOL     OW39484   1.703   0.777   6.713 -0.2854 -0.2069 -0.0688
 9283SOL    HW139485   1.717   0.693   6.756  1.4979  0.7504  1.2023
 9283SOL    HW239486   1.705   0.842   6.784 -0.6598  0.7068 -0.8887
 9284SOL     OW39487   0.479   4.577   6.892  0.3056  0.1377 -0.1953
 9284SOL    HW139488   0.549   4.600   6.831  0.8486  1.4055  0.9218
 9284SOL    HW239489   0.441   4.500   6.849  2.0967 -0.4801 -0.6724
 9285SOL     OW39490   1.767   1.559   4.226  0.0084 -0.6435  0.3465
 9285SOL    HW139491   1.735   1.469   4.220 -0.9603 -0.5035  3.1329
 9285SOL    HW239492   1.768   1.565   4.322 -1.6749 -1.0826  0.3873
 9286SOL     OW39493   2.147   4.703  16.722  0.2956  0.2249  0.3768
 9286SOL    HW139494   2.213   4.671  16.784  3.4866  0.3583 -2.9322
 9286SOL    HW239495   2.201   4.722  16.645 -0.5566 -0.1257 -0.3039
 9287SOL     OW39496   1.138   1.175   2.014 -0.0288 -0.4753  0.0290
 9287SOL    HW139497   1.120   1.150   2.104  0.1585  0.4289  0.3128
 9287SOL    HW239498   1.224   1.138   1.993  0.4984  0.3768  0.6941
 9288SOL     OW39499   1.825   4.046   9.409  0.1748 -0.0175  0.0489
 9288SOL    HW139500   1.731   4.055   9.420  0.6131  3.7128  0.8924
 9288SOL    HW239501   1.829   3.990   9.331  1.9436 -0.2961  0.3298
 9289SOL     OW39502   4.562   1.126   7.357  0.2671  0.1692  0.0171
 9289SOL    HW139503   4.620   1.061   7.317  0.5459  0.0690  0.5911
 9289SOL    HW239504   4.628   1.192   7.376  0.2034  0.0415  0.6832
 9290SOL     OW39505   2.794   2.498   8.501  0.2061 -0.2943  0.1582
 9290SOL    HW139506   2.884   2.472   8.518  1.3739  1.6280 -3.1005
 9290SOL    HW239507   2.804   2.528   8.410  0.9418  2.8513  1.2939
 9291SOL     OW39508   1.744   3.107   3.502  0.2068  0.5360 -0.1219
 9291SOL    HW139509   1.773   3.017   3.517  0.6545  1.3490  3.6991
 9291SOL    HW239510   1.678   3.092   3.433 -0.3808 -0.1121  0.5821
 9292SOL     OW39511   4.308   1.230   4.799  0.0870  0.7449  0.0196
 9292SOL    HW139512   4.218   1.223   4.832 -0.5023  2.7253 -1.2114
 9292SOL    HW239513   4.294   1.210   4.707  1.2456  0.5060 -0.1089
 9293SOL     OW39514   4.697   2.747  10.241 -0.3027 -0.0371 -0.6541
 9293SOL    HW139515   4.636   2.818  10.259 -2.0521 -1.5504 -0.5384
 9293SOL    HW239516   0.034   2.764  10.301  0.4516  1.5092 -2.0260
 9294SOL     OW39517   0.189   2.386   4.993 -0.8424 -0.6899 -0.2274
 9294SOL    HW139518   0.127   2.444   5.037  2.2716  1.2747  1.5629
 9294SOL    HW239519   0.145   2.372   4.909 -3.2972 -0.5483  1.0520
 9295SOL     OW39520   2.228   3.837   5.264  0.3670  0.4005 -0.5419
 9295SOL    HW139521   2.298   3.902   5.273 -0.5953  1.2812  0.6502
 9295SOL    HW239522   2.169   3.885   5.205  2.5690  0.2230 -2.8731
 9296SOL     OW39523   2.860   1.732   7.178 -0.4898  0.1353  0.4090
 9296SOL    HW139524   2.775   1.751   7.139 -0.1265  0.4786 -0.2082
 9296SOL    HW239525   2.833   1.697   7.263  0.5058 -0.7271  0.3700
 9297SOL     OW39526   0.020   1.335  14.962 -0.1728  0.5745 -0.4654
 9297SOL    HW139527   0.024   1.428  14.941 -2.4101  0.4057 -1.6468
 9297SOL    HW239528   4.712   1.301  14.884 -0.0011  2.1042 -1.2062
 9298SOL     OW39529   4.682   2.956   1.410  0.5837  0.0254 -0.1750
 9298SOL    HW139530   4.632   2.875   1.418  1.5683 -0.4283  1.3536
 9298SOL    HW239531   4.721   2.947   1.323 -0.4029  2.0411 -0.8135
 9299SOL     OW39532   3.947   1.066   5.100  0.2347 -0.1212 -0.3991
 9299SOL    HW139533   3.884   1.029   5.038 -0.8551  3.1456 -1.2216
 9299SOL    HW239534   3.917   1.022   5.179  1.5794  1.9151  1.2209
 9300SOL     OW39535   2.593   2.307  11.858 -0.0087  0.4462  0.5738
 9300SOL    HW139536   2.569   2.320  11.766 -0.9226 -0.1744  0.7257
 9300SOL    HW239537   2.562   2.391  11.890 -2.5424  0.3032 -1.5222
 9301SOL     OW39538   0.871   1.536   2.545  0.0968 -0.3577  0.2501
 9301SOL    HW139539   0.930   1.610   2.529  0.6206 -0.9054 -0.3262
 9301SOL    HW239540   0.843   1.560   2.634 -0.9321 -0.4548 -0.0482
 9302SOL     OW39541   3.758   0.855   6.496  0.2856  0.2005  0.3323
 9302SOL    HW139542   3.853   0.852   6.498  0.4140  3.2581 -0.2226
 9302SOL    HW239543   3.747   0.920   6.426 -1.5427  1.1300  1.4688
 9303SOL     OW39544   0.779   2.296  10.447 -0.1898 -0.1165  0.1880
 9303SOL    HW139545   0.786   2.281  10.542 -1.7857 -2.0406  0.0091
 9303SOL    HW239546   0.683   2.302  10.447 -0.2373 -0.7612  2.3791
 9304SOL     OW39547   1.766   3.721   7.889 -0.1715  0.0676  0.0198
 9304SOL    HW139548   1.825   3.685   7.955  0.7361  0.3064 -0.6728
 9304SOL    HW239549   1.689   3.669   7.914 -0.5256  0.7736  0.4025
 9305SOL     OW39550   2.605   0.627   3.579  0.2719  0.0110  0.1442
 9305SOL    HW139551   2.647   0.548   3.546  0.4019 -0.5406  1.6348
 9305SOL    HW239552   2.675   0.689   3.560 -0.7624  1.2115  0.2404
 9306SOL     OW39553   0.495   4.477   3.775 -0.4283  0.1923  0.0012
 9306SOL    HW139554   0.470   4.563   3.740  1.1890  0.6391 -0.0457
 9306SOL    HW239555   0.409   4.440   3.796  0.3379 -1.8329 -0.3846
 9307SOL     OW39556   4.400   0.176  17.277  0.5289 -0.0313 -0.3784
 9307SOL    HW139557   4.411   0.124  17.197  1.3581 -1.6665  0.7759
 9307SOL    HW239558   4.446   0.118  17.339 -2.4815 -0.0189  1.8463
 9308SOL     OW39559   2.081   3.360   8.205  0.2052  0.5240 -0.3707
 9308SOL    HW139560   2.171   3.370   8.236  0.2673 -0.8357 -0.1231
 9308SOL    HW239561   2.083   3.297   8.134  1.3601 -0.0138  0.1418
 9309SOL     OW39562   2.459   1.149   0.971  0.2017 -0.3402 -0.0642
 9309SOL    HW139563   2.413   1.128   1.053 -2.9397  3.8277 -0.7839
 9309SOL    HW239564   2.439   1.241   0.953 -1.6994 -0.6705  0.3695
 9310SOL     OW39565   1.503   0.790   8.554 -0.3255  0.3095 -0.1886
 9310SOL    HW139566   1.541   0.782   8.467  0.1129 -1.4666  0.1611
 9310SOL    HW239567   1.500   0.696   8.571  2.0554  0.0188 -1.4291
 9311SOL     OW39568   3.792   4.009  10.224 -0.0777 -0.0922  0.0956
 9311SOL    HW139569   3.726   3.962  10.275 -0.5804  2.1777  1.5088
 9311SOL    HW239570   3.753   4.096  10.229  0.6747  0.3873 -2.2893
 9312SOL     OW39571   2.961   1.402   7.825 -0.1038  0.4151 -0.0616
 9312SOL    HW139572   3.017   1.390   7.902 -0.0143  0.2476 -0.1517
 9312SOL    HW239573   2.931   1.493   7.828  0.3046  0.5378  0.4512
 9313SOL     OW39574   0.417   0.796   1.690 -0.0160 -0.1007  0.3647
 9313SOL    HW139575   0.341   0.854   1.686  0.1619  0.2423  1.9558
 9313SOL    HW239576   0.474   0.865   1.725 -0.1444 -0.4750  1.3151
 9314SOL     OW39577   0.012   3.561   1.997 -0.0442 -0.4621 -0.2891
 9314SOL    HW139578   4.674   3.518   1.952  0.2986 -0.1024 -1.1985
 9314SOL    HW239579   4.707   3.595   2.077 -1.6521  0.0096 -1.2896
 9315SOL     OW39580   3.588   3.827   4.221  0.3624 -0.1997  0.0997
 9315SOL    HW139581   3.551   3.803   4.136  1.8371 -1.0655 -0.2946
 9315SOL    HW239582   3.555   3.750   4.266  1.5339  1.3644  3.6889
 9316SOL     OW39583   1.733   2.803   0.949  0.3809  0.0519  0.6154
 9316SOL    HW139584   1.783   2.795   0.868  1.2873  0.2924  1.1466
 9316SOL    HW239585   1.765   2.725   0.995 -0.7020 -0.6641  0.1433
 9317SOL     OW39586   0.395   4.564   5.980  0.3347 -0.4212 -0.4112
 9317SOL    HW139587   0.347   4.511   5.917 -0.3877 -0.0632 -0.1629
 9317SOL    HW239588   0.320   4.610   6.018  0.7017  0.0094 -0.2106
 9318SOL     OW39589   1.628   3.828  11.285  0.0665 -0.3076  0.7658
 9318SOL    HW139590   1.647   3.890  11.215  1.2870  0.3855  1.7156
 9318SOL    HW239591   1.639   3.740  11.249  2.1490  1.1859 -2.2924
 9319SOL     OW39592   0.802   2.918   8.047  0.4075 -0.6579  0.0413
 9319SOL    HW139593   0.847   2.906   8.131  1.1976  1.9900 -0.0049
 9319SOL    HW239594   0.879   2.929   7.991  0.0916  1.7476  0.0976
 9320SOL     OW39595   2.358   1.164   8.956  1.3514  0.8409 -0.1476
 9320SOL    HW139596   2.309   1.116   9.023 -1.1151  3.9105  0.2451
 9320SOL    HW239597   2.409   1.098   8.911  0.7107 -1.4506  2.4605
 9321SOL     OW39598   1.628   3.753   1.424  0.2581  0.3499 -0.6471
 9321SOL    HW139599   1.646   3.739   1.517 -0.1568  0.1908 -0.5904
 9321SOL    HW239600   1.610   3.668   1.385  2.6071 -0.4989  0.1662
 9322SOL     OW39601   4.518   4.219   9.193 -0.2733  0.4013  0.9971
 9322SOL    HW139602   4.592   4.180   9.146 -1.7015 -0.5398 -0.4617
 9322SOL    HW239603   4.540   4.244   9.283 -2.6874 -3.1074  2.5902
 9323SOL     OW39604   0.939   1.533   9.584 -1.0596 -0.1683 -0.1412
 9323SOL    HW139605   0.966   1.494   9.667  0.1829 -1.6553 -1.2578
 9323SOL    HW239606   0.860   1.488   9.555 -0.5053 -0.1519 -1.6840
 9324SOL     OW39607   1.980   3.039  10.133  0.4911  0.1809 -0.0700
 9324SOL    HW139608   2.032   2.962  10.110 -0.8674 -0.5504 -0.7327
 9324SOL    HW239609   1.895   2.997  10.147  0.3931  0.0565 -0.9876
 9325SOL     OW39610   0.346   1.806   5.065 -0.1583  0.0892 -0.0071
 9325SOL    HW139611   0.435   1.793   5.032 -0.2138 -0.4917  0.0577
 9325SOL    HW239612   0.320   1.874   5.004  1.9133  2.2355  1.5013
 9326SOL     OW39613   0.049   4.448  14.482 -0.2306  0.0747 -0.4559
 9326SOL    HW139614   0.036   4.391  14.558  1.1845  0.5146  0.1208
 9326SOL    HW239615   4.702   4.453  14.434  0.2871 -2.1882 -1.6030
 9327SOL     OW39616   1.629   0.744   9.754  0.2115 -0.2848  0.0131
 9327SOL    HW139617   1.694   0.734   9.824  0.3468 -0.5724 -0.1535
 9327SOL    HW239618   1.674   0.713   9.675 -0.1862 -0.1877 -0.2470
 9328SOL     OW39619   4.491   0.548   7.251 -0.6631  0.4617  0.3654
 9328SOL    HW139620   4.488   0.487   7.177 -1.4925  0.7097  0.1965
 9328SOL    HW239621   4.475   0.501   7.333 -3.3153 -0.6849 -0.8177
 9329SOL     OW39622   2.011   3.080  13.032 -0.8447  0.3705  0.5494
 9329SOL    HW139623   1.942   3.080  13.099 -0.8793  1.5543  0.5087
 9329SOL    HW239624   2.041   3.169  13.050  1.3809 -0.7135  2.1695
 9330SOL     OW39625   4.444   3.354   2.274  0.1570  0.0064 -0.0001
 9330SOL    HW139626   4.504   3.288   2.307 -2.2650 -2.6750 -0.9697
 9330SOL    HW239627   4.494   3.400   2.206 -2.2812 -0.0042 -1.8236
 9331SOL     OW39628   4.234   3.590   7.950  0.4537 -0.5268 -0.4413
 9331SOL    HW139629   4.252   3.502   7.984  1.9754  0.5699  1.5906
 9331SOL    HW239630   4.161   3.589   7.888 -0.0653 -1.2929  0.1816
 9332SOL     OW39631   2.161   3.444   7.773 -0.1585 -0.2437 -0.4813
 9332SOL    HW139632   2.068   3.423   7.776  0.0960 -1.3680 -0.5605
 9332SOL    HW239633   2.157   3.534   7.742 -3.4750 -0.5282 -0.9271
 9333SOL     OW39634   3.926   2.629   8.780 -0.2610  0.5292 -0.1234
 9333SOL    HW139635   3.850   2.631   8.839 -0.1606 -0.5781  0.0505
 9333SOL    HW239636   3.944   2.722   8.769 -1.1468  0.5596 -1.3314
 9334SOL     OW39637   1.459   1.081   7.397  0.0431  0.6275 -0.2174
 9334SOL    HW139638   1.394   1.086   7.327 -0.2812 -1.3140 -0.0759
 9334SOL    HW239639   1.445   0.989   7.422 -1.9645  1.6847  2.5217
 9335SOL     OW39640   1.931   2.789   4.678  0.7202  0.4513  0.3009
 9335SOL    HW139641   1.958   2.875   4.648 -1.5688  1.4185  1.0279
 9335SOL    HW239642   1.850   2.778   4.628  0.5321  2.2431  0.2230
 9336SOL     OW39643   3.155   4.184   1.946 -0.1721 -0.3411 -0.1233
 9336SOL    HW139644   3.168   4.279   1.936 -0.6021 -0.2153  0.5501
 9336SOL    HW239645   3.154   4.171   2.040  0.8232 -1.6366 -0.2905
 9337SOL     OW39646   3.232   3.509  10.011 -0.6977 -0.8431  0.0447
 9337SOL    HW139647   3.163   3.561  10.052 -1.5767 -1.3467 -0.7822
 9337SOL    HW239648   3.192   3.495   9.925  1.5435  0.6967 -1.2401
 9338SOL     OW39649   2.759   4.411   7.623  0.3721 -0.5925  0.3554
 9338SOL    HW139650   2.822   4.479   7.647 -0.0057  0.9133 -2.9163
 9338SOL    HW239651   2.686   4.452   7.670  0.8648 -0.1898  0.7703
 9339SOL     OW39652   1.782   0.983  10.796  0.1151 -0.2761 -0.6441
 9339SOL    HW139653   1.701   0.983  10.846  0.5241 -1.7670  0.0045
 9339SOL    HW239654   1.806   1.076  10.793 -0.3349 -0.1810 -1.3365
 9340SOL     OW39655   2.894   3.575   2.595  0.0198 -0.2259 -0.6305
 9340SOL    HW139656   2.829   3.510   2.569 -1.5425  1.7735 -1.7233
 9340SOL    HW239657   2.844   3.632   2.653 -0.7914  0.1523 -1.6954
 9341SOL     OW39658   2.026   3.093  12.382 -0.1766 -0.5761 -0.2125
 9341SOL    HW139659   2.007   3.133  12.467  1.2654 -2.4838  1.0215
 9341SOL    HW239660   2.062   3.014  12.423  0.7651 -0.1683 -0.2328
 9342SOL     OW39661   1.679   0.957   6.217  0.3772 -0.6000  0.0232
 9342SOL    HW139662   1.724   1.000   6.144 -1.3734  2.2258  0.6165
 9342SOL    HW239663   1.739   0.887   6.242  1.3338 -0.6579 -2.4530
 9343SOL     OW39664   3.398   1.125   2.175 -0.7135  0.0056  0.2534
 9343SOL    HW139665   3.404   1.058   2.108  2.1751 -1.9575  2.4929
 9343SOL    HW239666   3.378   1.205   2.127 -1.5907 -2.2360 -3.1394
 9344SOL     OW39667   3.630   4.203   6.710 -0.2101  0.6458  0.1087
 9344SOL    HW139668   3.646   4.137   6.642 -0.3187  0.3920  0.3263
 9344SOL    HW239669   3.643   4.155   6.792 -2.2610  0.4508  0.3371
 9345SOL     OW39670   0.360   1.989   6.819 -0.6691 -0.0398  0.2754
 9345SOL    HW139671   0.391   1.918   6.763 -1.5896 -0.8448  0.7816
 9345SOL    HW239672   0.269   1.962   6.830 -0.6475 -0.4033 -0.4479
 9346SOL     OW39673   4.179   3.604   9.237 -0.4215  0.5387 -0.4574
 9346SOL    HW139674   4.147   3.676   9.182 -0.8067  1.8514  1.4979
 9346SOL    HW239675   4.165   3.528   9.180 -0.6861  0.1516  0.1239
 9347SOL     OW39676   1.572   3.504   1.326 -0.3486 -0.4897 -0.0288
 9347SOL    HW139677   1.493   3.496   1.273  0.3579 -0.7121 -1.0418
 9347SOL    HW239678   1.564   3.427   1.382  0.2476 -2.9065 -3.2733
 9348SOL     OW39679   0.171   1.688   6.042 -0.0956 -0.0911  0.1157
 9348SOL    HW139680   0.152   1.696   5.949 -0.8972 -1.5540  0.1534
 9348SOL    HW239681   0.107   1.753   6.071 -0.8532 -0.3248 -1.0196
 9349SOL     OW39682   4.572   1.303  15.764 -0.1584  0.4469 -0.0719
 9349SOL    HW139683   4.480   1.282  15.782  0.4515 -1.1049  1.2220
 9349SOL    HW239684   4.562   1.321  15.670 -0.5129  2.2403  0.3034
 9350SOL     OW39685   1.909   2.042   8.086  0.1502 -0.0563 -0.0370
 9350SOL    HW139686   1.994   2.000   8.071 -0.6941 -1.5272 -0.6523
 9350SOL    HW239687   1.890   2.077   7.999  1.0059 -2.1908 -1.0887
 9351SOL     OW39688   0.804   3.849   3.610 -0.1013 -0.0243  0.2996
 9351SOL    HW139689   0.758   3.770   3.639  1.9976 -1.7317 -1.0188
 9351SOL    HW239690   0.730   3.905   3.589 -2.3896 -2.2732  2.3764
 9352SOL     OW39691   2.441   0.966   3.642  0.2848  0.4499  0.4472
 9352SOL    HW139692   2.404   0.878   3.653  2.2156 -0.8095 -3.2621
 9352SOL    HW239693   2.501   0.960   3.716  1.5298  1.4554 -0.4879
 9353SOL     OW39694   0.780   1.574   5.018  0.0792 -0.2455  0.1528
 9353SOL    HW139695   0.710   1.613   4.967  1.8473  0.1906 -1.9643
 9353SOL    HW239696   0.774   1.639   5.088 -3.4987 -0.3598 -0.0830
 9354SOL     OW39697   3.983   1.031   8.738  0.0101 -0.4350 -0.3952
 9354SOL    HW139698   4.066   1.075   8.757 -0.1700 -0.1717 -0.2239
 9354SOL    HW239699   3.927   1.086   8.792  0.3617 -1.1641  0.7146
 9355SOL     OW39700   3.665   1.067   7.918  0.6443  0.5714 -0.7563
 9355SOL    HW139701   3.742   1.107   7.959  0.6803  1.1425 -1.3814
 9355SOL    HW239702   3.635   1.016   7.994 -1.8081 -0.7585 -2.6178
 9356SOL     OW39703   2.457   1.509   4.444  0.1245 -0.0457 -0.4004
 9356SOL    HW139704   2.471   1.447   4.515  1.1437 -1.0178 -1.4513
 9356SOL    HW239705   2.504   1.468   4.372 -1.2411 -0.3280 -1.1336
 9357SOL     OW39706   2.259   0.777   6.561  0.2018  0.4160 -0.2754
 9357SOL    HW139707   2.346   0.785   6.600 -0.1447 -1.1234  0.8204
 9357SOL    HW239708   2.229   0.695   6.599  0.7597  0.4848  0.3140
 9358SOL     OW39709   1.477   2.783   5.243  0.3797  0.1419 -0.0886
 9358SOL    HW139710   1.552   2.784   5.302 -0.5690  0.0445  1.1199
 9358SOL    HW239711   1.417   2.837   5.295 -0.6211  1.3040 -2.4436
 9359SOL     OW39712   4.624   1.339   4.029  0.2847  0.2326 -0.1675
 9359SOL    HW139713   4.676   1.276   3.980  1.1177  0.3023  0.6193
 9359SOL    HW239714   4.671   1.423   4.022  2.0850 -0.5254  2.8471
 9360SOL     OW39715   2.505   3.938  10.817 -0.5843 -0.2505 -0.2667
 9360SOL    HW139716   2.497   3.849  10.853 -1.0387 -0.1287 -0.0558
 9360SOL    HW239717   2.527   3.922  10.725 -0.6173  1.6096 -0.5985
 9361SOL     OW39718   4.702   4.498   4.039  0.1140  0.3550  0.0947
 9361SOL    HW139719   4.689   4.466   3.950  0.5921 -1.7592  0.7900
 9361SOL    HW239720   0.048   4.454   4.065 -0.7329  0.3791  2.7978
 9362SOL     OW39721   2.502   4.368   3.409  0.3293 -0.1972  0.4371
 9362SOL    HW139722   2.554   4.358   3.329  1.8731  0.1878  1.4010
 9362SOL    HW239723   2.423   4.324   3.376 -0.4187  1.4414  0.0310
 9363SOL     OW39724   3.251   4.329   7.439  0.4652  0.5557 -0.4233
 9363SOL    HW139725   3.167   4.371   7.418  0.1851  0.7452  1.1137
 9363SOL    HW239726   3.265   4.377   7.520 -1.1562  0.1496  0.0919
 9364SOL     OW39727   0.473   1.422  10.735 -0.4508 -0.4679  0.3158
 9364SOL    HW139728   0.466   1.504  10.784  0.9588  0.2165 -0.6552
 9364SOL    HW239729   0.502   1.445  10.647  0.7937 -2.1363  0.2951
 9365SOL     OW39730   0.678   3.117   7.015  0.2703  0.5923 -0.0491
 9365SOL    HW139731   0.620   3.048   7.046 -0.5830  0.3019 -2.2959
 9365SOL    HW239732   0.640   3.133   6.929  0.3948 -1.9513 -0.5855
 9366SOL     OW39733   2.311   3.055   6.204 -0.1877 -0.0132  0.4210
 9366SOL    HW139734   2.225   3.024   6.231 -0.6570  0.5916 -0.4169
 9366SOL    HW239735   2.314   3.027   6.112 -2.0332 -0.4650  0.5032
 9367SOL     OW39736   4.205   3.740  17.349 -0.1161 -0.3493 -0.6254
 9367SOL    HW139737   4.270   3.680  17.313  1.2777  1.1033 -0.4900
 9367SOL    HW239738   4.255   3.803  17.400  0.4597 -1.4654  0.1809
 9368SOL     OW39739   3.975   3.306   9.626  0.3423  0.1218  0.1287
 9368SOL    HW139740   4.046   3.307   9.690 -0.0747 -1.0860  0.6014
 9368SOL    HW239741   3.927   3.388   9.643 -0.9720 -0.7672  0.7154
 9369SOL     OW39742   4.460   1.055   8.701 -0.3855 -0.2352  0.4112
 9369SOL    HW139743   4.508   1.016   8.774 -1.2739 -0.5119  0.8605
 9369SOL    HW239744   4.523   1.057   8.630 -0.7538 -1.6808  0.0351
 9370SOL     OW39745   4.537   0.368   6.207  0.0283 -0.6177  0.2381
 9370SOL    HW139746   4.594   0.319   6.267 -1.0367 -1.2902  0.6928
 9370SOL    HW239747   4.515   0.301   6.142  1.7972 -2.2212  1.2738
 9371SOL     OW39748   4.050   0.944   3.295 -0.1506 -0.1233 -0.6395
 9371SOL    HW139749   4.043   0.947   3.390  0.4340  0.6299 -0.6122
 9371SOL    HW239750   3.987   0.879   3.266 -0.4049 -0.8736  1.6513
 9372SOL     OW39751   1.575   2.150   5.326  0.1602  0.0305 -0.2035
 9372SOL    HW139752   1.530   2.234   5.311 -0.4604 -0.4707 -1.1724
 9372SOL    HW239753   1.665   2.179   5.342 -0.1295 -0.2478  1.8716
 9373SOL     OW39754   3.887   0.877   3.844  0.0706  0.0106  0.0384
 9373SOL    HW139755   3.794   0.858   3.860 -0.2551  1.7532  0.2606
 9373SOL    HW239756   3.911   0.884   3.937 -1.0623 -2.4612  0.5212
 9374SOL     OW39757   2.619   1.477   2.670  0.5585  0.4036  0.4802
 9374SOL    HW139758   2.559   1.473   2.595  2.5534 -0.0118 -1.0872
 9374SOL    HW239759   2.695   1.430   2.634 -2.0517 -1.8018 -2.1938
 9375SOL     OW39760   1.478   3.819   8.312  0.2323  0.6096 -0.1720
 9375SOL    HW139761   1.522   3.739   8.285 -2.3029 -0.7916 -0.1065
 9375SOL    HW239762   1.446   3.807   8.402 -3.3983 -1.1870 -1.7220
 9376SOL     OW39763   1.239   1.828   3.740  0.4264 -0.1472 -0.6589
 9376SOL    HW139764   1.156   1.815   3.694  0.7234  0.6140 -1.4254
 9376SOL    HW239765   1.269   1.741   3.762 -1.1803 -0.6019 -0.2345
 9377SOL     OW39766   1.656   2.365   8.845  0.1879  0.4403 -0.1351
 9377SOL    HW139767   1.560   2.365   8.840  0.1135 -0.0527  1.3643
 9377SOL    HW239768   1.678   2.440   8.789 -0.0985  1.7581  1.5007
 9378SOL     OW39769   2.016   0.651   4.452 -0.5723 -0.6456  0.1384
 9378SOL    HW139770   1.954   0.648   4.380 -0.9805  0.1274  0.4651
 9378SOL    HW239771   2.010   0.556   4.463  2.3067 -0.9879 -1.0715
 9379SOL     OW39772   1.636   0.392   2.248  0.1862  0.0847  0.4571
 9379SOL    HW139773   1.561   0.387   2.307 -0.9436  0.3863 -0.9453
 9379SOL    HW239774   1.632   0.315   2.192  3.3272  0.5272 -0.3541
 9380SOL     OW39775   2.782   0.978   2.472  0.5853  0.0297  0.5415
 9380SOL    HW139776   2.857   1.035   2.454  0.0127  1.2735  2.2032
 9380SOL    HW239777   2.747   1.000   2.558 -0.7022  0.6541 -0.1493
 9381SOL     OW39778   4.697   4.114   3.216 -0.2823 -0.1827 -0.1990
 9381SOL    HW139779   4.713   4.168   3.139 -0.2108 -0.6450 -0.5080
 9381SOL    HW239780   4.662   4.031   3.184 -1.1757  0.4763 -0.9118
 9382SOL     OW39781   0.137   0.924   1.796  0.4301 -0.4005 -0.2338
 9382SOL    HW139782   0.111   1.008   1.832 -0.9847 -0.0342 -2.1426
 9382SOL    HW239783   0.173   0.883   1.875 -1.0419 -1.6235 -0.2033
 9383SOL     OW39784   0.791   1.921   8.668  0.2073 -0.0443  0.0995
 9383SOL    HW139785   0.809   1.969   8.749  1.5611 -0.9638  0.3374
 9383SOL    HW239786   0.856   1.852   8.652  1.0625  0.9900 -0.9254
 9384SOL     OW39787   2.851   1.670   7.880 -0.2587  0.1411 -0.3379
 9384SOL    HW139788   2.789   1.725   7.831  1.6786  1.6929 -1.0601
 9384SOL    HW239789   2.787   1.624   7.934 -0.5856  3.2035  1.9290
 9385SOL     OW39790   1.134   1.934   2.918  0.7556 -0.3954 -0.1235
 9385SOL    HW139791   1.203   1.954   2.856  0.4062  0.0181 -0.3797
 9385SOL    HW239792   1.132   1.838   2.917  2.1334 -0.4147 -0.6287
 9386SOL     OW39793   1.914   2.480  15.060  1.2538 -0.5222  0.2381
 9386SOL    HW139794   1.984   2.527  15.106  2.0964  1.0843 -2.6595
 9386SOL    HW239795   1.946   2.390  15.066 -0.5996 -1.1672  0.1676
 9387SOL     OW39796   3.731   1.677   7.945 -0.2295 -0.2138 -0.2691
 9387SOL    HW139797   3.809   1.693   7.999 -0.1618 -0.2950 -0.3419
 9387SOL    HW239798   3.705   1.766   7.922 -1.4469 -0.6358 -0.5379
 9388SOL     OW39799   1.041   3.739   6.183 -0.6612 -0.0175 -0.5780
 9388SOL    HW139800   1.003   3.820   6.215 -1.6794 -1.3174  1.5153
 9388SOL    HW239801   1.126   3.728   6.228 -0.7263  2.3088  0.0898
 9389SOL     OW39802   4.245   0.272  15.998  0.5768 -0.1935  0.3128
 9389SOL    HW139803   4.256   0.364  16.019 -1.6618 -0.5239  2.9441
 9389SOL    HW239804   4.319   0.256  15.939 -0.0007  0.1676 -0.5138
 9390SOL     OW39805   0.251   3.507   6.625 -0.3892 -0.3821  0.3470
 9390SOL    HW139806   0.221   3.538   6.539  2.7986 -3.4408 -1.8350
 9390SOL    HW239807   0.296   3.586   6.654  1.4470 -0.9411 -1.0029
 9391SOL     OW39808   2.916   1.806   4.808  0.1012 -0.2351 -0.5129
 9391SOL    HW139809   2.900   1.851   4.725 -1.1237 -2.8483 -1.7138
 9391SOL    HW239810   2.860   1.729   4.796  2.4680 -1.9903 -0.4727
 9392SOL     OW39811   4.449   0.971   7.056 -0.1592  0.5599 -0.2156
 9392SOL    HW139812   4.540   0.993   7.035  0.3792  0.2763  1.7982
 9392SOL    HW239813   4.478   0.923   7.134 -1.0499 -0.3818 -0.4743
 9393SOL     OW39814   4.354   0.025  10.102 -0.3199 -0.0109  0.4076
 9393SOL    HW139815   4.437   0.059  10.136 -0.5940 -0.5729  1.6688
 9393SOL    HW239816   4.355   4.670  10.134  0.0880  0.4002  1.5871
 9394SOL     OW39817   0.672   3.424  17.117 -0.2690 -0.1905 -0.4329
 9394SOL    HW139818   0.687   3.332  17.139 -1.1749 -0.0297  0.8822
 9394SOL    HW239819   0.760   3.451  17.092 -0.1596 -0.2184 -0.0724
 9395SOL     OW39820   0.471   1.084   0.756 -1.0418 -0.5181  0.1365
 9395SOL    HW139821   0.420   1.085   0.836  1.1005  1.0131  1.4883
 9395SOL    HW239822   0.542   1.023   0.775 -2.5144 -1.3446  2.8542
 9396SOL     OW39823   0.360   2.763   9.967 -0.0635  0.6420 -0.1772
 9396SOL    HW139824   0.440   2.738   9.920 -0.6673 -0.4397 -0.6385
 9396SOL    HW239825   0.304   2.695   9.930  0.1429 -0.6092  1.8199
 9397SOL     OW39826   1.583   0.754   1.026 -0.3872  0.5342 -1.1358
 9397SOL    HW139827   1.656   0.815   1.022  0.1911 -0.0424  0.9191
 9397SOL    HW239828   1.615   0.672   1.063 -1.4452  1.1900  1.2398
 9398SOL     OW39829   3.943   2.375   7.674  0.2580  0.0884  0.1656
 9398SOL    HW139830   3.931   2.427   7.595  1.6939 -0.2699 -0.2925
 9398SOL    HW239831   3.972   2.294   7.631  0.6190  1.1453 -1.5939
 9399SOL     OW39832   1.549   1.405  11.537  0.1259 -0.4816  0.0210
 9399SOL    HW139833   1.593   1.337  11.587  1.7671  1.5418  1.3203
 9399SOL    HW239834   1.484   1.436  11.599  0.6658  0.3281  0.1825
 9400SOL     OW39835   0.778   2.869   8.758 -0.3803  0.0199  0.2790
 9400SOL    HW139836   0.748   2.868   8.668  1.5648  1.7510 -0.3944
 9400SOL    HW239837   0.866   2.905   8.745 -0.6714 -0.4059 -2.7049
 9401SOL     OW39838   4.648   3.427   5.665  0.2179 -0.5502 -0.1352
 9401SOL    HW139839   4.603   3.483   5.601  0.8404 -0.3964 -0.4409
 9401SOL    HW239840   4.592   3.427   5.742 -0.3735  0.2127 -0.5677
 9402SOL     OW39841   3.921   2.793   5.404 -0.1059  0.1559  0.4512
 9402SOL    HW139842   3.945   2.715   5.354  0.4230  0.9535 -0.5452
 9402SOL    HW239843   3.984   2.783   5.475 -0.1198  1.6573  0.6716
 9403SOL     OW39844   0.675   3.417   5.777  0.1361 -0.3901 -0.1428
 9403SOL    HW139845   0.733   3.488   5.751 -1.7033  1.0200 -0.3753
 9403SOL    HW239846   0.704   3.403   5.867 -2.9051 -1.5318  0.6657
 9404SOL     OW39847   0.452   4.655  15.482 -0.0763 -0.2006  0.3447
 9404SOL    HW139848   0.383   4.588  15.478  0.3283 -0.5159 -1.3824
 9404SOL    HW239849   0.405   4.727  15.440 -1.4589 -1.2386  0.1141
 9405SOL     OW39850   3.417   0.871  14.794 -0.0644 -0.1464  0.3481
 9405SOL    HW139851   3.407   0.967  14.794 -0.7486 -0.2207 -0.1033
 9405SOL    HW239852   3.496   0.862  14.742 -1.0410  1.4329 -1.4196
 9406SOL     OW39853   1.773   1.485   8.431  0.1697 -0.1780 -0.1671
 9406SOL    HW139854   1.828   1.454   8.502 -0.2718 -0.1840  0.1693
 9406SOL    HW239855   1.738   1.571   8.456  1.4175  0.0644  0.7227
 9407SOL     OW39856   3.171   2.788   4.853  0.0030  0.6541  0.2122
 9407SOL    HW139857   3.161   2.781   4.948  0.2818 -0.9280  0.1187
 9407SOL    HW239858   3.207   2.876   4.848 -0.9588  0.9380 -2.0056
 9408SOL     OW39859   0.303   0.541   7.691  0.4722 -0.0647 -0.2125
 9408SOL    HW139860   0.240   0.469   7.693 -0.4235  0.7178 -0.1300
 9408SOL    HW239861   0.246   0.614   7.665  1.4730  1.0711  0.7888
 9409SOL     OW39862   0.335   3.343   7.251 -0.1973 -0.3478  0.6755
 9409SOL    HW139863   0.386   3.424   7.259  0.3386 -0.7078  0.8836
 9409SOL    HW239864   0.269   3.371   7.314  0.0083  0.1716  0.6629
 9410SOL     OW39865   0.564   1.500   2.733  0.1286  0.4629  0.6045
 9410SOL    HW139866   0.615   1.580   2.720 -0.2313  0.4508 -0.8843
 9410SOL    HW239867   0.625   1.441   2.689 -1.4767 -0.9217  0.2243
 9411SOL     OW39868   2.140   0.524   7.536 -0.1014  0.1489 -0.0985
 9411SOL    HW139869   2.083   0.498   7.608  1.3456  1.4822  1.5357
 9411SOL    HW239870   2.196   0.447   7.540 -2.1380 -1.2482  1.3678
 9412SOL     OW39871   3.297   0.199   7.928 -0.1897 -0.2446  0.0808
 9412SOL    HW139872   3.347   0.281   7.925 -0.0544 -0.3242  0.1237
 9412SOL    HW239873   3.308   0.167   8.018  0.3763 -1.2319 -0.3482
 9413SOL     OW39874   4.152   0.782   8.238 -0.2945  0.1688 -0.1858
 9413SOL    HW139875   4.111   0.824   8.314 -2.1405 -0.4660 -0.8368
 9413SOL    HW239876   4.240   0.767   8.275  0.5873  2.4381 -1.3940
 9414SOL     OW39877   1.156   0.745   5.481 -0.1845  0.0390  0.4771
 9414SOL    HW139878   1.183   0.735   5.572 -1.7245  3.0223  1.2598
 9414SOL    HW239879   1.162   0.655   5.448 -1.0921 -0.1725  0.8924
 9415SOL     OW39880   1.021   4.394   4.435 -0.0874  0.5669  0.4214
 9415SOL    HW139881   1.013   4.459   4.506 -1.1399  1.9647 -0.9873
 9415SOL    HW239882   0.999   4.455   4.365 -3.5331 -0.5142  0.5806
 9416SOL     OW39883   0.735   3.098   2.306 -0.5300 -0.0511 -0.2741
 9416SOL    HW139884   0.748   3.073   2.215  0.2445  3.0199 -1.0206
 9416SOL    HW239885   0.743   3.013   2.349 -1.2835  1.2724  2.4672
 9417SOL     OW39886   0.145   3.277   4.585 -0.1793  0.1935 -0.3558
 9417SOL    HW139887   0.234   3.312   4.589 -0.9148  2.2395 -2.1271
 9417SOL    HW239888   0.114   3.284   4.675 -0.1867 -2.1113 -0.1805
 9418SOL     OW39889   1.110   0.149   5.791  0.0574 -0.0722 -0.7262
 9418SOL    HW139890   1.049   0.090   5.835 -1.4552  0.8763 -1.5436
 9418SOL    HW239891   1.141   0.195   5.870  1.5875 -0.8969 -0.8574
 9419SOL     OW39892   4.142   2.368   1.212  0.3762  0.5193 -0.2144
 9419SOL    HW139893   4.187   2.426   1.273  1.0353 -1.3017  1.0308
 9419SOL    HW239894   4.051   2.378   1.239  0.7581  1.6665  0.6209
 9420SOL     OW39895   3.309   2.442   4.452  0.3977  0.3244 -0.0231
 9420SOL    HW139896   3.267   2.487   4.524  0.8664 -1.5683  1.4321
 9420SOL    HW239897   3.280   2.351   4.467 -0.5458  0.4505 -1.0591
 9421SOL     OW39898   0.520   4.243   9.864 -0.0484 -0.4030 -0.1491
 9421SOL    HW139899   0.467   4.274   9.936  0.0603  0.6542 -0.5188
 9421SOL    HW239900   0.534   4.151   9.885 -0.0255 -0.1583  0.8864
 9422SOL     OW39901   4.344   1.478   4.136 -0.2350  0.1514  0.9065
 9422SOL    HW139902   4.407   1.445   4.071 -0.8264  1.1193 -0.1666
 9422SOL    HW239903   4.333   1.411   4.203 -0.0077 -0.1973  0.5969
 9423SOL     OW39904   1.135   3.561   7.652 -0.3137 -0.0548  0.0229
 9423SOL    HW139905   1.212   3.608   7.686  1.5722 -1.3918 -2.4340
 9423SOL    HW239906   1.093   3.622   7.592  0.0247  0.1225 -0.0389
 9424SOL     OW39907   2.629   3.355   7.392  0.5073  0.0583  0.0605
 9424SOL    HW139908   2.599   3.326   7.478 -1.2210  1.6423 -0.0173
 9424SOL    HW239909   2.687   3.281   7.373  2.2576  1.9375 -1.8707
 9425SOL     OW39910   0.693   1.238   1.095  0.6253 -0.3768  0.1311
 9425SOL    HW139911   0.745   1.188   1.032 -0.5794 -1.4401 -0.0006
 9425SOL    HW239912   0.753   1.292   1.148 -0.4961  0.5943  0.4001
 9426SOL     OW39913   2.383   2.705   3.640 -0.2348  0.1703 -0.8550
 9426SOL    HW139914   2.339   2.788   3.658  1.4469  1.0041 -0.6544
 9426SOL    HW239915   2.468   2.730   3.606  0.2154  0.7977  0.7788
 9427SOL     OW39916   3.403   0.503   6.188 -0.3269  0.0116 -0.0629
 9427SOL    HW139917   3.453   0.584   6.198 -3.4942  1.7191  2.0587
 9427SOL    HW239918   3.313   0.532   6.202 -0.9096 -0.9309 -1.8713
 9428SOL     OW39919   1.500   1.458  14.550  0.2808  0.1179  0.3618
 9428SOL    HW139920   1.485   1.416  14.635 -0.7288  0.7257  0.4856
 9428SOL    HW239921   1.525   1.544  14.583 -0.0291  0.3252  0.0587
 9429SOL     OW39922   4.399   0.254   3.873 -0.3387 -0.3631  0.0114
 9429SOL    HW139923   4.334   0.316   3.840 -1.4679 -2.1905 -1.1900
 9429SOL    HW239924   4.453   0.235   3.796  0.2209  4.2896 -0.6907
 9430SOL     OW39925   1.683   4.100   8.205  1.3804  0.0264 -0.3575
 9430SOL    HW139926   1.653   4.018   8.245 -1.0959  0.5341 -1.1434
 9430SOL    HW239927   1.755   4.066   8.153  0.2971 -0.8625 -1.2871
 9431SOL     OW39928   0.717   2.886   6.141  0.3302 -0.4511  0.2520
 9431SOL    HW139929   0.657   2.816   6.166 -0.2358 -0.1462 -0.2522
 9431SOL    HW239930   0.719   2.928   6.227  0.4625  1.8825 -0.8929
 9432SOL     OW39931   3.950   3.913   0.115  0.4439 -0.4918 -0.4620
 9432SOL    HW139932   3.883   3.939   0.179  1.0751  0.8478 -0.3411
 9432SOL    HW239933   3.930   3.820   0.108 -0.1296 -0.2755 -1.7696
 9433SOL     OW39934   3.604   0.095   5.445  0.1037  0.0012 -0.1550
 9433SOL    HW139935   3.556   0.024   5.488 -0.9216  1.1130  0.5322
 9433SOL    HW239936   3.693   0.067   5.463  0.0037 -0.5780 -0.5493
 9434SOL     OW39937   4.677   1.523   5.266 -0.0599 -0.0339  0.4849
 9434SOL    HW139938   4.732   1.447   5.283 -0.1565  0.1552  1.6633
 9434SOL    HW239939   4.679   1.564   5.353 -2.1139 -1.0809  1.0006
 9435SOL     OW39940   2.349   3.877   6.747 -1.0245  0.3644  0.0513
 9435SOL    HW139941   2.319   3.787   6.758 -1.8557  0.9307  2.3737
 9435SOL    HW239942   2.323   3.891   6.656  1.2972  2.1235 -0.3345
 9436SOL     OW39943   1.047   4.585  16.024 -0.2652  0.2697 -0.1074
 9436SOL    HW139944   1.140   4.575  16.042 -0.3331  3.0970  1.7447
 9436SOL    HW239945   1.020   4.509  16.075 -0.3079 -0.7664 -1.6437
 9437SOL     OW39946   2.085   0.890  13.155 -0.2131  0.1495  0.5573
 9437SOL    HW139947   2.032   0.903  13.233 -0.4546 -0.7329  0.5349
 9437SOL    HW239948   2.169   0.878  13.199  0.9674 -1.1484 -2.0341
 9438SOL     OW39949   4.607   3.423   6.001  0.5541  0.0268  0.2163
 9438SOL    HW139950   4.646   3.346   5.960  1.1523  1.1068 -1.2586
 9438SOL    HW239951   4.606   3.408   6.095 -0.2029 -0.2497  0.1614
 9439SOL     OW39952   3.875   1.625   7.570 -0.3843  0.2610  0.2414
 9439SOL    HW139953   3.864   1.683   7.495  0.9099 -1.6622 -1.4594
 9439SOL    HW239954   3.786   1.618   7.604 -0.3242 -2.1179 -0.0673
 9440SOL     OW39955   3.572   0.736   4.926 -0.0581  0.3800  0.2230
 9440SOL    HW139956   3.496   0.790   4.906 -0.6757 -1.0263 -1.1416
 9440SOL    HW239957   3.570   0.719   5.020  1.0279  0.1727  0.2120
 9441SOL     OW39958   3.273   0.864   5.878  0.8823 -0.0044 -0.7833
 9441SOL    HW139959   3.185   0.829   5.894  1.2028 -0.0586  0.8530
 9441SOL    HW239960   3.303   0.882   5.967 -0.7845  0.5365 -0.3139
 9442SOL     OW39961   3.998   1.211   9.097  0.5468 -0.0841  0.7515
 9442SOL    HW139962   4.068   1.226   9.161  0.1445 -0.7033  1.3407
 9442SOL    HW239963   3.962   1.130   9.133 -1.2207 -1.6937 -4.6339
 9443SOL     OW39964   3.323   1.347   2.650  0.6110 -0.0117 -0.2828
 9443SOL    HW139965   3.237   1.383   2.629 -0.9566 -2.6173  1.7420
 9443SOL    HW239966   3.297   1.270   2.701  2.1705  0.2758  0.9421
 9444SOL     OW39967   3.210   2.940   9.411 -0.3975 -0.5039 -0.3579
 9444SOL    HW139968   3.167   2.911   9.330 -2.2223  2.7088 -0.5513
 9444SOL    HW239969   3.219   3.031   9.382 -2.4858 -0.6031 -1.2887
 9445SOL     OW39970   0.437   2.042  14.008  0.7835  0.0552 -0.3821
 9445SOL    HW139971   0.425   2.129  13.970 -0.2769 -0.9106 -2.2647
 9445SOL    HW239972   0.352   2.003  13.989 -1.3201  5.4308 -2.1760
 9446SOL     OW39973   0.368   2.571  14.285 -0.0433 -0.0543 -0.1750
 9446SOL    HW139974   0.391   2.483  14.316 -1.4611 -1.1655 -2.3045
 9446SOL    HW239975   0.424   2.586  14.209  0.8821  1.6174  0.8198
 9447SOL     OW39976   0.141   1.603   1.753  0.4567  0.0753 -0.4528
 9447SOL    HW139977   0.193   1.683   1.746  0.1859  0.2109 -0.9385
 9447SOL    HW239978   0.073   1.618   1.819 -1.6518 -1.8930 -2.1623
 9448SOL     OW39979   0.948   3.501   8.155  0.3052  0.0126 -0.4370
 9448SOL    HW139980   0.888   3.428   8.139 -0.7819  0.5930  0.9456
 9448SOL    HW239981   1.032   3.463   8.180  0.0319 -0.7664 -0.7208
 9449SOL     OW39982   2.462   0.904   1.879 -0.4908 -0.3106 -0.3938
 9449SOL    HW139983   2.547   0.930   1.914 -0.9092 -1.7665  1.6802
 9449SOL    HW239984   2.446   0.974   1.815 -2.1454 -0.2835  0.0342
 9450SOL     OW39985   0.268   1.803   8.384  0.0394 -0.3532 -0.0987
 9450SOL    HW139986   0.242   1.759   8.465  1.8028 -0.8608  0.1906
 9450SOL    HW239987   0.363   1.792   8.381  0.0672  0.1033 -1.0159
 9451SOL     OW39988   3.811   1.160   1.979  0.5857  0.4767 -0.1750
 9451SOL    HW139989   3.755   1.126   2.049  2.2525  1.5986  1.6784
 9451SOL    HW239990   3.860   1.081   1.955  0.6436  0.5907 -0.4306
 9452SOL     OW39991   4.400   0.095  16.189  0.0356  0.3244 -0.1880
 9452SOL    HW139992   4.362   0.164  16.133 -2.8134 -0.1528  1.1237
 9452SOL    HW239993   4.382   0.015  16.140 -0.9045  1.2832 -1.4326
 9453SOL     OW39994   3.893   2.540   5.675  0.0549  0.2721 -0.5612
 9453SOL    HW139995   3.824   2.525   5.610 -1.1042  0.7481  0.5811
 9453SOL    HW239996   3.899   2.450   5.709  0.3019  0.6068  0.2699
 9454SOL     OW39997   0.912   2.574   5.390 -0.7598 -0.0244 -0.5859
 9454SOL    HW139998   0.878   2.658   5.421  0.5710 -0.1306  1.2184
 9454SOL    HW239999   0.902   2.586   5.296 -0.6251  1.2756 -0.4419
 9455SOL     OW40000   4.436   3.096   7.208 -0.0970 -0.1613  0.5568
 9455SOL    HW140001   4.525   3.085   7.174 -1.0320 -0.2403 -1.8189
 9455SOL    HW240002   4.396   3.009   7.204 -3.1462  1.1810  2.0734
 9456SOL     OW40003   4.225   3.399   5.854  0.3091 -0.4731 -0.5451
 9456SOL    HW140004   4.156   3.448   5.898  0.0486  0.2612 -1.8001
 9456SOL    HW240005   4.203   3.417   5.763 -2.2091 -0.3190  0.1023
 9457SOL     OW40006   1.535   4.440  14.657 -0.3320 -0.0911  0.2722
 9457SOL    HW140007   1.546   4.528  14.620 -0.1360 -1.4822 -2.9417
 9457SOL    HW240008   1.623   4.417  14.687 -0.9308 -1.4606  0.9740
 9458SOL     OW40009   3.828   1.322   4.720  0.1319  0.8888 -0.1210
 9458SOL    HW140010   3.792   1.260   4.656  2.0792 -2.1195  1.6610
 9458SOL    HW240011   3.901   1.364   4.674 -0.1664  2.1171  0.5313
 9459SOL     OW40012   0.863   2.494  14.826 -0.0058  0.0644  0.1600
 9459SOL    HW140013   0.897   2.477  14.914  2.4395 -1.9938 -1.1789
 9459SOL    HW240014   0.799   2.423  14.836 -0.5826  0.9241  2.7426
 9460SOL     OW40015   3.662   1.966   4.392 -0.2983 -0.3919 -0.0475
 9460SOL    HW140016   3.674   1.966   4.487 -1.4045 -1.9655  0.0899
 9460SOL    HW240017   3.647   2.058   4.369  0.6170 -0.0682  0.6365
 9461SOL     OW40018   2.433   2.161   0.816  0.5002  0.2660 -0.5740
 9461SOL    HW140019   2.505   2.203   0.770  0.2272  0.0079 -1.2382
 9461SOL    HW240020   2.449   2.165   0.911  0.7495 -1.6031 -0.5337
 9462SOL     OW40021   3.071   3.194   9.228 -0.9739 -0.3413  0.3530
 9462SOL    HW140022   2.997   3.196   9.168 -0.0500  1.2753 -0.7326
 9462SOL    HW240023   3.137   3.206   9.159 -0.1543  1.1360  1.3968
 9463SOL     OW40024   2.430   0.392   2.585  0.4486  0.1650 -0.4593
 9463SOL    HW140025   2.485   0.470   2.573  1.5738 -0.7875 -1.5020
 9463SOL    HW240026   2.343   0.420   2.558  0.6787  1.0308 -0.3087
 9464SOL     OW40027   3.777   2.600   6.175 -0.2934 -0.0926  0.6131
 9464SOL    HW140028   3.694   2.620   6.132 -0.0014 -0.5413 -0.1463
 9464SOL    HW240029   3.738   2.549   6.246  0.3619 -1.4406  0.0093
 9465SOL     OW40030   3.129   3.651   2.490  0.1194  0.1607 -0.5945
 9465SOL    HW140031   3.051   3.633   2.543 -0.0994  0.0129 -0.9676
 9465SOL    HW240032   3.132   3.742   2.520 -0.9236 -0.2369  0.7173
 9466SOL     OW40033   2.702   4.031   6.793  0.1951  0.6931  0.3315
 9466SOL    HW140034   2.651   4.005   6.869 -1.6365  1.9953 -0.4778
 9466SOL    HW240035   2.638   4.068   6.733 -1.3338 -1.9329  0.3616
 9467SOL     OW40036   1.158   1.449   5.901  0.2043  0.1143  0.3921
 9467SOL    HW140037   1.164   1.359   5.933 -3.1388 -0.2032  0.1497
 9467SOL    HW240038   1.145   1.440   5.807  0.2798 -0.4739  0.4408
 9468SOL     OW40039   0.900   3.940   6.286  0.1719  0.3216 -0.1326
 9468SOL    HW140040   0.819   3.931   6.336  0.7093  0.8972  0.8477
 9468SOL    HW240041   0.951   3.977   6.358 -0.4939 -0.9793  1.0107
 9469SOL     OW40042   4.049   1.616   1.588  0.4661 -0.3325  0.6304
 9469SOL    HW140043   4.018   1.576   1.507  0.3458  0.0302  0.4960
 9469SOL    HW240044   4.056   1.546   1.653 -0.4725  0.5384  1.6650
 9470SOL     OW40045   1.408   3.737   2.467  0.2727  0.0519  0.3098
 9470SOL    HW140046   1.462   3.812   2.492  1.5557  0.1677 -2.8310
 9470SOL    HW240047   1.476   3.673   2.446 -0.4759 -0.9379  0.9401
 9471SOL     OW40048   2.161   2.698  12.238 -0.6260  0.1530  0.2412
 9471SOL    HW140049   2.077   2.723  12.199  0.4322  1.7007 -0.9957
 9471SOL    HW240050   2.208   2.780  12.249 -0.3817  0.1670 -0.9521
 9472SOL     OW40051   3.220   1.299   9.246  0.1738 -0.2192  0.6559
 9472SOL    HW140052   3.279   1.256   9.183  0.4674 -0.7100  1.2689
 9472SOL    HW240053   3.276   1.356   9.300  2.0704 -1.0402 -0.4418
 9473SOL     OW40054   1.351   0.316  13.174  0.7405  0.0963 -0.2588
 9473SOL    HW140055   1.364   0.400  13.129 -3.2890  0.8961  0.1018
 9473SOL    HW240056   1.394   0.322  13.259 -0.0308 -0.3577  0.1646
 9474SOL     OW40057   1.539   2.628   7.852  0.0791 -0.1911 -0.3028
 9474SOL    HW140058   1.605   2.591   7.910 -0.7849 -1.5710 -0.1929
 9474SOL    HW240059   1.585   2.619   7.768  0.0389 -0.9063 -0.2485
 9475SOL     OW40060   3.555   0.958  14.290 -0.2305 -0.0285  0.2652
 9475SOL    HW140061   3.582   0.887  14.347  0.1817 -0.0779  0.0072
 9475SOL    HW240062   3.490   0.917  14.232 -1.4589 -2.0476  3.0982
 9476SOL     OW40063   2.141   0.120   5.576  0.0176  0.2256  0.0669
 9476SOL    HW140064   2.183   0.066   5.509  0.5932 -0.7990  1.2680
 9476SOL    HW240065   2.215   0.164   5.617  0.3475  0.3015 -0.6019
 9477SOL     OW40066   0.566   2.468  14.100 -1.1576 -0.4574  0.1632
 9477SOL    HW140067   0.603   2.401  14.158 -1.1245 -1.4060 -0.9572
 9477SOL    HW240068   0.574   2.430  14.013 -0.3545  0.3809 -0.1244
 9478SOL     OW40069   0.404   0.662   9.739 -0.0185  0.0474  0.4189
 9478SOL    HW140070   0.412   0.681   9.833 -0.4068  1.0765  0.2390
 9478SOL    HW240071   0.380   0.749   9.709 -1.2531 -0.0930  1.0229
 9479SOL     OW40072   3.761   4.469   0.437  0.1150 -0.2920  0.0237
 9479SOL    HW140073   3.766   4.507   0.525 -0.6229  3.5550 -1.5963
 9479SOL    HW240074   3.761   4.378   0.466 -0.5021 -0.3599 -0.1934
 9480SOL     OW40075   2.300   1.894   1.440  0.7110  0.3143  0.3671
 9480SOL    HW140076   2.317   1.974   1.391  0.0633 -1.0370 -2.0659
 9480SOL    HW240077   2.342   1.826   1.387  0.1837  1.2712 -1.2928
 9481SOL     OW40078   4.181   2.548   3.511  0.0444  0.4814 -0.1551
 9481SOL    HW140079   4.200   2.463   3.471  0.8957  0.3908  0.4663
 9481SOL    HW240080   4.086   2.551   3.503 -0.0058 -0.0147  0.2490
 9482SOL     OW40081   3.926   0.241   8.016 -0.2186 -0.0292 -0.2307
 9482SOL    HW140082   3.870   0.318   8.003 -1.3806 -0.4414  2.2303
 9482SOL    HW240083   4.014   0.266   7.989 -0.4362 -1.5235 -2.3550
 9483SOL     OW40084   2.859   2.312   1.852  0.1688 -0.4536 -0.1475
 9483SOL    HW140085   2.921   2.362   1.798  0.9693 -1.5221 -0.2223
 9483SOL    HW240086   2.828   2.386   1.906 -1.6577 -2.0214  0.9437
 9484SOL     OW40087   3.508   0.182  16.740 -0.1178  0.1413 -0.1716
 9484SOL    HW140088   3.534   0.162  16.829  1.5878 -2.7304 -1.3077
 9484SOL    HW240089   3.599   0.188  16.712  0.5076 -0.7837  1.6698
 9485SOL     OW40090   1.215   4.288   2.029  0.1159  0.1635  0.1591
 9485SOL    HW140091   1.300   4.331   2.028 -0.2492  0.9175  1.8475
 9485SOL    HW240092   1.234   4.199   1.998  0.5572 -0.5998  2.6625
 9486SOL     OW40093   2.237   4.712   5.360 -0.2109 -0.0152  0.5056
 9486SOL    HW140094   2.212   4.622   5.342 -2.9034  0.8429 -0.0691
 9486SOL    HW240095   2.330   4.695   5.343  0.0245 -0.6092  2.4329
 9487SOL     OW40096   2.712   4.114   4.763 -0.1520  0.0562  0.0780
 9487SOL    HW140097   2.772   4.177   4.723 -0.7853  1.8915  2.0424
 9487SOL    HW240098   2.737   4.034   4.716 -0.2154 -0.4479  0.8830
 9488SOL     OW40099   2.043   0.321   6.570 -0.4452  0.0452 -0.2751
 9488SOL    HW140100   1.953   0.349   6.587 -0.0325  1.0233  0.2715
 9488SOL    HW240101   2.073   0.390   6.512  3.1052 -0.3373  1.1029
 9489SOL     OW40102   3.682   2.969   1.847  0.3988  0.2245 -0.6045
 9489SOL    HW140103   3.740   2.991   1.919  1.1445 -1.1903 -0.7759
 9489SOL    HW240104   3.729   2.899   1.802  2.1401  0.6946  0.4889
 9490SOL     OW40105   3.174   0.788  15.624 -0.5314  0.4146  0.0287
 9490SOL    HW140106   3.113   0.740  15.569 -1.1565  1.2736 -0.0312
 9490SOL    HW240107   3.240   0.816  15.561  0.8000 -1.2478  0.6684
 9491SOL     OW40108   0.712   2.778   1.626 -0.2903 -0.0882  0.0393
 9491SOL    HW140109   0.781   2.712   1.620  1.0990  1.4768 -1.0514
 9491SOL    HW240110   0.702   2.796   1.720 -0.4452 -1.3766  0.2813
 9492SOL     OW40111   2.100   3.312   8.933  0.1325  0.4741  0.3724
 9492SOL    HW140112   2.184   3.343   8.966  1.2993 -0.0396 -2.1549
 9492SOL    HW240113   2.124   3.248   8.866 -1.8635  0.9093 -0.7600
 9493SOL     OW40114   1.100   3.286   7.690  0.0117  0.1105  0.3810
 9493SOL    HW140115   1.148   3.329   7.619 -1.9399  1.1234 -0.3510
 9493SOL    HW240116   1.082   3.364   7.742  0.6706  0.9096 -0.5970
 9494SOL     OW40117   0.561   3.910   6.045  0.5706 -0.3825 -0.1475
 9494SOL    HW140118   0.590   3.873   5.961 -1.0137  1.2851 -1.4361
 9494SOL    HW240119   0.545   4.001   6.021  1.7843 -0.3905 -1.0444
 9495SOL     OW40120   1.578   4.703   4.382 -0.5130 -0.7318  0.3869
 9495SOL    HW140121   1.545   4.709   4.292  3.3664 -0.4729 -1.0664
 9495SOL    HW240122   1.545   4.621   4.419  0.4248 -2.4340 -2.4799
 9496SOL     OW40123   2.832   1.077   5.284  0.1007 -0.2433  0.2325
 9496SOL    HW140124   2.789   1.127   5.353 -1.5396  0.4383 -1.2886
 9496SOL    HW240125   2.787   0.993   5.282  1.2202 -0.7894 -1.9108
 9497SOL     OW40126   0.938   4.617   6.208  0.0521  0.4043 -0.4954
 9497SOL    HW140127   0.855   4.639   6.249 -0.1523  0.2388 -0.8217
 9497SOL    HW240128   0.910   4.556   6.140  1.1689 -1.2919  0.5730
 9498SOL     OW40129   3.147   4.491   4.940 -0.5873  0.5858  0.2183
 9498SOL    HW140130   3.097   4.572   4.938  0.1365  0.9873 -1.2231
 9498SOL    HW240131   3.142   4.477   5.035 -0.0607  2.8315  0.5811
 9499SOL     OW40132   1.117   0.701   6.541 -0.4354 -0.1584  0.2165
 9499SOL    HW140133   1.068   0.703   6.459  0.6550 -2.0509 -0.4990
 9499SOL    HW240134   1.048   0.750   6.585  0.0515  0.2020  0.5738
 9500SOL     OW40135   2.894   2.059   3.969 -0.0653 -0.9272  0.3181
 9500SOL    HW140136   2.937   2.122   4.026 -1.4079  1.1502 -0.9752
 9500SOL    HW240137   2.960   1.989   3.967 -0.3242 -1.1299 -1.0472
 9501SOL     OW40138   2.154   4.107   6.505 -0.4271  0.9196 -0.3442
 9501SOL    HW140139   2.129   4.082   6.594 -1.3314 -0.9586 -1.1048
 9501SOL    HW240140   2.239   4.062   6.494 -1.3638 -0.9480  0.0054
 9502SOL     OW40141   2.611   1.261   9.586  0.1395 -0.4314  0.5631
 9502SOL    HW140142   2.636   1.231   9.673  0.9441 -0.0183  0.4706
 9502SOL    HW240143   2.698   1.293   9.564  0.3086 -0.3542  1.3341
 9503SOL     OW40144   4.622   4.083   8.181 -0.1162  0.1017 -0.2838
 9503SOL    HW140145   4.696   4.035   8.219 -0.8386 -0.5716  0.2561
 9503SOL    HW240146   4.631   4.164   8.230  0.6227 -1.4500  2.1287
 9504SOL     OW40147   3.073   1.517   2.560  0.9468  0.1807  0.3496
 9504SOL    HW140148   3.022   1.453   2.609 -0.7351  1.4347  0.2709
 9504SOL    HW240149   3.015   1.590   2.535  1.0570  0.4641  0.9112
 9505SOL     OW40150   0.048   3.703   0.340 -0.3523  0.2072  0.6850
 9505SOL    HW140151   0.140   3.681   0.325 -0.4681 -0.4393  0.8983
 9505SOL    HW240152   0.006   3.634   0.289 -0.4354  1.4091 -0.8818
 9506SOL     OW40153   2.928   4.135   2.698 -0.2246 -0.1228  0.0326
 9506SOL    HW140154   2.837   4.109   2.712 -0.1168 -0.4831  0.0548
 9506SOL    HW240155   2.965   4.147   2.786 -0.2271  2.2415 -0.2834
 9507SOL     OW40156   0.019   0.668  12.286 -0.0427 -0.4322  0.3627
 9507SOL    HW140157   0.075   0.688  12.362 -0.2693  1.0978  0.1248
 9507SOL    HW240158   0.006   0.756  12.253 -0.7727 -0.5850  0.2444
 9508SOL     OW40159   2.324   3.226   9.691  0.2983  0.1330 -0.1771
 9508SOL    HW140160   2.311   3.271   9.774 -1.1286  0.7330 -0.7280
 9508SOL    HW240161   2.364   3.141   9.707 -0.1641 -0.1860 -0.7108
 9509SOL     OW40162   3.874   0.271   6.466 -0.0394 -0.0641  0.1724
 9509SOL    HW140163   3.911   0.323   6.538 -0.6622 -0.6322  0.9012
 9509SOL    HW240164   3.879   0.187   6.512  0.7030  0.2513  0.6589
 9510SOL     OW40165   0.814   0.315   7.915 -0.3316  0.2084  0.2207
 9510SOL    HW140166   0.782   0.229   7.887 -0.6387  0.2959  0.3063
 9510SOL    HW240167   0.749   0.383   7.900  0.5745  0.6905 -1.5303
 9511SOL     OW40168   4.417   2.571   8.758  0.1547  0.4428 -0.3058
 9511SOL    HW140169   4.512   2.568   8.761  0.0288 -2.0591  0.8032
 9511SOL    HW240170   4.400   2.477   8.764  3.1478 -0.0269  0.8347
 9512SOL     OW40171   4.586   0.492   2.822  0.3583  0.4047 -0.2324
 9512SOL    HW140172   4.590   0.397   2.838  0.8543  0.3675 -0.5871
 9512SOL    HW240173   4.600   0.529   2.909 -0.2138 -0.6903  0.3248
 9513SOL     OW40174   2.756   2.152   6.388 -0.1238 -0.1834  0.6114
 9513SOL    HW140175   2.765   2.099   6.310  1.3865  0.6844  0.1924
 9513SOL    HW240176   2.846   2.172   6.414 -0.0914  0.4050  0.0324
 9514SOL     OW40177   3.143   4.300  14.899  0.0999  0.2845  0.2164
 9514SOL    HW140178   3.088   4.352  14.958 -2.3094  0.1406 -1.8993
 9514SOL    HW240179   3.228   4.316  14.940 -1.1438  0.7499  2.6311
 9515SOL     OW40180   4.406   4.605   7.748  0.0118  0.2363  0.1549
 9515SOL    HW140181   4.312   4.618   7.758 -0.0931  0.9132 -1.6855
 9515SOL    HW240182   4.427   4.595   7.841 -0.3139  0.4056  0.2479
 9516SOL     OW40183   1.949   1.801   4.918 -0.0769 -0.1448 -0.1707
 9516SOL    HW140184   1.894   1.807   4.996  1.6689 -0.1366  1.0693
 9516SOL    HW240185   1.898   1.732   4.875 -0.5771 -2.2998  3.7989
 9517SOL     OW40186   3.731   4.242  10.898 -0.0215  0.2693  0.3526
 9517SOL    HW140187   3.637   4.235  10.878  0.0118 -1.7112  0.8284
 9517SOL    HW240188   3.729   4.206  10.987 -2.9843  1.2258  0.6672
 9518SOL     OW40189   3.748   3.773   7.836 -0.3552  0.5535 -0.0065
 9518SOL    HW140190   3.820   3.830   7.863  0.4224 -1.7056  2.6300
 9518SOL    HW240191   3.788   3.720   7.767  0.5970  0.5046  0.5875
 9519SOL     OW40192   2.338   3.365   9.925  0.2543 -0.2169  0.2491
 9519SOL    HW140193   2.304   3.444   9.882 -1.0757 -0.9389 -0.0484
 9519SOL    HW240194   2.256   3.331   9.961 -0.2317 -2.6725 -3.1336
 9520SOL     OW40195   1.409   3.804   2.001 -0.2604  0.0354  1.0758
 9520SOL    HW140196   1.332   3.824   2.053 -0.3632  1.0239  0.5295
 9520SOL    HW240197   1.479   3.851   2.047  0.3398 -0.0037  0.1893
 9521SOL     OW40198   1.106   2.159   0.830 -0.0513 -0.2747  0.0582
 9521SOL    HW140199   1.139   2.069   0.833 -0.7402 -0.6033 -2.1758
 9521SOL    HW240200   1.118   2.190   0.920  0.5982  2.2162 -0.8876
 9522SOL     OW40201   2.982   0.739   7.454  0.1036 -0.0580 -0.0167
 9522SOL    HW140202   3.009   0.830   7.443 -1.4863  0.1458 -2.1958
 9522SOL    HW240203   2.896   0.740   7.412  0.1844 -1.2066 -0.2095
 9523SOL     OW40204   2.269   0.324  12.690 -0.4605  0.0896 -0.4447
 9523SOL    HW140205   2.339   0.268  12.655  0.2961 -0.2148  1.5407
 9523SOL    HW240206   2.330   0.394  12.713  1.0933 -1.1928 -0.6410
 9524SOL     OW40207   1.252   4.119   3.324  0.2765 -0.2545  0.3833
 9524SOL    HW140208   1.300   4.052   3.276  0.6104  0.2703 -0.0152
 9524SOL    HW240209   1.241   4.075   3.408  1.2238  1.7684  1.5663
 9525SOL     OW40210   3.211   3.644   6.477 -0.8055 -0.6855  0.4461
 9525SOL    HW140211   3.280   3.602   6.529  2.4779  2.4964 -1.3556
 9525SOL    HW240212   3.131   3.595   6.500 -0.6260 -2.2829 -2.2805
 9526SOL     OW40213   2.741   1.755   5.919  0.2896  0.1366  0.1410
 9526SOL    HW140214   2.775   1.831   5.872  1.6423  0.8146  2.2005
 9526SOL    HW240215   2.708   1.797   5.999 -0.0347  1.1304 -0.5101
 9527SOL     OW40216   3.760   0.934   7.057  0.3107  0.1240 -0.0501
 9527SOL    HW140217   3.756   0.940   7.152  1.6088 -1.3753  0.0912
 9527SOL    HW240218   3.780   0.841   7.053  2.0807  0.6196 -3.2392
 9528SOL     OW40219   0.067   0.552  10.567 -0.3919  0.8571 -0.1937
 9528SOL    HW140220   0.128   0.535  10.495  0.2291  1.0972  0.2783
 9528SOL    HW240221   0.042   0.471  10.610 -0.9450  1.7913  1.2614
 9529SOL     OW40222   3.049   4.261  17.522 -0.0284 -0.5676  0.2122
 9529SOL    HW140223   3.129   4.312  17.518  1.0809 -2.2950  0.0424
 9529SOL    HW240224   3.033   4.246  17.615  2.1208  0.3352  0.7083
 9530SOL     OW40225   3.041   0.396   9.065  0.4008  0.0109 -0.2574
 9530SOL    HW140226   3.131   0.410   9.036  0.7616 -1.6243  0.1062
 9530SOL    HW240227   3.040   0.429   9.155 -2.5916 -0.9896  0.0483
 9531SOL     OW40228   2.333   0.373  10.923  0.4942  0.2358 -0.5182
 9531SOL    HW140229   2.346   0.335  11.010  0.3329  1.8238  0.2050
 9531SOL    HW240230   2.296   0.298  10.876  0.8270 -0.5647  0.4959
 9532SOL     OW40231   2.079   2.016   6.727 -0.8729  0.7811  0.1782
 9532SOL    HW140232   2.061   2.093   6.673 -0.4562  0.5841 -0.2440
 9532SOL    HW240233   2.155   1.981   6.681 -0.6880  1.1824  0.1832
 9533SOL     OW40234   1.362   4.084   6.994 -0.5163 -0.3350  0.0834
 9533SOL    HW140235   1.438   4.101   7.049 -1.1592  1.3356  0.4256
 9533SOL    HW240236   1.338   4.173   6.971  0.8767  0.1970  0.6885
 9534SOL     OW40237   0.113   4.635   3.199  0.2204  0.0235  0.2904
 9534SOL    HW140238   0.186   4.587   3.238 -0.0946 -0.3344  0.4356
 9534SOL    HW240239   0.137   4.721   3.235  1.4088 -0.4876  0.7145
 9535SOL     OW40240   2.642   0.132   1.402 -0.4762  0.1582  0.6193
 9535SOL    HW140241   2.591   0.203   1.439 -0.4279  0.1363  0.7274
 9535SOL    HW240242   2.623   0.078   1.478  0.7092  2.9324  2.8854
 9536SOL     OW40243   3.228   1.938   6.041 -0.0938  0.0273 -0.1363
 9536SOL    HW140244   3.216   2.008   5.977  3.2329 -0.2951 -1.1331
 9536SOL    HW240245   3.150   1.948   6.095 -1.2635 -0.2121 -1.7753
 9537SOL     OW40246   3.555   3.000   4.434 -0.1437 -0.2241  0.8135
 9537SOL    HW140247   3.480   2.964   4.482  0.5661 -1.8505  0.6933
 9537SOL    HW240248   3.618   2.996   4.506  0.5530  0.8015  0.2531
 9538SOL     OW40249   0.598   0.489   7.925 -0.3737 -0.4513  0.6391
 9538SOL    HW140250   0.520   0.439   7.950 -0.6680 -0.1216  0.3871
 9538SOL    HW240251   0.586   0.571   7.972 -0.0159 -0.3776  0.6023
 9539SOL     OW40252   1.694   4.652   3.393  0.0378  0.5152 -0.1824
 9539SOL    HW140253   1.739   4.571   3.417  0.1061  0.7792  0.6021
 9539SOL    HW240254   1.619   4.655   3.453 -0.5114 -0.0857 -0.8443
 9540SOL     OW40255   1.606   3.546   8.357 -0.2831 -0.1944  0.4072
 9540SOL    HW140256   1.655   3.569   8.436  1.6736 -0.3183 -0.7713
 9540SOL    HW240257   1.674   3.485   8.328  0.1687  0.1232  0.7948
 9541SOL     OW40258   1.489   0.422   3.432 -0.4463 -0.1010 -0.0688
 9541SOL    HW140259   1.579   0.407   3.403 -0.8789 -0.1108 -1.4038
 9541SOL    HW240260   1.493   0.515   3.456  0.2423 -0.8714  2.7942
 9542SOL     OW40261   0.715   0.912   8.303 -0.1534 -0.3205  0.0633
 9542SOL    HW140262   0.809   0.896   8.302 -0.1791 -0.3593 -1.9017
 9542SOL    HW240263   0.709   0.983   8.238 -0.9804  0.4979  1.0267
 9543SOL     OW40264   0.361   1.128   2.323 -0.0355 -0.0859  0.3250
 9543SOL    HW140265   0.389   1.095   2.237 -1.6383  0.4020 -0.3849
 9543SOL    HW240266   0.436   1.173   2.364 -0.0375 -0.2984  0.5574
 9544SOL     OW40267   2.483   1.100   0.702  0.2724  0.5053 -0.0452
 9544SOL    HW140268   2.436   1.018   0.717  3.2169 -1.3442 -1.0026
 9544SOL    HW240269   2.479   1.131   0.793 -2.5400 -1.6237  0.5656
 9545SOL     OW40270   2.042   3.604   1.063  0.2390  0.1485  0.1925
 9545SOL    HW140271   2.020   3.529   1.008  1.0755 -0.2625  0.4170
 9545SOL    HW240272   2.015   3.578   1.151  1.9716 -1.4391  0.2497
 9546SOL     OW40273   3.599   2.625   9.066 -0.0209 -0.6390  0.4131
 9546SOL    HW140274   3.674   2.567   9.056 -0.1766 -1.4180  3.7608
 9546SOL    HW240275   3.646   2.705   9.086  0.6952 -1.0163  0.2722
 9547SOL     OW40276   0.989   1.977   2.510  0.1324 -0.1788 -0.1469
 9547SOL    HW140277   0.906   1.963   2.556 -0.0235  1.9475  0.2010
 9547SOL    HW240278   0.964   1.923   2.434 -1.0514 -0.2319  0.2673
 9548SOL     OW40279   2.642   4.285   9.155  0.1677 -0.4615  0.2719
 9548SOL    HW140280   2.719   4.248   9.113  1.0789  0.9562  0.6877
 9548SOL    HW240281   2.606   4.335   9.081 -0.0567  1.1027  1.4381
 9549SOL     OW40282   0.476   4.135  17.098 -0.0214 -0.0782 -0.2365
 9549SOL    HW140283   0.431   4.057  17.063 -1.2154  1.0724 -1.2411
 9549SOL    HW240284   0.476   4.115  17.192  0.7029  2.2434  0.2522
 9550SOL     OW40285   0.329   2.063  10.699 -0.3715 -0.1923  0.0942
 9550SOL    HW140286   0.372   2.049  10.614 -2.0429 -0.3814 -0.7215
 9550SOL    HW240287   0.379   2.016  10.765  0.2281 -1.8040 -1.4915
 9551SOL     OW40288   2.536   4.106  12.775 -0.2345 -0.7247 -0.2112
 9551SOL    HW140289   2.529   4.034  12.713 -1.8135  0.0751 -0.9859
 9551SOL    HW240290   2.630   4.121  12.782 -0.3968  0.7458 -1.0168
 9552SOL     OW40291   3.049   2.916   7.672  0.0871  0.4014  0.0625
 9552SOL    HW140292   2.977   2.875   7.720  0.9799  0.9344  1.8475
 9552SOL    HW240293   3.014   2.916   7.583 -2.2674  0.4428  0.9694
 9553SOL     OW40294   0.817   4.191   4.821 -0.3367  0.0724 -0.4291
 9553SOL    HW140295   0.809   4.105   4.862 -1.7971  1.5759  2.4295
 9553SOL    HW240296   0.731   4.232   4.824 -0.7496 -0.8291 -0.0746
 9554SOL     OW40297   1.629   3.388   4.872  0.2488 -0.3853 -0.2521
 9554SOL    HW140298   1.570   3.313   4.871 -0.2341 -0.0444  3.0278
 9554SOL    HW240299   1.713   3.354   4.840  1.2514 -0.2457  2.2323
 9555SOL     OW40300   2.243   0.390  14.440  0.2100  0.0414 -0.0207
 9555SOL    HW140301   2.312   0.327  14.460  0.4037  0.1598 -0.3261
 9555SOL    HW240302   2.169   0.337  14.470 -0.4233 -0.1672 -1.9160
 9556SOL     OW40303   2.375   4.302   6.073  0.3371  0.2200 -0.2568
 9556SOL    HW140304   2.373   4.397   6.060  1.2549  0.1627 -0.8949
 9556SOL    HW240305   2.450   4.275   6.019 -0.1271 -0.9384 -0.3112
 9557SOL     OW40306   1.952   0.077   2.289 -0.2135 -0.6830  0.0572
 9557SOL    HW140307   1.932   4.724   2.319  0.0522  0.4217  3.5274
 9557SOL    HW240308   2.047   0.068   2.287 -0.3102 -1.1624 -2.0076
 9558SOL     OW40309   3.555   2.345   3.558 -0.0325 -0.0103  0.1204
 9558SOL    HW140310   3.563   2.294   3.639 -2.2950 -3.0845 -1.5906
 9558SOL    HW240311   3.460   2.337   3.562 -0.3020  4.0697  1.2369
 9559SOL     OW40312   1.807   3.339  17.482  0.2955 -0.2634 -0.2946
 9559SOL    HW140313   1.730   3.345  17.425  0.5118 -0.8792 -0.6601
 9559SOL    HW240314   1.790   3.408  17.546 -1.6015 -0.3825 -0.6571
 9560SOL     OW40315   3.491   4.641   4.240 -0.0084  0.1609  0.2206
 9560SOL    HW140316   3.491   4.613   4.332  1.7162  1.5411  0.6448
 9560SOL    HW240317   3.546   4.720   4.240 -0.2370  0.3169  0.7430
 9561SOL     OW40318   3.586   0.162   6.449 -0.0390  0.3097 -0.5080
 9561SOL    HW140319   3.682   0.158   6.448 -0.0167  0.0426  1.9573
 9561SOL    HW240320   3.570   0.205   6.365 -1.2244 -0.4519 -0.6762
 9562SOL     OW40321   3.229   3.192   2.769 -0.6825  0.1554 -0.9016
 9562SOL    HW140322   3.297   3.188   2.837 -0.6845 -0.3312 -0.9239
 9562SOL    HW240323   3.212   3.286   2.777 -0.7369 -0.0355  1.3767
 9563SOL     OW40324   2.344   4.579   6.063 -0.4935 -0.1278 -0.2261
 9563SOL    HW140325   2.361   4.608   5.973  4.1416  0.7967  0.9394
 9563SOL    HW240326   2.376   4.651   6.117 -1.0745 -0.4483  0.5406
 9564SOL     OW40327   1.615   4.302   3.093  0.1492  0.5139  0.5994
 9564SOL    HW140328   1.530   4.299   3.048  1.2817  1.2261 -1.6070
 9564SOL    HW240329   1.593   4.361   3.164 -1.8372 -0.9060  1.1771
 9565SOL     OW40330   1.880   1.969   3.394  0.4495  0.3874 -0.7081
 9565SOL    HW140331   1.865   1.980   3.488 -0.9784 -0.7072 -0.8067
 9565SOL    HW240332   1.965   1.926   3.391  0.9845  1.4990 -1.6157
 9566SOL     OW40333   2.222   3.398  14.314 -1.4329  0.0121 -0.3052
 9566SOL    HW140334   2.256   3.425  14.399  0.0933 -0.8651 -0.6399
 9566SOL    HW240335   2.264   3.446  14.242  1.2223 -2.6116 -0.4719
 9567SOL     OW40336   2.287   2.548   2.879  0.1245  0.1350  0.0340
 9567SOL    HW140337   2.200   2.517   2.903  0.2717 -0.3505 -0.0662
 9567SOL    HW240338   2.291   2.615   2.948  1.1498  0.8620 -0.7168
 9568SOL     OW40339   3.102   0.518   8.330  0.0526 -0.6066 -0.4615
 9568SOL    HW140340   3.144   0.601   8.352 -0.9145 -0.5656  1.2775
 9568SOL    HW240341   3.024   0.530   8.385  1.1257 -1.8354  1.3239
 9569SOL     OW40342   4.088   3.935   4.027  0.3142  0.0392  0.2943
 9569SOL    HW140343   4.164   3.970   4.074  0.2954  0.8843 -0.2792
 9569SOL    HW240344   4.022   3.942   4.095  0.4192 -0.2141  0.4207
   4.73542   4.73542  17.74043
